  -16.0000000       0.00000000    
  -15.9899998       0.00000000    
  -15.9799995       0.00000000    
  -15.9700003       0.00000000    
  -15.9600000       0.00000000    
  -15.9499998       0.00000000    
  -15.9399996       0.00000000    
  -15.9300003       0.00000000    
  -15.9200001       0.00000000    
  -15.9099998       0.00000000    
  -15.8999996       0.00000000    
  -15.8900003       0.00000000    
  -15.8800001       0.00000000    
  -15.8699999       5.60519386E-45
  -15.8599997       1.31722056E-43
  -15.8500004       1.69977504E-42
  -15.8400002       1.55782350E-41
  -15.8299999       1.11024877E-40
  -15.8199997       6.48976351E-40
  -15.8100004       3.21403077E-39
  -15.8000002       1.37825593E-38
  -15.7900000       5.19713182E-38
  -15.7799997       1.74279232E-37
  -15.7700005       5.23996436E-37
  -15.7600002       1.42039818E-36
  -15.7500000       3.48107506E-36
  -15.7399998       7.70935314E-36
  -15.7299995       1.53448576E-35
  -15.7200003       2.70591424E-35
  -15.7100000       4.08372735E-35
  -15.6999998       4.78169434E-35
  -15.6899996       2.58622045E-35
  -15.6800003      -6.76720044E-35
  -15.6700001      -2.99104836E-34
  -15.6599998      -7.47531801E-34
  -15.6499996      -1.46479159E-33
  -15.6400003      -2.39072739E-33
  -15.6300001      -3.21994057E-33
  -15.6199999      -3.24886067E-33
  -15.6099997      -1.28857920E-33
  -15.6000004       4.20266708E-33
  -15.5900002       1.45694767E-32
  -15.5799999       2.98327565E-32
  -15.5699997       4.70095649E-32
  -15.5600004       5.82498005E-32
  -15.5500002       4.96268089E-32
  -15.5400000       1.89681332E-33
  -15.5299997      -1.05075912E-31
  -15.5200005      -2.82297837E-31
  -15.5100002      -5.14141622E-31
  -15.5000000      -7.32484008E-31
  -15.4899998      -7.85592890E-31
  -15.4799995      -4.15325570E-31
  -15.4700003       7.23756809E-31
  -15.4600000       2.94309442E-30
  -15.4499998       6.22121677E-30
  -15.4399996       9.68843798E-30
  -15.4300003       1.10007772E-29
  -15.4200001       5.99656118E-30
  -15.4099998      -1.05956217E-29
  -15.3999996      -4.23990227E-29
  -15.3900003      -8.59415603E-29
  -15.3800001      -1.23356619E-28
  -15.3699999      -1.16898230E-28
  -15.3599997      -1.24444663E-29
  -15.3500004       2.38821909E-28
  -15.3400002       6.34522513E-28
  -15.3299999       1.05715999E-27
  -15.3199997       1.22069658E-27
  -15.3100004       6.82689106E-28
  -15.3000002      -1.00860865E-27
  -15.2900000      -3.98597395E-27
  -15.2799997      -7.59288020E-27
  -15.2700005      -9.96126250E-27
  -15.2600002      -8.00206173E-27
  -15.2500000       1.73347754E-27
  -15.2399998       2.10055617E-26
  -15.2299995       4.68507974E-26
  -15.2200003       6.86625826E-26
  -15.2100000       6.75256183E-26
  -15.1999998       2.05234259E-26
  -15.1899996      -8.79766278E-26
  -15.1800003      -2.48808948E-25
  -15.1700001      -4.09862643E-25
  -15.1599998      -4.68556754E-25
  -15.1499996      -2.89677761E-25
  -15.1400003       2.39565199E-25
  -15.1300001       1.11842204E-24
  -15.1199999       2.13026503E-24
  -15.1099997       2.78248557E-24
  -15.1000004       2.36200279E-24
  -15.0900002       1.71555664E-25
  -15.0799999      -4.04256189E-24
  -15.0699997      -9.56609337E-24
  -15.0600004      -1.43247106E-23
  -15.0500002      -1.49596884E-23
  -15.0400000      -7.70172711E-24
  -15.0299997       9.82616424E-24
  -15.0200005       3.61727782E-23
  -15.0100002       6.38679459E-23
  -15.0000000       7.88796029E-23
  -14.9899998       6.32534548E-23
  -14.9799995       1.85420217E-24
  -14.9700003      -1.07433250E-22
  -14.9600000      -2.43004601E-22
  -14.9499998      -3.53662904E-22
  -14.9399996      -3.64065997E-22
  -14.9300003      -1.96539823E-22
  -14.9200001       1.90756677E-22
  -14.9099998       7.57767618E-22
  -14.8999996       1.34669346E-21
  -14.8900003       1.68122652E-21
  -14.8800001       1.42426678E-21
  -14.8699999       3.03420643E-22
  -14.8599997      -1.71404384E-21
  -14.8500004      -4.25085815E-21
  -14.8400002      -6.43940720E-21
  -14.8299999      -7.02563511E-21
  -14.8199997      -4.72033565E-21
  -14.8100004       1.21885326E-21
  -14.8000002       1.03100995E-20
  -14.7900000       2.03337910E-20
  -14.7799997       2.73156655E-20
  -14.7700005       2.63007827E-20
  -14.7600002       1.30166232E-20
  -14.7500000      -1.38253190E-20
  -14.7399998      -5.02662472E-20
  -14.7299995      -8.59039603E-20
  -14.7200003      -1.04872717E-19
  -14.7100000      -8.97388019E-20
  -14.6999998      -2.81633834E-20
  -14.6899996       7.90967679E-20
  -14.6800003       2.11592193E-19
  -14.6700001       3.27520199E-19
  -14.6599998       3.70205200E-19
  -14.6499996       2.84070624E-19
  -14.6400003       3.81278176E-20
  -14.6300001      -3.49084384E-19
  -14.6199999      -7.92680874E-19
  -14.6099997      -1.14348859E-18
  -14.6000004      -1.21704417E-18
  -14.5900002      -8.50376256E-19
  -14.5799999       2.34075990E-20
  -14.5699997       1.30434047E-18
  -14.5600004       2.68833285E-18
  -14.5500002       3.69293461E-18
  -14.5400000       3.76366806E-18
  -14.5299997       2.45452302E-18
  -14.5200005      -3.55268257E-19
  -14.5100002      -4.27589552E-18
  -14.5000000      -8.33668356E-18
  -14.4899998      -1.11047302E-17
  -14.4799995      -1.10245540E-17
  -14.4700003      -6.94050194E-18
  -14.4600000       1.31966772E-18
  -14.4499998       1.24913165E-17
  -14.4399996       2.37658205E-17
  -14.4300003       3.12004851E-17
  -14.4200001       3.06908922E-17
  -14.4099998       1.93638035E-17
  -14.3999996      -2.95394282E-18
  -14.3900003      -3.26854099E-17
  -14.3800001      -6.23919241E-17
  -14.3699999      -8.19673320E-17
  -14.3599997      -8.11714717E-17
  -14.3500004      -5.30791046E-17
  -14.3400002       2.43927539E-18
  -14.3299999       7.63882370E-17
  -14.3199997       1.50638801E-16
  -14.3100004       2.00987101E-16
  -14.3000002       2.03218173E-16
  -14.2900000       1.41075759E-16
  -14.2799997       1.40652931E-17
  -14.2700005      -1.57546580E-16
  -14.2600002      -3.33016218E-16
  -14.2500000      -4.58141116E-16
  -14.2399998      -4.78659748E-16
  -14.2299995      -3.57491579E-16
  -14.2200003      -9.13272313E-17
  -14.2100000       2.78930861E-16
  -14.1999998       6.68862108E-16
  -14.1899996       9.65079694E-16
  -14.1800003       1.05264638E-15
  -14.1700001       8.50031126E-16
  -14.1599998       3.42575143E-16
  -14.1499996      -3.96300590E-16
  -14.1400003      -1.20566998E-15
  -14.1300001      -1.86445737E-15
  -14.1199999      -2.14343784E-15
  -14.1099997      -1.87167642E-15
  -14.1000004      -1.00050769E-15
  -14.0900002       3.54797670E-16
  -14.0799999       1.91300231E-15
  -14.0699997       3.27350557E-15
  -14.0600004       4.00780203E-15
  -14.0500002       3.77781311E-15
  -14.0400000       2.45156725E-15
  -14.0299997       1.81735988E-16
  -14.0200005      -2.58301914E-15
  -14.0100002      -5.16976310E-15
  -14.0000000      -6.83048766E-15
  -13.9899998      -6.93961388E-15
  -13.9799995      -5.19148187E-15
  -13.9700003      -1.74125696E-15
  -13.9600000       2.76046703E-15
  -13.9499998       7.26667278E-15
  -13.9399996       1.05599911E-14
  -13.9300003       1.15620455E-14
  -13.9200001       9.65184218E-15
  -13.9099998       4.90531815E-15
  -13.8999996      -1.82256249E-15
  -13.8900003      -9.01881719E-15
  -13.8800001      -1.48316790E-14
  -13.8699999      -1.75271293E-14
  -13.8599997      -1.59752650E-14
  -13.8500004      -1.00364460E-14
  -13.8400002      -7.27968226E-16
  -13.8299999       9.90267320E-15
  -13.8199997       1.92002718E-14
  -13.8100004       2.45416040E-14
  -13.8000002       2.40446091E-14
  -13.7900000       1.71626883E-14
  -13.7799997       4.98919897E-15
  -13.7700005      -9.84420167E-15
  -13.7600002      -2.36949217E-14
  -13.7500000      -3.27689637E-14
  -13.7399998      -3.41188903E-14
  -13.7299995      -2.65273270E-14
  -13.7200003      -1.10263912E-14
  -13.7100000       9.12655724E-15
  -13.6999998       2.90700047E-14
  -13.6899996       4.34555786E-14
  -13.6800003       4.78176797E-14
  -13.6700001       3.98585109E-14
  -13.6599998       2.02978639E-14
  -13.6499996      -6.98415553E-15
  -13.6400003      -3.56250978E-14
  -13.6300001      -5.81870977E-14
  -13.6199999      -6.79993307E-14
  -13.6099997      -6.09973362E-14
  -13.6000004      -3.70754181E-14
  -13.5900002      -5.46446577E-16
  -13.5799999       4.05049122E-14
  -13.5699997       7.59218263E-14
  -13.5600004       9.58935825E-14
  -13.5500002       9.35370962E-14
  -13.5400000       6.69872821E-14
  -13.5299997       2.04034719E-14
  -13.5200005      -3.64783175E-14
  -13.5100002      -9.02774762E-14
  -13.5000000      -1.27034044E-13
  -13.4899998      -1.35727529E-13
  -13.4799995      -1.11386771E-13
  -13.4700003      -5.69498401E-14
  -13.4600000       1.67250027E-14
  -13.4499998       9.28773050E-14
  -13.4399996       1.52565243E-13
  -13.4300003       1.79294432E-13
  -13.4200001       1.63451406E-13
  -13.4099998       1.05386267E-13
  -13.3999996       1.62282704E-14
  -13.3900003      -8.39835878E-14
  -13.3800001      -1.70622929E-13
  -13.3699999      -2.20368889E-13
  -13.3599997      -2.17303511E-13
  -13.3500004      -1.57671253E-13
  -13.3400002      -5.19584985E-14
  -13.3299999       7.64851575E-14
  -13.3199997       1.96251489E-13
  -13.3100004       2.75193957E-13
  -13.3000002       2.88628930E-13
  -13.2900000       2.26408397E-13
  -13.2799997       9.69565953E-14
  -13.2700005      -7.30442453E-14
  -13.2600002      -2.43653025E-13
  -13.2500000      -3.70533058E-13
  -13.2399998      -4.15806820E-13
  -13.2299995      -3.58351342E-13
  -13.2200003      -2.00884895E-13
  -13.2100000       2.82474510E-14
  -13.1999998       2.79549035E-13
  -13.1899996       4.92589259E-13
  -13.1800003       6.09962005E-13
  -13.1700001       5.91862063E-13
  -13.1599998       4.27710249E-13
  -13.1499996       1.41662561E-13
  -13.1400003      -2.09935083E-13
  -13.1300001      -5.49260127E-13
  -13.1199999      -7.93998439E-13
  -13.1099997      -8.76976389E-13
  -13.1000004      -7.63836748E-13
  -13.0900002      -4.64236668E-13
  -13.0799999      -3.32565667E-14
  -13.0699997       4.38159952E-13
  -13.0600004       8.42294713E-13
  -13.0500002       1.07936370E-12
  -13.0400000       1.08222383E-12
  -13.0299997       8.35008278E-13
  -13.0200005       3.80643677E-13
  -13.0100002      -1.85437779E-13
  -13.0000000      -7.34863288E-13
  -12.9899998      -1.13530669E-12
  -12.9799995      -1.28242935E-12
  -12.9700003      -1.12710731E-12
  -12.9600000      -6.90916237E-13
  -12.9499998      -6.52642274E-14
  -12.9399996       6.06685600E-13
  -12.9300003       1.16195606E-12
  -12.9200001       1.45655981E-12
  -12.9099998       1.40201978E-12
  -12.8999996       9.90464221E-13
  -12.8900003       3.01423816E-13
  -12.8800001      -5.12425605E-13
  -12.8699999      -1.25828861E-12
  -12.8599997      -1.74800463E-12
  -12.8500004      -1.84421597E-12
  -12.8400002      -1.49672776E-12
  -12.8299999      -7.59661756E-13
  -12.8199997       2.15777713E-13
  -12.8100004       1.21239607E-12
  -12.8000002       1.99560030E-12
  -12.7900000       2.36857018E-12
  -12.7799997       2.22100138E-12
  -12.7700005       1.55941894E-12
  -12.7600002       5.10971582E-13
  -12.7500000      -7.01294058E-13
  -12.7399998      -1.80692082E-12
  -12.7299995      -2.54965298E-12
  -12.7200003      -2.74799866E-12
  -12.7100000      -2.34032910E-12
  -12.6999998      -1.40329523E-12
  -12.6899996      -1.38294798E-13
  -12.6800003       1.17183097E-12
  -12.6700001       2.22659217E-12
  -12.6599998       2.77772597E-12
  -12.6499996       2.68886996E-12
  -12.6400003       1.97069184E-12
  -12.6300001       7.82490175E-13
  -12.6199999      -6.01074149E-13
  -12.6099997      -1.85132508E-12
  -12.6000004      -2.66143249E-12
  -12.5900002      -2.81943978E-12
  -12.5799999      -2.26130573E-12
  -12.5699997      -1.09098147E-12
  -12.5600004       4.38138864E-13
  -12.5500002       1.97723370E-12
  -12.5400000       3.16007268E-12
  -12.5299997       3.68768471E-12
  -12.5200005       3.40029112E-12
  -12.5100002       2.31952912E-12
  -12.5000000       6.50295193E-13
  -12.4899998      -1.25944296E-12
  -12.4799995      -2.99297804E-12
  -12.4700003      -4.15740749E-12
  -12.4600000      -4.47386052E-12
  -12.4499998      -3.84482984E-12
  -12.4399996      -2.38270211E-12
  -12.4300003      -3.91925750E-13
  -12.4200001       1.69237985E-12
  -12.4099998       3.39663627E-12
  -12.3999996       4.31179138E-12
  -12.3900003       4.18407409E-12
  -12.3800001       2.97273013E-12
  -12.3699999       8.60960337E-13
  -12.3599997      -1.78335374E-12
  -12.3500004      -4.48921109E-12
  -12.3400002      -6.78850379E-12
  -12.3299999      -8.32259522E-12
  -12.3199997      -8.92492677E-12
  -12.3100004      -8.65994863E-12
  -12.3000002      -7.80839195E-12
  -12.2900000      -6.80104584E-12
  -12.2799997      -6.11517087E-12
  -12.2700005      -6.15689834E-12
  -12.2600002      -7.15669017E-12
  -12.2500000      -9.10277843E-12
  -12.2399998      -1.17290457E-11
  -12.2299995      -1.45616817E-11
  -12.2200003      -1.70153839E-11
  -12.2100000      -1.85179008E-11
  -12.1999998      -1.86347777E-11
  -12.1899996      -1.71656352E-11
  -12.1800003      -1.41892192E-11
  -12.1700001      -1.00466016E-11
  -12.1599998      -5.26548423E-12
  -12.1499996      -4.43134787E-13
  -12.1400003       3.88544015E-12
  -12.1300001       7.36326972E-12
  -12.1199999       9.88472672E-12
  -12.1099997       1.16094582E-11
  -12.1000004       1.29143840E-11
  -12.0900002       1.42957165E-11
  -12.0799999       1.62447382E-11
  -12.0699997       1.91268459E-11
  -12.0600004       2.30921740E-11
  -12.0500002       2.80381950E-11
  -12.0400000       3.36318126E-11
  -12.0299997       3.93839475E-11
  -12.0200005       4.47576975E-11
  -12.0100002       4.92834940E-11
  -12.0000000       5.26538535E-11
  -11.9899998       5.47763779E-11
  -11.9799995       5.57742012E-11
  -11.9700003       5.59366164E-11
  -11.9600000       5.56341466E-11
  -11.9499998       5.52197593E-11
  -11.9399996       5.49406146E-11
  -11.9300003       5.48805862E-11
  -11.9200001       5.49451630E-11
  -11.9099998       5.48887012E-11
  -11.8999996       5.43750392E-11
  -11.8900003       5.30540716E-11
  -11.8800001       5.06351350E-11
  -11.8699999       4.69400976E-11
  -11.8599997       4.19262403E-11
  -11.8500004       3.56772459E-11
  -11.8400002       2.83681134E-11
  -11.8299999       2.02165177E-11
  -11.8199997       1.14340126E-11
  -11.8100004       2.18979414E-12
  -11.8000002      -7.40677571E-12
  -11.7900000      -1.73027252E-11
  -11.7799997      -2.74830783E-11
  -11.7700005      -3.79439570E-11
  -11.7600002      -4.86673479E-11
  -11.7500000      -5.96036900E-11
  -11.7399998      -7.06664796E-11
  -11.7299995      -8.17370963E-11
  -11.7200003      -9.26772756E-11
  -11.7100000      -1.03343320E-10
  -11.6999998      -1.13597583E-10
  -11.6899996      -1.23315053E-10
  -11.6800003      -1.32384950E-10
  -11.6700001      -1.40709527E-10
  -11.6599998      -1.48203283E-10
  -11.6499996      -1.54795093E-10
  -11.6400003      -1.60433236E-10
  -11.6300001      -1.65091829E-10
  -11.6199999      -1.68774772E-10
  -11.6099997      -1.71513762E-10
  -11.6000004      -1.73357481E-10
  -11.5900002      -1.74352838E-10
  -11.5799999      -1.74521439E-10
  -11.5699997      -1.73837764E-10
  -11.5600004      -1.72215922E-10
  -11.5500002      -1.69509268E-10
  -11.5400000      -1.65526509E-10
  -11.5299997      -1.60061020E-10
  -11.5200005      -1.52926879E-10
  -11.5100002      -1.43992332E-10
  -11.5000000      -1.33202033E-10
  -11.4899998      -1.20582613E-10
  -11.4799995      -1.06227652E-10
  -11.4700003      -9.02692018E-11
  -11.4600000      -7.28406363E-11
  -11.4499998      -5.40450497E-11
  -11.4399996      -3.39332555E-11
  -11.4300003      -1.25034635E-11
  -11.4200001       1.02830877E-11
  -11.4099998       3.44714188E-11
  -11.3999996       6.00798022E-11
  -11.3900003       8.70713848E-11
  -11.3800001       1.15340563E-10
  -11.3699999       1.44717599E-10
  -11.3599997       1.74987205E-10
  -11.3500004       2.05919573E-10
  -11.3400002       2.37298486E-10
  -11.3299999       2.68943035E-10
  -11.3199997       3.00715203E-10
  -11.3100004       3.32512545E-10
  -11.3000002       3.64252184E-10
  -11.2900000       3.95852850E-10
  -11.2799997       4.27222008E-10
  -11.2700005       4.58256155E-10
  -11.2600002       4.88852625E-10
  -11.2500000       5.18930843E-10
  -11.2399998       5.48454671E-10
  -11.2299995       5.77446868E-10
  -11.2200003       6.05989037E-10
  -11.2100000       6.34204522E-10
  -11.1999998       6.62227995E-10
  -11.1899996       6.90169366E-10
  -11.1800003       7.18086923E-10
  -11.1700001       7.45972895E-10
  -11.1599998       7.73758169E-10
  -11.1499996       8.01341271E-10
  -11.1400003       8.28621227E-10
  -11.1300001       8.55531479E-10
  -11.1199999       8.82057372E-10
  -11.1099997       9.08228992E-10
  -11.1000004       9.34091360E-10
  -11.0900002       9.59660129E-10
  -11.0799999       9.84869186E-10
  -11.0699997       1.00953457E-09
  -11.0600004       1.03334896E-09
  -11.0500002       1.05591691E-09
  -11.0400000       1.07681708E-09
  -11.0299997       1.09568898E-09
  -11.0200005       1.11231613E-09
  -11.0100002       1.12669052E-09
  -11.0000000       1.13903265E-09
  -10.9899998       1.14975729E-09
  -10.9799995       1.15940391E-09
  -10.9700003       1.16852483E-09
  -10.9600000       1.17758925E-09
  -10.9499998       1.18689514E-09
  -10.9399996       1.19652299E-09
  -10.9300003       1.20635957E-09
  -10.9200001       1.21614052E-09
  -10.9099998       1.22555632E-09
  -10.8999996       1.23433830E-09
  -10.8900003       1.24233090E-09
  -10.8800001       1.24952704E-09
  -10.8699999       1.25606769E-09
  -10.8599997       1.26219024E-09
  -10.8500004       1.26815380E-09
  -10.8400002       1.27416955E-09
  -10.8299999       1.28033562E-09
  -10.8199997       1.28662014E-09
  -10.8100004       1.29287148E-09
  -10.8000002       1.29885702E-09
  -10.7900000       1.30431321E-09
  -10.7799997       1.30899769E-09
  -10.7700005       1.31272015E-09
  -10.7600002       1.31535460E-09
  -10.7500000       1.31680600E-09
  -10.7399998       1.31700639E-09
  -10.7299995       1.31585698E-09
  -10.7200003       1.31323874E-09
  -10.7100000       1.30899724E-09
  -10.6999998       1.30300148E-09
  -10.6899996       1.29516475E-09
  -10.6800003       1.28550082E-09
  -10.6700001       1.27413935E-09
  -10.6599998       1.26132826E-09
  -10.6499996       1.24739497E-09
  -10.6400003       1.23268162E-09
  -10.6300001       1.21747967E-09
  -10.6199999       1.20196031E-09
  -10.6099997       1.18617083E-09
  -10.6000004       1.17002630E-09
  -10.5900002       1.15337706E-09
  -10.5799999       1.13610232E-09
  -10.5699997       1.11817966E-09
  -10.5600004       1.09978615E-09
  -10.5500002       1.08128140E-09
  -10.5400000       1.06320308E-09
  -10.5299997       1.04614784E-09
  -10.5200005       1.03068531E-09
  -10.5100002       1.01718989E-09
  -10.5000000       1.00577502E-09
  -10.4899998       9.96256522E-10
  -10.4799995       9.88178095E-10
  -10.4700003       9.80919457E-10
  -10.4600000       9.73837566E-10
  -10.4499998       9.66404068E-10
  -10.4399996       9.58318203E-10
  -10.4300003       9.49559320E-10
  -10.4200001       9.40361566E-10
  -10.4099998       9.31108024E-10
  -10.3999996       9.22220744E-10
  -10.3900003       9.14022524E-10
  -10.3800001       9.06657138E-10
  -10.3699999       9.00058028E-10
  -10.3599997       8.94001817E-10
  -10.3500004       8.88185914E-10
  -10.3400002       8.82367512E-10
  -10.3299999       8.76448858E-10
  -10.3199997       8.70535144E-10
  -10.3100004       8.64922189E-10
  -10.3000002       8.60028715E-10
  -10.2900000       8.56281712E-10
  -10.2799997       8.53998150E-10
  -10.2700005       8.53304649E-10
  -10.2600002       8.54103510E-10
  -10.2500000       8.56093196E-10
  -10.2399998       8.58847937E-10
  -10.2299995       8.61920424E-10
  -10.2200003       8.64948169E-10
  -10.2100000       8.67709682E-10
  -10.1999998       8.70161498E-10
  -10.1899996       8.72397710E-10
  -10.1800003       8.74607831E-10
  -10.1700001       8.77012740E-10
  -10.1599998       8.79817608E-10
  -10.1499996       8.83178086E-10
  -10.1400003       8.87180551E-10
  -10.1300001       8.91882457E-10
  -10.1199999       8.97309504E-10
  -10.1099997       9.03474795E-10
  -10.1000004       9.10370723E-10
  -10.0900002       9.17945497E-10
  -10.0799999       9.26099808E-10
  -10.0699997       9.34668343E-10
  -10.0600004       9.43433665E-10
  -10.0500002       9.52169565E-10
  -10.0400000       9.60694302E-10
  -10.0299997       9.68944147E-10
  -10.0200005       9.77009584E-10
  -10.0100002       9.85148407E-10
  -10.0000000       9.93770843E-10
  -9.98999977       1.00337960E-09
  -9.97999954       1.01449038E-09
  -9.97000027       1.02752751E-09
  -9.96000004       1.04276399E-09
  -9.94999981       1.06026821E-09
  -9.93999958       1.07988463E-09
  -9.93000031       1.10126619E-09
  -9.92000008       1.12393039E-09
  -9.90999985       1.14731569E-09
  -9.89999962       1.17086874E-09
  -9.89000034       1.19412058E-09
  -9.88000011       1.21673960E-09
  -9.86999989       1.23859067E-09
  -9.85999966       1.25975363E-09
  -9.85000038       1.28053201E-09
  -9.84000015       1.30142042E-09
  -9.82999992       1.32305011E-09
  -9.81999969       1.34612321E-09
  -9.81000042       1.37132239E-09
  -9.80000019       1.39923328E-09
  -9.78999996       1.43027856E-09
  -9.77999973       1.46468038E-09
  -9.77000046       1.50247248E-09
  -9.76000023       1.54351731E-09
  -9.75000000       1.58757241E-09
  -9.73999977       1.63434044E-09
  -9.72999954       1.68353254E-09
  -9.72000027       1.73489678E-09
  -9.71000004       1.78823500E-09
  -9.69999981       1.84339899E-09
  -9.68999958       1.90027261E-09
  -9.68000031       1.95874161E-09
  -9.67000008       2.01868255E-09
  -9.65999985       2.07993711E-09
  -9.64999962       2.14230056E-09
  -9.64000034       2.20549445E-09
  -9.63000011       2.26916752E-09
  -9.61999989       2.33287900E-09
  -9.60999966       2.39611198E-09
  -9.60000038       2.45829468E-09
  -9.59000015       2.51886978E-09
  -9.57999992       2.57736388E-09
  -9.56999969       2.63347522E-09
  -9.56000042       2.68712297E-09
  -9.55000019       2.73847500E-09
  -9.53999996       2.78791945E-09
  -9.52999973       2.83596280E-09
  -9.52000046       2.88310420E-09
  -9.51000023       2.92971913E-09
  -9.50000000       2.97596303E-09
  -9.48999977       3.02173864E-09
  -9.47999954       3.06675396E-09
  -9.47000027       3.11062975E-09
  -9.46000004       3.15305515E-09
  -9.44999981       3.19391069E-09
  -9.43999958       3.23336713E-09
  -9.43000031       3.27183303E-09
  -9.42000008       3.30990524E-09
  -9.40999985       3.34817174E-09
  -9.39999962       3.38707928E-09
  -9.39000034       3.42680440E-09
  -9.38000011       3.46720808E-09
  -9.36999989       3.50789442E-09
  -9.35999966       3.54836138E-09
  -9.35000038       3.58818375E-09
  -9.34000015       3.62715458E-09
  -9.32999992       3.66536002E-09
  -9.31999969       3.70317776E-09
  -9.31000042       3.74117093E-09
  -9.30000019       3.77991372E-09
  -9.28999996       3.81982801E-09
  -9.27999973       3.86103549E-09
  -9.27000046       3.90331234E-09
  -9.26000023       3.94615496E-09
  -9.25000000       3.98889055E-09
  -9.23999977       4.03082767E-09
  -9.22999954       4.07142409E-09
  -9.22000027       4.11032364E-09
  -9.21000004       4.14741530E-09
  -9.19999981       4.18274082E-09
  -9.18999958       4.21646895E-09
  -9.18000031       4.24872448E-09
  -9.17000008       4.27957048E-09
  -9.15999985       4.30897140E-09
  -9.14999962       4.33680292E-09
  -9.14000034       4.36291447E-09
  -9.13000011       4.38714176E-09
  -9.11999989       4.40933734E-09
  -9.10999966       4.42937287E-09
  -9.10000038       4.44710135E-09
  -9.09000015       4.46232029E-09
  -9.07999992       4.47480364E-09
  -9.06999969       4.48430937E-09
  -9.06000042       4.49066651E-09
  -9.05000019       4.49383553E-09
  -9.03999996       4.49400384E-09
  -9.02999973       4.49163906E-09
  -9.02000046       4.48744952E-09
  -9.01000023       4.48231052E-09
  -9.00000000       4.47714932E-09
  -8.98999977       4.47283810E-09
  -8.97999954       4.47012294E-09
  -8.97000027       4.46953496E-09
  -8.96000004       4.47146542E-09
  -8.94999981       4.47617854E-09
  -8.93999958       4.48391768E-09
  -8.93000031       4.49497328E-09
  -8.92000008       4.50971971E-09
  -8.90999985       4.52866766E-09
  -8.89999962       4.55236560E-09
  -8.89000034       4.58140370E-09
  -8.88000011       4.61636107E-09
  -8.86999989       4.65775907E-09
  -8.85999966       4.70608796E-09
  -8.85000038       4.76177142E-09
  -8.84000015       4.82522067E-09
  -8.82999992       4.89675989E-09
  -8.81999969       4.97664798E-09
  -8.81000042       5.06501685E-09
  -8.80000019       5.16188781E-09
  -8.78999996       5.26710764E-09
  -8.77999973       5.38046141E-09
  -8.77000046       5.50173329E-09
  -8.76000023       5.63079672E-09
  -8.75000000       5.76768455E-09
  -8.73999977       5.91262239E-09
  -8.72999954       6.06597794E-09
  -8.72000027       6.22821705E-09
  -8.71000004       6.39974518E-09
  -8.69999981       6.58076038E-09
  -8.68999958       6.77125911E-09
  -8.68000031       6.97099045E-09
  -8.67000008       7.17955739E-09
  -8.65999985       7.39655004E-09
  -8.64999962       7.62164376E-09
  -8.64000034       7.85470711E-09
  -8.63000011       8.09580758E-09
  -8.61999989       8.34507308E-09
  -8.60999966       8.60262084E-09
  -8.60000038       8.86840468E-09
  -8.59000015       9.14214038E-09
  -8.57999992       9.42332079E-09
  -8.56999969       9.71127267E-09
  -8.56000042       1.00053867E-08
  -8.55000019       1.03052198E-08
  -8.53999996       1.06105480E-08
  -8.52999973       1.09214255E-08
  -8.52000046       1.12379688E-08
  -8.51000023       1.15602008E-08
  -8.50000000       1.18879102E-08
  -8.48999977       1.22204860E-08
  -8.47999954       1.25569066E-08
  -8.47000027       1.28959528E-08
  -8.46000004       1.32363471E-08
  -8.44999981       1.35769840E-08
  -8.43999958       1.39170870E-08
  -8.43000031       1.42561660E-08
  -8.42000008       1.45939403E-08
  -8.40999985       1.49300750E-08
  -8.39999962       1.52639501E-08
  -8.39000034       1.55946083E-08
  -8.38000011       1.59207154E-08
  -8.36999989       1.62407687E-08
  -8.35999966       1.65534004E-08
  -8.35000038       1.68576797E-08
  -8.34000015       1.71532442E-08
  -8.32999992       1.74404242E-08
  -8.31999969       1.77198825E-08
  -8.31000042       1.79923880E-08
  -8.30000019       1.82584152E-08
  -8.28999996       1.85179356E-08
  -8.27999973       1.87701570E-08
  -8.27000046       1.90138820E-08
  -8.26000023       1.92477003E-08
  -8.25000000       1.94703702E-08
  -8.23999977       1.96812167E-08
  -8.22999954       1.98801562E-08
  -8.22000027       2.00676151E-08
  -8.21000004       2.02443911E-08
  -8.19999981       2.04111696E-08
  -8.18999958       2.05683204E-08
  -8.18000031       2.07156692E-08
  -8.17000008       2.08526618E-08
  -8.15999985       2.09784670E-08
  -8.14999962       2.10923616E-08
  -8.14000034       2.11937810E-08
  -8.13000011       2.12825952E-08
  -8.11999989       2.13588383E-08
  -8.10999966       2.14226255E-08
  -8.10000038       2.14737632E-08
  -8.09000015       2.15117595E-08
  -8.07999992       2.15357669E-08
  -8.06999969       2.15449152E-08
  -8.06000042       2.15385665E-08
  -8.05000019       2.15167546E-08
  -8.03999996       2.14802380E-08
  -8.02999973       2.14305373E-08
  -8.02000046       2.13696527E-08
  -8.01000023       2.12995683E-08
  -8.00000000       2.12217639E-08
  -7.98999977       2.11369411E-08
  -7.98000002       2.10449951E-08
  -7.96999979       2.09453219E-08
  -7.96000004       2.08370992E-08
  -7.94999981       2.07199680E-08
  -7.94000006       2.05940829E-08
  -7.92999983       2.04605115E-08
  -7.92000008       2.03209272E-08
  -7.90999985       2.01771488E-08
  -7.90000010       2.00309547E-08
  -7.88999987       1.98835988E-08
  -7.88000011       1.97359018E-08
  -7.86999989       1.95885566E-08
  -7.86000013       1.94421972E-08
  -7.84999990       1.92979464E-08
  -7.84000015       1.91575236E-08
  -7.82999992       1.90230658E-08
  -7.82000017       1.88968023E-08
  -7.80999994       1.87807441E-08
  -7.80000019       1.86760651E-08
  -7.78999996       1.85829894E-08
  -7.78000021       1.85009714E-08
  -7.76999998       1.84291782E-08
  -7.76000023       1.83668423E-08
  -7.75000000       1.83139122E-08
  -7.73999977       1.82711961E-08
  -7.73000002       1.82403319E-08
  -7.71999979       1.82232984E-08
  -7.71000004       1.82218987E-08
  -7.69999981       1.82372091E-08
  -7.69000006       1.82693807E-08
  -7.67999983       1.83177757E-08
  -7.67000008       1.83812752E-08
  -7.65999985       1.84589872E-08
  -7.65000010       1.85506774E-08
  -7.63999987       1.86569480E-08
  -7.63000011       1.87791134E-08
  -7.61999989       1.89187226E-08
  -7.61000013       1.90770120E-08
  -7.59999990       1.92542462E-08
  -7.59000015       1.94496153E-08
  -7.57999992       1.96612984E-08
  -7.57000017       1.98872012E-08
  -7.55999994       2.01253254E-08
  -7.55000019       2.03745270E-08
  -7.53999996       2.06348041E-08
  -7.53000021       2.09070894E-08
  -7.51999998       2.11927684E-08
  -7.51000023       2.14930527E-08
  -7.50000000       2.18085194E-08
  -7.48999977       2.21387175E-08
  -7.48000002       2.24824444E-08
  -7.46999979       2.28381491E-08
  -7.46000004       2.32047483E-08
  -7.44999981       2.35818085E-08
  -7.44000006       2.39697080E-08