  -16.0000000       0.00000000    
  -15.9899998       0.00000000    
  -15.9799995       0.00000000    
  -15.9700003       0.00000000    
  -15.9600000       0.00000000    
  -15.9499998       0.00000000    
  -15.9399996       0.00000000    
  -15.9300003       0.00000000    
  -15.9200001       0.00000000    
  -15.9099998       0.00000000    
  -15.8999996       0.00000000    
  -15.8900003       0.00000000    
  -15.8800001      -0.00000000    
  -15.8699999       0.00000000    
  -15.8599997       7.00649232E-45
  -15.8500004       7.56701171E-44
  -15.8400002       6.15170026E-43
  -15.8299999       4.26695382E-42
  -15.8199997       2.62995696E-41
  -15.8100004       1.43452325E-40
  -15.8000002       6.83584219E-40
  -15.7900000       2.82636015E-39
  -15.7799997       1.01242217E-38
  -15.7700005       3.14024288E-38
  -15.7600002       8.39948501E-38
  -15.7500000       1.91106394E-37
  -15.7399998       3.56146215E-37
  -15.7299995       4.82284825E-37
  -15.7200003       2.00706925E-37
  -15.7100000      -1.39490523E-36
  -15.6999998      -6.00412402E-36
  -15.6899996      -1.60871769E-35
  -15.6800003      -3.41166257E-35
  -15.6700001      -6.07592654E-35
  -15.6599998      -9.20780968E-35
  -15.6499996      -1.16417769E-34
  -15.6400003      -1.11424777E-34
  -15.6300001      -3.95498748E-35
  -15.6199999       1.62830407E-34
  -15.6099997       6.05664832E-34
  -15.6000004       1.45756570E-33
  -15.5900002       2.88101892E-33
  -15.5799999       4.74827425E-33
  -15.5699997       5.97519427E-33
  -15.5600004       3.50391209E-33
  -15.5500002      -8.42668921E-33
  -15.5400000      -3.70236933E-32
  -15.5299997      -8.49777033E-32
  -15.5200005      -1.37483362E-31
  -15.5100002      -1.43950145E-31
  -15.5000000      -5.53709230E-33
  -15.4899998       4.06808596E-31
  -15.4799995       1.16943604E-30
  -15.4700003       2.13454784E-30
  -15.4600000       2.69881109E-30
  -15.4499998       1.64528321E-30
  -15.4399996      -2.67558651E-30
  -15.4300003      -1.14859385E-29
  -15.4200001      -2.38365955E-29
  -15.4099998      -3.42819924E-29
  -15.3999996      -3.12015938E-29
  -15.3900003       1.92453082E-30
  -15.3800001       7.94677996E-29
  -15.3699999       1.99204110E-28
  -15.3599997       3.22821657E-28
  -15.3500004       3.60606910E-28
  -15.3400002       1.77207462E-28
  -15.3299999      -3.61202648E-28
  -15.3199997      -1.28620140E-27
  -15.3100004      -2.38697138E-27
  -15.3000002      -3.08914502E-27
  -15.2900000      -2.45990693E-27
  -15.2799997       5.30406981E-28
  -15.2700005       6.40534910E-27
  -15.2600002       1.43030836E-26
  -15.2500000       2.11387082E-26
  -15.2399998       2.14085664E-26
  -15.2299995       8.38673388E-27
  -15.2200003      -2.27413099E-26
  -15.2100000      -7.00121757E-26
  -15.1999998      -1.19585039E-25
  -15.1899996      -1.43402562E-25
  -15.1800003      -1.03521613E-25
  -15.1700001       3.37032902E-26
  -15.1599998       2.73711118E-25
  -15.1499996       5.66220840E-25
  -15.1400003       7.87479018E-25
  -15.1300001       7.50769869E-25
  -15.1199999       2.61990691E-25
  -15.1099997      -7.75798848E-25
  -15.1000004      -2.23011175E-24
  -15.0900002      -3.63257667E-24
  -15.0799999      -4.17791385E-24
  -15.0699997      -2.90858439E-24
  -15.0600004       8.78578549E-25
  -15.0500002       7.06346133E-24
  -15.0400000       1.41630856E-23
  -15.0299997       1.91334205E-23
  -15.0200005       1.78599908E-23
  -15.0100002       6.55729426E-24
  -15.0000000      -1.60346976E-23
  -14.9899998      -4.62647168E-23
  -14.9799995      -7.41083008E-23
  -14.9700003      -8.39991209E-23
  -14.9600000      -5.90329165E-23
  -14.9499998       1.14090775E-23
  -14.9399996       1.22283714E-22
  -14.9300003       2.45364721E-22
  -14.9200001       3.28506218E-22
  -14.9099998       3.06275310E-22
  -14.8999996       1.23688669E-22
  -14.8900003      -2.30641977E-22
  -14.8800001      -6.92495121E-22
  -14.8699999      -1.10740804E-21
  -14.8599997      -1.25079432E-21
  -14.8500004      -8.93505614E-22
  -14.8400002       9.21463312E-23
  -14.8299999       1.61309267E-21
  -14.8199997       3.27187777E-21
  -14.8100004       4.37830131E-21
  -14.8000002       4.10439346E-21
  -14.7900000       1.79029511E-21
  -14.7799997      -2.65742172E-21
  -14.7700005      -8.40806313E-21
  -14.7600002      -1.35759192E-20
  -14.7500000      -1.54982676E-20
  -14.7399998      -1.15150795E-20
  -14.7299995      -1.65310700E-22
  -14.7200003       1.75169292E-20
  -14.7100000       3.71316724E-20
  -14.6999998       5.10740569E-20
  -14.6899996       5.01866537E-20
  -14.6800003       2.69415666E-20
  -14.6700001      -2.04564787E-20
  -14.6599998      -8.43543408E-20
  -14.6499996      -1.46107238E-19
  -14.6400003      -1.78434839E-19
  -14.6300001      -1.52584166E-19
  -14.6199999      -4.96177376E-20
  -14.6099997       1.26901216E-19
  -14.6000004       3.41410423E-19
  -14.5900002       5.25432828E-19
  -14.5799999       5.89604776E-19
  -14.5699997       4.49732205E-19
  -14.5600004       6.27974518E-20
  -14.5500002      -5.36957057E-19
  -14.5400000      -1.21609323E-18
  -14.5299997      -1.74902274E-18
  -14.5200005      -1.86387511E-18
  -14.5100002      -1.32613844E-18
  -14.5000000      -4.40267075E-20
  -14.4899998       1.83541038E-18
  -14.4799995       3.87952505E-18
  -14.4700003       5.41032079E-18
  -14.4600000       5.65177275E-18
  -14.4499998       3.97244018E-18
  -14.4399996       1.71916217E-19
  -14.4300003      -5.27594075E-18
  -14.4200001      -1.11271104E-17
  -14.4099998      -1.55084271E-17
  -14.3999996      -1.63330600E-17
  -14.3900003      -1.19441075E-17
  -14.3800001      -1.84317823E-18
  -14.3699999       1.27188242E-17
  -14.3599997       2.85399579E-17
  -14.3500004       4.08565019E-17
  -14.3400002       4.43899163E-17
  -14.3299999       3.49164484E-17
  -14.3199997       1.10044006E-17
  -14.3100004      -2.46037759E-17
  -14.3000002      -6.45315889E-17
  -14.2900000      -9.76651818E-17
  -14.2799997      -1.11525705E-16
  -14.2700005      -9.57901222E-17
  -14.2600002      -4.61670014E-17
  -14.2500000       3.25042111E-17
  -14.2399998       1.25126579E-16
  -14.2299995       2.08085952E-16
  -14.2200003       2.54084632E-16
  -14.2100000       2.39384746E-16
  -14.1999998       1.51852546E-16
  -14.1899996      -2.45287755E-18
  -14.1800003      -1.96503954E-16
  -14.1700001      -3.85093074E-16
  -14.1599998      -5.13650150E-16
  -14.1499996      -5.31838223E-16
  -14.1400003      -4.08963998E-16
  -14.1300001      -1.47058009E-16
  -14.1199999       2.12692197E-16
  -14.1099997       5.93392531E-16
  -14.1000004       8.96745523E-16
  -14.0900002       1.02618698E-15
  -14.0799999       9.13887458E-16
  -14.0699997       5.44628633E-16
  -14.0600004      -3.07680384E-17
  -14.0500002      -6.98026829E-16
  -14.0400000      -1.29992654E-15
  -14.0299997      -1.67183011E-15
  -14.0200005      -1.68462508E-15
  -14.0100002      -1.28423070E-15
  -14.0000000      -5.16233600E-16
  -13.9899998       4.73181827E-16
  -13.9799995       1.46336122E-15
  -13.9700003       2.20856472E-15
  -13.9600000       2.49981361E-15
  -13.9499998       2.22363153E-15
  -13.9399996       1.40118064E-15
  -13.9300003       1.94948789E-16
  -13.9200001      -1.12216333E-15
  -13.9099998      -2.23047915E-15
  -13.8999996      -2.84537489E-15
  -13.8900003      -2.79618874E-15
  -13.8800001      -2.07989597E-15
  -13.8699999      -8.72245412E-16
  -13.8599997       5.10477217E-16
  -13.8500004       1.69249518E-15
  -13.8400002       2.34293019E-15
  -13.8299999       2.27552670E-15
  -13.8199997       1.51431883E-15
  -13.8100004       3.02748819E-16
  -13.8000002      -9.52168794E-16
  -13.7900000      -1.79110389E-15
  -13.7799997      -1.84242393E-15
  -13.7700005      -9.52911960E-16
  -13.7600002       7.30662373E-16
  -13.7500000       2.75966299E-15
  -13.7399998       4.47292265E-15
  -13.7299995       5.16424214E-15
  -13.7200003       4.29106764E-15
  -13.7100000       1.67073067E-15
  -13.6999998      -2.39338646E-15
  -13.6899996      -7.10208412E-15
  -13.6800003      -1.12879803E-14
  -13.6700001      -1.36672180E-14
  -13.6599998      -1.31665622E-14
  -13.6499996      -9.25006142E-15
  -13.6400003      -2.15867088E-15
  -13.6300001       7.01337859E-15
  -13.6199999       1.64499575E-14
  -13.6099997       2.39492687E-14
  -13.6000004       2.74090239E-14
  -13.5900002       2.53588739E-14
  -13.5799999       1.74125732E-14
  -13.5699997       4.51556059E-15
  -13.5600004      -1.11011333E-14
  -13.5500002      -2.62874270E-14
  -13.5400000      -3.76109632E-14
  -13.5299997      -4.21398383E-14
  -13.5200005      -3.81951550E-14
  -13.5100002      -2.58837717E-14
  -13.5000000      -7.25428832E-15
  -13.4899998       1.40041414E-14
  -13.4799995       3.32947103E-14
  -13.4700003       4.61405511E-14
  -13.4600000       4.92805598E-14
  -13.4499998       4.15653772E-14
  -13.4399996       2.44077965E-14
  -13.4300003       1.62996657E-15
  -13.4200001      -2.13124823E-14
  -13.4099998      -3.85915326E-14
  -13.3999996      -4.54764942E-14
  -13.3900003      -3.96538915E-14
  -13.3800001      -2.20421825E-14
  -13.3699999       3.15931876E-15
  -13.3599997       2.92754746E-14
  -13.3500004       4.86899068E-14
  -13.3400002       5.47835432E-14
  -13.3299999       4.38145478E-14
  -13.3199997       1.62465053E-14
  -13.3100004      -2.28746160E-14
  -13.3000002      -6.46882721E-14
  -13.2900000      -9.83512181E-14
  -13.2799997      -1.13573166E-13
  -13.2700005      -1.03283843E-13
  -13.2600002      -6.57732197E-14
  -13.2500000      -5.72076523E-15
  -13.2399998       6.62426995E-14
  -13.2299995       1.35460409E-13
  -13.2200003       1.86315264E-13
  -13.2100000       2.05778930E-13
  -13.1999998       1.86620359E-13
  -13.1899996       1.29475816E-13
  -13.1800003       4.32083839E-14
  -13.1700001      -5.66318029E-14
  -13.1599998      -1.50981292E-13
  -13.1499996      -2.21390438E-13
  -13.1400003      -2.54153578E-13
  -13.1300001      -2.43444615E-13
  -13.1199999      -1.92659595E-13
  -13.1099997      -1.13580593E-13
  -13.1000004      -2.35028163E-14
  -13.0900002       5.90109016E-14
  -13.0799999       1.18707060E-13
  -13.0699997       1.47379288E-13
  -13.0600004       1.45762566E-13
  -13.0500002       1.23017617E-13
  -13.0400000       9.38486620E-14
  -13.0299997       7.39363269E-14
  -13.0200005       7.48626150E-14
  -13.0100002       9.99238601E-14
  -13.0000000       1.42088273E-13
  -12.9899998       1.84869603E-13
  -12.9799995       2.06159701E-13
  -12.9700003       1.84260173E-13
  -12.9600000       1.04685615E-13
  -12.9499998      -3.40416443E-14
  -12.9399996      -2.17298158E-13
  -12.9300003      -4.15124857E-13
  -12.9200001      -5.87123015E-13
  -12.9099998      -6.90715063E-13
  -12.8999996      -6.91067592E-13
  -12.8900003      -5.70387216E-13
  -12.8800001      -3.34233780E-13
  -12.8699999      -1.30189947E-14
  -12.8599997       3.42126094E-13
  -12.8500004       6.68628672E-13
  -12.8400002       9.05125259E-13
  -12.8299999       1.00477168E-12
  -12.8199997       9.46139543E-13
  -12.8100004       7.38994803E-13
  -12.8000002       4.23298088E-13
  -12.7900000       6.12811193E-14
  -12.7799997      -2.75906441E-13
  -12.7700005      -5.24102625E-13
  -12.7600002      -6.40946009E-13
  -12.7500000      -6.16013100E-13
  -12.7399998      -4.73632906E-13
  -12.7299995      -2.67351706E-13
  -12.7200003      -6.69818340E-14
  -12.7100000       5.89823329E-14
  -12.6999998       6.15232352E-14
  -12.6899996      -7.45982391E-14
  -12.6800003      -3.24152543E-13
  -12.6700001      -6.24498175E-13
  -12.6599998      -8.88293725E-13
  -12.6499996      -1.02343698E-12
  -12.6400003      -9.55913734E-13
  -12.6300001      -6.50267654E-13
  -12.6199999      -1.22633227E-13
  -12.6099997       5.57282031E-13
  -12.6000004       1.27650397E-12
  -12.5900002       1.89982708E-12
  -12.5799999       2.29743937E-12
  -12.5699997       2.37324656E-12
  -12.5600004       2.08754867E-12
  -12.5500002       1.46870775E-12
  -12.5400000       6.10713682E-13
  -12.5299997      -3.43372872E-13
  -12.5200005      -1.22893460E-12
  -12.5100002      -1.89252932E-12
  -12.5000000      -2.22278446E-12
  -12.4899998      -2.17266222E-12
  -12.4799995      -1.76814737E-12
  -12.4700003      -1.10144164E-12
  -12.4600000      -3.10270283E-13
  -12.4499998       4.51865623E-13
  -12.4399996       1.04754465E-12
  -12.4300003       1.38192778E-12
  -12.4200001       1.41770840E-12
  -12.4099998       1.17511664E-12
  -12.3999996       7.17201526E-13
  -12.3900003       1.24315665E-13
  -12.3800001      -5.35474930E-13
  -12.3699999      -1.23215630E-12
  -12.3599997      -1.98847492E-12
  -12.3500004      -2.87892930E-12
  -12.3400002      -4.01214869E-12
  -12.3299999      -5.49995813E-12
  -12.3199997      -7.41995961E-12
  -12.3100004      -9.78056178E-12
  -12.3000002      -1.24973998E-11
  -12.2900000      -1.53879218E-11
  -12.2799997      -1.81870942E-11
  -12.2700005      -2.05825045E-11
  -12.2600002      -2.22625807E-11
  -12.2500000      -2.29684986E-11
  -12.2399998      -2.25389794E-11
  -12.2299995      -2.09386466E-11
  -12.2200003      -1.82637881E-11
  -12.2100000      -1.47241629E-11
  -12.1999998      -1.06047914E-11
  -12.1899996      -6.21572628E-12
  -12.1800003      -1.84043774E-12
  -12.1700001       2.30651934E-12
  -12.1599998       6.10434359E-12
  -12.1499996       9.52908846E-12
  -12.1400003       1.26362887E-11
  -12.1300001       1.55284275E-11
  -12.1199999       1.83164543E-11
  -12.1099997       2.10850885E-11
  -12.1000004       2.38704716E-11
  -12.0900002       2.66550931E-11
  -12.0799999       2.93804148E-11
  -12.0699997       3.19728133E-11
  -12.0600004       3.43750514E-11
  -12.0500002       3.65740667E-11
  -12.0400000       3.86167417E-11
  -12.0299997       4.06083674E-11
  -12.0200005       4.26930401E-11
  -12.0100002       4.50198108E-11
  -12.0000000       4.77023733E-11
  -11.9899998       5.07815907E-11
  -11.9799995       5.42005330E-11
  -11.9700003       5.77978949E-11
  -11.9600000       6.13224124E-11
  -11.9499998       6.44656481E-11
  -11.9399996       6.69064040E-11
  -11.9300003       6.83571394E-11
  -11.9200001       6.86030677E-11
  -11.9099998       6.75257975E-11
  -11.8999996       6.51075235E-11
  -11.8900003       6.14160944E-11
  -11.8800001       5.65758933E-11
  -11.8699999       5.07322795E-11
  -11.8599997       4.40187886E-11
  -11.8500004       3.65349001E-11
  -11.8400002       2.83393187E-11
  -11.8299999       1.94599007E-11
  -11.8199997       9.91651986E-12
  -11.8100004      -2.49605675E-13
  -11.8000002      -1.09489813E-11
  -11.7900000      -2.20267311E-11
  -11.7799997      -3.32618204E-11
  -11.7700005      -4.43838438E-11
  -11.7600002      -5.51055000E-11
  -11.7500000      -6.51643739E-11
  -11.7399998      -7.43658746E-11
  -11.7299995      -8.26176697E-11
  -11.7200003      -8.99487221E-11
  -11.7100000      -9.65081626E-11
  -11.6999998      -1.02543626E-10
  -11.6899996      -1.08363110E-10
  -11.6800003      -1.14287149E-10
  -11.6700001      -1.20599683E-10
  -11.6599998      -1.27506602E-10
  -11.6499996      -1.35108036E-10
  -11.6400003      -1.43388218E-10
  -11.6300001      -1.52222485E-10
  -11.6199999      -1.61398450E-10
  -11.6099997      -1.70645539E-10
  -11.6000004      -1.79666365E-10
  -11.5900002      -1.88164498E-10
  -11.5799999      -1.95863825E-10
  -11.5699997      -2.02519237E-10
  -11.5600004      -2.07917239E-10
  -11.5500002      -2.11871423E-10
  -11.5400000      -2.14215409E-10
  -11.5299997      -2.14797347E-10
  -11.5200005      -2.13477472E-10
  -11.5100002      -2.10131884E-10
  -11.5000000      -2.04659734E-10
  -11.4899998      -1.96992728E-10
  -11.4799995      -1.87103305E-10
  -11.4700003      -1.75009104E-10
  -11.4600000      -1.60771313E-10
  -11.4499998      -1.44486090E-10
  -11.4399996      -1.26270813E-10
  -11.4300003      -1.06246331E-10
  -11.4200001      -8.45198217E-11
  -11.4099998      -6.11704576E-11
  -11.3999996      -3.62409477E-11
  -11.3900003      -9.73615806E-12
  -11.3800001       1.83716410E-11
  -11.3699999       4.81330704E-11
  -11.3599997       7.96094857E-11
  -11.3500004       1.12861540E-10
  -11.3400002       1.47941562E-10
  -11.3299999       1.84889992E-10
  -11.3199997       2.23736349E-10
  -11.3100004       2.64503031E-10
  -11.3000002       3.07210063E-10
  -11.2900000       3.51878360E-10
  -11.2799997       3.98530597E-10
  -11.2700005       4.47187481E-10
  -11.2600002       4.97863528E-10
  -11.2500000       5.50560375E-10
  -11.2399998       6.05262673E-10
  -11.2299995       6.61936173E-10
  -11.2200003       7.20528692E-10
  -11.2100000       7.80975118E-10
  -11.1999998       8.43200620E-10
  -11.1899996       9.07123765E-10
  -11.1800003       9.72653291E-10
  -11.1700001       1.03968101E-09
  -11.1599998       1.10806986E-09
  -11.1499996       1.17763954E-09
  -11.1400003       1.24815469E-09
  -11.1300001       1.31931910E-09
  -11.1199999       1.39078138E-09
  -11.1099997       1.46215140E-09
  -11.1000004       1.53302693E-09
  -11.0900002       1.60302938E-09
  -11.0799999       1.67183634E-09
  -11.0699997       1.73921244E-09
  -11.0600004       1.80502591E-09
  -11.0500002       1.86924742E-09
  -11.0400000       1.93193839E-09
  -11.0299997       1.99322137E-09
  -11.0200005       2.05324469E-09
  -11.0100002       2.11214646E-09
  -11.0000000       2.17002993E-09
  -10.9899998       2.22694685E-09
  -10.9799995       2.28290209E-09
  -10.9700003       2.33786812E-09
  -10.9600000       2.39181452E-09
  -10.9499998       2.44473419E-09
  -10.9399996       2.49666421E-09
  -10.9300003       2.54770005E-09
  -10.9200001       2.59798316E-09
  -10.9099998       2.64767852E-09
  -10.8999996       2.69693801E-09
  -10.8900003       2.74585621E-09
  -10.8800001       2.79443113E-09
  -10.8699999       2.84254531E-09
  -10.8599997       2.88995516E-09
  -10.8500004       2.93631408E-09
  -10.8400002       2.98120484E-09
  -10.8299999       3.02419068E-09
  -10.8199997       3.06486392E-09
  -10.8100004       3.10289017E-09
  -10.8000002       3.13803805E-09
  -10.7900000       3.17017235E-09
  -10.7799997       3.19924665E-09
  -10.7700005       3.22527405E-09
  -10.7600002       3.24828231E-09
  -10.7500000       3.26828853E-09
  -10.7399998       3.28527427E-09
  -10.7299995       3.29918914E-09
  -10.7200003       3.30996874E-09
  -10.7100000       3.31757244E-09
  -10.6999998       3.32201577E-09
  -10.6899996       3.32341621E-09
  -10.6800003       3.32200845E-09
  -10.6700001       3.31815886E-09
  -10.6599998       3.31233330E-09
  -10.6499996       3.30506733E-09
  -10.6400003       3.29691074E-09
  -10.6300001       3.28836847E-09
  -10.6199999       3.27985350E-09
  -10.6099997       3.27164229E-09
  -10.6000004       3.26385519E-09
  -10.5900002       3.25645821E-09
  -10.5799999       3.24927352E-09
  -10.5699997       3.24202132E-09
  -10.5600004       3.23435412E-09
  -10.5500002       3.22589910E-09
  -10.5400000       3.21630544E-09
  -10.5299997       3.20527049E-09
  -10.5200005       3.19256688E-09
  -10.5100002       3.17805560E-09
  -10.5000000       3.16168536E-09
  -10.4899998       3.14349924E-09
  -10.4799995       3.12361581E-09
  -10.4700003       3.10222403E-09
  -10.4600000       3.07956838E-09
  -10.4499998       3.05593328E-09
  -10.4399996       3.03162739E-09
  -10.4300003       3.00696334E-09
  -10.4200001       2.98222558E-09
  -10.4099998       2.95765612E-09
  -10.3999996       2.93341595E-09
  -10.3900003       2.90956170E-09
  -10.3800001       2.88602808E-09
  -10.3699999       2.86262103E-09
  -10.3599997       2.83902901E-09
  -10.3500004       2.81484769E-09
  -10.3400002       2.78962231E-09
  -10.3299999       2.76290013E-09
  -10.3199997       2.73428458E-09
  -10.3100004       2.70348477E-09
  -10.3000002       2.67034306E-09
  -10.2900000       2.63484923E-09
  -10.2799997       2.59713828E-09
  -10.2700005       2.55745491E-09
  -10.2600002       2.51612242E-09
  -10.2500000       2.47349541E-09
  -10.2399998       2.42992559E-09
  -10.2299995       2.38573783E-09
  -10.2200003       2.34122344E-09
  -10.2100000       2.29664532E-09
  -10.1999998       2.25225794E-09
  -10.1899996       2.20832819E-09
  -10.1800003       2.16516538E-09
  -10.1700001       2.12312412E-09
  -10.1599998       2.08261342E-09
  -10.1499996       2.04408224E-09
  -10.1400003       2.00798977E-09
  -10.1300001       1.97477856E-09
  -10.1199999       1.94482408E-09
  -10.1099997       1.91840321E-09
  -10.1000004       1.89565874E-09
  -10.0900002       1.87658133E-09
  -10.0799999       1.86100158E-09
  -10.0699997       1.84861060E-09
  -10.0600004       1.83897864E-09
  -10.0500002       1.83159965E-09
  -10.0400000       1.82594229E-09
  -10.0299997       1.82149140E-09
  -10.0200005       1.81779203E-09
  -10.0100002       1.81448234E-09
  -10.0000000       1.81130644E-09
  -9.98999977       1.80811610E-09
  -9.97999954       1.80486182E-09
  -9.97000027       1.80157234E-09
  -9.96000004       1.79832838E-09
  -9.94999981       1.79525561E-09
  -9.93999958       1.79250048E-09
  -9.93000031       1.79024906E-09
  -9.92000008       1.78871962E-09
  -9.90999985       1.78818138E-09
  -9.89999962       1.78896653E-09
  -9.89000034       1.79147641E-09
  -9.88000011       1.79617632E-09
  -9.86999989       1.80358339E-09
  -9.85999966       1.81424031E-09
  -9.85000038       1.82869997E-09
  -9.84000015       1.84748272E-09
  -9.82999992       1.87106841E-09
  -9.81999969       1.89988136E-09
  -9.81000042       1.93428429E-09
  -9.80000019       1.97459293E-09
  -9.78999996       2.02109462E-09
  -9.77999973       2.07405204E-09
  -9.77000046       2.13371920E-09
  -9.76000023       2.20032370E-09
  -9.75000000       2.27405716E-09
  -9.73999977       2.35504083E-09
  -9.72999954       2.44328557E-09
  -9.72000027       2.53865817E-09
  -9.71000004       2.64085864E-09
  -9.69999981       2.74942447E-09
  -9.68999958       2.86374613E-09
  -9.68000031       2.98311975E-09
  -9.67000008       3.10680104E-09
  -9.65999985       3.23408389E-09
  -9.64999962       3.36435568E-09
  -9.64000034       3.49713036E-09
  -9.63000011       3.63207264E-09
  -9.61999989       3.76897269E-09
  -9.60999966       3.90772792E-09
  -9.60000038       4.04827372E-09
  -9.59000015       4.19056656E-09
  -9.57999992       4.33453495E-09
  -9.56999969       4.48008697E-09
  -9.56000042       4.62710537E-09
  -9.55000019       4.77548801E-09
  -9.53999996       4.92516605E-09
  -9.52999973       5.07612752E-09
  -9.52000046       5.22841193E-09
  -9.51000023       5.38211120E-09
  -9.50000000       5.53732971E-09
  -9.48999977       5.69414871E-09
  -9.47999954       5.85259174E-09
  -9.47000027       6.01259931E-09
  -9.46000004       6.17400708E-09
  -9.44999981       6.33657038E-09
  -9.43999958       6.49996190E-09
  -9.43000031       6.66380329E-09
  -9.42000008       6.82769574E-09
  -9.40999985       6.99121561E-09
  -9.39999962       7.15396009E-09
  -9.39000034       7.31553573E-09
  -9.38000011       7.47557483E-09
  -9.36999989       7.63375141E-09
  -9.35999966       7.78976883E-09
  -9.35000038       7.94338284E-09
  -9.34000015       8.09436429E-09
  -9.32999992       8.24249557E-09
  -9.31999969       8.38755554E-09
  -9.31000042       8.52926174E-09
  -9.30000019       8.66728556E-09
  -9.28999996       8.80124684E-09
  -9.27999973       8.93072194E-09
  -9.27000046       9.05530850E-09
  -9.26000023       9.17467524E-09
  -9.25000000       9.28859833E-09
  -9.23999977       9.39699163E-09
  -9.22999954       9.49990131E-09
  -9.22000027       9.59746771E-09
  -9.21000004       9.68984981E-09
  -9.19999981       9.77715686E-09
  -9.18999958       9.85939863E-09
  -9.18000031       9.93643567E-09
  -9.17000008       1.00080246E-08
  -9.15999985       1.00738804E-08
  -9.14999962       1.01337569E-08
  -9.14000034       1.01875477E-08
  -9.13000011       1.02353361E-08
  -9.11999989       1.02774411E-08
  -9.10999966       1.03143600E-08
  -9.10000038       1.03467404E-08
  -9.09000015       1.03752793E-08
  -9.07999992       1.04006768E-08
  -9.06999969       1.04235758E-08
  -9.06000042       1.04445572E-08
  -9.05000019       1.04641780E-08
  -9.03999996       1.04829834E-08
  -9.02999973       1.05015845E-08
  -9.02000046       1.05206075E-08
  -9.01000023       1.05407088E-08
  -9.00000000       1.05625260E-08
  -8.98999977       1.05866045E-08
  -8.97999954       1.06133875E-08
  -8.97000027       1.06431974E-08
  -8.96000004       1.06762572E-08
  -8.94999981       1.07127462E-08
  -8.93999958       1.07528368E-08
  -8.93000031       1.07967733E-08
  -8.92000008       1.08448219E-08
  -8.90999985       1.08972733E-08
  -8.89999962       1.09543619E-08
  -8.89000034       1.10161960E-08
  -8.88000011       1.10827179E-08
  -8.86999989       1.11536762E-08
  -8.85999966       1.12287131E-08
  -8.85000038       1.13074057E-08
  -8.84000015       1.13893881E-08
  -8.82999992       1.14744072E-08
  -8.81999969       1.15623857E-08
  -8.81000042       1.16533894E-08
  -8.80000019       1.17475638E-08
  -8.78999996       1.18450458E-08
  -8.77999973       1.19459171E-08
  -8.77000046       1.20501396E-08
  -8.76000023       1.21576003E-08
  -8.75000000       1.22682069E-08
  -8.73999977       1.23819817E-08
  -8.72999954       1.24991590E-08
  -8.72000027       1.26202568E-08
  -8.71000004       1.27460797E-08
  -8.69999981       1.28776545E-08
  -8.68999958       1.30161490E-08
  -8.68000031       1.31627456E-08
  -8.67000008       1.33185845E-08
  -8.65999985       1.34847049E-08
  -8.64999962       1.36620786E-08
  -8.64000034       1.38516727E-08
  -8.63000011       1.40544678E-08
  -8.61999989       1.42715546E-08
  -8.60999966       1.45040460E-08
  -8.60000038       1.47530566E-08
  -8.59000015       1.50195749E-08
  -8.57999992       1.53043622E-08
  -8.56999969       1.56078634E-08
  -8.56000042       1.59302100E-08
  -8.55000019       1.62712208E-08
  -8.53999996       1.66305281E-08
  -8.52999973       1.70076841E-08
  -8.52000046       1.74022308E-08
  -8.51000023       1.78137682E-08
  -8.50000000       1.82419377E-08
  -8.48999977       1.86864142E-08
  -8.47999954       1.91467802E-08
  -8.47000027       1.96225312E-08
  -8.46000004       2.01129691E-08
  -8.44999981       2.06172501E-08
  -8.43999958       2.11344062E-08
  -8.43000031       2.16634017E-08
  -8.42000008       2.22031638E-08
  -8.40999985       2.27526584E-08
  -8.39999962       2.33107524E-08
  -8.39000034       2.38763089E-08
  -8.38000011       2.44480614E-08
  -8.36999989       2.50246455E-08
  -8.35999966       2.56045833E-08
  -8.35000038       2.61863295E-08
  -8.34000015       2.67684079E-08
  -8.32999992       2.73493832E-08
  -8.31999969       2.79279817E-08
  -8.31000042       2.85030666E-08
  -8.30000019       2.90735613E-08
  -8.28999996       2.96384499E-08
  -8.27999973       3.01966629E-08
  -8.27000046       3.07470422E-08
  -8.26000023       3.12883870E-08
  -8.25000000       3.18194822E-08
  -8.23999977       3.23392193E-08
  -8.22999954       3.28466498E-08
  -8.22000027       3.33410455E-08
  -8.21000004       3.38218840E-08
  -8.19999981       3.42888171E-08
  -8.18999958       3.47415110E-08
  -8.18000031       3.51795819E-08
  -8.17000008       3.56024970E-08
  -8.15999985       3.60095207E-08
  -8.14999962       3.63997437E-08
  -8.14000034       3.67722102E-08
  -8.13000011       3.71259929E-08
  -8.11999989       3.74603069E-08
  -8.10999966       3.77745266E-08
  -8.10000038       3.80682081E-08
  -8.09000015       3.83410494E-08
  -8.07999992       3.85928161E-08
  -8.06999969       3.88232948E-08
  -8.06000042       3.90321588E-08
  -8.05000019       3.92191168E-08
  -8.03999996       3.93838988E-08
  -8.02999973       3.95264088E-08
  -8.02000046       3.96466504E-08
  -8.01000023       3.97449575E-08
  -8.00000000       3.98219200E-08
  -7.98999977       3.98783229E-08
  -7.98000002       3.99151538E-08
  -7.96999979       3.99334752E-08
  -7.96000004       3.99344096E-08
  -7.94999981       3.99191826E-08
  -7.94000006       3.98890521E-08
  -7.92999983       3.98453750E-08
  -7.92000008       3.97896684E-08
  -7.90999985       3.97235169E-08
  -7.90000010       3.96486399E-08
  -7.88999987       3.95667676E-08
  -7.88000011       3.94795876E-08
  -7.86999989       3.93886417E-08
  -7.86000013       3.92953652E-08
  -7.84999990       3.92009518E-08
  -7.84000015       3.91065811E-08
  -7.82999992       3.90132406E-08
  -7.82000017       3.89219608E-08
  -7.80999994       3.88337433E-08
  -7.80000019       3.87495369E-08
  -7.78999996       3.86702688E-08
  -7.78000021       3.85967454E-08
  -7.76999998       3.85296026E-08
  -7.76000023       3.84693308E-08
  -7.75000000       3.84163030E-08
  -7.73999977       3.83707359E-08
  -7.73000002       3.83328320E-08
  -7.71999979       3.83027761E-08
  -7.71000004       3.82808274E-08
  -7.69999981       3.82672880E-08
  -7.69000006       3.82625309E-08
  -7.67999983       3.82669008E-08
  -7.67000008       3.82807954E-08
  -7.65999985       3.83046341E-08
  -7.65000010       3.83387437E-08
  -7.63999987       3.83835896E-08
  -7.63000011       3.84396088E-08
  -7.61999989       3.85074124E-08
  -7.61000013       3.85876149E-08
  -7.59999990       3.86809376E-08
  -7.59000015       3.87880839E-08
  -7.57999992       3.89097607E-08
  -7.57000017       3.90466290E-08
  -7.55999994       3.91993531E-08
  -7.55000019       3.93685937E-08
  -7.53999996       3.95550543E-08
  -7.53000021       3.97594846E-08
  -7.51999998       3.99828295E-08
  -7.51000023       4.02260554E-08
  -7.50000000       4.04902920E-08
  -7.48999977       4.07765768E-08
  -7.48000002       4.10860039E-08
  -7.46999979       4.14194581E-08
  -7.46000004       4.17778097E-08
  -7.44999981       4.21617905E-08
  -7.44000006       4.25721041E-08