  -16.0000000       0.00000000    
  -15.9899998       0.00000000    
  -15.9799995       0.00000000    
  -15.9700003       0.00000000    
  -15.9600000       0.00000000    
  -15.9499998       0.00000000    
  -15.9399996       0.00000000    
  -15.9300003       0.00000000    
  -15.9200001       0.00000000    
  -15.9099998       0.00000000    
  -15.8999996       0.00000000    
  -15.8900003       0.00000000    
  -15.8800001       0.00000000    
  -15.8699999       0.00000000    
  -15.8599997       0.00000000    
  -15.8500004      -2.80259693E-45
  -15.8400002      -4.20389539E-44
  -15.8299999      -3.97968764E-43
  -15.8199997      -2.96374625E-42
  -15.8100004      -1.81762424E-41
  -15.8000002      -9.49842138E-41
  -15.7900000      -4.32870905E-40
  -15.7799997      -1.74971451E-39
  -15.7700005      -6.35299118E-39
  -15.7600002      -2.09201824E-38
  -15.7500000      -6.29370000E-38
  -15.7399998      -1.73933067E-37
  -15.7299995      -4.43307249E-37
  -15.7200003      -1.04464680E-36
  -15.7100000      -2.27848243E-36
  -15.6999998      -4.59715687E-36
  -15.6899996      -8.55711243E-36
  -15.6800003      -1.46083570E-35
  -15.6700001      -2.26135597E-35
  -15.6599998      -3.10350368E-35
  -15.6499996      -3.58925634E-35
  -15.6400003      -2.99148590E-35
  -15.6300001      -2.73787909E-36
  -15.6199999       5.66460798E-35
  -15.6099997       1.54070690E-34
  -15.6000004       2.80865824E-34
  -15.5900002       4.03015988E-34
  -15.5799999       4.53880593E-34
  -15.5699997       3.38411737E-34
  -15.5600004      -4.25726832E-35
  -15.5500002      -7.43570752E-34
  -15.5400000      -1.70671402E-33
  -15.5299997      -2.69607013E-33
  -15.5200005      -3.27007284E-33
  -15.5100002      -2.83515701E-33
  -15.5000000      -8.13215257E-34
  -15.4899998       3.07814951E-33
  -15.4799995       8.48743435E-33
  -15.4700003       1.41485571E-32
  -15.4600000       1.78181360E-32
  -15.4499998       1.65939938E-32
  -15.4399996       7.71814089E-33
  -15.4300003      -1.01692949E-32
  -15.4200001      -3.55662831E-32
  -15.4099998      -6.29277156E-32
  -15.3999996      -8.24836216E-32
  -15.3900003      -8.18313516E-32
  -15.3800001      -4.97722176E-32
  -15.3699999       1.80043417E-32
  -15.3599997       1.13208476E-31
  -15.3500004       2.12588459E-31
  -15.3400002       2.82896845E-31
  -15.3299999       2.95306891E-31
  -15.3199997       2.45820742E-31
  -15.3100004       1.69676897E-31
  -15.3000002       1.30063724E-31
  -15.2900000       1.62528151E-31
  -15.2799997       1.75458754E-31
  -15.2700005      -1.51961386E-31
  -15.2600002      -1.37879986E-30
  -15.2500000      -4.08681544E-30
  -15.2399998      -8.33958060E-30
  -15.2299995      -1.28638398E-29
  -15.2200003      -1.42787378E-29
  -15.2100000      -7.03504969E-30
  -15.1999998       1.50668283E-29
  -15.1899996       5.51165701E-29
  -15.1800003       1.07310313E-28
  -15.1700001       1.50988887E-28
  -15.1599998       1.48321859E-28
  -15.1499996       5.08302686E-29
  -15.1400003      -1.80747153E-28
  -15.1300001      -5.42923311E-28
  -15.1199999      -9.50119405E-28
  -15.1099997      -1.20801288E-27
  -15.1000004      -1.02693811E-27
  -15.0900002      -1.02976826E-28
  -15.0799999       1.72125848E-27
  -15.0699997       4.23975951E-27
  -15.0600004       6.68527955E-27
  -15.0500002       7.67676061E-27
  -15.0400000       5.46013234E-27
  -15.0299997      -1.45186296E-27
  -15.0200005      -1.32690010E-26
  -15.0100002      -2.77925897E-26
  -15.0000000      -3.96742863E-26
  -14.9899998      -4.07591303E-26
  -14.9799995      -2.21620611E-26
  -14.9700003       2.16960430E-26
  -14.9600000       8.77263000E-26
  -14.9499998       1.59281481E-25
  -14.9399996       2.04619462E-25
  -14.9300003       1.81976011E-25
  -14.9200001       5.34564752E-26
  -14.9099998      -1.92995535E-25
  -14.8999996      -5.18987547E-25
  -14.8900003      -8.19110171E-25
  -14.8800001      -9.26570480E-25
  -14.8699999      -6.53846030E-25
  -14.8599997       1.27678691E-25
  -14.8500004       1.38223715E-24
  -14.8400002       2.81375582E-24
  -14.8299999       3.83453256E-24
  -14.8199997       3.65869901E-24
  -14.8100004       1.55883185E-24
  -14.8000002      -2.73197993E-24
  -14.7900000      -8.57523753E-24
  -14.7799997      -1.41323343E-23
  -14.7700005      -1.64670154E-23
  -14.7600002      -1.22586547E-23
  -14.7500000       8.21331850E-25
  -14.7399998       2.23100214E-23
  -14.7299995       4.73342923E-23
  -14.7200003       6.60781133E-23
  -14.7100000       6.52955254E-23
  -14.6999998       3.24498628E-23
  -14.6899996      -3.78325037E-23
  -14.6800003      -1.36607813E-22
  -14.6700001      -2.35710124E-22
  -14.6599998      -2.88800412E-22
  -14.6499996      -2.41551961E-22
  -14.6400003      -5.18203202E-23
  -14.6300001       2.83456176E-22
  -14.6199999       7.02910206E-22
  -14.6099997       1.06940872E-21
  -14.6000004       1.18608541E-21
  -14.5900002       8.48518884E-22
  -14.5799999      -6.93052802E-23
  -14.5699997      -1.51391581E-21
  -14.5600004      -3.17189595E-21
  -14.5500002      -4.45661407E-21
  -14.5400000      -4.60496455E-21
  -14.5299997      -2.90288313E-21
  -14.5200005       9.86532535E-22
  -14.5100002       6.67593521E-21
  -14.5000000       1.28228198E-20
  -14.4899998       1.71714714E-20
  -14.4799995       1.69912704E-20
  -14.4700003       9.93449732E-21
  -14.4600000      -4.82338991E-21
  -14.4499998      -2.54791969E-20
  -14.4399996      -4.69927607E-20
  -14.4300003      -6.14551316E-20
  -14.4200001      -5.97586875E-20
  -14.4099998      -3.45330619E-20
  -14.3999996       1.61982530E-20
  -14.3900003       8.57164940E-20
  -14.3800001       1.57084041E-19
  -14.3699999       2.04778448E-19
  -14.3599997       2.00271994E-19
  -14.3500004       1.21207331E-19
  -14.3400002      -3.76815504E-20
  -14.3299999      -2.55173638E-19
  -14.3199997      -4.79772045E-19
  -14.3100004      -6.35236505E-19
  -14.3000002      -6.37266510E-19
  -14.2900000      -4.19902082E-19
  -14.2799997       3.38573200E-20
  -14.2700005       6.66339478E-19
  -14.2600002       1.33531415E-18
  -14.2500000       1.82944310E-18
  -14.2399998       1.91335313E-18
  -14.2299995       1.39793885E-18
  -14.2200003       2.21287616E-19
  -14.2100000      -1.48326367E-18
  -14.1999998      -3.35939429E-18
  -14.1899996      -4.86387370E-18
  -14.1800003      -5.37678193E-18
  -14.1700001      -4.37512452E-18
  -14.1599998      -1.63470752E-18
  -14.1499996       2.59568966E-18
  -14.1400003       7.51303004E-18
  -14.1300001       1.18277340E-17
  -14.1199999       1.40066543E-17
  -14.1099997       1.26700239E-17
  -14.1000004       7.06606631E-18
  -14.0900002      -2.50042554E-18
  -14.0799999      -1.44318863E-17
  -14.0699997      -2.59238172E-17
  -14.0600004      -3.34411751E-17
  -14.0500002      -3.35543731E-17
  -14.0400000      -2.39861715E-17
  -14.0299997      -4.61632170E-18
  -14.0200005       2.18659471E-17
  -14.0100002       4.99503700E-17
  -14.0000000       7.21112500E-17
  -13.9899998       8.04134567E-17
  -13.9799995       6.86640641E-17
  -13.9700003       3.46326593E-17
  -13.9600000      -1.82774672E-17
  -13.9499998      -8.05200703E-17
  -13.9399996      -1.37491910E-16
  -13.9300003      -1.72300372E-16
  -13.9200001      -1.69845736E-16
  -13.9099998      -1.21398800E-16
  -13.8999996      -2.85222132E-17
  -13.8900003       9.48954701E-17
  -13.8800001       2.23485381E-16
  -13.8699999       3.24547688E-16
  -13.8599997       3.65117417E-16
  -13.8500004       3.20681936E-16
  -13.8400002       1.83560020E-16
  -13.8299999      -3.13809296E-17
  -13.8199997      -2.85768720E-16
  -13.8100004      -5.22789741E-16
  -13.8000002      -6.78174176E-16
  -13.7900000      -6.95403409E-16
  -13.7799997      -5.41963390E-16
  -13.7700005      -2.22557563E-16
  -13.7600002       2.14811632E-16
  -13.7500000       6.82876850E-16
  -13.7399998       1.07013708E-15
  -13.7299995       1.26500739E-15
  -13.7200003       1.18443740E-15
  -13.7100000       8.00301451E-16
  -13.6999998       1.56223594E-16
  -13.6899996      -6.31278197E-16
  -13.6800003      -1.39037398E-15
  -13.6700001      -1.92882510E-15
  -13.6599998      -2.07994679E-15
  -13.6499996      -1.74936624E-15
  -13.6400003      -9.50350215E-16
  -13.6300001       1.83470764E-16
  -13.6199999       1.41494292E-15
  -13.6099997       2.44992316E-15
  -13.6000004       3.00566846E-15
  -13.5900002       2.88610404E-15
  -13.5799999       2.04480784E-15
  -13.5699997       6.16940312E-16
  -13.5600004      -1.09305367E-15
  -13.5500002      -2.67102946E-15
  -13.5400000      -3.69057464E-15
  -13.5299997      -3.82700921E-15
  -13.5200005      -2.95894994E-15
  -13.5100002      -1.22756229E-15
  -13.5000000       9.69030573E-16
  -13.4899998       3.05396734E-15
  -13.4799995       4.41117903E-15
  -13.4700003       4.55596957E-15
  -13.4600000       3.29317982E-15
  -13.4499998       8.16305821E-16
  -13.4399996      -2.28952582E-15
  -13.4300003      -5.15648078E-15
  -13.4200001      -6.84157405E-15
  -13.4099998      -6.58978292E-15
  -13.3999996      -4.08727405E-15
  -13.3900003       3.68297628E-16
  -13.3800001       5.84197480E-15
  -13.3699999       1.09113988E-14
  -13.3599997       1.39800662E-14
  -13.3500004       1.36945678E-14
  -13.3400002       9.36854777E-15
  -13.3299999       1.29863746E-15
  -13.3199997      -9.13128876E-15
  -13.3100004      -1.96206746E-14
  -13.3000002      -2.73972434E-14
  -13.2900000      -2.98629089E-14
  -13.2799997      -2.53029748E-14
  -13.2700005      -1.34834618E-14
  -13.2600002       4.03577360E-15
  -13.2500000       2.39961910E-14
  -13.2399998       4.19810738E-14
  -13.2299995       5.33295637E-14
  -13.2200003       5.42476864E-14
  -13.2100000       4.28650544E-14
  -13.1999998       1.99664521E-14
  -13.1899996      -1.08271673E-14
  -13.1800003      -4.35448864E-14
  -13.1700001      -7.09846746E-14
  -13.1599998      -8.62689911E-14
  -13.1499996      -8.45096562E-14
  -13.1400003      -6.41890580E-14
  -13.1300001      -2.78892544E-14
  -13.1199999       1.78797711E-14
  -13.1099997       6.38078932E-14
  -13.1000004       9.96951138E-14
  -13.0900002       1.16760226E-13
  -13.0799999       1.09827539E-13
  -13.0699997       7.88491044E-14
  -13.0600004       2.93306266E-14
  -13.0500002      -2.85428148E-14
  -13.0400000      -8.19836888E-14
  -13.0299997      -1.18478618E-13
  -13.0200005      -1.28827680E-13
  -13.0100002      -1.09611423E-13
  -13.0000000      -6.44276977E-14
  -12.9899998      -3.48767997E-15
  -12.9799995       5.84670862E-14
  -12.9700003       1.05549114E-13
  -12.9600000       1.24675023E-13
  -12.9499998       1.09138765E-13
  -12.9399996       6.08757090E-14
  -12.9300003      -9.27052404E-15
  -12.9200001      -8.35286227E-14
  -12.9099998      -1.41138647E-13
  -12.8999996      -1.63445253E-13
  -12.8900003      -1.38977846E-13
  -12.8800001      -6.72458915E-14
  -12.8699999       3.98245313E-14
  -12.8599997       1.59405055E-13
  -12.8500004       2.62154204E-13
  -12.8400002       3.18696024E-13
  -12.8299999       3.06821625E-13
  -12.8199997       2.17747288E-13
  -12.8100004       5.98369485E-14
  -12.8000002      -1.41339170E-13
  -12.7900000      -3.46968006E-13
  -12.7799997      -5.12417799E-13
  -12.7700005      -5.96700803E-13
  -12.7600002      -5.71960773E-13
  -12.7500000      -4.30808601E-13
  -12.7399998      -1.89660611E-13
  -12.7299995       1.12970485E-13
  -12.7200003       4.23192162E-13
  -12.7100000       6.82256118E-13
  -12.6999998       8.38733596E-13
  -12.6899996       8.59671817E-13
  -12.6800003       7.38141373E-13
  -12.6700001       4.95281388E-13
  -12.6599998       1.76132438E-13
  -12.6499996      -1.60025910E-13
  -12.6400003      -4.52776705E-13
  -12.6300001      -6.54125842E-13
  -12.6199999      -7.39277617E-13
  -12.6099997      -7.11895820E-13
  -12.6000004      -6.02332149E-13
  -12.5900002      -4.58964626E-13
  -12.5799999      -3.34523587E-13
  -12.5699997      -2.70662751E-13
  -12.5600004      -2.84693547E-13
  -12.5500002      -3.62125531E-13
  -12.5400000      -4.57440780E-13
  -12.5299997      -5.03613915E-13
  -12.5200005      -4.28695653E-13
  -12.5100002      -1.75844745E-13
  -12.5000000       2.77994668E-13
  -12.4899998       9.09629577E-13
  -12.4799995       1.64709349E-12
  -12.4700003       2.37861271E-12
  -12.4600000       2.97190484E-12
  -12.4499998       3.30001131E-12
  -12.4399996       3.26798939E-12
  -12.4300003       2.83414720E-12
  -12.4200001       2.02040077E-12
  -12.4099998       9.08579147E-13
  -12.3999996      -3.77287692E-13
  -12.3900003      -1.69931040E-12
  -12.3800001      -2.93853570E-12
  -12.3699999      -4.02460964E-12
  -12.3599997      -4.95502294E-12
  -12.3500004      -5.79875731E-12
  -12.3400002      -6.68251869E-12
  -12.3299999      -7.76184065E-12
  -12.3199997      -9.18294520E-12
  -12.3100004      -1.10436929E-11
  -12.3000002      -1.33624891E-11
  -12.2900000      -1.60625974E-11
  -12.2799997      -1.89759007E-11
  -12.2700005      -2.18659292E-11
  -12.2600002      -2.44656344E-11
  -12.2500000      -2.65216668E-11
  -12.2399998      -2.78358465E-11
  -12.2299995      -2.82944848E-11
  -12.2200003      -2.78793880E-11
  -12.2100000      -2.66581878E-11
  -12.1999998      -2.47567262E-11
  -12.1899996      -2.23200139E-11
  -12.1800003      -1.94712805E-11
  -12.1700001      -1.62788359E-11
  -12.1599998      -1.27388404E-11
  -12.1499996      -8.77818131E-12
  -12.1400003      -4.27723698E-12
  -12.1300001       8.92724696E-13
  -12.1199999       6.82614078E-12
  -12.1099997       1.35439290E-11
  -12.1000004       2.09680728E-11
  -12.0900002       2.89165965E-11
  -12.0799999       3.71209764E-11
  -12.0699997       4.52633417E-11
  -12.0600004       5.30258545E-11
  -12.0500002       6.01422107E-11
  -12.0400000       6.64403046E-11
  -12.0299997       7.18664711E-11
  -12.0200005       7.64863173E-11
  -12.0100002       8.04611655E-11
  -12.0000000       8.40045533E-11
  -11.9899998       8.73282904E-11
  -11.9799995       9.05882799E-11
  -11.9700003       9.38421563E-11
  -11.9600000       9.70270114E-11
  -11.9499998       9.99621150E-11
  -11.9399996       1.02375740E-10
  -11.9300003       1.03950543E-10
  -11.9200001       1.04377389E-10
  -11.9099998       1.03406915E-10
  -11.8999996       1.00887319E-10
  -11.8900003       9.67810762E-11
  -11.8800001       9.11574913E-11
  -11.8699999       8.41635303E-11
  -11.8599997       7.59799446E-11
  -11.8500004       6.67732258E-11
  -11.8400002       5.66547087E-11
  -11.8299999       4.56560970E-11
  -11.8199997       3.37273751E-11
  -11.8100004       2.07569500E-11
  -11.8000002       6.61006666E-12
  -11.7900000      -8.82425036E-12
  -11.7799997      -2.55880889E-11
  -11.7700005      -4.36222759E-11
  -11.7600002      -6.27534899E-11
  -11.7500000      -8.27044475E-11
  -11.7399998      -1.03123961E-10
  -11.7299995      -1.23630398E-10
  -11.7200003      -1.43858370E-10
  -11.7100000      -1.63498798E-10
  -11.6999998      -1.82323975E-10
  -11.6899996      -2.00193445E-10
  -11.6800003      -2.17041260E-10
  -11.6700001      -2.32849157E-10
  -11.6599998      -2.47613680E-10
  -11.6499996      -2.61315941E-10
  -11.6400003      -2.73900569E-10
  -11.6300001      -2.85269003E-10
  -11.6199999      -2.95286434E-10
  -11.6099997      -3.03798736E-10
  -11.6000004      -3.10654225E-10
  -11.5900002      -3.15722309E-10
  -11.5799999      -3.18904098E-10
  -11.5699997      -3.20131643E-10
  -11.5600004      -3.19357207E-10
  -11.5500002      -3.16535437E-10
  -11.5400000      -3.11604409E-10
  -11.5299997      -3.04472475E-10
  -11.5200005      -2.95014457E-10
  -11.5100002      -2.83079199E-10
  -11.5000000      -2.68508354E-10
  -11.4899998      -2.51159177E-10
  -11.4799995      -2.30929040E-10
  -11.4700003      -2.07771758E-10
  -11.4600000      -1.81703860E-10
  -11.4499998      -1.52797303E-10
  -11.4399996      -1.21161484E-10
  -11.4300003      -8.69187985E-11
  -11.4200001      -5.01798013E-11
  -11.4099998      -1.10251296E-11
  -11.3999996       3.05018337E-11
  -11.3900003       7.43885092E-11
  -11.3800001       1.20636723E-10
  -11.3699999       1.69237915E-10
  -11.3599997       2.20149510E-10
  -11.3500004       2.73277706E-10
  -11.3400002       3.28470889E-10
  -11.3299999       3.85527443E-10
  -11.3199997       4.44214221E-10
  -11.3100004       5.04292330E-10
  -11.3000002       5.65541725E-10
  -11.2900000       6.27778052E-10
  -11.2799997       6.90858148E-10
  -11.2700005       7.54669882E-10
  -11.2600002       8.19110335E-10
  -11.2500000       8.84058882E-10
  -11.2399998       9.49353263E-10
  -11.2299995       1.01477449E-09
  -11.2200003       1.08005005E-09
  -11.2100000       1.14487542E-09
  -11.1999998       1.20895172E-09
  -11.1899996       1.27202993E-09
  -11.1800003       1.33395284E-09
  -11.1700001       1.39468459E-09
  -11.1599998       1.45431600E-09
  -11.1499996       1.51304647E-09
  -11.1400003       1.57114022E-09
  -11.1300001       1.62886793E-09
  -11.1199999       1.68644609E-09
  -11.1099997       1.74398662E-09
  -11.1000004       1.80146664E-09
  -11.0900002       1.85873239E-09
  -11.0799999       1.91553018E-09
  -11.0699997       1.97156091E-09
  -11.0600004       2.02654471E-09
  -11.0500002       2.08028439E-09
  -11.0400000       2.13270712E-09
  -11.0299997       2.18387552E-09
  -11.0200005       2.23397500E-09
  -11.0100002       2.28326558E-09
  -11.0000000       2.33201836E-09
  -10.9899998       2.38045939E-09
  -10.9799995       2.42871878E-09
  -10.9700003       2.47682030E-09
  -10.9600000       2.52468491E-09
  -10.9499998       2.57218846E-09
  -10.9399996       2.61921063E-09
  -10.9300003       2.66570810E-09
  -10.9200001       2.71175304E-09
  -10.9099998       2.75755951E-09
  -10.8999996       2.80346080E-09
  -10.8900003       2.84985169E-09
  -10.8800001       2.89711921E-09
  -10.8699999       2.94555980E-09
  -10.8599997       2.99530356E-09
  -10.8500004       3.04628589E-09
  -10.8400002       3.09823256E-09
  -10.8299999       3.15071147E-09
  -10.8199997       3.20320015E-09
  -10.8100004       3.25516414E-09
  -10.8000002       3.30614025E-09
  -10.7900000       3.35579609E-09
  -10.7799997       3.40396933E-09
  -10.7700005       3.45063467E-09
  -10.7600002       3.49589713E-09
  -10.7500000       3.53991214E-09
  -10.7399998       3.58283447E-09
  -10.7299995       3.62477248E-09
  -10.7200003       3.66574882E-09
  -10.7100000       3.70569975E-09
  -10.6999998       3.74447673E-09
  -10.6899996       3.78190057E-09
  -10.6800003       3.81777321E-09
  -10.6700001       3.85192900E-09
  -10.6599998       3.88424448E-09
  -10.6499996       3.91465749E-09
  -10.6400003       3.94316002E-09
  -10.6300001       3.96978317E-09
  -10.6199999       3.99458244E-09
  -10.6099997       4.01763245E-09
  -10.6000004       4.03900913E-09
  -10.5900002       4.05878176E-09
  -10.5799999       4.07703737E-09
  -10.5699997       4.09388790E-09
  -10.5600004       4.10948653E-09
  -10.5500002       4.12405843E-09
  -10.5400000       4.13790335E-09
  -10.5299997       4.15142498E-09
  -10.5200005       4.16508916E-09
  -10.5100002       4.17943635E-09
  -10.5000000       4.19500479E-09
  -10.4899998       4.21231050E-09
  -10.4799995       4.23175539E-09
  -10.4700003       4.25360458E-09
  -10.4600000       4.27792113E-09
  -10.4499998       4.30460068E-09
  -10.4399996       4.33335545E-09
  -10.4300003       4.36378400E-09
  -10.4200001       4.39544623E-09
  -10.4099998       4.42794645E-09
  -10.3999996       4.46099113E-09
  -10.3900003       4.49445370E-09
  -10.3800001       4.52837190E-09
  -10.3699999       4.56294513E-09
  -10.3599997       4.59847804E-09
  -10.3500004       4.63529704E-09
  -10.3400002       4.67372807E-09
  -10.3299999       4.71399275E-09
  -10.3199997       4.75621142E-09
  -10.3100004       4.80038986E-09
  -10.3000002       4.84643214E-09
  -10.2900000       4.89422280E-09
  -10.2799997       4.94364949E-09
  -10.2700005       4.99466823E-09
  -10.2600002       5.04734121E-09
  -10.2500000       5.10182918E-09
  -10.2399998       5.15842036E-09
  -10.2299995       5.21745447E-09
  -10.2200003       5.27932364E-09
  -10.2100000       5.34439426E-09
  -10.1999998       5.41298828E-09
  -10.1899996       5.48534818E-09
  -10.1800003       5.56162361E-09
  -10.1700001       5.64189051E-09
  -10.1599998       5.72615644E-09
  -10.1499996       5.81439519E-09
  -10.1400003       5.90657701E-09
  -10.1300001       6.00270678E-09
  -10.1199999       6.10280182E-09
  -10.1099997       6.20692031E-09
  -10.1000004       6.31517638E-09
  -10.0900002       6.42765308E-09
  -10.0799999       6.54445653E-09
  -10.0699997       6.66563693E-09
  -10.0600004       6.79117296E-09
  -10.0500002       6.92101798E-09
  -10.0400000       7.05502234E-09
  -10.0299997       7.19300264E-09
  -10.0200005       7.33472039E-09
  -10.0100002       7.47990292E-09
  -10.0000000       7.62829089E-09
  -9.98999977       7.77962939E-09
  -9.97999954       7.93371591E-09
  -9.97000027       8.09038614E-09
  -9.96000004       8.24954771E-09
  -9.94999981       8.41123171E-09
  -9.93999958       8.57553939E-09
  -9.93000031       8.74265638E-09
  -9.92000008       8.91285978E-09
  -9.90999985       9.08642495E-09
  -9.89999962       9.26360944E-09
  -9.89000034       9.44463263E-09
  -9.88000011       9.62962154E-09
  -9.86999989       9.81864900E-09
  -9.85999966       1.00116928E-08
  -9.85000038       1.02087565E-08
  -9.84000015       1.04098552E-08
  -9.82999992       1.06151283E-08
  -9.81999969       1.08248699E-08
  -9.81000042       1.10394884E-08
  -9.80000019       1.12595275E-08
  -9.78999996       1.14855903E-08
  -9.77999973       1.17182735E-08
  -9.77000046       1.19580887E-08
  -9.76000023       1.22054153E-08
  -9.75000000       1.24604789E-08
  -9.73999977       1.27234117E-08
  -9.72999954       1.29942679E-08
  -9.72000027       1.32730991E-08
  -9.71000004       1.35600224E-08
  -9.69999981       1.38552441E-08
  -9.68999958       1.41590180E-08
  -9.68000031       1.44716665E-08
  -9.67000008       1.47934376E-08
  -9.65999985       1.51244581E-08
  -9.64999962       1.54646163E-08
  -9.64000034       1.58135229E-08
  -9.63000011       1.61705334E-08
  -9.61999989       1.65347007E-08
  -9.60999966       1.69048633E-08
  -9.60000038       1.72797243E-08
  -9.59000015       1.76578787E-08
  -9.57999992       1.80378610E-08
  -9.56999969       1.84182127E-08
  -9.56000042       1.87974862E-08
  -9.55000019       1.91741929E-08
  -9.53999996       1.95468299E-08
  -9.52999973       1.99138626E-08
  -9.52000046       2.02737205E-08
  -9.51000023       2.06247908E-08
  -9.50000000       2.09655244E-08
  -9.48999977       2.12943316E-08
  -9.47999954       2.16098552E-08
  -9.47000027       2.19107736E-08
  -9.46000004       2.21960335E-08
  -9.44999981       2.24647465E-08
  -9.43999958       2.27162520E-08
  -9.43000031       2.29501325E-08
  -9.42000008       2.31661410E-08
  -9.40999985       2.33642687E-08
  -9.39999962       2.35447803E-08
  -9.39000034       2.37081590E-08
  -9.38000011       2.38552396E-08
  -9.36999989       2.39872016E-08
  -9.35999966       2.41056011E-08
  -9.35000038       2.42123956E-08
  -9.34000015       2.43099354E-08
  -9.32999992       2.44009026E-08
  -9.31999969       2.44881786E-08
  -9.31000042       2.45748719E-08
  -9.30000019       2.46641800E-08
  -9.28999996       2.47592951E-08
  -9.27999973       2.48634233E-08
  -9.27000046       2.49798013E-08
  -9.26000023       2.51116408E-08
  -9.25000000       2.52621959E-08
  -9.23999977       2.54347121E-08
  -9.22999954       2.56324473E-08
  -9.22000027       2.58585935E-08
  -9.21000004       2.61161297E-08
  -9.19999981       2.64077702E-08
  -9.18999958       2.67358740E-08
  -9.18000031       2.71024145E-08
  -9.17000008       2.75089125E-08
  -9.15999985       2.79564247E-08
  -9.14999962       2.84457222E-08
  -9.14000034       2.89771727E-08
  -9.13000011       2.95508293E-08
  -9.11999989       3.01664009E-08
  -9.10999966       3.08232622E-08
  -9.10000038       3.15204254E-08
  -9.09000015       3.22564802E-08
  -9.07999992       3.30295826E-08
  -9.06999969       3.38374946E-08
  -9.06000042       3.46776474E-08
  -9.05000019       3.55471386E-08
  -9.03999996       3.64428594E-08
  -9.02999973       3.73615769E-08
  -9.02000046       3.82997669E-08
  -9.01000023       3.92538659E-08
  -9.00000000       4.02199163E-08
  -8.98999977       4.11938501E-08
  -8.97999954       4.21713615E-08
  -8.97000027       4.31478639E-08
  -8.96000004       4.41189130E-08
  -8.94999981       4.50799220E-08
  -8.93999958       4.60265888E-08
  -8.93000031       4.69548560E-08
  -8.92000008       4.78609614E-08
  -8.90999985       4.87413523E-08
  -8.89999962       4.95926784E-08
  -8.89000034       5.04118205E-08
  -8.88000011       5.11956308E-08
  -8.86999989       5.19410648E-08
  -8.85999966       5.26452197E-08
  -8.85000038       5.33052997E-08
  -8.84000015       5.39187752E-08
  -8.82999992       5.44833725E-08
  -8.81999969       5.49971730E-08
  -8.81000042       5.54586030E-08
  -8.80000019       5.58664546E-08
  -8.78999996       5.62198217E-08
  -8.77999973       5.65179832E-08
  -8.77000046       5.67606833E-08
  -8.76000023       5.69478367E-08
  -8.75000000       5.70797241E-08
  -8.73999977       5.71570737E-08
  -8.72999954       5.71810119E-08
  -8.72000027       5.71529952E-08
  -8.71000004       5.70749066E-08
  -8.69999981       5.69489451E-08
  -8.68999958       5.67775125E-08
  -8.68000031       5.65633407E-08
  -8.67000008       5.63093181E-08
  -8.65999985       5.60184539E-08
  -8.64999962       5.56940591E-08
  -8.64000034       5.53395587E-08
  -8.63000011       5.49585941E-08
  -8.61999989       5.45550023E-08
  -8.60999966       5.41326024E-08
  -8.60000038       5.36954019E-08
  -8.59000015       5.32472804E-08
  -8.57999992       5.27918935E-08
  -8.56999969       5.23329646E-08
  -8.56000042       5.18739540E-08
  -8.55000019       5.14181444E-08
  -8.53999996       5.09686942E-08
  -8.52999973       5.05284703E-08
  -8.52000046       5.01001871E-08
  -8.51000023       4.96861183E-08
  -8.50000000       4.92881185E-08
  -8.48999977       4.89079177E-08
  -8.47999954       4.85467240E-08
  -8.47000027       4.82056244E-08
  -8.46000004       4.78856705E-08
  -8.44999981       4.75875304E-08
  -8.43999958       4.73119037E-08
  -8.43000031       4.70592596E-08
  -8.42000008       4.68300136E-08
  -8.40999985       4.66241481E-08
  -8.39999962       4.64413006E-08
  -8.39000034       4.62806433E-08
  -8.38000011       4.61411638E-08
  -8.36999989       4.60216789E-08
  -8.35999966       4.59210661E-08
  -8.35000038       4.58383091E-08
  -8.34000015       4.57728326E-08
  -8.32999992       4.57241036E-08
  -8.31999969       4.56921718E-08
  -8.31000042       4.56769484E-08
  -8.30000019       4.56785259E-08
  -8.28999996       4.56966873E-08
  -8.27999973       4.57313227E-08
  -8.27000046       4.57822686E-08
  -8.26000023       4.58495713E-08
  -8.25000000       4.59331986E-08
  -8.23999977       4.60339074E-08
  -8.22999954       4.61526533E-08
  -8.22000027       4.62907153E-08
  -8.21000004       4.64496708E-08
  -8.19999981       4.66312784E-08
  -8.18999958       4.68372150E-08
  -8.18000031       4.70690686E-08
  -8.17000008       4.73284274E-08
  -8.15999985       4.76171103E-08
  -8.14999962       4.79369469E-08
  -8.14000034       4.82903211E-08
  -8.13000011       4.86800253E-08
  -8.11999989       4.91087953E-08
  -8.10999966       4.95795547E-08
  -8.10000038       5.00950712E-08
  -8.09000015       5.06575724E-08
  -8.07999992       5.12686249E-08
  -8.06999969       5.19294012E-08
  -8.06000042       5.26403916E-08
  -8.05000019       5.34020188E-08
  -8.03999996       5.42146879E-08
  -8.02999973       5.50789068E-08
  -8.02000046       5.59954643E-08
  -8.01000023       5.69650602E-08
  -8.00000000       5.79887214E-08
  -7.98999977       5.90668989E-08
  -7.98000002       6.01998664E-08
  -7.96999979       6.13871194E-08
  -7.96000004       6.26279331E-08
  -7.94999981       6.39210782E-08
  -7.94000006       6.52650840E-08
  -7.92999983       6.66587283E-08
  -7.92000008       6.81009453E-08
  -7.90999985       6.95906408E-08
  -7.90000010       7.11271397E-08
  -7.88999987       7.27095966E-08
  -7.88000011       7.43368958E-08
  -7.86999989       7.60077583E-08
  -7.86000013       7.77205429E-08
  -7.84999990       7.94728550E-08
  -7.84000015       8.12625061E-08
  -7.82999992       8.30867890E-08
  -7.82000017       8.49430748E-08
  -7.80999994       8.68290613E-08
  -7.80000019       8.87420555E-08
  -7.78999996       9.06800395E-08
  -7.78000021       9.26403629E-08
  -7.76999998       9.46208942E-08
  -7.76000023       9.66185922E-08
  -7.75000000       9.86309203E-08
  -7.73999977       1.00655093E-07
  -7.73000002       1.02688041E-07
  -7.71999979       1.04726922E-07
  -7.71000004       1.06768972E-07
  -7.69999981       1.08811477E-07
  -7.69000006       1.10852064E-07
  -7.67999983       1.12888202E-07
  -7.67000008       1.14917825E-07
  -7.65999985       1.16938565E-07
  -7.65000010       1.18948428E-07
  -7.63999987       1.20945302E-07
  -7.63000011       1.22927503E-07
  -7.61999989       1.24893560E-07
  -7.61000013       1.26842224E-07
  -7.59999990       1.28773024E-07
  -7.59000015       1.30685578E-07
  -7.57999992       1.32579814E-07
  -7.57000017       1.34455959E-07
  -7.55999994       1.36314355E-07
  -7.55000019       1.38155357E-07
  -7.53999996       1.39979363E-07
  -7.53000021       1.41786614E-07
  -7.51999998       1.43577935E-07
  -7.51000023       1.45354306E-07
  -7.50000000       1.47116708E-07
  -7.48999977       1.48866761E-07
  -7.48000002       1.50606340E-07
  -7.46999979       1.52337662E-07
  -7.46000004       1.54062661E-07
  -7.44999981       1.55783951E-07
  -7.44000006       1.57503663E-07