  -16.0000000       0.00000000    
  -15.9899998       0.00000000    
  -15.9799995       0.00000000    
  -15.9700003       0.00000000    
  -15.9600000       0.00000000    
  -15.9499998       0.00000000    
  -15.9399996       0.00000000    
  -15.9300003       0.00000000    
  -15.9200001       0.00000000    
  -15.9099998       0.00000000    
  -15.8999996       0.00000000    
  -15.8900003       0.00000000    
  -15.8800001      -0.00000000    
  -15.8699999      -0.00000000    
  -15.8599997       0.00000000    
  -15.8500004       2.80259693E-45
  -15.8400002       3.92363570E-44
  -15.8299999       4.27396032E-43
  -15.8199997       3.61535004E-42
  -15.8100004       2.50047698E-41
  -15.8000002       1.46200271E-40
  -15.7900000       7.40284959E-40
  -15.7799997       3.30652207E-39
  -15.7700005       1.32135817E-38
  -15.7600002       4.77700404E-38
  -15.7500000       1.57601146E-37
  -15.7399998       4.77760089E-37
  -15.7299995       1.33791233E-36
  -15.7200003       3.47512656E-36
  -15.7100000       8.39631278E-36
  -15.6999998       1.89032176E-35
  -15.6899996       3.96769665E-35
  -15.6800003       7.75707689E-35
  -15.6700001       1.40859258E-34
  -15.6599998       2.36224750E-34
  -15.6499996       3.62005722E-34
  -15.6400003       4.96734204E-34
  -15.6300001       5.83977236E-34
  -15.6199999       5.18556889E-34
  -15.6099997       1.45120701E-34
  -15.6000004      -7.14170720E-34
  -15.5900002      -2.18467168E-33
  -15.5799999      -4.20806149E-33
  -15.5699997      -6.37177668E-33
  -15.5600004      -7.75912817E-33
  -15.5500002      -6.93086604E-33
  -15.5400000      -2.18198751E-33
  -15.5299997       7.80553008E-33
  -15.5200005       2.29114326E-32
  -15.5100002       4.03529255E-32
  -15.5000000       5.38113278E-32
  -15.4899998       5.36864080E-32
  -15.4799995       2.92771297E-32
  -15.4700003      -2.67185605E-32
  -15.4600000      -1.11935168E-31
  -15.4499998      -2.08217571E-31
  -15.4399996      -2.78921135E-31
  -15.4300003      -2.73529495E-31
  -15.4200001      -1.42506015E-31
  -15.4099998       1.37897101E-31
  -15.3999996       5.36457395E-31
  -15.3900003       9.45164508E-31
  -15.3800001       1.18092796E-30
  -15.3699999       1.02615485E-30
  -15.3599997       3.14129894E-31
  -15.3500004      -9.54185064E-31
  -15.3400002      -2.50162614E-30
  -15.3299999      -3.73851214E-30
  -15.3199997      -3.86952089E-30
  -15.3100004      -2.18683740E-30
  -15.3000002       1.48214857E-30
  -15.2900000       6.31972094E-30
  -15.2799997       1.03212888E-29
  -15.2700005       1.06740409E-29
  -15.2600002       4.91879950E-30
  -15.2500000      -7.23063314E-30
  -15.2399998      -2.20690101E-29
  -15.2299995      -3.12881162E-29
  -15.2200003      -2.39828397E-29
  -15.2100000       7.89188389E-30
  -15.1999998       6.14266087E-29
  -15.1899996       1.15355512E-28
  -15.1800003       1.29087910E-28
  -15.1700001       5.44638544E-29
  -15.1599998      -1.36777619E-28
  -15.1499996      -4.15040936E-28
  -15.1400003      -6.61376958E-28
  -15.1300001      -6.69652053E-28
  -15.1199999      -2.10210077E-28
  -15.1099997       8.34688793E-28
  -15.1000004       2.29251723E-27
  -15.0900002       3.56078100E-27
  -15.0799999       3.63028935E-27
  -15.0699997       1.39267480E-27
  -15.0600004      -3.73023780E-27
  -15.0500002      -1.09723411E-26
  -15.0400000      -1.75883380E-26
  -15.0299997      -1.89384411E-26
  -15.0200005      -9.81128803E-27
  -15.0100002       1.28540355E-26
  -15.0000000       4.64133802E-26
  -14.9899998       7.96280820E-26
  -14.9799995       9.26641687E-26
  -14.9700003       6.21435840E-26
  -14.9600000      -2.79638279E-26
  -14.9499998      -1.71637607E-25
  -14.9399996      -3.27967319E-25
  -14.9300003      -4.18799155E-25
  -14.9200001      -3.45590151E-25
  -14.9099998      -2.94609627E-26
  -14.8999996       5.31717543E-25
  -14.8900003       1.20889443E-24
  -14.8800001       1.72141992E-24
  -14.8699999       1.68424091E-24
  -14.8599997       7.41893655E-25
  -14.8500004      -1.22537058E-24
  -14.8400002      -3.88536123E-24
  -14.8299999      -6.33390581E-24
  -14.8199997      -7.19324394E-24
  -14.8100004      -5.01350490E-24
  -14.8000002       1.04177563E-24
  -14.7900000       1.04007185E-23
  -14.7799997       2.05118540E-23
  -14.7700005       2.69128070E-23
  -14.7600002       2.42782041E-23
  -14.7500000       8.49755918E-24
  -14.7399998      -2.06417683E-23
  -14.7299995      -5.71229075E-23
  -14.7200003      -8.80347944E-23
  -14.7100000      -9.58097760E-23
  -14.6999998      -6.38843921E-23
  -14.6899996       1.50384372E-23
  -14.6800003       1.30604670E-22
  -14.6700001       2.50135626E-22
  -14.6599998       3.21760157E-22
  -14.6499996       2.87940794E-22
  -14.6400003       1.08525766E-22
  -14.6300001      -2.12320385E-22
  -14.6199999      -6.05513273E-22
  -14.6099997      -9.35142122E-22
  -14.6000004      -1.02526391E-21
  -14.5900002      -7.17438676E-22
  -14.5799999       5.15921343E-23
  -14.5699997       1.17654497E-21
  -14.5600004       2.34854024E-21
  -14.5500002       3.09138640E-21
  -14.5400000       2.88648774E-21
  -14.5299997       1.37338094E-21
  -14.5200005      -1.42525784E-21
  -14.5100002      -4.93843991E-21
  -14.5000000      -8.03761223E-21
  -14.4899998      -9.25575039E-21
  -14.4799995      -7.24306567E-21
  -14.4700003      -1.37287596E-21
  -14.4600000       7.68737071E-21
  -14.4499998       1.76881297E-20
  -14.4399996       2.50284497E-20
  -14.4300003       2.56272978E-20
  -14.4200001       1.63489809E-20
  -14.4099998      -3.36074698E-21
  -14.3999996      -3.01916885E-20
  -14.3900003      -5.66857891E-20
  -14.3800001      -7.24585660E-20
  -14.3699999      -6.70381160E-20
  -14.3599997      -3.38495910E-20
  -14.3500004       2.57471065E-20
  -14.3400002       9.98861238E-20
  -14.3299999       1.66614558E-19
  -14.3199997       1.98250920E-19
  -14.3100004       1.69495111E-19
  -14.3000002       6.76377509E-20
  -14.2900000      -9.81465113E-20
  -14.2799997      -2.92148534E-19
  -14.2700005      -4.55430808E-19
  -14.2600002      -5.18646121E-19
  -14.2500000      -4.23017270E-19
  -14.2399998      -1.44758662E-19
  -14.2299995       2.84546796E-19
  -14.2200003       7.70100394E-19
  -14.2100000       1.16536534E-18
  -14.1999998       1.30509796E-18
  -14.1899996       1.05540285E-18
  -14.1800003       3.69051671E-19
  -14.1700001      -6.71022510E-19
  -14.1599998      -1.83826767E-18
  -14.1499996      -2.79257912E-18
  -14.1400003      -3.15679812E-18
  -14.1300001      -2.62803759E-18
  -14.1199999      -1.09753736E-18
  -14.1099997       1.25733542E-18
  -14.1000004       3.94628390E-18
  -14.0900002       6.23096999E-18
  -14.0799999       7.28591520E-18
  -14.0699997       6.43052607E-18
  -14.0600004       3.37857516E-18
  -14.0500002      -1.56756144E-18
  -14.0400000      -7.45177153E-18
  -14.0299997      -1.27805658E-17
  -14.0200005      -1.58306884E-17
  -14.0100002      -1.51021706E-17
  -14.0000000      -9.81649478E-18
  -13.9899998      -3.22766573E-19
  -13.9799995       1.17292226E-17
  -13.9700003       2.35532748E-17
  -13.9600000       3.17570122E-17
  -13.9499998       3.31664320E-17
  -13.9399996       2.57725970E-17
  -13.9300003       9.55690069E-18
  -13.9200001      -1.30649108E-17
  -13.9099998      -3.73848314E-17
  -13.8999996      -5.72113250E-17
  -13.8900003      -6.62538517E-17
  -13.8800001      -5.98134764E-17
  -13.8699999      -3.63722565E-17
  -13.8599997       1.37467409E-18
  -13.8500004       4.64315073E-17
  -13.8400002       8.85563285E-17
  -13.8299999       1.16377152E-16
  -13.8199997       1.20183520E-16
  -13.8100004       9.47561266E-17
  -13.8000002       4.14787270E-17
  -13.7900000      -3.09530290E-17
  -13.7799997      -1.07639121E-16
  -13.7700005      -1.70382093E-16
  -13.7600002      -2.01882971E-16
  -13.7500000      -1.90286243E-16
  -13.7399998      -1.32901627E-16
  -13.7299995      -3.79917471E-17
  -13.7200003       7.61037464E-17
  -13.7100000       1.84593228E-16
  -13.6999998       2.61936574E-16
  -13.6899996       2.88286764E-16
  -13.6800003       2.54958770E-16
  -13.6700001       1.67297213E-16
  -13.6599998       4.38847605E-17
  -13.6499996      -8.79967309E-17
  -13.6400003      -1.99622730E-16
  -13.6300001      -2.68819220E-16
  -13.6199999      -2.86253276E-16
  -13.6099997      -2.57838391E-16
  -13.6000004      -2.02078503E-16
  -13.5900002      -1.42719625E-16
  -13.5799999      -9.87620299E-17
  -13.5699997      -7.51595694E-17
  -13.5600004      -5.79074339E-17
  -13.5500002      -1.63852204E-17
  -13.5400000       8.61835444E-17
  -13.5299997       2.76047243E-16
  -13.5200005       5.50647596E-16
  -13.5100002       8.65184281E-16
  -13.5000000       1.13052619E-15
  -13.4899998       1.22686444E-15
  -13.4799995       1.03341005E-15
  -13.4700003       4.69192302E-16
  -13.4600000      -4.64981225E-16
  -13.4499998      -1.65646197E-15
  -13.4399996      -2.87550427E-15
  -13.4300003      -3.80359256E-15
  -13.4200001      -4.09633985E-15
  -13.4099998      -3.47203781E-15
  -13.3999996      -1.80728837E-15
  -13.3900003       7.85356826E-16
  -13.3800001       3.92366710E-15
  -13.3699999       6.98561285E-15
  -13.3599997       9.20958425E-15
  -13.3500004       9.85417971E-15
  -13.3400002       8.38871446E-15
  -13.3299999       4.67162641E-15
  -13.3199997      -9.31322255E-16
  -13.3100004      -7.53085643E-15
  -13.3000002      -1.38235616E-14
  -13.2900000      -1.83228575E-14
  -13.2799997      -1.96763687E-14
  -13.2700005      -1.70070884E-14
  -13.2600002      -1.01993626E-14
  -13.2500000      -5.18767148E-17
  -13.2399998       1.17600581E-14
  -13.2299995       2.29326615E-14
  -13.2200003       3.09643668E-14
  -13.2100000       3.36930259E-14
  -13.1999998       2.98277265E-14
  -13.1899996       1.93498070E-14
  -13.1800003       3.67269335E-15
  -13.1700001      -1.45060643E-14
  -13.1599998      -3.16619730E-14
  -13.1499996      -4.41381754E-14
  -13.1400003      -4.89409775E-14
  -13.1300001      -4.44610745E-14
  -13.1199999      -3.09449291E-14
  -13.1099997      -1.05826806E-14
  -13.1000004       1.28419097E-14
  -13.0900002       3.46934429E-14
  -13.0799999       5.04737989E-14
  -13.0699997       5.68402340E-14
  -13.0600004       5.24096757E-14
  -13.0500002       3.81394982E-14
  -13.0400000       1.71644095E-14
  -13.0299997      -5.90301581E-15
  -13.0200005      -2.60632970E-14
  -13.0100002      -3.91561343E-14
  -13.0000000      -4.29108382E-14
  -12.9899998      -3.75337748E-14
  -12.9799995      -2.56477494E-14
  -12.9700003      -1.15597077E-14
  -12.9600000      -1.64592498E-17
  -12.9499998       5.23587868E-15
  -12.9399996       2.68852429E-15
  -12.9300003      -6.27768389E-15
  -12.9200001      -1.75755372E-14
  -12.9099998      -2.54667283E-14
  -12.8999996      -2.42757457E-14
  -12.8900003      -1.03308179E-14
  -12.8800001       1.64207806E-14
  -12.8699999       5.16533058E-14
  -12.8599997       8.71120125E-14
  -12.8500004       1.12322756E-13
  -12.8400002       1.17257061E-13
  -12.8299999       9.53310645E-14
  -12.8199997       4.59334244E-14
  -12.8100004      -2.43043009E-14
  -12.8000002      -1.02039342E-13
  -12.7900000      -1.69670715E-13
  -12.7799997      -2.09319473E-13
  -12.7700005      -2.07469391E-13
  -12.7600002      -1.59107712E-13
  -12.7500000      -7.01919805E-14
  -12.7399998       4.24293508E-14
  -12.7299995       1.53940486E-13
  -12.7200003       2.36902457E-13
  -12.7100000       2.67905625E-13
  -12.6999998       2.33949226E-13
  -12.6899996       1.36866646E-13
  -12.6800003      -5.54765753E-15
  -12.6700001      -1.62333783E-13
  -12.6599998      -2.95748208E-13
  -12.6499996      -3.69939268E-13
  -12.6400003      -3.59916768E-13
  -12.6300001      -2.58570211E-13
  -12.6199999      -7.98111645E-14
  -12.6099997       1.43237676E-13
  -12.6000004       3.64889000E-13
  -12.5900002       5.37003005E-13
  -12.5799999       6.20208745E-13
  -12.5699997       5.93438493E-13
  -12.5600004       4.59239146E-13
  -12.5500002       2.43269868E-13
  -12.5400000      -1.21806760E-14
  -12.5299997      -2.59261146E-13
  -12.5200005      -4.57507675E-13
  -12.5100002      -5.85292611E-13
  -12.5000000      -6.46537132E-13
  -12.4899998      -6.70458806E-13
  -12.4799995      -7.03760997E-13
  -12.4700003      -7.96575696E-13
  -12.4600000      -9.85156401E-13
  -12.4499998      -1.27535070E-12
  -12.4399996      -1.63097780E-12
  -12.4300003      -1.97032451E-12
  -12.4200001      -2.17223180E-12
  -12.4099998      -2.09110940E-12
  -12.3999996      -1.57816425E-12
  -12.3900003      -5.04653556E-13
  -12.3800001       1.21748228E-12
  -12.3699999       3.62169908E-12
  -12.3599997       6.68216871E-12
  -12.3500004       1.03187701E-11
  -12.3400002       1.44100357E-11
  -12.3299999       1.88106006E-11
  -12.3199997       2.33689023E-11
  -12.3100004       2.79411164E-11
  -12.3000002       3.23983861E-11
  -12.2900000       3.66264102E-11
  -12.2799997       4.05183387E-11
  -12.2700005       4.39636834E-11
  -12.2600002       4.68369024E-11
  -12.2500000       4.89897012E-11
  -12.2399998       5.02498113E-11
  -12.2299995       5.04277661E-11
  -12.2200003       4.93315944E-11
  -12.2100000       4.67868452E-11
  -12.1999998       4.26591470E-11
  -12.1899996       3.68750135E-11
  -12.1800003       2.94370812E-11
  -12.1700001       2.04312244E-11
  -12.1599998       1.00236755E-11
  -12.1499996      -1.55158416E-12
  -12.1400003      -1.40136210E-11
  -12.1300001      -2.70608431E-11
  -12.1199999      -4.03984519E-11
  -12.1099997      -5.37640835E-11
  -12.1000004      -6.69467606E-11
  -12.0900002      -7.97972244E-11
  -12.0799999      -9.22276422E-11
  -12.0699997      -1.04200829E-10
  -12.0600004      -1.15710906E-10
  -12.0500002      -1.26759062E-10
  -12.0400000      -1.37328537E-10
  -12.0299997      -1.47364024E-10
  -12.0200005      -1.56759355E-10
  -12.0100002      -1.65356617E-10
  -12.0000000      -1.72956163E-10
  -11.9899998      -1.79336934E-10
  -11.9799995      -1.84280813E-10
  -11.9700003      -1.87597701E-10
  -11.9600000      -1.89143229E-10
  -11.9499998      -1.88827162E-10
  -11.9399996      -1.86608021E-10
  -11.9300003      -1.82477339E-10
  -11.9200001      -1.76435477E-10
  -11.9099998      -1.68467171E-10
  -11.8999996      -1.58521141E-10
  -11.8900003      -1.46501131E-10
  -11.8800001      -1.32270889E-10
  -11.8699999      -1.15672562E-10
  -11.8599997      -9.65554303E-11
  -11.8500004      -7.48089507E-11
  -11.8400002      -5.03937170E-11
  -11.8299999      -2.33638751E-11
  -11.8199997       6.12318442E-12
  -11.8100004       3.78092002E-11
  -11.8000002       7.13500439E-11
  -11.7900000       1.06337467E-10
  -11.7799997       1.42323958E-10
  -11.7700005       1.78846660E-10
  -11.7600002       2.15448159E-10
  -11.7500000       2.51692889E-10
  -11.7399998       2.87180890E-10
  -11.7299995       3.21558752E-10
  -11.7200003       3.54528323E-10
  -11.7100000       3.85853294E-10
  -11.6999998       4.15359885E-10
  -11.6899996       4.42929998E-10
  -11.6800003       4.68485084E-10
  -11.6700001       4.91959917E-10
  -11.6599998       5.13270870E-10
  -11.6499996       5.32282718E-10
  -11.6400003       5.48784462E-10
  -11.6300001       5.62478397E-10
  -11.6199999       5.72990322E-10
  -11.6099997       5.79899406E-10
  -11.6000004       5.82783932E-10
  -11.5900002       5.81272086E-10
  -11.5799999       5.75087755E-10
  -11.5699997       5.64077340E-10
  -11.5600004       5.48211143E-10
  -11.5500002       5.27559774E-10
  -11.5400000       5.02247521E-10
  -11.5299997       4.72397677E-10
  -11.5200005       4.38081349E-10
  -11.5100002       3.99289019E-10
  -11.5000000       3.55929397E-10
  -11.4899998       3.07858017E-10
  -11.4799995       2.54931715E-10
  -11.4700003       1.97071442E-10
  -11.4600000       1.34321554E-10
  -11.4499998       6.68833114E-11
  -11.4399996      -4.88181674E-12
  -11.4300003      -8.04854031E-11
  -11.4200001      -1.59375999E-10
  -11.4099998      -2.41016263E-10
  -11.3999996      -3.24959559E-10
  -11.3900003      -4.10907308E-10
  -11.3800001      -4.98734776E-10
  -11.3699999      -5.88476046E-10
  -11.3599997      -6.80282775E-10
  -11.3500004      -7.74354525E-10
  -11.3400002      -8.70858552E-10
  -11.3299999      -9.69860747E-10
  -11.3199997      -1.07127240E-09
  -11.3100004      -1.17482402E-09
  -11.3000002      -1.28007271E-09
  -11.2900000      -1.38643441E-09
  -11.2799997      -1.49324353E-09
  -11.2700005      -1.59982150E-09
  -11.2600002      -1.70555370E-09
  -11.2500000      -1.80996007E-09
  -11.2399998      -1.91274396E-09
  -11.2299995      -2.01382355E-09
  -11.2200003      -2.11331752E-09
  -11.2100000      -2.21150520E-09
  -11.1999998      -2.30873987E-09
  -11.1899996      -2.40534659E-09
  -11.1800003      -2.50150389E-09
  -11.1700001      -2.59714961E-09
  -11.1599998      -2.69191980E-09
  -11.1499996      -2.78515833E-09
  -11.1400003      -2.87598767E-09
  -11.1300001      -2.96345570E-09
  -11.1199999      -3.04671621E-09
  -11.1099997      -3.12521209E-09
  -11.1000004      -3.19882987E-09
  -11.0900002      -3.26796612E-09
  -11.0799999      -3.33348193E-09
  -11.0699997      -3.39656103E-09
  -11.0600004      -3.45848283E-09
  -11.0500002      -3.52034868E-09
  -11.0400000      -3.58283025E-09
  -11.0299997      -3.64602615E-09
  -11.0200005      -3.70941411E-09
  -11.0100002      -3.77197251E-09
  -11.0000000      -3.83239263E-09
  -10.9899998      -3.88939503E-09
  -10.9799995      -3.94202093E-09
  -10.9700003      -3.98986666E-09
  -10.9600000      -4.03318889E-09
  -10.9499998      -4.07288114E-09
  -10.9399996      -4.11026901E-09
  -10.9300003      -4.14684775E-09
  -10.9200001      -4.18398738E-09
  -10.9099998      -4.22263779E-09
  -10.8999996      -4.26318980E-09
  -10.8900003      -4.30539915E-09
  -10.8800001      -4.34850511E-09
  -10.8699999      -4.39133085E-09
  -10.8599997      -4.43257475E-09
  -10.8500004      -4.47095960E-09
  -10.8400002      -4.50542226E-09
  -10.8299999      -4.53517091E-09
  -10.8199997      -4.55973082E-09
  -10.8100004      -4.57890748E-09
  -10.8000002      -4.59274441E-09
  -10.7900000      -4.60149163E-09
  -10.7799997      -4.60554972E-09
  -10.7700005      -4.60549776E-09
  -10.7600002      -4.60206984E-09
  -10.7500000      -4.59612259E-09
  -10.7399998      -4.58857841E-09
  -10.7299995      -4.58033123E-09
  -10.7200003      -4.57209159E-09
  -10.7100000      -4.56431160E-09
  -10.6999998      -4.55700899E-09
  -10.6899996      -4.54979343E-09
  -10.6800003      -4.54186955E-09
  -10.6700001      -4.53215065E-09
  -10.6599998      -4.51945592E-09
  -10.6499996      -4.50266135E-09
  -10.6400003      -4.48089299E-09
  -10.6300001      -4.45365611E-09
  -10.6199999      -4.42089076E-09
  -10.6099997      -4.38293846E-09
  -10.6000004      -4.34050040E-09
  -10.5900002      -4.29451230E-09
  -10.5799999      -4.24605107E-09
  -10.5699997      -4.19619051E-09
  -10.5600004      -4.14595025E-09
  -10.5500002      -4.09626688E-09
  -10.5400000      -4.04791267E-09
  -10.5299997      -4.00157996E-09
  -10.5200005      -3.95775812E-09
  -10.5100002      -3.91677579E-09
  -10.5000000      -3.87875465E-09
  -10.4899998      -3.84360144E-09
  -10.4799995      -3.81092891E-09
  -10.4700003      -3.78016596E-09
  -10.4600000      -3.75055231E-09
  -10.4499998      -3.72123665E-09
  -10.4399996      -3.69145314E-09
  -10.4300003      -3.66061026E-09
  -10.4200001      -3.62847929E-09
  -10.4099998      -3.59525854E-09
  -10.3999996      -3.56156082E-09
  -10.3900003      -3.52842155E-09
  -10.3800001      -3.49711526E-09
  -10.3699999      -3.46897666E-09
  -10.3599997      -3.44519391E-09
  -10.3500004      -3.42664253E-09
  -10.3400002      -3.41375861E-09
  -10.3299999      -3.40647954E-09
  -10.3199997      -3.40433304E-09
  -10.3100004      -3.40659523E-09
  -10.3000002      -3.41247164E-09
  -10.2900000      -3.42117779E-09
  -10.2799997      -3.43212991E-09
  -10.2700005      -3.44497031E-09
  -10.2600002      -3.45946694E-09
  -10.2500000      -3.47547813E-09
  -10.2399998      -3.49277163E-09
  -10.2299995      -3.51102325E-09
  -10.2200003      -3.52977447E-09
  -10.2100000      -3.54854723E-09
  -10.1999998      -3.56702667E-09
  -10.1899996      -3.58517860E-09
  -10.1800003      -3.60339980E-09
  -10.1700001      -3.62255026E-09
  -10.1599998      -3.64380193E-09
  -10.1499996      -3.66847974E-09
  -10.1400003      -3.69773523E-09
  -10.1300001      -3.73228071E-09
  -10.1199999      -3.77224829E-09
  -10.1099997      -3.81718301E-09
  -10.1000004      -3.86613275E-09
  -10.0900002      -3.91796018E-09
  -10.0799999      -3.97162925E-09
  -10.0699997      -4.02652356E-09
  -10.0600004      -4.08269774E-09
  -10.0500002      -4.14071577E-09
  -10.0400000      -4.20165014E-09
  -10.0299997      -4.26664393E-09
  -10.0200005      -4.33668790E-09
  -10.0100002      -4.41223902E-09
  -10.0000000      -4.49307302E-09
  -9.98999977      -4.57833194E-09
  -9.97999954      -4.66668348E-09
  -9.97000027      -4.75668616E-09
  -9.96000004      -4.84709428E-09
  -9.94999981      -4.93718577E-09
  -9.93999958      -5.02694952E-09
  -9.93000031      -5.11716358E-09
  -9.92000008      -5.20920729E-09
  -9.90999985      -5.30483035E-09
  -9.89999962      -5.40581491E-09
  -9.89000034      -5.51372992E-09
  -9.88000011      -5.62961144E-09
  -9.86999989      -5.75391912E-09
  -9.85999966      -5.88642468E-09
  -9.85000038      -6.02636918E-09
  -9.84000015      -6.17248697E-09
  -9.82999992      -6.32334141E-09
  -9.81999969      -6.47741638E-09
  -9.81000042      -6.63338806E-09
  -9.80000019      -6.79019774E-09
  -9.78999996      -6.94722901E-09
  -9.77999973      -7.10433801E-09
  -9.77000046      -7.26189642E-09
  -9.76000023      -7.42075645E-09
  -9.75000000      -7.58214558E-09
  -9.73999977      -7.74747111E-09
  -9.72999954      -7.91826249E-09
  -9.72000027      -8.09586620E-09
  -9.71000004      -8.28133295E-09
  -9.69999981      -8.47516812E-09
  -9.68999958      -8.67747030E-09
  -9.68000031      -8.88769147E-09
  -9.67000008      -9.10481468E-09
  -9.65999985      -9.32753697E-09
  -9.64999962      -9.55449764E-09
  -9.64000034      -9.78440085E-09
  -9.63000011      -1.00162731E-08
  -9.61999989      -1.02494973E-08
  -9.60999966      -1.04839106E-08
  -9.60000038      -1.07195426E-08
  -9.59000015      -1.09565459E-08
  -9.57999992      -1.11948699E-08
  -9.56999969      -1.14342242E-08
  -9.56000042      -1.16739258E-08
  -9.55000019      -1.19128920E-08
  -9.53999996      -1.21499681E-08
  -9.52999973      -1.23840369E-08
  -9.52000046      -1.26143664E-08
  -9.51000023      -1.28406912E-08
  -9.50000000      -1.30632216E-08
  -9.48999977      -1.32826052E-08
  -9.47999954      -1.34996512E-08
  -9.47000027      -1.37149003E-08
  -9.46000004      -1.39284584E-08
  -9.44999981      -1.41399115E-08
  -9.43999958      -1.43482159E-08
  -9.43000031      -1.45521124E-08
  -9.42000008      -1.47502890E-08
  -9.40999985      -1.49417243E-08
  -9.39999962      -1.51260036E-08
  -9.39000034      -1.53033106E-08
  -9.38000011      -1.54743454E-08
  -9.36999989      -1.56400208E-08
  -9.35999966      -1.58012696E-08
  -9.35000038      -1.59589053E-08
  -9.34000015      -1.61133702E-08
  -9.32999992      -1.62650728E-08
  -9.31999969      -1.64145302E-08
  -9.31000042      -1.65626659E-08
  -9.30000019      -1.67108514E-08
  -9.28999996      -1.68610690E-08
  -9.27999973      -1.70154326E-08
  -9.27000046      -1.71760348E-08
  -9.26000023      -1.73444281E-08
  -9.25000000      -1.75212715E-08
  -9.23999977      -1.77065527E-08
  -9.22999954      -1.78995574E-08
  -9.22000027      -1.80992448E-08
  -9.21000004      -1.83048599E-08
  -9.19999981      -1.85161149E-08
  -9.18999958      -1.87335178E-08
  -9.18000031      -1.89581364E-08
  -9.17000008      -1.91913827E-08
  -9.15999985      -1.94345233E-08
  -9.14999962      -1.96883096E-08
  -9.14000034      -1.99529335E-08
  -9.13000011      -2.02279065E-08
  -9.11999989      -2.05126778E-08
  -9.10999966      -2.08067519E-08
  -9.10000038      -2.11102211E-08
  -9.09000015      -2.14236326E-08
  -9.07999992      -2.17481038E-08
  -9.06999969      -2.20847198E-08
  -9.06000042      -2.24338930E-08
  -9.05000019      -2.27954011E-08
  -9.03999996      -2.31676154E-08
  -9.02999973      -2.35482229E-08
  -9.02000046      -2.39341649E-08
  -9.01000023      -2.43228886E-08
  -9.00000000      -2.47122642E-08
  -8.98999977      -2.51012331E-08
  -8.97999954      -2.54896921E-08
  -8.97000027      -2.58780926E-08
  -8.96000004      -2.62666191E-08
  -8.94999981      -2.66550408E-08
  -8.93999958      -2.70421303E-08
  -8.93000031      -2.74257097E-08
  -8.92000008      -2.78032921E-08
  -8.90999985      -2.81726109E-08
  -8.89999962      -2.85323694E-08
  -8.89000034      -2.88824253E-08
  -8.88000011      -2.92241076E-08
  -8.86999989      -2.95596010E-08
  -8.85999966      -2.98912859E-08
  -8.85000038      -3.02209742E-08
  -8.84000015      -3.05492627E-08
  -8.82999992      -3.08756505E-08
  -8.81999969      -3.11985708E-08
  -8.81000042      -3.15160271E-08
  -8.80000019      -3.18263105E-08
  -8.78999996      -3.21287388E-08
  -8.77999973      -3.24235003E-08
  -8.77000046      -3.27118599E-08
  -8.76000023      -3.29954624E-08
  -8.75000000      -3.32757573E-08
  -8.73999977      -3.35535582E-08
  -8.72999954      -3.38287478E-08
  -8.72000027      -3.41005695E-08
  -8.71000004      -3.43683340E-08
  -8.69999981      -3.46316043E-08
  -8.68999958      -3.48907534E-08
  -8.68000031      -3.51473837E-08
  -8.67000008      -3.54035805E-08
  -8.65999985      -3.56614613E-08
  -8.64999962      -3.59227599E-08
  -8.64000034      -3.61880481E-08
  -8.63000011      -3.64569495E-08
  -8.61999989      -3.67280926E-08
  -8.60999966      -3.69999675E-08
  -8.60000038      -3.72716897E-08
  -8.59000015      -3.75435754E-08
  -8.57999992      -3.78171094E-08
  -8.56999969      -3.80950560E-08
  -8.56000042      -3.83807794E-08
  -8.55000019      -3.86771255E-08
  -8.53999996      -3.89859949E-08
  -8.52999973      -3.93081336E-08
  -8.52000046      -3.96427708E-08
  -8.51000023      -3.99887909E-08
  -8.50000000      -4.03452454E-08
  -8.48999977      -4.07118534E-08
  -8.47999954      -4.10898693E-08
  -8.47000027      -4.14814352E-08
  -8.46000004      -4.18895709E-08
  -8.44999981      -4.23172750E-08
  -8.43999958      -4.27668638E-08
  -8.43000031      -4.32391154E-08
  -8.42000008      -4.37334791E-08
  -8.40999985      -4.42481252E-08
  -8.39999962      -4.47808581E-08
  -8.39000034      -4.53291236E-08
  -8.38000011      -4.58907401E-08
  -8.36999989      -4.64646490E-08
  -8.35999966      -4.70494648E-08
  -8.35000038      -4.76439794E-08
  -8.34000015      -4.82465623E-08
  -8.32999992      -4.88549254E-08
  -8.31999969      -4.94660632E-08
  -8.31000042      -5.00769595E-08
  -8.30000019      -5.06848643E-08
  -8.28999996      -5.12878344E-08
  -8.27999973      -5.18850811E-08
  -8.27000046      -5.24765973E-08
  -8.26000023      -5.30628128E-08
  -8.25000000      -5.36442180E-08
  -8.23999977      -5.42209726E-08
  -8.22999954      -5.47920642E-08
  -8.22000027      -5.53556099E-08
  -8.21000004      -5.59094353E-08
  -8.19999981      -5.64512774E-08
  -8.18999958      -5.69796974E-08
  -8.18000031      -5.74941481E-08
  -8.17000008      -5.79952477E-08
  -8.15999985      -5.84843498E-08
  -8.14999962      -5.89629110E-08
  -8.14000034      -5.94321889E-08
  -8.13000011      -5.98930043E-08
  -8.11999989      -6.03455135E-08
  -8.10999966      -6.07896808E-08
  -8.10000038      -6.12254212E-08
  -8.09000015      -6.16530258E-08
  -8.07999992      -6.20733900E-08
  -8.06999969      -6.24885601E-08
  -8.06000042      -6.29002486E-08
  -8.05000019      -6.33107362E-08
  -8.03999996      -6.37214583E-08
  -8.02999973      -6.41334381E-08
  -8.02000046      -6.45472795E-08
  -8.01000023      -6.49629044E-08
  -8.00000000      -6.53805685E-08
  -7.98999977      -6.58006343E-08
  -7.98000002      -6.62241533E-08
  -7.96999979      -6.66519995E-08
  -7.96000004      -6.70854732E-08
  -7.94999981      -6.75249723E-08
  -7.94000006      -6.79705749E-08
  -7.92999983      -6.84213788E-08
  -7.92000008      -6.88763819E-08
  -7.90999985      -6.93347317E-08
  -7.90000010      -6.97962648E-08
  -7.88999987      -7.02618479E-08
  -7.88000011      -7.07339041E-08
  -7.86999989      -7.12151618E-08
  -7.86000013      -7.17088611E-08
  -7.84999990      -7.22184907E-08
  -7.84000015      -7.27461895E-08
  -7.82999992      -7.32937480E-08
  -7.82000017      -7.38616919E-08
  -7.80999994      -7.44498792E-08
  -7.80000019      -7.50582529E-08
  -7.78999996      -7.56866356E-08
  -7.78000021      -7.63353896E-08
  -7.76999998      -7.70049695E-08
  -7.76000023      -7.76956028E-08
  -7.75000000      -7.84071190E-08
  -7.73999977      -7.91386157E-08
  -7.73000002      -7.98889417E-08
  -7.71999979      -8.06562426E-08
  -7.71000004      -8.14394170E-08
  -7.69999981      -8.22375341E-08
  -7.69000006      -8.30509208E-08
  -7.67999983      -8.38800034E-08
  -7.67000008      -8.47257056E-08
  -7.65999985      -8.55889652E-08
  -7.65000010      -8.64698677E-08
  -7.63999987      -8.73676811E-08
  -7.63000011      -8.82814319E-08
  -7.61999989      -8.92099052E-08
  -7.61000013      -9.01523691E-08
  -7.59999990      -9.11085749E-08
  -7.59000015      -9.20799579E-08
  -7.57999992      -9.30685431E-08
  -7.57000017      -9.40757658E-08
  -7.55999994      -9.51039993E-08
  -7.55000019      -9.61537978E-08
  -7.53999996      -9.72246283E-08
  -7.53000021      -9.83152120E-08
  -7.51999998      -9.94234242E-08
  -7.51000023      -1.00547489E-07
  -7.50000000      -1.01686140E-07
  -7.48999977      -1.02839678E-07
  -7.48000002      -1.04008841E-07
  -7.46999979      -1.05195099E-07
  -7.46000004      -1.06399895E-07
  -7.44999981      -1.07624786E-07
  -7.44000006      -1.08869799E-07