  -16.0000000       0.00000000    
  -15.9899998       0.00000000    
  -15.9799995       0.00000000    
  -15.9700003       0.00000000    
  -15.9600000       0.00000000    
  -15.9499998       0.00000000    
  -15.9399996       0.00000000    
  -15.9300003       0.00000000    
  -15.9200001       0.00000000    
  -15.9099998       0.00000000    
  -15.8999996       0.00000000    
  -15.8900003       4.28124707E-41
  -15.8800001       4.78072870E-39
  -15.8699999       1.08606752E-37
  -15.8599997       1.44893562E-36
  -15.8500004       1.39733433E-35
  -15.8400002       1.05453736E-34
  -15.8299999       6.49378895E-34
  -15.8199997       3.35577519E-33
  -15.8100004       1.48655616E-32
  -15.8000002       5.74040500E-32
  -15.7900000       1.95795370E-31
  -15.7799997       5.95841394E-31
  -15.7700005       1.62935667E-30
  -15.7600002       4.01989088E-30
  -15.7500000       8.95158019E-30
  -15.7399998       1.79078744E-29
  -15.7299995       3.17612390E-29
  -15.7200003       4.83944547E-29
  -15.7100000       5.82018858E-29
  -15.6999998       3.77751448E-29
  -15.6899996      -5.53592914E-29
  -15.6800003      -2.79651913E-28
  -15.6700001      -6.85881720E-28
  -15.6599998      -1.25976060E-27
  -15.6499996      -1.82825487E-27
  -15.6400003      -1.95725442E-27
  -15.6300001      -9.17796715E-28
  -15.6199999       2.15280873E-27
  -15.6099997       7.76701123E-27
  -15.6000004       1.52622198E-26
  -15.5900002       2.18783670E-26
  -15.5799999       2.23416286E-26
  -15.5699997       9.81752111E-27
  -15.5600004      -2.10711958E-26
  -15.5500002      -6.93468455E-26
  -15.5400000      -1.22623066E-25
  -15.5299997      -1.55150303E-25
  -15.5200005      -1.32518303E-25
  -15.5100002      -2.45010752E-26
  -15.5000000       1.76848477E-25
  -15.4899998       4.41229034E-25
  -15.4799995       6.94352164E-25
  -15.4700003       8.24794604E-25
  -15.4600000       6.96330036E-25
  -15.4499998       1.56113108E-25
  -15.4399996      -9.52384868E-25
  -15.4300003      -2.72056630E-24
  -15.4200001      -4.96180296E-24
  -15.4099998      -6.80295264E-24
  -15.3999996      -6.21929221E-24
  -15.3900003      -6.01377942E-27
  -15.3800001       1.49742382E-23
  -15.3699999       3.85035466E-23
  -15.3599997       6.19497707E-23
  -15.3500004       6.39607602E-23
  -15.3400002       1.22845404E-23
  -15.3299999      -1.21492443E-22
  -15.3199997      -3.30696550E-22
  -15.3100004      -5.32822050E-22
  -15.3000002      -5.43695305E-22
  -15.2900000      -1.07749501E-22
  -15.2799997       9.73480004E-22
  -15.2700005       2.60633484E-21
  -15.2600002       4.13413723E-21
  -15.2500000       4.20973822E-21
  -15.2399998       1.07349696E-21
  -15.2299995      -6.53745112E-21
  -15.2200003      -1.78722501E-20
  -15.2100000      -2.85534508E-20
  -15.1999998      -2.99763242E-20
  -15.1899996      -1.11960697E-20
  -15.1800003       3.55730573E-20
  -15.1700001       1.06222224E-19
  -15.1599998       1.75805142E-19
  -15.1499996       1.95420127E-19
  -15.1400003       1.02540197E-19
  -15.1300001      -1.49762640E-19
  -15.1199999      -5.47034236E-19
  -15.1099997      -9.66494888E-19
  -15.1000004      -1.15856902E-18
  -15.0900002      -7.93652294E-19
  -15.0799999       3.99590223E-19
  -15.0699997       2.41393492E-18
  -15.0600004       4.72999493E-18
  -15.0500002       6.20220644E-18
  -15.0400000       5.23110260E-18
  -15.0299997       3.47728661E-19
  -15.0200005      -8.81194431E-18
  -15.0100002      -2.04127281E-17
  -15.0000000      -2.97522473E-17
  -14.9899998      -2.97293245E-17
  -14.9799995      -1.30337451E-17
  -14.9700003       2.39067969E-17
  -14.9600000       7.61498568E-17
  -14.9499998       1.26683571E-16
  -14.9399996       1.46920022E-16
  -14.9300003       1.03817566E-16
  -14.9200001      -2.56018719E-17
  -14.9099998      -2.35023823E-16
  -14.8999996      -4.71890525E-16
  -14.8900003      -6.33153052E-16
  -14.8800001      -5.84340713E-16
  -14.8699999      -2.07351098E-16
  -14.8599997       5.28924165E-16
  -14.8500004       1.49637423E-15
  -14.8400002       2.36912574E-15
  -14.8299999       2.65886713E-15
  -14.8199997       1.85202377E-15
  -14.8100004      -3.56519423E-16
  -14.8000002      -3.78877287E-15
  -14.7900000      -7.57618371E-15
  -14.7799997      -1.01580257E-14
  -14.7700005      -9.60569498E-15
  -14.7600002      -4.30699059E-15
  -14.7500000       6.10543762E-15
  -14.7399998       1.98751165E-14
  -14.7299995       3.27237999E-14
  -14.7200003       3.83790120E-14
  -14.7100000       3.02880042E-14
  -14.6999998       4.38107971E-15
  -14.6899996      -3.77948642E-14
  -14.6800003      -8.67669516E-14
  -14.6700001      -1.25090557E-13
  -14.6599998      -1.30739901E-13
  -14.6499996      -8.41959355E-14
  -14.6400003       2.19770017E-14
  -14.6300001       1.73929285E-13
  -14.6199999       3.31779824E-13
  -14.6099997       4.33460911E-13
  -14.6000004       4.09622125E-13
  -14.5900002       2.08596121E-13
  -14.5799999      -1.74193681E-13
  -14.5699997      -6.72372856E-13
  -14.5600004      -1.14249777E-12
  -14.5500002      -1.38607029E-12
  -14.5400000      -1.20328487E-12
  -14.5299997      -4.70984200E-13
  -14.5200005       7.75524610E-13
  -14.5100002       2.28721903E-12
  -14.5000000       3.60533868E-12
  -14.4899998       4.14764750E-12
  -14.4799995       3.37758771E-12
  -14.4700003       1.02540708E-12
  -14.4600000      -2.70167395E-12
  -14.4499998      -7.00361600E-12
  -14.4399996      -1.05460562E-11
  -14.4300003      -1.17385711E-11
  -14.4200001      -9.21377297E-12
  -14.4099998      -2.40732477E-12
  -14.3999996       7.93437972E-12
  -14.3900003       1.95285368E-11
  -14.3800001       2.87948693E-11
  -14.3699999       3.16397325E-11
  -14.3599997       2.46999626E-11
  -14.3500004       6.76947170E-12
  -14.3400002      -2.00261231E-11
  -14.3299999      -4.97986583E-11
  -14.3199997      -7.36065792E-11
  -14.3100004      -8.14370793E-11
  -14.3000002      -6.52023505E-11
  -14.2900000      -2.20656739E-11
  -14.2799997       4.29111642E-11
  -14.2700005       1.15890422E-10
  -14.2600002       1.75984852E-10
  -14.2500000       1.99812944E-10
  -14.2399998       1.68247069E-10
  -14.2299995       7.38206857E-11
  -14.2200003      -7.33920980E-11
  -14.2100000      -2.43739390E-10
  -14.1999998      -3.91533611E-10
  -14.1899996      -4.64619315E-10
  -14.1800003      -4.18640983E-10
  -14.1700001      -2.32860675E-10
  -14.1599998       7.69404471E-11
  -14.1499996       4.53206445E-10
  -14.1400003       8.02605704E-10
  -14.1300001       1.01438313E-09
  -14.1199999       9.88701676E-10
  -14.1099997       6.69020839E-10
  -14.1000004       6.98904962E-11
  -14.0900002      -7.09188153E-10
  -14.0799999      -1.49130197E-09
  -14.0699997      -2.05401762E-09
  -14.0600004      -2.18215090E-09
  -14.0500002      -1.73106374E-09
  -14.0400000      -6.84720947E-10
  -14.0299997       8.09322276E-10
  -14.0200005       2.44324072E-09
  -14.0100002       3.79824350E-09
  -14.0000000       4.43619053E-09
  -13.9899998       4.01705602E-09
  -13.9799995       2.41494402E-09
  -13.9700003      -2.00076677E-10
  -13.9600000      -3.34441164E-09
  -13.9499998      -6.28613384E-09
  -13.9399996      -8.19218293E-09
  -13.9300003      -8.33392999E-09
  -13.9200001      -6.30642116E-09
  -13.9099998      -2.20384155E-09
  -13.8999996       3.30569372E-09
  -13.8900003       9.04642050E-09
  -13.8800001       1.35517784E-08
  -13.8699999       1.54017492E-08
  -13.8599997       1.36117864E-08
  -13.8500004       7.97717981E-09
  -13.8400002      -7.29051430E-10
  -13.8299999      -1.07854294E-08
  -13.8199997      -1.98116084E-08
  -13.8100004      -2.52862709E-08
  -13.8000002      -2.51930690E-08
  -13.7900000      -1.86417584E-08
  -13.7799997      -6.29196784E-09
  -13.7700005       9.56849977E-09
  -13.7600002       2.53693990E-08
  -13.7500000       3.70035345E-08
  -13.7399998       4.08344754E-08
  -13.7299995       3.47352049E-08
  -13.7200003       1.88810070E-08
  -13.7100000      -3.95603461E-09
  -13.6999998      -2.87665198E-08
  -13.6899996      -4.93178725E-08
  -13.6800003      -5.96449539E-08
  -13.6700001      -5.56826336E-08
  -13.6599998      -3.66183386E-08
  -13.6499996      -5.55785595E-09
  -13.6400003       3.07726395E-08
  -13.6300001       6.33420143E-08
  -13.6199999       8.29313862E-08
  -13.6099997       8.25898283E-08
  -13.6000004       5.98106169E-08
  -13.5900002       1.78027957E-08
  -13.5799999      -3.46057227E-08
  -13.5699997      -8.45888550E-08
  -13.5600004      -1.18232279E-07
  -13.5500002      -1.24121215E-07
  -13.5400000      -9.67350289E-08
  -13.5299997      -3.87185963E-08
  -13.5200005       3.87175874E-08
  -13.5100002       1.17613759E-07
  -13.5000000       1.77095330E-07
  -13.4899998       1.98472037E-07
  -13.4799995       1.70425466E-07
  -13.4700003       9.29432673E-08
  -13.4600000      -2.11737046E-08
  -13.4499998      -1.47917333E-07
  -13.4399996      -2.56753424E-07
  -13.4300003      -3.17547261E-07
  -13.4200001      -3.08234661E-07
  -13.4099998      -2.21380475E-07
  -13.3999996      -6.78410217E-08
  -13.3900003       1.23717712E-07
  -13.3800001       3.11789051E-07
  -13.3699999       4.50735229E-07
  -13.3599997       5.01477928E-07
  -13.3500004       4.41732169E-07
  -13.3400002       2.73208428E-07
  -13.3299999       2.36970870E-08
  -13.3199997      -2.56991086E-07
  -13.3100004      -5.06837125E-07
  -13.3000002      -6.65328230E-07
  -13.2900000      -6.88083503E-07
  -13.2799997      -5.58891486E-07
  -13.2700005      -2.95976520E-07
  -13.2600002       4.95569097E-08
  -13.2500000       4.03403050E-07
  -13.2399998       6.84173358E-07
  -13.2299995       8.22529671E-07
  -13.2200003       7.78858748E-07
  -13.2100000       5.54997314E-07
  -13.1999998       1.96616682E-07
  -13.1899996      -2.15076696E-07
  -13.1800003      -5.81106065E-07
  -13.1700001      -8.08263735E-07
  -13.1599998      -8.32976866E-07
  -13.1499996      -6.39519669E-07
  -13.1400003      -2.67522978E-07
  -13.1300001       1.93988328E-07
  -13.1199999       6.25628104E-07
  -13.1099997       9.06020830E-07
  -13.1000004       9.43114969E-07
  -13.0900002       7.00763394E-07
  -13.0799999       2.13444167E-07
  -13.0699997      -4.15624640E-07
  -13.0600004      -1.03397099E-06
  -13.0500002      -1.47363392E-06
  -13.0400000      -1.59206434E-06
  -13.0299997      -1.31065281E-06
  -13.0200005      -6.41170175E-07
  -13.0100002       3.07424898E-07
  -13.0000000       1.34518166E-06
  -12.9899998       2.23840721E-06
  -12.9799995       2.76078526E-06
  -12.9700003       2.74727722E-06
  -12.9600000       2.13821886E-06
  -12.9499998       1.00241914E-06
  -12.9399996      -4.67751676E-07
  -12.9300003      -1.99017063E-06
  -12.9200001      -3.24978191E-06
  -12.9099998      -3.96674204E-06
  -12.8999996      -3.96076530E-06
  -12.8900003      -3.19651076E-06
  -12.8800001      -1.79836297E-06
  -12.8699999      -2.95217593E-08
  -12.8599997       1.76156391E-06
  -12.8500004       3.21644893E-06
  -12.8400002       4.04690945E-06
  -12.8299999       4.10130087E-06
  -12.8199997       3.40061024E-06
  -12.8100004       2.13423186E-06
  -12.8000002       6.14874295E-07
  -12.7900000      -7.97960183E-07
  -12.7799997      -1.78809262E-06
  -12.7700005      -2.16415378E-06
  -12.7600002      -1.91108347E-06
  -12.7500000      -1.19667118E-06
  -12.7399998      -3.28791401E-07
  -12.7299995       3.28477341E-07
  -12.7200003       4.60304761E-07
  -12.7100000      -9.85895952E-08
  -12.6999998      -1.29633941E-06
  -12.6899996      -2.85035139E-06
  -12.6800003      -4.29675174E-06
  -12.6700001      -5.09618849E-06
  -12.6599998      -4.77400863E-06
  -12.6499996      -3.06181505E-06
  -12.6400003      -3.88204935E-09
  -12.6300001       4.00260433E-06
  -12.6199999       8.25079405E-06
  -12.6099997       1.18489252E-05
  -12.6000004       1.39042577E-05
  -12.5900002       1.37275065E-05
  -12.5799999       1.10108840E-05
  -12.5699997       5.93564346E-06
  -12.5600004      -8.21432764E-07
  -12.5500002      -8.19126217E-06
  -12.5400000      -1.49088692E-05
  -12.5299997      -1.97636291E-05
  -12.5200005      -2.18495079E-05
  -12.5100002      -2.07588218E-05
  -12.5000000      -1.66737682E-05
  -12.4899998      -1.03319298E-05
  -12.4799995      -2.87022476E-06
  -12.4700003       4.41982365E-06
  -12.4600000       1.03711754E-05
  -12.4499998       1.41910195E-05
  -12.4399996       1.56229326E-05
  -12.4300003       1.49825755E-05
  -12.4200001       1.30571552E-05
  -12.4099998       1.08911572E-05
  -12.3999996       9.50852973E-06
  -12.3900003       9.63811090E-06
  -12.3800001       1.15099292E-05
  -12.3699999       1.47749943E-05
  -12.3599997       1.85726421E-05
  -12.3500004       2.17346114E-05
  -12.3400002       2.30811675E-05
  -12.3299999       2.17403485E-05
  -12.3199997       1.74125944E-05
  -12.3100004       1.05124836E-05
  -12.3000002       2.14509760E-06
  -12.2900000      -6.08804748E-06
  -12.2799997      -1.24188791E-05
  -12.2700005      -1.53099936E-05
  -12.2600002      -1.38315609E-05
  -12.2500000      -7.93029267E-06
  -12.2399998       1.47700530E-06
  -12.2299995       1.26165978E-05
  -12.2200003       2.31641643E-05
  -12.2100000       3.06875081E-05
  -12.1999998       3.31364317E-05
  -12.1899996       2.92770110E-05
  -12.1800003       1.89761740E-05
  -12.1700001       3.27177372E-06
  -12.1599998      -1.57921713E-05
  -12.1499996      -3.55358170E-05
  -12.1400003      -5.31456099E-05
  -12.1300001      -6.62055390E-05
  -12.1199999      -7.31473265E-05
  -12.1099997      -7.35259309E-05
  -12.1000004      -6.80637022E-05
  -12.0900002      -5.84557420E-05
  -12.0799999      -4.69805746E-05
  -12.0699997      -3.60019549E-05
  -12.0600004      -2.74706890E-05
  -12.0500002      -2.25347067E-05
  -12.0400000      -2.13405983E-05
  -12.0299997      -2.30666392E-05
  -12.0200005      -2.61752266E-05
  -12.0100002      -2.88230876E-05
  -12.0000000      -2.93324902E-05
  -11.9899998      -2.66132538E-05
  -11.9799995      -2.04374428E-05
  -11.9700003      -1.15031080E-05
  -11.9600000      -1.27265196E-06
  -11.9499998       8.37592415E-06
  -11.9399996       1.56029218E-05
  -11.9300003       1.90591709E-05
  -11.9200001       1.82298645E-05
  -11.9099998       1.35881801E-05
  -11.8999996       6.52091148E-06
  -11.8900003      -9.58813530E-07
  -11.8800001      -6.64736535E-06
  -11.8699999      -8.63626883E-06
  -11.8599997      -5.73766192E-06
  -11.8500004       2.24650375E-06
  -11.8400002       1.44714732E-05
  -11.8299999       2.92235636E-05
  -11.8199997       4.42801429E-05
  -11.8100004       5.73740726E-05
  -11.8000002       6.66588603E-05
  -11.7900000       7.10728855E-05
  -11.7799997       7.05261264E-05
  -11.7700005       6.58741701E-05
  -11.7600002       5.86927999E-05
  -11.7500000       5.09096644E-05
  -11.7399998       4.43796271E-05
  -11.7299995       4.04983221E-05
  -11.7200003       3.99365235E-05
  -11.7100000       4.25463149E-05
  -11.6999998       4.74494736E-05
  -11.6899996       5.32768718E-05
  -11.6800003       5.84955051E-05
  -11.6700001       6.17439509E-05
  -11.6599998       6.21000218E-05
  -11.6499996       5.92253746E-05
  -11.6400003       5.33645689E-05
  -11.6300001       4.52120730E-05
  -11.6199999       3.56916062E-05
  -11.6099997       2.57104184E-05
  -11.6000004       1.59524516E-05
  -11.5900002       6.75979891E-06
  -11.5799999      -1.87457954E-06
  -11.5699997      -1.02111744E-05
  -11.5600004      -1.86004818E-05
  -11.5500002      -2.73037222E-05
  -11.5400000      -3.63511317E-05
  -11.5299997      -4.54781111E-05
  -11.5200005      -5.41559784E-05
  -11.5100002      -6.17062906E-05
  -11.5000000      -6.74645125E-05
  -11.4899998      -7.09457818E-05
  -11.4799995      -7.19662639E-05
  -11.4700003      -7.06881183E-05
  -11.4600000      -6.75783740E-05
  -11.4499998      -6.32972005E-05
  -11.4399996      -5.85496491E-05
  -11.4300003      -5.39440371E-05
  -11.4200001      -4.98946683E-05
  -11.4099998      -4.65916528E-05
  -11.3999996      -4.40385338E-05
  -11.3900003      -4.21376571E-05
  -11.3800001      -4.07900443E-05
  -11.3699999      -3.99738456E-05
  -11.3599997      -3.97747026E-05
  -11.3500004      -4.03588892E-05
  -11.3400002      -4.18999552E-05
  -11.3299999      -4.44853576E-05
  -11.3199997      -4.80367598E-05
  -11.3100004      -5.22733862E-05
  -11.3000002      -5.67340794E-05
  -11.2900000      -6.08547525E-05
  -11.2799997      -6.40800718E-05
  -11.2700005      -6.59768775E-05
  -11.2600002      -6.63158426E-05
  -11.2500000      -6.50973889E-05
  -11.2399998      -6.25149769E-05
  -11.2299995      -5.88683979E-05
  -11.2200003      -5.44552931E-05
  -11.2100000      -4.94759915E-05
  -11.1999998      -4.39830801E-05
  -11.1899996      -3.78930999E-05
  -11.1800003      -3.10583891E-05
  -11.1700001      -2.33772244E-05
  -11.1599998      -1.49071784E-05
  -11.1499996      -5.94290532E-06
  -11.1400003       2.97193151E-06
  -11.1300001       1.11108757E-05
  -11.1199999       1.76986177E-05
  -11.1099997       2.20808306E-05
  -11.1000004       2.38849407E-05
  -11.0900002       2.31254598E-05
  -11.0799999       2.02197589E-05
  -11.0699997       1.59027968E-05
  -11.0600004       1.10565197E-05
  -11.0500002       6.49476578E-06
  -11.0400000       2.75900311E-06
  -11.0299997      -1.91780103E-08
  -11.0200005      -2.14852639E-06
  -11.0100002      -4.28827298E-06
  -11.0000000      -7.25729797E-06
  -10.9899998      -1.17897289E-05
  -10.9799995      -1.83007633E-05
  -10.9700003      -2.67253417E-05
  -10.9600000      -3.64737134E-05
  -10.9499998      -4.65169542E-05
  -10.9399996      -5.55804800E-05
  -10.9300003      -6.23948654E-05
  -10.9200001      -6.59392172E-05
  -10.9099998      -6.56172560E-05
  -10.8999996      -6.13277080E-05
  -10.8900003      -5.34226529E-05
  -10.8800001      -4.25795588E-05
  -10.8699999      -2.96341241E-05
  -10.8599997      -1.54268637E-05
  -10.8500004      -7.03709532E-07
  -10.8400002       1.39137210E-05
  -10.8299999       2.79006472E-05
  -10.8199997       4.07777843E-05
  -10.8100004       5.20756439E-05
  -10.8000002       6.13431912E-05
  -10.7900000       6.82065147E-05
  -10.7799997       7.24561032E-05
  -10.7700005       7.41228869E-05
  -10.7600002       7.35001740E-05
  -10.7500000       7.10845125E-05
  -10.7399998       6.74388284E-05
  -10.7299995       6.30147333E-05
  -10.7200003       5.79945772E-05
  -10.7100000       5.22180744E-05
  -10.6999998       4.52373133E-05
  -10.6899996       3.65038977E-05
  -10.6800003       2.56442690E-05
  -10.6700001       1.27406502E-05
  -10.6599998      -1.47970582E-06
  -10.6499996      -1.56276528E-05
  -10.6400003      -2.78423395E-05
  -10.6300001      -3.61607163E-05
  -10.6199999      -3.89788729E-05
  -10.6099997      -3.54798030E-05
  -10.6000004      -2.59009485E-05
  -10.5900002      -1.15520297E-05
  -10.5799999       5.43980332E-06
  -10.5699997       2.26030206E-05
  -10.5600004       3.76944845E-05
  -10.5500002       4.92209474E-05
  -10.5400000       5.67691714E-05
  -10.5299997       6.10552379E-05
  -10.5200005       6.36794502E-05
  -10.5100002       6.66531632E-05
  -10.5000000       7.18243027E-05
  -10.4899998       8.03521980E-05
  -10.4799995       9.23657717E-05
  -10.4700003       1.06886109E-04
  -10.4600000       1.22023681E-04
  -10.4499998       1.35389462E-04
  -10.4399996       1.44611142E-04
  -10.4300003       1.47826097E-04
  -10.4200001       1.44039732E-04
  -10.4099998       1.33279536E-04
  -10.3999996       1.16529511E-04
  -10.3900003       9.54815041E-05
  -10.3800001       7.21761608E-05
  -10.3699999       4.86207246E-05
  -10.3599997       2.64634491E-05
  -10.3500004       6.78060860E-06
  -10.3400002      -9.99902841E-06
  -10.3299999      -2.40387690E-05
  -10.3199997      -3.59370351E-05
  -10.3100004      -4.65124067E-05
  -10.3000002      -5.65767841E-05
  -10.2900000      -6.67378263E-05
  -10.2799997      -7.72607964E-05
  -10.2700005      -8.80068692E-05
  -10.2600002      -9.84504077E-05
  -10.2500000      -1.07766042E-04
  -10.2399998      -1.14965791E-04
  -10.2299995      -1.19061318E-04
  -10.2200003      -1.19224387E-04
  -10.2100000      -1.14921771E-04
  -10.1999998      -1.06007647E-04
  -10.1899996      -9.27636866E-05
  -10.1800003      -7.58866663E-05
  -10.1700001      -5.64275142E-05
  -10.1599998      -3.56909986E-05
  -10.1499996      -1.51055137E-05
  -10.1400003       3.92567017E-06
  -10.1300001       2.01788571E-05
  -10.1199999       3.27533053E-05
  -10.1099997       4.11829533E-05
  -10.1000004       4.54938599E-05
  -10.0900002       4.61875061E-05
  -10.0799999       4.41408592E-05
  -10.0699997       4.04305611E-05
  -10.0600004       3.61098246E-05
  -10.0500002       3.19841238E-05
  -10.0400000       2.84408088E-05
  -10.0299997       2.53815069E-05
  -10.0200005       2.22845392E-05
  -10.0100002       1.83905777E-05
  -10.0000000       1.29688060E-05
  -9.98999977       5.59214504E-06
  -9.97999954      -3.65890787E-06
  -9.97000027      -1.41305172E-05
  -9.96000004      -2.46986347E-05
  -9.94999981      -3.40230799E-05
  -9.93999958      -4.08883461E-05
  -9.93000031      -4.45363839E-05
  -9.92000008      -4.48931933E-05
  -9.90999985      -4.26172846E-05
  -9.89999962      -3.89471170E-05
  -9.89000034      -3.53822979E-05
  -9.88000011      -3.32827476E-05
  -9.86999989      -3.34952092E-05
  -9.85999966      -3.61105303E-05
  -9.85000038      -4.04181337E-05
  -9.84000015      -4.50685839E-05
  -9.82999992      -4.83967488E-05
  -9.81999969      -4.88149708E-05
  -9.81000042      -4.51691740E-05
  -9.80000019      -3.69665067E-05
  -9.78999996      -2.44234816E-05
  -9.77999973      -8.33684953E-06
  -9.77000046       1.01720070E-05
  -9.76000023       2.99573694E-05
  -9.75000000       5.01074937E-05
  -9.73999977       7.00955643E-05
  -9.72999954       8.97949794E-05
  -9.72000027       1.09373243E-04
  -9.71000004       1.29112479E-04
  -9.69999981       1.49219821E-04
  -9.68999958       1.69686289E-04
  -9.68000031       1.90230858E-04
  -9.67000008       2.10335376E-04
  -9.65999985       2.29348210E-04
  -9.64999962       2.46616080E-04
  -9.64000034       2.61599460E-04
  -9.63000011       2.73937272E-04
  -9.61999989       2.83447531E-04
  -9.60999966       2.90070282E-04
  -9.60000038       2.93778750E-04
  -9.59000015       2.94489553E-04
  -9.57999992       2.92005308E-04
  -9.56999969       2.86007155E-04
  -9.56000042       2.76104547E-04
  -9.55000019       2.61930487E-04
  -9.53999996       2.43260569E-04
  -9.52999973       2.20127709E-04
  -9.52000046       1.92902022E-04
  -9.51000023       1.62314813E-04
  -9.50000000       1.29411928E-04
  -9.48999977       9.54380812E-05
  -9.47999954       6.16668403E-05
  -9.47000027       2.92047753E-05
  -9.46000004      -1.19143090E-06
  -9.44999981      -2.92428540E-05
  -9.43999958      -5.51860139E-05
  -9.43000031      -7.96989625E-05
  -9.42000008      -1.03720689E-04
  -9.40999985      -1.28192667E-04
  -9.39999962      -1.53779343E-04
  -9.39000034      -1.80633448E-04
  -9.38000011      -2.08271551E-04
  -9.36999989      -2.35602245E-04
  -9.35999966      -2.61111447E-04
  -9.35000038      -2.83167989E-04
  -9.34000015      -3.00375686E-04
  -9.32999992      -3.11875920E-04
  -9.31999969      -3.17516853E-04
  -9.31000042      -3.17831727E-04
  -9.30000019      -3.13827797E-04
  -9.28999996      -3.06638191E-04
  -9.27999973      -2.97136779E-04
  -9.27000046      -2.85632181E-04
  -9.26000023      -2.71738099E-04
  -9.25000000      -2.54469749E-04
  -9.23999977      -2.32547784E-04
  -9.22999954      -2.04826822E-04
  -9.22000027      -1.70722589E-04
  -9.21000004      -1.30506422E-04
  -9.19999981      -8.53727906E-05
  -9.18999958      -3.72482391E-05
  -9.18000031       1.16082228E-05
  -9.17000008       5.91029129E-05
  -9.15999985       1.03760118E-04
  -9.14999962       1.44999358E-04
  -9.14000034       1.83161246E-04
  -9.13000011       2.19280875E-04
  -9.11999989       2.54684128E-04
  -9.10999966       2.90532043E-04
  -9.10000038       3.27448972E-04
  -9.09000015       3.65336047E-04
  -9.07999992       4.03411017E-04
  -9.06999969       4.40439093E-04
  -9.06000042       4.75065463E-04
  -9.05000019       5.06133423E-04
  -9.03999996       5.32889797E-04
  -9.02999973       5.55024191E-04
  -9.02000046       5.72554185E-04
  -9.01000023       5.85616741E-04
  -9.00000000       5.94258890E-04
  -8.98999977       5.98309678E-04
  -8.97999954       5.97381208E-04
  -8.97000027       5.90993848E-04
  -8.96000004       5.78775245E-04
  -8.94999981       5.60655259E-04
  -8.93999958       5.36986394E-04
  -8.93000031       5.08541474E-04
  -8.92000008       4.76393849E-04
  -8.90999985       4.41715907E-04
  -8.89999962       4.05563449E-04
  -8.89000034       3.68710753E-04
  -8.88000011       3.31577961E-04
  -8.86999989       2.94262543E-04
  -8.85999966       2.56650877E-04
  -8.85000038       2.18566405E-04
  -8.84000015       1.79907103E-04
  -8.82999992       1.40736098E-04
  -8.81999969       1.01309990E-04
  -8.81000042       6.20488208E-05
  -8.80000019       2.34652416E-05
  -8.78999996      -1.39256081E-05
  -8.77999973      -4.96954272E-05
  -8.77000046      -8.35767205E-05
  -8.76000023      -1.15508316E-04
  -8.75000000      -1.45642916E-04
  -8.73999977      -1.74306842E-04
  -8.72999954      -2.01910196E-04
  -8.72000027      -2.28817138E-04
  -8.71000004      -2.55202845E-04
  -8.69999981      -2.80938111E-04
  -8.68999958      -3.05545516E-04
  -8.68000031      -3.28256836E-04
  -8.67000008      -3.48171976E-04
  -8.65999985      -3.64479551E-04
  -8.64999962      -3.76668351E-04
  -8.64000034      -3.84647254E-04
  -8.63000011      -3.88714485E-04
  -8.61999989      -3.89366731E-04
  -8.60999966      -3.87005071E-04
  -8.60000038      -3.81646503E-04
  -8.59000015      -3.72770126E-04
  -8.57999992      -3.59393511E-04
  -8.56999969      -3.40397819E-04
  -8.56000042      -3.15022509E-04
  -8.55000019      -2.83363770E-04
  -8.53999996      -2.46681768E-04
  -8.52999973      -2.07359393E-04
  -8.52000046      -1.68463361E-04
  -8.51000023      -1.33002904E-04
  -8.50000000      -1.03105136E-04
  -8.48999977      -7.93888466E-05
  -8.47999954      -6.07790716E-05
  -8.47000027      -4.48719584E-05
  -8.46000004      -2.87719140E-05
  -8.44999981      -1.01449214E-05
  -8.43999958       1.18687731E-05
  -8.43000031       3.62164792E-05
  -8.42000008       6.01577594E-05
  -8.40999985       8.01136775E-05
  -8.39999962       9.28726586E-05
  -8.39000034       9.67406449E-05
  -8.38000011       9.22184554E-05
  -8.36999989       8.19375564E-05
  -8.35999966       6.98420263E-05
  -8.35000038       5.98759143E-05
  -8.34000015       5.46282063E-05
  -8.32999992       5.44203940E-05
  -8.31999969       5.71796918E-05
  -8.31000042       5.91665921E-05
  -8.30000019       5.63147769E-05
  -8.28999996       4.57121641E-05
  -8.27999973       2.66860952E-05
  -8.27000046       1.08976610E-06
  -8.26000023      -2.73256301E-05
  -8.25000000      -5.42319431E-05
  -8.23999977      -7.62516429E-05
  -8.22999954      -9.21187748E-05
  -8.22000027      -1.03024940E-04
  -8.21000004      -1.12002308E-04
  -8.19999981      -1.22559111E-04
  -8.18999958      -1.37076539E-04
  -8.18000031      -1.55583955E-04
  -8.17000008      -1.75407666E-04
  -8.15999985      -1.91871237E-04
  -8.14999962      -1.99833332E-04
  -8.14000034      -1.95520566E-04
  -8.13000011      -1.77981143E-04
  -8.11999989      -1.49599029E-04
  -8.10999966      -1.15440125E-04
  -8.10000038      -8.16255997E-05
  -8.09000015      -5.32940721E-05
  -8.07999992      -3.28817478E-05
  -8.06999969      -1.93501892E-05
  -8.06000042      -8.65924085E-06
  -8.05000019       4.66818847E-06
  -8.03999996       2.54436491E-05
  -8.02999973       5.59352411E-05
  -8.02000046       9.49029054E-05
  -8.01000023       1.37914263E-04
  -8.00000000       1.78843620E-04
  -7.98999977       2.12027051E-04
  -7.98000002       2.34298714E-04
  -7.96999979       2.46174139E-04
  -7.96000004       2.51743186E-04
  -7.94999981       2.57301435E-04
  -7.94000006       2.69196229E-04
  -7.92999983       2.91644916E-04
  -7.92000008       3.25288856E-04
  -7.90999985       3.66978580E-04
  -7.90000010       4.10846405E-04
  -7.88999987       4.50267486E-04
  -7.88000011       4.80009185E-04
  -7.86999989       4.97819681E-04
  -7.86000013       5.04929572E-04
  -7.84999990       5.05339005E-04
  -7.84000015       5.04198542E-04
  -7.82999992       5.05897333E-04
  -7.82000017       5.12546336E-04
  -7.80999994       5.23372204E-04
  -7.80000019       5.35182713E-04
  -7.78999996       5.43674396E-04
  -7.78000021       5.45060437E-04
  -7.76999998       5.37415559E-04
  -7.76000023       5.21270500E-04
  -7.75000000       4.99294139E-04
  -7.73999977       4.75239125E-04
  -7.73000002       4.52589564E-04
  -7.71999979       4.33421694E-04
  -7.71000004       4.17874951E-04
  -7.69999981       4.04372986E-04
  -7.69000006       3.90444446E-04
  -7.67999983       3.73782153E-04
  -7.67000008       3.53119452E-04
  -7.65999985       3.28612252E-04
  -7.65000010       3.01633321E-04
  -7.63999987       2.74121849E-04
  -7.63000011       2.47795018E-04
  -7.61999989       2.23552634E-04
  -7.61000013       2.01294984E-04
  -7.59999990       1.80186136E-04
  -7.59000015       1.59201270E-04
  -7.57999992       1.37691764E-04
  -7.57000017       1.15714342E-04
  -7.55999994       9.39941019E-05
  -7.55000019       7.35656067E-05
  -7.53999996       5.52849269E-05
  -7.53000021       3.94583949E-05
  -7.51999998       2.57762404E-05
  -7.51000023       1.35929540E-05
  -7.50000000       2.42560986E-06
  -7.48999977      -7.57243015E-06
  -7.48000002      -1.54067693E-05
  -7.46999979      -1.94483255E-05
  -7.46000004      -1.80075240E-05
  -7.44999981      -1.00614261E-05
  -7.44000006       4.17409728E-06