  -16.0000000       0.00000000    
  -15.9899998       0.00000000    
  -15.9799995       0.00000000    
  -15.9700003       0.00000000    
  -15.9600000       0.00000000    
  -15.9499998       0.00000000    
  -15.9399996       0.00000000    
  -15.9300003       0.00000000    
  -15.9200001       0.00000000    
  -15.9099998       0.00000000    
  -15.8999996       0.00000000    
  -15.8900003       0.00000000    
  -15.8800001       1.70923801E-39
  -15.8699999       1.33266914E-37
  -15.8599997       2.65738062E-36
  -15.8500004       3.07164566E-35
  -15.8400002       2.53967896E-34
  -15.8299999       1.64545828E-33
  -15.8199997       8.76463135E-33
  -15.8100004       3.94889607E-32
  -15.8000002       1.53277881E-31
  -15.7900000       5.18898330E-31
  -15.7799997       1.54423207E-30
  -15.7700005       4.05524110E-30
  -15.7600002       9.38588041E-30
  -15.7500000       1.89721117E-29
  -15.7399998       3.26447683E-29
  -15.7299995       4.44782055E-29
  -15.7200003       3.52241633E-29
  -15.7100000      -3.82440816E-29
  -15.6999998      -2.52695298E-28
  -15.6899996      -7.17961020E-28
  -15.6800003      -1.54871981E-27
  -15.6700001      -2.78390708E-27
  -15.6599998      -4.22786150E-27
  -15.6499996      -5.20537996E-27
  -15.6400003      -4.28007462E-27
  -15.6300001       8.99340817E-28
  -15.6199999       1.32971534E-26
  -15.6099997       3.52798842E-26
  -15.6000004       6.61428253E-26
  -15.5900002       9.85795654E-26
  -15.5799999       1.15391295E-25
  -15.5699997       8.89400858E-26
  -15.5600004      -1.39288014E-26
  -15.5500002      -2.20837148E-25
  -15.5400000      -5.40415080E-25
  -15.5299997      -9.53574273E-25
  -15.5200005      -1.41183028E-24
  -15.5100002      -1.82481139E-24
  -15.5000000      -1.98805530E-24
  -15.4899998      -1.39107683E-24
  -15.4799995       1.08327898E-24
  -15.4700003       7.33871384E-24
  -15.4600000       1.95413926E-23
  -15.4499998       3.80271283E-23
  -15.4399996       5.70407966E-23
  -15.4300003       5.91570201E-23
  -15.4200001       1.21776355E-23
  -15.4099998      -1.24026630E-22
  -15.3999996      -3.71577089E-22
  -15.3900003      -6.85283191E-22
  -15.3800001      -8.91787942E-22
  -15.3699999      -6.56547702E-22
  -15.3599997       4.52855334E-22
  -15.3500004       2.73197400E-21
  -15.3400002       5.90863270E-21
  -15.3299999       8.62578046E-21
  -15.3199997       8.15602023E-21
  -15.3100004       8.61555662E-22
  -15.3000002      -1.60741743E-20
  -15.2900000      -4.15078682E-20
  -15.2799997      -6.65889376E-20
  -15.2700005      -7.25538985E-20
  -15.2600002      -3.34037245E-20
  -15.2500000       7.32236886E-20
  -15.2399998       2.46155922E-19
  -15.2299995       4.36553512E-19
  -15.2200003       5.32192393E-19
  -15.2100000       3.69576310E-19
  -15.1999998      -2.06860992E-19
  -15.1899996      -1.23261905E-18
  -15.1800003      -2.48229064E-18
  -15.1700001      -3.36598072E-18
  -15.1599998      -2.96540320E-18
  -15.1499996      -3.14439346E-19
  -15.1400003       5.03397140E-18
  -15.1300001       1.22571838E-17
  -15.1199999       1.86361459E-17
  -15.1099997       1.95463209E-17
  -15.1000004       9.60006546E-18
  -15.0900002      -1.47805032E-17
  -15.0799999      -5.17100611E-17
  -15.0699997      -9.03829617E-17
  -15.0600004      -1.09997115E-16
  -15.0500002      -8.35842782E-17
  -15.0400000       1.15852609E-17
  -15.0299997       1.77827765E-16
  -15.0200005       3.79779742E-16
  -15.0100002       5.34840743E-16
  -15.0000000       5.22382053E-16
  -14.9899998       2.20552848E-16
  -14.9799995      -4.29128596E-16
  -14.9700003      -1.34407019E-15
  -14.9600000      -2.24182262E-15
  -14.9499998      -2.64453279E-15
  -14.9399996      -1.98826839E-15
  -14.9300003       1.47547184E-16
  -14.9200001       3.72690982E-15
  -14.9099998       7.96381732E-15
  -14.8999996       1.12097882E-14
  -14.8900003       1.11969429E-14
  -14.8800001       5.74569553E-15
  -14.8699999      -6.11485070E-15
  -14.8599997      -2.29007826E-14
  -14.8500004      -3.98263440E-14
  -14.8400002      -4.90088012E-14
  -14.8299999      -4.12671809E-14
  -14.8199997      -9.62305153E-15
  -14.8100004       4.61271273E-14
  -14.8000002       1.15266900E-13
  -14.7900000       1.74600460E-13
  -14.7799997       1.91679273E-13
  -14.7700005       1.34053020E-13
  -14.7600002      -1.62520500E-14
  -14.7500000      -2.46621273E-13
  -14.7399998      -5.02362583E-13
  -14.7299995      -6.87413722E-13
  -14.7200003      -6.83424129E-13
  -14.7100000      -3.88618310E-13
  -14.6999998       2.30027613E-13
  -14.6899996       1.08677900E-12
  -14.6800003       1.95165563E-12
  -14.6700001       2.47253563E-12
  -14.6599998       2.25917072E-12
  -14.6499996       1.02451608E-12
  -14.6400003      -1.24730131E-12
  -14.6300001      -4.16244990E-12
  -14.6199999      -6.87876449E-12
  -14.6099997      -8.22897479E-12
  -14.6000004      -7.03108622E-12
  -14.5900002      -2.54687959E-12
  -14.5799999       5.02641895E-12
  -14.5699997       1.42101921E-11
  -14.5600004       2.22432212E-11
  -14.5500002       2.55745251E-11
  -14.5400000       2.08707374E-11
  -14.5299997       6.36884512E-12
  -14.5200005      -1.67976397E-11
  -14.5100002      -4.38110763E-11
  -14.5000000      -6.64343788E-11
  -14.4899998      -7.46496684E-11
  -14.4799995      -5.96029823E-11
  -14.4700003      -1.72786126E-11
  -14.4600000       4.81645869E-11
  -14.4499998       1.22735572E-10
  -14.4399996       1.83855597E-10
  -14.4300003       2.05127998E-10
  -14.4200001       1.64198863E-10
  -14.4099998       5.20304598E-11
  -14.3999996      -1.19192059E-10
  -14.3900003      -3.12763260E-10
  -14.3800001      -4.71490902E-10
  -14.3699999      -5.30131994E-10
  -14.3599997      -4.34730585E-10
  -14.3500004      -1.64500080E-10
  -14.3400002       2.50383742E-10
  -14.3299999       7.22378712E-10
  -14.3199997       1.11725384E-09
  -14.3100004       1.28352251E-09
  -14.3000002       1.09649134E-09
  -14.2900000       5.06713782E-10
  -14.2799997      -4.21770785E-10
  -14.2700005      -1.49882484E-09
  -14.2600002      -2.43252662E-09
  -14.2500000      -2.89276847E-09
  -14.2399998      -2.60441002E-09
  -14.2299995      -1.44813872E-09
  -14.2200003       4.60941896E-10
  -14.2100000       2.74748935E-09
  -14.1999998       4.82437557E-09
  -14.1899996       6.01850791E-09
  -14.1800003       5.75387871E-09
  -14.1700001       3.74881370E-09
  -14.1599998       1.70227332E-10
  -14.1499996      -4.31203118E-09
  -14.1400003      -8.60977156E-09
  -14.1300001      -1.14445804E-08
  -14.1199999      -1.16816858E-08
  -14.1099997      -8.69185612E-09
  -14.1000004      -2.63926236E-09
  -14.0900002       5.40492096E-09
  -14.0799999       1.35905358E-08
  -14.0699997       1.96671319E-08
  -14.0600004       2.15486367E-08
  -14.0500002       1.79348323E-08
  -14.0400000       8.81895268E-09
  -14.0299997      -4.28414237E-09
  -14.0200005      -1.85020728E-08
  -14.0100002      -3.01785228E-08
  -14.0000000      -3.57596903E-08
  -13.9899998      -3.27906626E-08
  -13.9799995      -2.07579962E-08
  -13.9700003      -1.51843227E-09
  -13.9600000       2.08654587E-08
  -13.9499998       4.09199359E-08
  -13.9399996       5.30511706E-08
  -13.9300003       5.30402318E-08
  -13.9200001       3.93567277E-08
  -13.9099998       1.39064138E-08
  -13.8999996      -1.80604545E-08
  -13.8900003      -4.89583591E-08
  -13.8800001      -7.06207501E-08
  -13.8699999      -7.64113324E-08
  -13.8599997      -6.31582537E-08
  -13.8500004      -3.23687672E-08
  -13.8400002       9.67841451E-09
  -13.8299999       5.31076800E-08
  -13.8199997       8.66988756E-08
  -13.8100004       1.00726382E-07
  -13.8000002       8.96836454E-08
  -13.7900000       5.41534888E-08
  -13.7799997       1.24637833E-09
  -13.7700005      -5.66515119E-08
  -13.7600002      -1.04646134E-07
  -13.7500000      -1.29037772E-07
  -13.7399998      -1.21061177E-07
  -13.7299995      -7.96878794E-08
  -13.7200003      -1.26577016E-08
  -13.7100000       6.46984617E-08
  -13.6999998       1.32746564E-07
  -13.6899996       1.72296325E-07
  -13.6800003       1.69701877E-07
  -13.6700001       1.21021202E-07
  -13.6599998       3.40547253E-08
  -13.6499996      -7.24735330E-08
  -13.6400003      -1.72678114E-07
  -13.6300001      -2.39515117E-07
  -13.6199999      -2.51711555E-07
  -13.6099997      -1.99907362E-07
  -13.6000004      -9.03365986E-08
  -13.5900002       5.51613901E-08
  -13.5799999       2.03174565E-07
  -13.5699997       3.16172503E-07
  -13.5600004       3.61782952E-07
  -13.5500002       3.21681853E-07
  -13.5400000       1.97725797E-07
  -13.5299997       1.34570204E-08
  -13.5200005      -1.89897634E-07
  -13.5100002      -3.62435742E-07
  -13.5000000      -4.57756101E-07
  -13.4899998      -4.45405561E-07
  -13.4799995      -3.20357060E-07
  -13.4700003      -1.06692298E-07
  -13.4600000       1.46089675E-07
  -13.4499998       3.73887190E-07
  -13.4399996       5.13808970E-07
  -13.4300003       5.21262450E-07
  -13.4200001       3.83849311E-07
  -13.4099998       1.27998291E-07
  -13.3999996      -1.84240079E-07
  -13.3900003      -4.68460968E-07
  -13.3800001      -6.38738811E-07
  -13.3699999      -6.31275498E-07
  -13.3599997      -4.24740222E-07
  -13.3500004      -5.14820293E-08
  -13.3400002       4.04511752E-07
  -13.3299999       8.23937000E-07
  -13.3199997       1.08004974E-06
  -13.3100004       1.07209337E-06
  -13.3000002       7.56044869E-07
  -13.2900000       1.64219529E-07
  -13.2799997      -5.92712865E-07
  -13.2700005      -1.34394213E-06
  -13.2600002      -1.89462730E-06
  -13.2500000      -2.07263474E-06
  -13.2399998      -1.77518757E-06
  -13.2299995      -1.00351792E-06
  -13.2200003       1.24577241E-07
  -13.2100000       1.38987036E-06
  -13.1999998       2.51358301E-06
  -13.1899996       3.21844914E-06
  -13.1800003       3.29570889E-06
  -13.1700001       2.66202414E-06
  -13.1599998       1.39141832E-06
  -13.1499996      -2.87942385E-07
  -13.1400003      -2.03441027E-06
  -13.1300001      -3.46434058E-06
  -13.1199999      -4.23946221E-06
  -13.1099997      -4.15013164E-06
  -13.1000004      -3.17376885E-06
  -13.0900002      -1.49241237E-06
  -13.0799999       5.38019947E-07
  -13.0699997       2.46275158E-06
  -13.0600004       3.83212819E-06
  -13.0500002       4.31104945E-06
  -13.0400000       3.76716434E-06
  -13.0299997       2.31464128E-06
  -13.0200005       2.99464574E-07
  -13.0100002      -1.77393895E-06
  -13.0000000      -3.36061362E-06
  -12.9899998      -4.01102443E-06
  -12.9799995      -3.49235711E-06
  -12.9700003      -1.86367492E-06
  -12.9600000       5.17284718E-07
  -12.9499998       3.06225888E-06
  -12.9399996       5.08407993E-06
  -12.9300003       5.96366453E-06
  -12.9200001       5.31328669E-06
  -12.9099998       3.09537563E-06
  -12.8999996      -3.35890945E-07
  -12.8900003      -4.28613475E-06
  -12.8800001      -7.85972679E-06
  -12.8699999      -1.01585829E-05
  -12.8599997      -1.04968231E-05
  -12.8500004      -8.58067779E-06
  -12.8400002      -4.60812271E-06
  -12.8299999       7.40675318E-07
  -12.8199997       6.42646592E-06
  -12.8100004       1.12651514E-05
  -12.8000002       1.41878681E-05
  -12.7900000       1.44878022E-05
  -12.7799997       1.19960268E-05
  -12.7700005       7.14107910E-06
  -12.7600002       8.73858028E-07
  -12.7500000      -5.53024211E-06
  -12.7399998      -1.07503174E-05
  -12.7299995      -1.37176294E-05
  -12.7200003      -1.38621772E-05
  -12.7100000      -1.12492517E-05
  -12.6999998      -6.56920429E-06
  -12.6899996      -9.79319907E-07
  -12.6800003       4.16971716E-06
  -12.6700001       7.65944242E-06
  -12.6599998       8.70535860E-06
  -12.6499996       7.15985743E-06
  -12.6400003       3.56357850E-06
  -12.6300001      -9.72845214E-07
  -12.6199999      -5.03512501E-06
  -12.6099997      -7.25950031E-06
  -12.6000004      -6.69235487E-06
  -12.5900002      -3.06633524E-06
  -12.5799999       3.07937376E-06
  -12.5699997       1.04725032E-05
  -12.5600004       1.73679091E-05
  -12.5500002       2.19417871E-05
  -12.5400000       2.27321889E-05
  -12.5299997       1.90223745E-05
  -12.5200005       1.10715464E-05
  -12.5100002       1.29313506E-07
  -12.5000000      -1.17822519E-05
  -12.4899998      -2.22807048E-05
  -12.4799995      -2.91437718E-05
  -12.4700003      -3.08231138E-05
  -12.4600000      -2.68325566E-05
  -12.4499998      -1.79162453E-05
  -12.4399996      -5.94925496E-06
  -12.4300003       6.41584575E-06
  -12.4200001       1.62843735E-05
  -12.4099998       2.11183469E-05
  -12.3999996       1.92636726E-05
  -12.3900003       1.02812155E-05
  -12.3800001      -4.99743692E-06
  -12.3699999      -2.47087391E-05
  -12.3599997      -4.64365221E-05
  -12.3500004      -6.78195720E-05
  -12.3400002      -8.71433003E-05
  -12.3299999      -1.03763661E-04
  -12.3199997      -1.18253578E-04
  -12.3100004      -1.32223606E-04
  -12.3000002      -1.47845116E-04
  -12.2900000      -1.67181468E-04
  -12.2799997      -1.91487925E-04
  -12.2700005      -2.20645772E-04
  -12.2600002      -2.52889440E-04
  -12.2500000      -2.84904847E-04
  -12.2399998      -3.12304735E-04
  -12.2299995      -3.30390933E-04
  -12.2200003      -3.35035351E-04
  -12.2100000      -3.23492335E-04
  -12.1999998      -2.94950965E-04
  -12.1899996      -2.50685145E-04
  -12.1800003      -1.93772110E-04
  -12.1700001      -1.28426400E-04
  -12.1599998      -5.90939708E-05
  -12.1499996       1.04799037E-05
  -12.1400003       7.80001646E-05
  -12.1300001       1.43016427E-04
  -12.1199999       2.06863959E-04
  -12.1099997       2.72170320E-04
  -12.1000004       3.42041429E-04
  -12.0900002       4.19115240E-04
  -12.0799999       5.04719152E-04
  -12.0699997       5.98313287E-04
  -12.0600004       6.97369687E-04
  -12.0500002       7.97712710E-04
  -12.0400000       8.94238474E-04
  -12.0299997       9.81856370E-04
  -12.0200005       1.05643168E-03
  -12.0100002       1.11550535E-03
  -12.0000000       1.15863839E-03
  -11.9899998       1.18729437E-03
  -11.9799995       1.20428554E-03
  -11.9700003       1.21292530E-03
  -11.9600000       1.21607131E-03
  -11.9499998       1.21528143E-03
  -11.9399996       1.21027208E-03
  -11.9300003       1.19881867E-03
  -11.9200001       1.17708370E-03
  -11.9099998       1.14033744E-03
  -11.8999996       1.08387973E-03
  -11.8900003       1.00397051E-03
  -11.8800001       8.98569415E-04
  -11.8699999       7.67720223E-04
  -11.8599997       6.13507407E-04
  -11.8500004       4.39609052E-04
  -11.8400002       2.50553130E-04
  -11.8299999       5.08511839E-05
  -11.8199997      -1.55781890E-04
  -11.8100004      -3.66985099E-04
  -11.8000002      -5.81913686E-04
  -11.7900000      -8.01042828E-04
  -11.7799997      -1.02561701E-03
  -11.7700005      -1.25691597E-03
  -11.7600002      -1.49548473E-03
  -11.7500000      -1.74054026E-03
  -11.7399998      -1.98964030E-03
  -11.7299995      -2.23873905E-03
  -11.7200003      -2.48258444E-03
  -11.7100000      -2.71537877E-03
  -11.6999998      -2.93155527E-03
  -11.6899996      -3.12650739E-03
  -11.6800003      -3.29712080E-03
  -11.6700001      -3.44199082E-03
  -11.6599998      -3.56130605E-03
  -11.6499996      -3.65642319E-03
  -11.6400003      -3.72924330E-03
  -11.6300001      -3.78151704E-03
  -11.6199999      -3.81424278E-03
  -11.6099997      -3.82726383E-03
  -11.6000004      -3.81914666E-03
  -11.5900002      -3.78735829E-03
  -11.5799999      -3.72867007E-03
  -11.5699997      -3.63970199E-03
  -11.5600004      -3.51749128E-03
  -11.5500002      -3.35993036E-03
  -11.5400000      -3.16602783E-03
  -11.5299997      -2.93591409E-03
  -11.5200005      -2.67062429E-03
  -11.5100002      -2.37171701E-03
  -11.5000000      -2.04084744E-03
  -11.4899998      -1.67936087E-03
  -11.4799995      -1.28807058E-03
  -11.4700003      -8.67204159E-04
  -11.4600000      -4.16573515E-04
  -11.4499998       6.40964790E-05
  -11.4399996       5.74774691E-04
  -11.4300003       1.11473037E-03
  -11.4200001       1.68227800E-03
  -11.4099998       2.27468996E-03
  -11.3999996       2.88830791E-03
  -11.3900003       3.51881306E-03
  -11.3800001       4.16159583E-03
  -11.3699999       4.81212977E-03
  -11.3599997       5.46627492E-03
  -11.3500004       6.12044521E-03
  -11.3400002       6.77163294E-03
  -11.3299999       7.41731841E-03
  -11.3199997       8.05531256E-03
  -11.3100004       8.68358370E-03
  -11.3000002       9.30016581E-03
  -11.2900000       9.90314130E-03
  -11.2799997       1.04907183E-02
  -11.2700005       1.10613573E-02
  -11.2600002       1.16139026E-02
  -11.2500000       1.21476641E-02
  -11.2399998       1.26624182E-02
  -11.2299995       1.31583195E-02
  -11.2200003       1.36357360E-02
  -11.2100000       1.40950736E-02
  -11.1999998       1.45366117E-02
  -11.1899996       1.49604203E-02
  -11.1800003       1.53663643E-02
  -11.1700001       1.57541540E-02
  -11.1599998       1.61234401E-02
  -11.1499996       1.64739005E-02
  -11.1400003       1.68052409E-02
  -11.1300001       1.71171315E-02
  -11.1199999       1.74090602E-02
  -11.1099997       1.76801514E-02
  -11.1000004       1.79290138E-02
  -11.0900002       1.81536842E-02
  -11.0799999       1.83517020E-02
  -11.0699997       1.85203124E-02
  -11.0600004       1.86568312E-02
  -11.0500002       1.87590569E-02
  -11.0400000       1.88256335E-02
  -11.0299997       1.88563615E-02
  -11.0200005       1.88523382E-02
  -11.0100002       1.88158583E-02
  -11.0000000       1.87501926E-02
  -10.9899998       1.86592527E-02
  -10.9799995       1.85471550E-02
  -10.9700003       1.84178762E-02
  -10.9600000       1.82749722E-02
  -10.9499998       1.81214456E-02
  -10.9399996       1.79597382E-02
  -10.9300003       1.77917816E-02
  -10.9200001       1.76191684E-02
  -10.9099998       1.74431913E-02
  -10.8999996       1.72649212E-02
  -10.8900003       1.70851368E-02
  -10.8800001       1.69042479E-02
  -10.8699999       1.67221203E-02
  -10.8599997       1.65380314E-02
  -10.8500004       1.63505953E-02
  -10.8400002       1.61578618E-02
  -10.8299999       1.59574337E-02
  -10.8199997       1.57467481E-02
  -10.8100004       1.55232679E-02
  -10.8000002       1.52846836E-02
  -10.7900000       1.50290709E-02
  -10.7799997       1.47548951E-02
  -10.7700005       1.44609679E-02
  -10.7600002       1.41463447E-02
  -10.7500000       1.38102528E-02
  -10.7399998       1.34520186E-02
  -10.7299995       1.30711207E-02
  -10.7200003       1.26672518E-02
  -10.7100000       1.22404592E-02
  -10.6999998       1.17912572E-02
  -10.6899996       1.13207279E-02
  -10.6800003       1.08304434E-02
  -10.6700001       1.03224255E-02
  -10.6599998       9.79891606E-03
  -10.6499996       9.26218554E-03
  -10.6400003       8.71440116E-03
  -10.6300001       8.15747678E-03
  -10.6199999       7.59316189E-03
  -10.6099997       7.02314312E-03
  -10.6000004       6.44920627E-03
  -10.5900002       5.87347616E-03
  -10.5799999       5.29852603E-03
  -10.5699997       4.72737988E-03
  -10.5600004       4.16343240E-03
  -10.5500002       3.61019629E-03
  -10.5400000       3.07096587E-03
  -10.5299997       2.54850811E-03
  -10.5200005       2.04478041E-03
  -10.5100002       1.56080781E-03
  -10.5000000       1.09668763E-03
  -10.4899998       6.51788665E-04
  -10.4799995       2.25117634E-04
  -10.4700003      -1.84331191E-04
  -10.4600000      -5.77136641E-04
  -10.4499998      -9.53178853E-04
  -10.4399996      -1.31153583E-03
  -10.4300003      -1.65053294E-03
  -10.4200001      -1.96804525E-03
  -10.4099998      -2.26197043E-03
  -10.3999996      -2.53066421E-03
  -10.3900003      -2.77347094E-03
  -10.3800001      -2.99094897E-03
  -10.3699999      -3.18500283E-03
  -10.3599997      -3.35860206E-03
  -10.3500004      -3.51539347E-03
  -10.3400002      -3.65903485E-03
  -10.3299999      -3.79258278E-03
  -10.3199997      -3.91793577E-03
  -10.3100004      -4.03557438E-03
  -10.3000002      -4.14451864E-03
  -10.2900000      -4.24270518E-03
  -10.2799997      -4.32747742E-03
  -10.2700005      -4.39630356E-03
  -10.2600002      -4.44738753E-03
  -10.2500000      -4.48010629E-03
  -10.2399998      -4.49526776E-03
  -10.2299995      -4.49493155E-03
  -10.2200003      -4.48214589E-03
  -10.2100000      -4.46041627E-03
  -10.1999998      -4.43321373E-03
  -10.1899996      -4.40351712E-03
  -10.1800003      -4.37352248E-03
  -10.1700001      -4.34465567E-03
  -10.1599998      -4.31747595E-03
  -10.1499996      -4.29197447E-03
  -10.1400003      -4.26776940E-03
  -10.1300001      -4.24426002E-03
  -10.1199999      -4.22080699E-03
  -10.1099997      -4.19669272E-03
  -10.1000004      -4.17121360E-03
  -10.0900002      -4.14349511E-03
  -10.0799999      -4.11254168E-03
  -10.0699997      -4.07701451E-03
  -10.0600004      -4.03533876E-03
  -10.0500002      -3.98563407E-03
  -10.0400000      -3.92581569E-03
  -10.0299997      -3.85377859E-03
  -10.0200005      -3.76752531E-03
  -10.0100002      -3.66547448E-03
  -10.0000000      -3.54668219E-03
  -9.98999977      -3.41107161E-03
  -9.97999954      -3.25944228E-03
  -9.97000027      -3.09347128E-03
  -9.96000004      -2.91534932E-03
  -9.94999981      -2.72741192E-03
  -9.93999958      -2.53155502E-03
  -9.93000031      -2.32880539E-03
  -9.92000008      -2.11893395E-03
  -9.90999985      -1.90041016E-03
  -9.89999962      -1.67061202E-03
  -9.89000034      -1.42626918E-03
  -9.88000011      -1.16403541E-03
  -9.86999989      -8.81110318E-04
  -9.85999966      -5.75696002E-04
  -9.85000038      -2.47014454E-04
  -9.84000015       1.04783699E-04
  -9.82999992       4.79088572E-04
  -9.81999969       8.75430473E-04
  -9.81000042       1.29399914E-03
  -9.80000019       1.73603673E-03
  -9.78999996       2.20376998E-03
  -9.77999973       2.70032999E-03
  -9.77000046       3.22915241E-03
  -9.76000023       3.79354809E-03
  -9.75000000       4.39620996E-03
  -9.73999977       5.03893942E-03
  -9.72999954       5.72251435E-03
  -9.72000027       6.44675735E-03
  -9.71000004       7.21067749E-03
  -9.69999981       8.01246613E-03
  -9.68999958       8.84934422E-03
  -9.68000031       9.71738901E-03
  -9.67000008       1.06111886E-02
  -9.65999985       1.15235532E-02
  -9.64999962       1.24456370E-02
  -9.64000034       1.33672711E-02
  -9.63000011       1.42777208E-02
  -9.61999989       1.51666943E-02
  -9.60999966       1.60255041E-02
  -9.60000038       1.68479085E-02
  -9.59000015       1.76306963E-02
  -9.57999992       1.83736235E-02
  -9.56999969       1.90788526E-02
  -9.56000042       1.97500400E-02
  -9.55000019       2.03910470E-02
  -9.53999996       2.10049879E-02
  -9.52999973       2.15934273E-02
  -9.52000046       2.21561659E-02
  -9.51000023       2.26914734E-02
  -9.50000000       2.31966674E-02
  -9.48999977       2.36690007E-02
  -9.47999954       2.41062790E-02
  -9.47000027       2.45074742E-02
  -9.46000004       2.48728767E-02
  -9.44999981       2.52038985E-02
  -9.43999958       2.55027916E-02
  -9.43000031       2.57721376E-02
  -9.42000008       2.60143951E-02
  -9.40999985       2.62318142E-02
  -9.39999962       2.64262240E-02
  -9.39000034       2.65991632E-02
  -9.38000011       2.67521087E-02
  -9.36999989       2.68866885E-02
  -9.35999966       2.70047262E-02
  -9.35000038       2.71083042E-02
  -9.34000015       2.71997638E-02
  -9.32999992       2.72814818E-02
  -9.31999969       2.73557752E-02
  -9.31000042       2.74247061E-02
  -9.30000019       2.74898540E-02
  -9.28999996       2.75520831E-02
  -9.27999973       2.76114121E-02
  -9.27000046       2.76666861E-02
  -9.26000023       2.77155116E-02
  -9.25000000       2.77543999E-02
  -9.23999977       2.77788397E-02
  -9.22999954       2.77838185E-02
  -9.22000027       2.77644228E-02
  -9.21000004       2.77162492E-02
  -9.19999981       2.76359878E-02
  -9.18999958       2.75215451E-02
  -9.18000031       2.73717977E-02
  -9.17000008       2.71861609E-02
  -9.15999985       2.69639641E-02
  -9.14999962       2.67037526E-02
  -9.14000034       2.64030192E-02
  -9.13000011       2.60583125E-02
  -9.11999989       2.56655850E-02
  -9.10999966       2.52212454E-02
  -9.10000038       2.47228723E-02
  -9.09000015       2.41702031E-02
  -9.07999992       2.35652272E-02
  -9.06999969       2.29121577E-02
  -9.06000042       2.22167131E-02
  -9.05000019       2.14850456E-02
  -9.03999996       2.07230225E-02
  -9.02999973       1.99356023E-02
  -9.02000046       1.91268139E-02
  -9.01000023       1.83002762E-02
  -9.00000000       1.74600128E-02
  -8.98999977       1.66112371E-02
  -8.97999954       1.57610662E-02
  -8.97000027       1.49183189E-02
  -8.96000004       1.40930042E-02
  -8.94999981       1.32952658E-02
  -8.93999958       1.25343306E-02
  -8.93000031       1.18176928E-02
  -8.92000008       1.11509413E-02
  -8.90999985       1.05382400E-02
  -8.89999962       9.98333190E-03
  -8.89000034       9.49064642E-03
  -8.88000011       9.06623248E-03
  -8.86999989       8.71799141E-03
  -8.85999966       8.45521595E-03
  -8.85000038       8.28728080E-03
  -8.84000015       8.22226144E-03
  -8.82999992       8.26588459E-03
  -8.81999969       8.42069276E-03
  -8.81000042       8.68674368E-03
  -8.80000019       9.06236377E-03
  -8.78999996       9.54599585E-03
  -8.77999973       1.01376455E-02
  -8.77000046       1.08396541E-02
  -8.76000023       1.16568459E-02
  -8.75000000       1.25955138E-02
  -8.73999977       1.36618474E-02
  -8.72999954       1.48603646E-02
  -8.72000027       1.61927287E-02
  -8.71000004       1.76573563E-02
  -8.69999981       1.92504972E-02
  -8.68999958       2.09672339E-02
  -8.68000031       2.28031930E-02
  -8.67000008       2.47558933E-02
  -8.65999985       2.68251859E-02
  -8.64999962       2.90126465E-02
  -8.64000034       3.13205868E-02
  -8.63000011       3.37505490E-02
  -8.61999989       3.63022648E-02
  -8.60999966       3.89732160E-02
  -8.60000038       4.17591184E-02
  -8.59000015       4.46552113E-02
  -8.57999992       4.76573184E-02
  -8.56999969       5.07629067E-02
  -8.56000042       5.39712906E-02
  -8.55000019       5.72825111E-02
  -8.53999996       6.06959723E-02
  -8.52999973       6.42085969E-02
  -8.52000046       6.78139105E-02
  -8.51000023       7.15012178E-02
  -8.50000000       7.52569139E-02
  -8.48999977       7.90657476E-02
  -8.47999954       8.29132646E-02
  -8.47000027       8.67870674E-02
  -8.46000004       9.06776115E-02
  -8.44999981       9.45778117E-02
  -8.43999958       9.84815508E-02
  -8.43000031      0.102381676    
  -8.42000008      0.106268600    
  -8.40999985      0.110129721    
  -8.39999962      0.113949507    
  -8.39000034      0.117711641    
  -8.38000011      0.121400483    
  -8.36999989      0.125003323    
  -8.35999966      0.128511250    
  -8.35000038      0.131918490    
  -8.34000015      0.135221720    
  -8.32999992      0.138417318    
  -8.31999969      0.141500160    
  -8.31000042      0.144461945    
  -8.30000019      0.147291571    
  -8.28999996      0.149976477    
  -8.27999973      0.152503997    
  -8.27000046      0.154863775    
  -8.26000023      0.157048807    
  -8.25000000      0.159055576    
  -8.23999977      0.160883516    
  -8.22999954      0.162533626    
  -8.22000027      0.164006844    
  -8.21000004      0.165303349    
  -8.19999981      0.166421860    
  -8.18999958      0.167360589    
  -8.18000031      0.168117955    
  -8.17000008      0.168693155    
  -8.15999985      0.169086605    
  -8.14999962      0.169299334    
  -8.14000034      0.169331804    
  -8.13000011      0.169183001    
  -8.11999989      0.168849155    
  -8.10999966      0.168324724    
  -8.10000038      0.167602509    
  -8.09000015      0.166675791    
  -8.07999992      0.165539995    
  -8.06999969      0.164193273    
  -8.06000042      0.162637368    
  -8.05000019      0.160876215    
  -8.03999996      0.158914655    
  -8.02999973      0.156757146    
  -8.02000046      0.154406458    
  -8.01000023      0.151864365    
  -8.00000000      0.149132341    
  -7.98999977      0.146213993    
  -7.98000002      0.143116087    
  -7.96999979      0.139849827    
  -7.96000004      0.136430755    
  -7.94999981      0.132877037    
  -7.94000006      0.129207447    
  -7.92999983      0.125439674    
  -7.92000008      0.121588983    
  -7.90999985      0.117668927    
  -7.90000010      0.113692455    
  -7.88999987      0.109674238    
  -7.88000011      0.105631597    
  -7.86999989      0.101585679    
  -7.86000013       9.75599959E-02
  -7.84999990       9.35781151E-02
  -7.84000015       8.96610171E-02
  -7.82999992       8.58246759E-02
  -7.82000017       8.20791349E-02
  -7.80999994       7.84298629E-02
  -7.80000019       7.48802125E-02
  -7.78999996       7.14349970E-02
  -7.78000021       6.81034699E-02
  -7.76999998       6.49004355E-02
  -7.76000023       6.18459322E-02
  -7.75000000       5.89617826E-02
  -7.73999977       5.62680364E-02
  -7.73000002       5.37791029E-02
  -7.71999979       5.15017062E-02
  -7.71000004       4.94348221E-02
  -7.69999981       4.75718714E-02
  -7.69000006       4.59043793E-02
  -7.67999983       4.44257818E-02
  -7.67000008       4.31336053E-02
  -7.65999985       4.20304090E-02
  -7.65000010       4.11217287E-02
  -7.63999987       4.04139645E-02
  -7.63000011       3.99102569E-02
  -7.61999989       3.96093652E-02
  -7.61000013       3.95048931E-02
  -7.59999990       3.95874269E-02
  -7.59000015       3.98466438E-02
  -7.57999992       4.02747616E-02
  -7.57000017       4.08686139E-02
  -7.55999994       4.16291058E-02
  -7.55000019       4.25595120E-02
  -7.53999996       4.36632037E-02
  -7.53000021       4.49413061E-02
  -7.51999998       4.63901870E-02
  -7.51000023       4.80025783E-02
  -7.50000000       4.97693680E-02
  -7.48999977       5.16818836E-02
  -7.48000002       5.37344962E-02
  -7.46999979       5.59258722E-02
  -7.46000004       5.82581908E-02
  -7.44999981       6.07351847E-02
  -7.44000006       6.33592606E-02