  -16.0000000       0.00000000    
  -15.9899998       0.00000000    
  -15.9799995       0.00000000    
  -15.9700003       0.00000000    
  -15.9600000       0.00000000    
  -15.9499998       0.00000000    
  -15.9399996       0.00000000    
  -15.9300003       0.00000000    
  -15.9200001       0.00000000    
  -15.9099998       0.00000000    
  -15.8999996       0.00000000    
  -15.8900003       0.00000000    
  -15.8800001       0.00000000    
  -15.8699999       0.00000000    
  -15.8599997      -1.40129846E-45
  -15.8500004      -1.96181785E-44
  -15.8400002      -2.38220739E-43
  -15.8299999      -2.14398665E-42
  -15.8199997      -1.53932636E-41
  -15.8100004      -9.15972754E-41
  -15.8000002      -4.65809826E-40
  -15.7900000      -2.06909145E-39
  -15.7799997      -8.15875342E-39
  -15.7700005      -2.89107379E-38
  -15.7600002      -9.29266985E-38
  -15.7500000      -2.72858931E-37
  -15.7399998      -7.35702680E-37
  -15.7299995      -1.82788385E-36
  -15.7200003      -4.19243174E-36
  -15.7100000      -8.87626446E-36
  -15.6999998      -1.73052757E-35
  -15.6899996      -3.08822598E-35
  -15.6800003      -4.98378725E-35
  -15.6700001      -7.09516853E-35
  -15.6599998      -8.40646175E-35
  -15.6499996      -6.81752917E-35
  -15.6400003       1.05181856E-35
  -15.6300001       1.94285959E-34
  -15.6199999       5.17555790E-34
  -15.6099997       9.74203708E-34
  -15.6000004       1.47035049E-33
  -15.5900002       1.77736803E-33
  -15.5799999       1.51710770E-33
  -15.5699997       2.25157012E-34
  -15.5600004      -2.46605086E-33
  -15.5500002      -6.52066332E-33
  -15.5400000      -1.11453931E-32
  -15.5299997      -1.45680190E-32
  -15.5200005      -1.42029781E-32
  -15.5100002      -7.41980997E-33
  -15.5000000       7.09853635E-33
  -15.4899998       2.78386332E-32
  -15.4799995       4.96657178E-32
  -15.4700003       6.48017416E-32
  -15.4600000       6.60708758E-32
  -15.4499998       5.14560309E-32
  -15.4399996       2.70064743E-32
  -15.4300003       3.79331807E-33
  -15.4200001      -1.41907103E-32
  -15.4099998      -4.89129723E-32
  -15.3999996      -1.62383906E-31
  -15.3900003      -4.45008307E-31
  -15.3800001      -9.55892540E-31
  -15.3699999      -1.60922092E-30
  -15.3599997      -2.04059218E-30
  -15.3500004      -1.54302206E-30
  -15.3400002       7.93103123E-31
  -15.3299999       5.61421067E-30
  -15.3199997       1.25069214E-29
  -15.3100004       1.91039912E-29
  -15.3000002       2.06311484E-29
  -15.2900000       1.06531965E-29
  -15.2799997      -1.63165372E-29
  -15.2700005      -6.03062471E-29
  -15.2600002      -1.10651849E-28
  -15.2500000      -1.42732594E-28
  -15.2399998      -1.20475693E-28
  -15.2299995      -8.09207302E-30
  -15.2200003       2.08244738E-28
  -15.2100000       4.93478478E-28
  -15.1999998       7.43136199E-28
  -15.1899996       7.86331822E-28
  -15.1800003       4.29296044E-28
  -15.1700001      -4.53592613E-28
  -15.1599998      -1.79579486E-27
  -15.1499996      -3.22548584E-27
  -15.1400003      -4.03393769E-27
  -15.1300001      -3.30374331E-27
  -15.1199999      -2.46287921E-28
  -15.1099997       5.27814698E-27
  -15.1000004       1.22004172E-26
  -15.0900002       1.79092919E-26
  -15.0799999       1.84846920E-26
  -15.0699997       9.78651363E-27
  -15.0600004      -1.05458308E-26
  -15.0500002      -4.05563314E-26
  -15.0400000      -7.18130465E-26
  -15.0299997      -8.90065966E-26
  -15.0200005      -7.27866488E-26
  -15.0100002      -6.74090503E-27
  -15.0000000       1.12023709E-25
  -14.9899998       2.61456977E-25
  -14.9799995       3.87492125E-25
  -14.9700003       4.08098602E-25
  -14.9600000       2.34542004E-25
  -14.9499998      -1.88356331E-25
  -14.9399996      -8.29506470E-25
  -14.9300003      -1.52404594E-24
  -14.9200001      -1.95895324E-24
  -14.9099998      -1.72319466E-24
  -14.8999996      -4.43876353E-25
  -14.8900003       1.99825784E-24
  -14.8800001       5.22562447E-24
  -14.8699999       8.19559980E-24
  -14.8599997       9.24532754E-24
  -14.8500004       6.47801295E-24
  -14.8400002      -1.46199690E-24
  -14.8299999      -1.43396374E-23
  -14.8199997      -2.93353137E-23
  -14.8100004      -4.06362132E-23
  -14.8000002      -4.02130114E-23
  -14.7900000      -2.02034283E-23
  -14.7799997       2.31815596E-23
  -14.7700005       8.51110992E-23
  -14.7600002       1.48718368E-22
  -14.7500000       1.85190285E-22
  -14.7399998       1.59581626E-22
  -14.7299995       4.32533760E-23
  -14.7200003      -1.68739632E-22
  -14.7100000      -4.40361847E-22
  -14.6999998      -6.85523509E-22
  -14.6899996      -7.76451177E-22
  -14.6800003      -5.76229242E-22
  -14.6700001       4.86416091E-24
  -14.6599998       9.40693279E-22
  -14.6499996       2.03201441E-21
  -14.6400003       2.89292505E-21
  -14.6300001       3.01212872E-21
  -14.6199999       1.90438242E-21
  -14.6099997      -6.63810473E-22
  -14.6000004      -4.43157853E-21
  -14.5900002      -8.48006419E-21
  -14.5799999      -1.12611666E-20
  -14.5699997      -1.09095017E-20
  -14.5600004      -5.85521614E-21
  -14.5500002       4.36341610E-21
  -14.5400000       1.83249118E-20
  -14.5299997       3.23291749E-20
  -14.5200005       4.07376080E-20
  -14.5100002       3.72770009E-20
  -14.5000000       1.72513574E-20
  -14.4899998      -1.97920410E-20
  -14.4799995      -6.77972481E-20
  -14.4700003      -1.13433151E-19
  -14.4600000      -1.37837629E-19
  -14.4499998      -1.21352669E-19
  -14.4399996      -5.07693378E-20
  -14.4300003       7.26016294E-20
  -14.4200001       2.26788755E-19
  -14.4099998       3.68167984E-19
  -14.3999996       4.38256057E-19
  -14.3900003       3.79079116E-19
  -14.3800001       1.54981943E-19
  -14.3699999      -2.24581036E-19
  -14.3599997      -6.89353091E-19
  -14.3500004      -1.10841323E-18
  -14.3400002      -1.31253049E-18
  -14.3299999      -1.13947242E-18
  -14.3199997      -4.94912655E-19
  -14.3100004       5.86942082E-19
  -14.3000002       1.90485550E-18
  -14.2900000       3.09633121E-18
  -14.2799997       3.70224329E-18
  -14.2700005       3.28941895E-18
  -14.2600002       1.60951077E-18
  -14.2500000      -1.24792841E-18
  -14.2399998      -4.76308464E-18
  -14.2299995      -8.00724812E-18
  -14.2200003      -9.80999314E-18
  -14.2100000      -9.06529981E-18
  -14.1999998      -5.12036173E-18
  -14.1899996       1.85566349E-18
  -14.1800003       1.06521350E-17
  -14.1700001       1.90673519E-17
  -14.1599998       2.42981493E-17
  -14.1499996       2.36476892E-17
  -14.1400003       1.54199105E-17
  -14.1300001      -2.31097358E-19
  -14.1199999      -2.07827044E-17
  -14.1099997      -4.14190509E-17
  -14.1000004      -5.58487005E-17
  -14.0900002      -5.78195609E-17
  -14.0799999      -4.30532355E-17
  -14.0699997      -1.11133758E-17
  -14.0600004       3.33877657E-17
  -14.0500002       8.07930333E-17
  -14.0400000       1.17932834E-16
  -14.0299997       1.31118384E-16
  -14.0200005       1.10065347E-16
  -14.0100002       5.18035722E-17
  -14.0000000      -3.65966706E-17
  -13.9899998      -1.37579432E-16
  -13.9799995      -2.25614796E-16
  -13.9700003      -2.72626421E-16
  -13.9600000      -2.55425035E-16
  -13.9499998      -1.63448269E-16
  -13.9399996      -4.64177364E-18
  -13.9300003       1.92611348E-16
  -13.9200001       3.82916040E-16
  -13.9099998       5.12807352E-16
  -13.8999996       5.33831239E-16
  -13.8900003       4.16940242E-16
  -13.8800001       1.64442116E-16
  -13.8699999      -1.84297243E-16
  -13.8599997      -5.56188091E-16
  -13.8500004      -8.57587031E-16
  -13.8400002      -9.95535081E-16
  -13.8299999      -9.02747810E-16
  -13.8199997      -5.60248291E-16
  -13.8100004      -1.11036234E-17
  -13.8000002       6.39988555E-16
  -13.7900000       1.24357068E-15
  -13.7799997       1.63700700E-15
  -13.7700005       1.68478178E-15
  -13.7600002       1.31822742E-15
  -13.7500000       5.64043739E-16
  -13.7399998      -4.47682800E-16
  -13.7299995      -1.50124594E-15
  -13.7200003      -2.33810973E-15
  -13.7100000      -2.71720821E-15
  -13.6999998      -2.47948990E-15
  -13.6899996      -1.60038903E-15
  -13.6800003      -2.14726743E-16
  -13.6700001       1.39635975E-15
  -13.6599998       2.85830485E-15
  -13.6499996       3.78737907E-15
  -13.6400003       3.88844239E-15
  -13.6300001       3.04224229E-15
  -13.6199999       1.35789302E-15
  -13.6099997      -8.27901385E-16
  -13.6000004      -3.01156656E-15
  -13.5900002      -4.63489864E-15
  -13.5799999      -5.22552074E-15
  -13.5699997      -4.53159069E-15
  -13.5600004      -2.61391636E-15
  -13.5500002       1.34723475E-16
  -13.5400000       3.05748337E-15
  -13.5299997       5.38119777E-15
  -13.5200005       6.41386011E-15
  -13.5100002       5.74418485E-15
  -13.5000000       3.38871455E-15
  -13.4899998      -1.60881243E-16
  -13.4799995      -4.01644770E-15
  -13.4700003      -7.09279598E-15
  -13.4600000      -8.38867380E-15
  -13.4499998      -7.28204304E-15
  -13.4399996      -3.75928045E-15
  -13.4300003       1.49478456E-15
  -13.4200001       7.19055671E-15
  -13.4099998       1.17107777E-14
  -13.3999996       1.35198808E-14
  -13.3900003       1.16106448E-14
  -13.3800001       5.86951820E-15
  -13.3699999      -2.75198379E-15
  -13.3599997      -1.23349859E-14
  -13.3500004      -2.03717658E-14
  -13.3400002      -2.43617128E-14
  -13.3299999      -2.24934224E-14
  -13.3199997      -1.42404517E-14
  -13.3100004      -6.97937467E-16
  -13.3000002       1.54655578E-14
  -13.2900000       3.04809278E-14
  -13.2799997       4.03074790E-14
  -13.2700005       4.16462282E-14
  -13.2600002       3.28954257E-14
  -13.2500000       1.47911722E-14
  -13.2399998      -9.47320886E-15
  -13.2299995      -3.47435974E-14
  -13.2200003      -5.49637003E-14
  -13.2100000      -6.45898536E-14
  -13.1999998      -6.00410360E-14
  -13.1899996      -4.08181518E-14
  -13.1800003      -9.97113209E-15
  -13.1700001       2.62752280E-14
  -13.1599998       5.97316725E-14
  -13.1499996       8.20728644E-14
  -13.1400003       8.68863087E-14
  -13.1300001       7.14490248E-14
  -13.1199999       3.77583232E-14
  -13.1099997      -7.51484073E-15
  -13.1000004      -5.42424822E-14
  -13.0900002      -9.10339377E-14
  -13.0799999      -1.07952411E-13
  -13.0699997      -9.91240307E-14
  -13.0600004      -6.45783814E-14
  -13.0500002      -1.07897513E-14
  -13.0400000       5.03363695E-14
  -13.0299997       1.03924071E-13
  -13.0200005       1.35558001E-13
  -13.0100002       1.34923661E-13
  -13.0000000       9.87753919E-14
  -12.9899998       3.24377298E-14
  -12.9799995      -5.06644389E-14
  -12.9700003      -1.31511989E-13
  -12.9600000      -1.89604625E-13
  -12.9499998      -2.07821756E-13
  -12.9399996      -1.76916628E-13
  -12.9300003      -9.85209567E-14
  -12.9200001       1.41938886E-14
  -12.9099998       1.38558124E-13
  -12.8999996       2.46883541E-13
  -12.8900003       3.12511898E-13
  -12.8800001       3.16117927E-13
  -12.8699999       2.50792768E-13
  -12.8599997       1.24617588E-13
  -12.8500004      -4.00575840E-14
  -12.8400002      -2.10686503E-13
  -12.8299999      -3.51215910E-13
  -12.8199997      -4.29990489E-13
  -12.8100004      -4.27101632E-13
  -12.8000002      -3.39434210E-13
  -12.7900000      -1.82113656E-13
  -12.7799997       1.41609924E-14
  -12.7700005       2.09468280E-13
  -12.7600002       3.63375427E-13
  -12.7500000       4.44063975E-13
  -12.7399998       4.35741639E-13
  -12.7299995       3.42526598E-13
  -12.7200003       1.87760167E-13
  -12.7100000       8.75286578E-15
  -12.6999998      -1.51934983E-13
  -12.6899996      -2.56702049E-13
  -12.6800003      -2.82188932E-13
  -12.6700001      -2.25353834E-13
  -12.6599998      -1.04742102E-13
  -12.6499996       4.35444493E-14
  -12.6400003       1.74410467E-13
  -12.6300001       2.44956263E-13
  -12.6199999       2.25671559E-13
  -12.6099997       1.08889074E-13
  -12.6000004      -8.76988301E-14
  -12.5900002      -3.23572928E-13
  -12.5799999      -5.43666457E-13
  -12.5699997      -6.90688826E-13
  -12.5600004      -7.18737949E-13
  -12.5500002      -6.04997660E-13
  -12.5400000      -3.56614315E-13
  -12.5299997      -1.08574309E-14
  -12.5200005       3.71828599E-13
  -12.5100002       7.20593778E-13
  -12.5000000       9.70028311E-13
  -12.4899998       1.07545862E-12
  -12.4799995       1.02399740E-12
  -12.4700003       8.38442922E-13
  -12.4600000       5.72664854E-13
  -12.4499998       2.99053886E-13
  -12.4399996       9.05289569E-14
  -12.4300003       1.05812605E-15
  -12.4200001       4.92411220E-14
  -12.4099998       2.09086681E-13
  -12.3999996       4.10688058E-13
  -12.3900003       5.51344506E-13
  -12.3800001       5.15264101E-13
  -12.3699999       1.97871735E-13
  -12.3599997      -4.70578220E-13
  -12.3500004      -1.50754203E-12
  -12.3400002      -2.87114668E-12
  -12.3299999      -4.46569387E-12
  -12.3199997      -6.15891019E-12
  -12.3100004      -7.80743525E-12
  -12.3000002      -9.28480123E-12
  -12.2900000      -1.05054394E-11
  -12.2799997      -1.14388568E-11
  -12.2700005      -1.21102624E-11
  -12.2600002      -1.25871553E-11
  -12.2500000      -1.29546695E-11
  -12.2399998      -1.32855393E-11
  -12.2299995      -1.36120195E-11
  -12.2200003      -1.39070708E-11
  -12.2100000      -1.40800357E-11
  -12.1999998      -1.39888110E-11
  -12.1899996      -1.34664901E-11
  -12.1800003      -1.23567346E-11
  -12.1700001      -1.05498154E-11
  -12.1599998      -8.01070234E-12
  -12.1499996      -4.79215972E-12
  -12.1400003      -1.02924527E-12
  -12.1300001       3.08408312E-12
  -12.1199999       7.33122417E-12
  -12.1099997       1.15138385E-11
  -12.1000004       1.54879408E-11
  -12.0900002       1.91867668E-11
  -12.0799999       2.26250893E-11
  -12.0699997       2.58841993E-11
  -12.0600004       2.90812270E-11
  -12.0500002       3.23303467E-11
  -12.0400000       3.57052825E-11
  -12.0299997       3.92120815E-11
  -12.0200005       4.27786868E-11
  -12.0100002       4.62633473E-11
  -12.0000000       4.94798438E-11
  -11.9899998       5.22328535E-11
  -11.9799995       5.43552321E-11
  -11.9700003       5.57379976E-11
  -11.9600000       5.63464830E-11
  -11.9499998       5.62191613E-11
  -11.9399996       5.54501965E-11
  -11.9300003       5.41604851E-11
  -11.9200001       5.24644182E-11
  -11.9099998       5.04403706E-11
  -11.8999996       4.81113378E-11
  -11.8900003       4.54399608E-11
  -11.8800001       4.23378589E-11
  -11.8699999       3.86860197E-11
  -11.8599997       3.43615136E-11
  -11.8500004       2.92633487E-11
  -11.8400002       2.33324124E-11
  -11.8299999       1.65617173E-11
  -11.8199997       8.99579803E-12
  -11.8100004       7.20917195E-13
  -11.8000002      -8.14988702E-12
  -11.7900000      -1.74934615E-11
  -11.7799997      -2.71901564E-11
  -11.7700005      -3.71323632E-11
  -11.7600002      -4.72266080E-11
  -11.7500000      -5.73907241E-11
  -11.7399998      -6.75480435E-11
  -11.7299995      -7.76213885E-11
  -11.7200003      -8.75291090E-11
  -11.7100000      -9.71845104E-11
  -11.6999998      -1.06498935E-10
  -11.6899996      -1.15386707E-10
  -11.6800003      -1.23770660E-10
  -11.6700001      -1.31585756E-10
  -11.6599998      -1.38779710E-10
  -11.6499996      -1.45309667E-10
  -11.6400003      -1.51135840E-10
  -11.6300001      -1.56213834E-10
  -11.6199999      -1.60487401E-10
  -11.6099997      -1.63884337E-10
  -11.6000004      -1.66316919E-10
  -11.5900002      -1.67687350E-10
  -11.5799999      -1.67897418E-10
  -11.5699997      -1.66860747E-10
  -11.5600004      -1.64514652E-10
  -11.5500002      -1.60828725E-10
  -11.5400000      -1.55807534E-10
  -11.5299997      -1.49485993E-10
  -11.5200005      -1.41918199E-10
  -11.5100002      -1.33160191E-10
  -11.5000000      -1.23251478E-10
  -11.4899998      -1.12198750E-10
  -11.4799995      -9.99662714E-11
  -11.4700003      -8.64759583E-11
  -11.4600000      -7.16183154E-11
  -11.4499998      -5.52740423E-11
  -11.4399996      -3.73413141E-11
  -11.4300003      -1.77633828E-11
  -11.4200001       3.44861878E-12
  -11.4099998       2.62059020E-11
  -11.3999996       5.03471917E-11
  -11.3900003       7.56597215E-11
  -11.3800001       1.01911743E-10
  -11.3699999       1.28891758E-10
  -11.3599997       1.56444149E-10
  -11.3500004       1.84492574E-10
  -11.3400002       2.13045984E-10
  -11.3299999       2.42182052E-10
  -11.3199997       2.72014578E-10
  -11.3100004       3.02647268E-10
  -11.3000002       3.34128780E-10
  -11.2900000       3.66416231E-10
  -11.2799997       3.99360184E-10
  -11.2700005       4.32713199E-10
  -11.2600002       4.66162331E-10
  -11.2500000       4.99378650E-10
  -11.2399998       5.32072275E-10
  -11.2299995       5.64039759E-10
  -11.2200003       5.95191285E-10
  -11.2100000       6.25553498E-10
  -11.1999998       6.55242471E-10
  -11.1899996       6.84417523E-10
  -11.1800003       7.13223036E-10
  -11.1700001       7.41735395E-10
  -11.1599998       7.69926956E-10
  -11.1499996       7.97657385E-10
  -11.1400003       8.24693092E-10
  -11.1300001       8.50754134E-10
  -11.1199999       8.75574446E-10
  -11.1099997       8.98964569E-10
  -11.1000004       9.20858834E-10
  -11.0900002       9.41340228E-10
  -11.0799999       9.60629132E-10
  -11.0699997       9.79048953E-10
  -11.0600004       9.96961957E-10
  -11.0500002       1.01470321E-09
  -11.0400000       1.03251385E-09
  -11.0299997       1.05049880E-09
  -11.0200005       1.06861109E-09
  -11.0100002       1.08666576E-09
  -11.0000000       1.10438891E-09
  -10.9899998       1.12147847E-09
  -10.9799995       1.13767817E-09
  -10.9700003       1.15283860E-09
  -10.9600000       1.16695864E-09
  -10.9499998       1.18019772E-09
  -10.9399996       1.19285626E-09
  -10.9300003       1.20532395E-09
  -10.9200001       1.21801758E-09
  -10.9099998       1.23130239E-09
  -10.8999996       1.24543686E-09
  -10.8900003       1.26052691E-09
  -10.8800001       1.27651856E-09
  -10.8699999       1.29322197E-09
  -10.8599997       1.31036082E-09
  -10.8500004       1.32764189E-09
  -10.8400002       1.34482581E-09
  -10.8299999       1.36177547E-09
  -10.8199997       1.37849177E-09
  -10.8100004       1.39510792E-09
  -10.8000002       1.41185086E-09
  -10.7900000       1.42898782E-09
  -10.7799997       1.44675283E-09
  -10.7700005       1.46528145E-09
  -10.7600002       1.48457968E-09
  -10.7500000       1.50450241E-09
  -10.7399998       1.52477597E-09
  -10.7299995       1.54504631E-09
  -10.7200003       1.56494784E-09
  -10.7100000       1.58415381E-09
  -10.6999998       1.60243108E-09
  -10.6899996       1.61968161E-09
  -10.6800003       1.63591496E-09
  -10.6700001       1.65125214E-09
  -10.6599998       1.66586767E-09
  -10.6499996       1.67995640E-09
  -10.6400003       1.69368708E-09
  -10.6300001       1.70719006E-09
  -10.6199999       1.72053427E-09
  -10.6099997       1.73375081E-09
  -10.6000004       1.74683212E-09
  -10.5900002       1.75975923E-09
  -10.5799999       1.77251958E-09
  -10.5699997       1.78512238E-09
  -10.5600004       1.79759629E-09
  -10.5500002       1.81000870E-09
  -10.5400000       1.82244830E-09
  -10.5299997       1.83502680E-09
  -10.5200005       1.84787985E-09
  -10.5100002       1.86114646E-09
  -10.5000000       1.87496330E-09
  -10.4899998       1.88945837E-09
  -10.4799995       1.90471350E-09
  -10.4700003       1.92076399E-09
  -10.4600000       1.93758276E-09
  -10.4499998       1.95510497E-09
  -10.4399996       1.97321337E-09
  -10.4300003       1.99179517E-09
  -10.4200001       2.01074490E-09
  -10.4099998       2.02999972E-09
  -10.3999996       2.04957717E-09
  -10.3900003       2.06953210E-09
  -10.3800001       2.08996420E-09
  -10.3699999       2.11096407E-09
  -10.3599997       2.13256857E-09
  -10.3500004       2.15472573E-09
  -10.3400002       2.17726659E-09
  -10.3299999       2.19991980E-09
  -10.3199997       2.22234919E-09
  -10.3100004       2.24420460E-09
  -10.3000002       2.26519759E-09
  -10.2900000       2.28516339E-09
  -10.2799997       2.30410668E-09
  -10.2700005       2.32220776E-09
  -10.2600002       2.33982234E-09
  -10.2500000       2.35741271E-09
  -10.2399998       2.37547959E-09
  -10.2299995       2.39448283E-09
  -10.2200003       2.41479281E-09
  -10.2100000       2.43664222E-09
  -10.1999998       2.46010212E-09
  -10.1899996       2.48514387E-09
  -10.1800003       2.51165666E-09
  -10.1700001       2.53950683E-09
  -10.1599998       2.56860577E-09
  -10.1499996       2.59893307E-09
  -10.1400003       2.63054045E-09
  -10.1300001       2.66357980E-09
  -10.1199999       2.69821965E-09
  -10.1099997       2.73464629E-09
  -10.1000004       2.77297030E-09
  -10.0900002       2.81325474E-09
  -10.0799999       2.85547608E-09
  -10.0699997       2.89952284E-09
  -10.0600004       2.94527736E-09
  -10.0500002       2.99263081E-09
  -10.0400000       3.04153436E-09
  -10.0299997       3.09201753E-09
  -10.0200005       3.14421356E-09
  -10.0100002       3.19831717E-09
  -10.0000000       3.25459149E-09
  -9.98999977       3.31325811E-09
  -9.97999954       3.37452510E-09
  -9.97000027       3.43847795E-09
  -9.96000004       3.50515927E-09
  -9.94999981       3.57449359E-09
  -9.93999958       3.64636943E-09
  -9.93000031       3.72066578E-09
  -9.92000008       3.79724119E-09
  -9.90999985       3.87596799E-09
  -9.89999962       3.95672561E-09
  -9.89000034       4.03941769E-09
  -9.88000011       4.12392298E-09
  -9.86999989       4.21012514E-09
  -9.85999966       4.29794911E-09
  -9.85000038       4.38736425E-09
  -9.84000015       4.47844029E-09
  -9.82999992       4.57139970E-09
  -9.81999969       4.66659023E-09
  -9.81000042       4.76448170E-09
  -9.80000019       4.86562746E-09
  -9.78999996       4.97059416E-09
  -9.77999973       5.07986009E-09
  -9.77000046       5.19380050E-09
  -9.76000023       5.31263877E-09
  -9.75000000       5.43646506E-09
  -9.73999977       5.56529800E-09
  -9.72999954       5.69912340E-09
  -9.72000027       5.83800386E-09
  -9.71000004       5.98208594E-09
  -9.69999981       6.13163564E-09
  -9.68999958       6.28699492E-09
  -9.68000031       6.44853593E-09
  -9.67000008       6.61653221E-09
  -9.65999985       6.79116807E-09
  -9.64999962       6.97239910E-09
  -9.64000034       7.16003745E-09
  -9.63000011       7.35366434E-09
  -9.61999989       7.55276464E-09
  -9.60999966       7.75667264E-09
  -9.60000038       7.96471067E-09
  -9.59000015       8.17617618E-09
  -9.57999992       8.39032044E-09
  -9.56999969       8.60637162E-09
  -9.56000042       8.82349394E-09
  -9.55000019       9.04075748E-09
  -9.53999996       9.25711419E-09
  -9.52999973       9.47138901E-09
  -9.52000046       9.68231983E-09
  -9.51000023       9.88858773E-09
  -9.50000000       1.00887965E-08
  -9.48999977       1.02816271E-08
  -9.47999954       1.04658753E-08
  -9.47000027       1.06404556E-08
  -9.46000004       1.08045040E-08
  -9.44999981       1.09573923E-08
  -9.43999958       1.10987566E-08
  -9.43000031       1.12284244E-08
  -9.42000008       1.13464180E-08
  -9.40999985       1.14528849E-08
  -9.39999962       1.15480949E-08
  -9.39000034       1.16323617E-08
  -9.38000011       1.17061019E-08
  -9.36999989       1.17698695E-08
  -9.35999966       1.18244090E-08
  -9.35000038       1.18707044E-08
  -9.34000015       1.19100445E-08
  -9.32999992       1.19439960E-08
  -9.31999969       1.19744090E-08
  -9.31000042       1.20032499E-08
  -9.30000019       1.20326407E-08
  -9.28999996       1.20647563E-08
  -9.27999973       1.21017001E-08
  -9.27000046       1.21456232E-08
  -9.26000023       1.21986039E-08
  -9.25000000       1.22627837E-08
  -9.23999977       1.23403288E-08
  -9.22999954       1.24334338E-08
  -9.22000027       1.25442288E-08
  -9.21000004       1.26747448E-08
  -9.19999981       1.28267983E-08
  -9.18999958       1.30018947E-08
  -9.18000031       1.32012454E-08
  -9.17000008       1.34256943E-08
  -9.15999985       1.36759040E-08
  -9.14999962       1.39522269E-08
  -9.14000034       1.42549297E-08
  -9.13000011       1.45840469E-08
  -9.11999989       1.49394612E-08
  -9.10999966       1.53207136E-08
  -9.10000038       1.57269575E-08
  -9.09000015       1.61569869E-08
  -9.07999992       1.66091301E-08
  -9.06999969       1.70814083E-08
  -9.06000042       1.75716703E-08
  -9.05000019       1.80777544E-08
  -9.03999996       1.85976017E-08
  -9.02999973       1.91292244E-08
  -9.02000046       1.96707752E-08
  -9.01000023       2.02203410E-08
  -9.00000000       2.07759214E-08
  -8.98999977       2.13351541E-08
  -8.97999954       2.18953318E-08
  -8.97000027       2.24535217E-08
  -8.96000004       2.30066135E-08
  -8.94999981       2.35515483E-08
  -8.93999958       2.40855975E-08
  -8.93000031       2.46062992E-08
  -8.92000008       2.51115821E-08
  -8.90999985       2.55997481E-08
  -8.89999962       2.60692943E-08
  -8.89000034       2.65187250E-08
  -8.88000011       2.69463705E-08
  -8.86999989       2.73505876E-08
  -8.85999966       2.77295502E-08
  -8.85000038       2.80814572E-08
  -8.84000015       2.84048181E-08
  -8.82999992       2.86982935E-08
  -8.81999969       2.89608959E-08
  -8.81000042       2.91918489E-08
  -8.80000019       2.93907227E-08
  -8.78999996       2.95570626E-08
  -8.77999973       2.96905540E-08
  -8.77000046       2.97909182E-08
  -8.76000023       2.98579970E-08
  -8.75000000       2.98918259E-08
  -8.73999977       2.98926359E-08
  -8.72999954       2.98609599E-08
  -8.72000027       2.97975511E-08
  -8.71000004       2.97032745E-08
  -8.69999981       2.95790503E-08
  -8.68999958       2.94257934E-08
  -8.68000031       2.92443314E-08
  -8.67000008       2.90356876E-08
  -8.65999985       2.88010327E-08
  -8.64999962       2.85421162E-08
  -8.64000034       2.82608958E-08
  -8.63000011       2.79598531E-08
  -8.61999989       2.76417325E-08
  -8.60999966       2.73094578E-08
  -8.60000038       2.69656564E-08
  -8.59000015       2.66126428E-08
  -8.57999992       2.62521880E-08
  -8.56999969       2.58857060E-08
  -8.56000042       2.55143888E-08
  -8.55000019       2.51392684E-08
  -8.53999996       2.47615315E-08
  -8.52999973       2.43827376E-08
  -8.52000046       2.40045637E-08
  -8.51000023       2.36287558E-08
  -8.50000000       2.32571065E-08
  -8.48999977       2.28910615E-08
  -8.47999954       2.25316992E-08
  -8.47000027       2.21797869E-08
  -8.46000004       2.18358913E-08
  -8.44999981       2.15003801E-08
  -8.43999958       2.11736033E-08
  -8.43000031       2.08559978E-08
  -8.42000008       2.05480841E-08
  -8.40999985       2.02503561E-08
  -8.39999962       1.99629717E-08
  -8.39000034       1.96861247E-08
  -8.38000011       1.94196002E-08
  -8.36999989       1.91631830E-08
  -8.35999966       1.89165625E-08
  -8.35000038       1.86796587E-08
  -8.34000015       1.84526669E-08
  -8.32999992       1.82357773E-08
  -8.31999969       1.80294411E-08
  -8.31000042       1.78340223E-08
  -8.30000019       1.76496719E-08
  -8.28999996       1.74762214E-08
  -8.27999973       1.73131962E-08
  -8.27000046       1.71599819E-08
  -8.26000023       1.70160863E-08
  -8.25000000       1.68814331E-08
  -8.23999977       1.67563297E-08
  -8.22999954       1.66416090E-08
  -8.22000027       1.65386176E-08
  -8.21000004       1.64489702E-08
  -8.19999981       1.63740985E-08
  -8.18999958       1.63153953E-08
  -8.18000031       1.62737219E-08
  -8.17000008       1.62497695E-08
  -8.15999985       1.62442078E-08
  -8.14999962       1.62577170E-08
  -8.14000034       1.62911800E-08
  -8.13000011       1.63456786E-08
  -8.11999989       1.64227068E-08
  -8.10999966       1.65237815E-08
  -8.10000038       1.66503149E-08
  -8.09000015       1.68034617E-08
  -8.07999992       1.69842629E-08
  -8.06999969       1.71934076E-08
  -8.06000042       1.74314732E-08
  -8.05000019       1.76990582E-08
  -8.03999996       1.79968129E-08
  -8.02999973       1.83255349E-08
  -8.02000046       1.86860323E-08
  -8.01000023       1.90788629E-08
  -8.00000000       1.95044993E-08
  -7.98999977       1.99629078E-08
  -7.98000002       2.04535624E-08
  -7.96999979       2.09754560E-08
  -7.96000004       2.15277272E-08
  -7.94999981       2.21091341E-08
  -7.94000006       2.27189805E-08
  -7.92999983       2.33562503E-08
  -7.92000008       2.40204763E-08
  -7.90999985       2.47109906E-08
  -7.90000010       2.54273278E-08
  -7.88999987       2.61685429E-08
  -7.88000011       2.69336322E-08
  -7.86999989       2.77214944E-08
  -7.86000013       2.85308008E-08
  -7.84999990       2.93605158E-08
  -7.84000015       3.02096161E-08
  -7.82999992       3.10770538E-08
  -7.82000017       3.19622409E-08
  -7.80999994       3.28642464E-08
  -7.80000019       3.37823849E-08
  -7.78999996       3.47156295E-08
  -7.78000021       3.56628114E-08
  -7.76999998       3.66226907E-08
  -7.76000023       3.75938960E-08
  -7.75000000       3.85750916E-08
  -7.73999977       3.95651121E-08
  -7.73000002       4.05628917E-08
  -7.71999979       4.15670165E-08
  -7.71000004       4.25762217E-08
  -7.69999981       4.35891856E-08
  -7.69000006       4.46042456E-08
  -7.67999983       4.56198137E-08
  -7.67000008       4.66343764E-08
  -7.65999985       4.76465907E-08
  -7.65000010       4.86554548E-08
  -7.63999987       4.96603150E-08
  -7.63000011       5.06606490E-08
  -7.61999989       5.16562366E-08
  -7.61000013       5.26470494E-08
  -7.59999990       5.36329345E-08
  -7.59000015       5.46138175E-08
  -7.57999992       5.55893571E-08
  -7.57000017       5.65598803E-08
  -7.55999994       5.75254511E-08
  -7.55000019       5.84866200E-08
  -7.53999996       5.94437850E-08
  -7.53000021       6.03979942E-08
  -7.51999998       6.13498230E-08
  -7.51000023       6.22997192E-08
  -7.50000000       6.32482866E-08
  -7.48999977       6.41959872E-08
  -7.48000002       6.51427996E-08
  -7.46999979       6.60891786E-08
  -7.46000004       6.70357068E-08
  -7.44999981       6.79834926E-08
  -7.44000006       6.89338364E-08