  -16.0000000       0.00000000    
  -15.9899998       0.00000000    
  -15.9799995       0.00000000    
  -15.9700003       0.00000000    
  -15.9600000       0.00000000    
  -15.9499998       0.00000000    
  -15.9399996       0.00000000    
  -15.9300003       0.00000000    
  -15.9200001       0.00000000    
  -15.9099998       0.00000000    
  -15.8999996       0.00000000    
  -15.8900003       0.00000000    
  -15.8800001       0.00000000    
  -15.8699999       1.96181785E-44
  -15.8599997       5.82940161E-43
  -15.8500004       8.72588554E-42
  -15.8400002       8.68034334E-41
  -15.8299999       6.39374654E-40
  -15.8199997       3.67614958E-39
  -15.8100004       1.68913175E-38
  -15.8000002       6.17942523E-38
  -15.7900000       1.70157845E-37
  -15.7799997       2.63590452E-37
  -15.7700005      -5.11737967E-37
  -15.7600002      -6.33983263E-36
  -15.7500000      -3.26476538E-35
  -15.7399998      -1.26826749E-34
  -15.7299995      -4.14809778E-34
  -15.7200003      -1.19047979E-33
  -15.7100000      -3.05753317E-33
  -15.6999998      -7.09617140E-33
  -15.6899996      -1.49352082E-32
  -15.6800003      -2.84494436E-32
  -15.6700001      -4.86063975E-32
  -15.6599998      -7.28897246E-32
  -15.6499996      -9.10018121E-32
  -15.6400003      -7.95637524E-32
  -15.6300001       1.46854720E-33
  -15.6199999       2.05260521E-31
  -15.6099997       5.79998176E-31
  -15.6000004       1.13010419E-30
  -15.5900002       1.75854256E-30
  -15.5799999       2.20826281E-30
  -15.5699997       2.04232213E-30
  -15.5600004       7.17668783E-31
  -15.5500002      -2.20208479E-30
  -15.5400000      -6.70361219E-30
  -15.5299997      -1.19608811E-29
  -15.5200005      -1.61788347E-29
  -15.5100002      -1.69210414E-29
  -15.5000000      -1.20758884E-29
  -15.4899998      -1.24553143E-30
  -15.4799995       1.32152167E-29
  -15.4700003       2.67429998E-29
  -15.4600000       3.57847323E-29
  -15.4499998       4.35042598E-29
  -15.4399996       6.52137152E-29
  -15.4300003       1.27619509E-28
  -15.4200001       2.54231636E-28
  -15.4099998       4.31922964E-28
  -15.3999996       5.63449679E-28
  -15.3900003       4.28199323E-28
  -15.3800001      -3.06036214E-28
  -15.3699999      -1.96531232E-27
  -15.3599997      -4.60464620E-27
  -15.3500004      -7.61307242E-27
  -15.3400002      -9.31702430E-27
  -15.3299999      -6.85816720E-27
  -15.3199997       3.25209372E-27
  -15.3100004       2.35012788E-26
  -15.3000002       5.25379206E-26
  -15.2900000       8.16558613E-26
  -15.2799997       9.21730905E-26
  -15.2700005       5.64398608E-26
  -15.2600002      -5.41548636E-26
  -15.2500000      -2.51729410E-25
  -15.2399998      -5.06141440E-25
  -15.2299995      -7.18807296E-25
  -15.2200003      -7.12848191E-25
  -15.2100000      -2.63427502E-25
  -15.1999998       8.09133003E-25
  -15.1899996       2.47865244E-24
  -15.1800003       4.31951083E-24
  -15.1700001       5.37197671E-24
  -15.1599998       4.21249396E-24
  -15.1499996      -6.12677006E-25
  -15.1400003      -9.71118934E-24
  -15.1300001      -2.16540346E-23
  -15.1199999      -3.19225376E-23
  -15.1099997      -3.27836992E-23
  -15.1000004      -1.50348905E-23
  -15.0900002       2.77486336E-23
  -15.0799999       9.28141366E-23
  -15.0699997       1.61674745E-22
  -15.0600004       1.97246907E-22
  -15.0500002       1.49635630E-22
  -15.0400000      -2.54552130E-23
  -15.0299997      -3.35921132E-22
  -15.0200005      -7.17890131E-22
  -15.0100002      -1.01280390E-21
  -15.0000000      -9.80569100E-22
  -14.9899998      -3.70434894E-22
  -14.9799995       9.44891584E-22
  -14.9700003       2.79843320E-21
  -14.9600000       4.58966454E-21
  -14.9499998       5.27980742E-21
  -14.9399996       3.62767449E-21
  -14.9300003      -1.28239107E-21
  -14.9200001      -9.29242422E-21
  -14.9099998      -1.84489000E-20
  -14.8999996      -2.47189226E-20
  -14.8900003      -2.26165235E-20
  -14.8800001      -7.05836690E-21
  -14.8699999       2.36625919E-20
  -14.8599997       6.45684068E-20
  -14.8500004       1.01852746E-19
  -14.8400002       1.13822094E-19
  -14.8299999       7.65414455E-20
  -14.8199997      -2.55309571E-20
  -14.8100004      -1.85994042E-19
  -14.8000002      -3.64950923E-19
  -14.7900000      -4.86547533E-19
  -14.7799997      -4.52712382E-19
  -14.7700005      -1.76694710E-19
  -14.7600002       3.67471911E-19
  -14.7500000       1.09363865E-18
  -14.7399998       1.77393887E-18
  -14.7299995       2.05841310E-18
  -14.7200003       1.56442519E-18
  -14.7100000       3.56024933E-20
  -14.6999998      -2.46277559E-18
  -14.6899996      -5.38127021E-18
  -14.6800003      -7.65065801E-18
  -14.6700001      -7.86237654E-18
  -14.6599998      -4.70583505E-18
  -14.6499996       2.39015823E-18
  -14.6400003       1.25853959E-17
  -14.6300001       2.32072916E-17
  -14.6199999       2.99026751E-17
  -14.6099997       2.76035067E-17
  -14.6000004       1.23190743E-17
  -14.5900002      -1.65844700E-17
  -14.5799999      -5.43398999E-17
  -14.5699997      -8.99593062E-17
  -14.5600004      -1.07604882E-16
  -14.5500002      -9.06725808E-17
  -14.5400000      -2.82330673E-17
  -14.5299997       7.76771101E-17
  -14.5200005       2.06491505E-16
  -14.5100002       3.18365592E-16
  -14.5000000       3.60816554E-16
  -14.4899998       2.83527127E-16
  -14.4799995       5.91691689E-17
  -14.4700003      -2.95258109E-16
  -14.4600000      -7.04730618E-16
  -14.4499998      -1.03887151E-15
  -14.4399996      -1.13711854E-15
  -14.4300003      -8.56415319E-16
  -14.4200001      -1.32797614E-16
  -14.4099998       9.60664746E-16
  -14.3999996       2.18293414E-15
  -14.3900003       3.14374267E-15
  -14.3800001       3.38513012E-15
  -14.3699999       2.52070885E-15
  -14.3599997       4.04271435E-16
  -14.3500004      -2.72235330E-15
  -14.3400002      -6.16372493E-15
  -14.3299999      -8.84220404E-15
  -14.3199997      -9.53186250E-15
  -14.3100004      -7.23156750E-15
  -14.3000002      -1.59599166E-15
  -14.2900000       6.70587726E-15
  -14.2799997       1.58550964E-14
  -14.2700005       2.30942618E-14
  -14.2600002       2.53321280E-14
  -14.2500000       2.00670948E-14
  -14.2399998       6.42195732E-15
  -14.2299995      -1.40226923E-14
  -14.2200003      -3.69403706E-14
  -14.2100000      -5.57845023E-14
  -14.1999998      -6.32078550E-14
  -14.1899996      -5.31830134E-14
  -14.1800003      -2.33429592E-14
  -14.1700001       2.31523869E-14
  -14.1599998       7.69637853E-14
  -14.1499996       1.23692235E-13
  -14.1400003       1.46913704E-13
  -14.1300001       1.32700098E-13
  -14.1199999       7.46109243E-14
  -14.1099997      -2.22784183E-14
  -14.1000004      -1.39814457E-13
  -14.0900002      -2.48788620E-13
  -14.0799999      -3.14833961E-13
  -14.0699997      -3.07363428E-13
  -14.0600004      -2.09587122E-13
  -14.0500002      -2.68538057E-14
  -14.0400000       2.09569978E-13
  -14.0299997       4.45456226E-13
  -14.0200005       6.13955935E-13
  -14.0100002       6.51923556E-13
  -14.0000000       5.18765207E-13
  -13.9899998       2.12882175E-13
  -13.9799995      -2.19524187E-13
  -13.9700003      -6.87365800E-13
  -13.9600000      -1.07080794E-12
  -13.9499998      -1.24865689E-12
  -13.9399996      -1.13144043E-12
  -13.9300003      -6.92000819E-13
  -13.9200001       1.53666108E-14
  -13.9099998       8.54570538E-13
  -13.8999996       1.62957983E-12
  -13.8900003       2.12631453E-12
  -13.8800001       2.16654234E-12
  -13.8699999       1.66117228E-12
  -13.8599997       6.48489509E-13
  -13.8500004      -6.95323356E-13
  -13.8400002      -2.08047815E-12
  -13.8299999      -3.16152551E-12
  -13.8199997      -3.61864098E-12
  -13.8100004      -3.24420569E-12
  -13.8000002      -2.01266608E-12
  -13.7900000      -1.12965830E-13
  -13.7799997       2.07017606E-12
  -13.7700005       4.02828508E-12
  -13.7600002       5.24292458E-12
  -13.7500000       5.31722236E-12
  -13.7399998       4.09326392E-12
  -13.7299995       1.72296530E-12
  -13.7200003      -1.33209925E-12
  -13.7100000      -4.38105238E-12
  -13.6999998      -6.65365376E-12
  -13.6899996      -7.48963131E-12
  -13.6800003      -6.52300783E-12
  -13.6700001      -3.81249156E-12
  -13.6599998       1.23145011E-13
  -13.6499996       4.38615897E-12
  -13.6400003       7.89094658E-12
  -13.6300001       9.62879516E-12
  -13.6199999       8.94557171E-12
  -13.6099997       5.76018963E-12
  -13.6000004       6.57870188E-13
  -13.5900002      -5.18318201E-12
  -13.5799999      -1.02340584E-11
  -13.5699997      -1.29838753E-11
  -13.5600004      -1.23528245E-11
  -13.5500002      -8.04443491E-12
  -13.5400000      -7.34193522E-13
  -13.5299997       7.97827516E-12
  -13.5200005       1.58725134E-11
  -13.5100002       2.06191661E-11
  -13.5000000       2.03915825E-11
  -13.4899998       1.44271504E-11
  -13.4799995       3.38255682E-12
  -13.4700003      -1.06381414E-11
  -13.4600000      -2.44321750E-11
  -13.4499998      -3.43795548E-11
  -13.4399996      -3.73205529E-11
  -13.4300003      -3.14248592E-11
  -13.4200001      -1.68266408E-11
  -13.4099998       4.16463175E-12
  -13.3999996       2.73782455E-11
  -13.3900003       4.75972733E-11
  -13.3800001       5.97193614E-11
  -13.3699999       6.00047165E-11
  -13.3599997       4.71066415E-11
  -13.3500004       2.26084637E-11
  -13.3400002      -9.10783688E-12
  -13.3299999      -4.16805410E-11
  -13.3199997      -6.81224660E-11
  -13.3100004      -8.24127364E-11
  -13.3000002      -8.09482828E-11
  -13.2900000      -6.34888392E-11
  -13.2799997      -3.33347482E-11
  -13.2700005       3.34473118E-12
  -13.2600002       3.89034707E-11
  -13.2500000       6.60130978E-11
  -13.2399998       7.94228225E-11
  -13.2299995       7.72348921E-11
  -13.2200003       6.13480725E-11
  -13.2100000       3.69217226E-11
  -13.1999998       1.09615476E-11
  -13.1899996      -9.63322738E-12
  -13.1800003      -2.00577454E-11
  -13.1700001      -1.90783483E-11
  -13.1599998      -9.55221579E-12
  -13.1499996       2.23083834E-12
  -13.1400003       8.30216451E-12
  -13.1300001       1.47379862E-12
  -13.1199999      -2.21176116E-11
  -13.1099997      -6.10921591E-11
  -13.1000004      -1.08153264E-10
  -13.0900002      -1.51015117E-10
  -13.0799999      -1.74902107E-10
  -13.0699997      -1.66170633E-10
  -13.0600004      -1.16254679E-10
  -13.0500002      -2.49526563E-11
  -13.0400000       9.78795517E-11
  -13.0299997       2.32873221E-10
  -13.0200005       3.54090035E-10
  -13.0100002       4.33947989E-10
  -13.0000000       4.49181442E-10
  -12.9899998       3.86537607E-10
  -12.9799995       2.46844101E-10
  -12.9700003       4.63472628E-11
  -12.9600000      -1.85227958E-10
  -12.9499998      -4.09710765E-10
  -12.9399996      -5.87681515E-10
  -12.9300003      -6.86337154E-10
  -12.9200001      -6.86278978E-10
  -12.9099998      -5.85641535E-10
  -12.8999996      -4.00541822E-10
  -12.8900003      -1.61656369E-10
  -12.8800001       9.23396914E-11
  -12.8699999       3.22965210E-10
  -12.8599997       4.99809638E-10
  -12.8500004       6.06191652E-10
  -12.8400002       6.41214581E-10
  -12.8299999       6.17733198E-10
  -12.8199997       5.56799995E-10
  -12.8100004       4.80112172E-10
  -12.8000002       4.02571393E-10
  -12.7900000       3.27126770E-10
  -12.7799997       2.43554038E-10
  -12.7700005       1.31825745E-10
  -12.7600002      -3.05145700E-11
  -12.7500000      -2.58743277E-10
  -12.7399998      -5.51686752E-10
  -12.7299995      -8.85562346E-10
  -12.7200003      -1.21318355E-09
  -12.7100000      -1.46963819E-09
  -12.6999998      -1.58399349E-09
  -12.6899996      -1.49499624E-09
  -12.6800003      -1.16748344E-09
  -12.6700001      -6.05653472E-10
  -12.6599998       1.40351508E-10
  -12.6499996       9.76928205E-10
  -12.6400003       1.77911075E-09
  -12.6300001       2.41071274E-09
  -12.6199999       2.74902812E-09
  -12.6099997       2.70931477E-09
  -12.6000004       2.26398944E-09
  -12.5900002       1.45224488E-09
  -12.5799999       3.77598730E-10
  -12.5699997      -8.06729850E-10
  -12.5600004      -1.92218730E-09
  -12.5500002      -2.79449575E-09
  -12.5400000      -3.28286354E-09
  -12.5299997      -3.30321881E-09
  -12.5200005      -2.84115576E-09
  -12.5100002      -1.95249794E-09
  -12.5000000      -7.52030327E-10
  -12.4899998       6.06607209E-10
  -12.4799995       1.95520333E-09
  -12.4700003       3.13424686E-09
  -12.4600000       4.01079703E-09
  -12.4499998       4.48837767E-09
  -12.4399996       4.50876803E-09
  -12.4300003       4.04787448E-09
  -12.4200001       3.10949799E-09
  -12.4099998       1.72123893E-09
  -12.3999996      -6.41465214E-11
  -12.3900003      -2.16068474E-09
  -12.3800001      -4.43585213E-09
  -12.3699999      -6.69595668E-09
  -12.3599997      -8.67594263E-09
  -12.3500004      -1.00395470E-08
  -12.3400002      -1.03943307E-08
  -12.3299999      -9.32328614E-09
  -12.3199997      -6.43087494E-09
  -12.3100004      -1.39768719E-09
  -12.3000002       5.96504757E-09
  -12.2900000       1.56709792E-08
  -12.2799997       2.75331615E-08
  -12.2700005       4.11637799E-08
  -12.2600002       5.60007152E-08
  -12.2500000       7.13577890E-08
  -12.2399998       8.64909850E-08
  -12.2299995       1.00670285E-07
  -12.2200003       1.13245498E-07
  -12.2100000       1.23696424E-07
  -12.1999998       1.31661039E-07
  -12.1899996       1.36939633E-07
  -12.1800003       1.39477933E-07
  -12.1700001       1.39335739E-07
  -12.1599998       1.36649348E-07
  -12.1499996       1.31595769E-07
  -12.1400003       1.24364988E-07
  -12.1300001       1.15142370E-07
  -12.1199999       1.04100387E-07
  -12.1099997       9.13952150E-08
  -12.1000004       7.71630013E-08
  -12.0900002       6.15113009E-08
  -12.0799999       4.45027872E-08
  -12.0699997       2.61331135E-08
  -12.0600004       6.30750030E-09
  -12.0500002      -1.51761981E-08
  -12.0400000      -3.86297927E-08
  -12.0299997      -6.44556835E-08
  -12.0200005      -9.31033810E-08
  -12.0100002      -1.25003439E-07
  -12.0000000      -1.60486664E-07
  -11.9899998      -1.99700011E-07
  -11.9799995      -2.42532906E-07
  -11.9700003      -2.88568202E-07
  -11.9600000      -3.37067121E-07
  -11.9499998      -3.86993577E-07
  -11.9399996      -4.37076295E-07
  -11.9300003      -4.85899761E-07
  -11.9200001      -5.32012905E-07
  -11.9099998      -5.74037870E-07
  -11.8999996      -6.10766733E-07
  -11.8900003      -6.41230997E-07
  -11.8800001      -6.64739787E-07
  -11.8699999      -6.80884114E-07
  -11.8599997      -6.89509704E-07
  -11.8500004      -6.90670959E-07
  -11.8400002      -6.84571773E-07
  -11.8299999      -6.71507792E-07
  -11.8199997      -6.51815412E-07
  -11.8100004      -6.25834275E-07
  -11.8000002      -5.93882476E-07
  -11.7900000      -5.56243606E-07
  -11.7799997      -5.13158113E-07
  -11.7700005      -4.64816935E-07
  -11.7600002      -4.11349276E-07
  -11.7500000      -3.52807859E-07
  -11.7399998      -2.89150194E-07
  -11.7299995      -2.20225019E-07
  -11.7200003      -1.45768865E-07
  -11.7100000      -6.54220358E-08
  -11.6999998       2.12318358E-08
  -11.6899996       1.14601292E-07
  -11.6800003       2.15002601E-07
  -11.6700001       3.22565256E-07
  -11.6599998       4.37141608E-07
  -11.6499996       5.58236366E-07
  -11.6400003       6.84968768E-07
  -11.6300001       8.16078568E-07
  -11.6199999       9.49975856E-07
  -11.6099997       1.08483084E-06
  -11.6000004       1.21869118E-06
  -11.5900002       1.34960987E-06
  -11.5799999       1.47576247E-06
  -11.5699997       1.59554327E-06
  -11.5600004       1.70762121E-06
  -11.5500002       1.81095652E-06
  -11.5400000       1.90477522E-06
  -11.5299997       1.98851512E-06
  -11.5200005       2.06175309E-06
  -11.5100002       2.12412442E-06
  -11.5000000       2.17525258E-06
  -11.4899998       2.21469168E-06
  -11.4799995       2.24189216E-06
  -11.4700003       2.25618351E-06
  -11.4600000       2.25677536E-06
  -11.4499998       2.24277073E-06
  -11.4399996       2.21318737E-06
  -11.4300003       2.16698231E-06
  -11.4200001       2.10308008E-06
  -11.4099998       2.02040951E-06
  -11.3999996       1.91794265E-06
  -11.3900003       1.79474284E-06
  -11.3800001       1.65002552E-06
  -11.3699999       1.48321988E-06
  -11.3599997       1.29403406E-06
  -11.3500004       1.08250890E-06
  -11.3400002       8.49055994E-07
  -11.3299999       5.94462392E-07
  -11.3199997       3.19866132E-07
  -11.3100004       2.66901061E-08
  -11.3000002      -2.83456586E-07
  -11.2900000      -6.08901416E-07
  -11.2799997      -9.48043464E-07
  -11.2700005      -1.29948216E-06
  -11.2600002      -1.66212851E-06
  -11.2500000      -2.03528157E-06
  -11.2399998      -2.41866474E-06
  -11.2299995      -2.81242387E-06
  -11.2200003      -3.21708126E-06
  -11.2100000      -3.63346453E-06
  -11.1999998      -4.06260915E-06
  -11.1899996      -4.50565176E-06
  -11.1800003      -4.96371194E-06
  -11.1700001      -5.43778197E-06
  -11.1599998      -5.92861579E-06
  -11.1499996      -6.43662452E-06
  -11.1400003      -6.96179086E-06
  -11.1300001      -7.50359732E-06
  -11.1199999      -8.06099160E-06
  -11.1099997      -8.63237528E-06
  -11.1000004      -9.21565152E-06
  -11.0900002      -9.80830919E-06
  -11.0799999      -1.04075525E-05
  -11.0699997      -1.10104647E-05
  -11.0600004      -1.16141937E-05
  -11.0500002      -1.22161200E-05
  -11.0400000      -1.28140146E-05
  -11.0299997      -1.34061574E-05
  -11.0200005      -1.39913809E-05
  -11.0100002      -1.45690792E-05
  -11.0000000      -1.51391550E-05
  -10.9899998      -1.57019058E-05
  -10.9799995      -1.62579145E-05
  -10.9700003      -1.68079168E-05
  -10.9600000      -1.73526660E-05
  -10.9499998      -1.78928367E-05
  -10.9399996      -1.84289820E-05
  -10.9300003      -1.89614420E-05
  -10.9200001      -1.94903823E-05
  -10.9099998      -2.00157592E-05
  -10.8999996      -2.05373362E-05
  -10.8900003      -2.10546750E-05
  -10.8800001      -2.15671334E-05
  -10.8699999      -2.20738166E-05
  -10.8599997      -2.25735694E-05
  -10.8500004      -2.30649312E-05
  -10.8400002      -2.35461084E-05
  -10.8299999      -2.40150257E-05
  -10.8199997      -2.44693183E-05
  -10.8100004      -2.49064433E-05
  -10.8000002      -2.53237904E-05
  -10.7900000      -2.57187512E-05
  -10.7799997      -2.60888919E-05
  -10.7700005      -2.64320024E-05
  -10.7600002      -2.67461783E-05
  -10.7500000      -2.70298242E-05
  -10.7399998      -2.72816796E-05
  -10.7299995      -2.75007042E-05
  -10.7200003      -2.76860701E-05
  -10.7100000      -2.78370535E-05
  -10.6999998      -2.79530195E-05
  -10.6899996      -2.80333497E-05
  -10.6800003      -2.80774802E-05
  -10.6700001      -2.80848963E-05
  -10.6599998      -2.80552158E-05
  -10.6499996      -2.79882424E-05
  -10.6400003      -2.78840398E-05
  -10.6300001      -2.77430154E-05
  -10.6199999      -2.75659149E-05
  -10.6099997      -2.73538499E-05
  -10.6000004      -2.71082390E-05
  -10.5900002      -2.68307158E-05
  -10.5799999      -2.65229828E-05
  -10.5699997      -2.61866353E-05
  -10.5600004      -2.58229957E-05
  -10.5500002      -2.54329607E-05
  -10.5400000      -2.50168778E-05
  -10.5299997      -2.45744977E-05
  -10.5200005      -2.41050384E-05
  -10.5100002      -2.36072592E-05
  -10.5000000      -2.30796177E-05
  -10.4899998      -2.25204603E-05
  -10.4799995      -2.19281810E-05
  -10.4700003      -2.13013445E-05
  -10.4600000      -2.06387722E-05
  -10.4499998      -1.99395454E-05
  -10.4399996      -1.92029966E-05
  -10.4300003      -1.84287019E-05
  -10.4200001      -1.76164140E-05
  -10.4099998      -1.67661401E-05
  -10.3999996      -1.58781622E-05
  -10.3900003      -1.49531706E-05
  -10.3800001      -1.39923523E-05
  -10.3699999      -1.29974860E-05
  -10.3599997      -1.19709748E-05
  -10.3500004      -1.09157963E-05
  -10.3400002      -9.83538939E-06
  -10.3299999      -8.73346562E-06
  -10.3199997      -7.61380488E-06
  -10.3100004      -6.48005562E-06
  -10.3000002      -5.33558386E-06
  -10.2900000      -4.18341187E-06
  -10.2799997      -3.02621584E-06
  -10.2700005      -1.86640455E-06
  -10.2600002      -7.06227581E-07
  -10.2500000       4.52126983E-07
  -10.2399998       1.60646960E-06
  -10.2299995       2.75462867E-06
  -10.2200003       3.89453044E-06
  -10.2100000       5.02434295E-06
  -10.1999998       6.14264763E-06
  -10.1899996       7.24859865E-06
  -10.1800003       8.34201910E-06
  -10.1700001       9.42343831E-06
  -10.1599998       1.04940073E-05
  -10.1499996       1.15553548E-05
  -10.1400003       1.26093737E-05
  -10.1300001       1.36580029E-05
  -10.1199999       1.47030187E-05
  -10.1099997       1.57458908E-05
  -10.1000004       1.67876988E-05
  -10.0900002       1.78291357E-05
  -10.0799999       1.88705599E-05
  -10.0699997       1.99120768E-05
  -10.0600004       2.09536211E-05
  -10.0500002       2.19950125E-05
  -10.0400000       2.30359910E-05
  -10.0299997       2.40761947E-05
  -10.0200005       2.51151541E-05
  -10.0100002       2.61522528E-05
  -10.0000000       2.71867357E-05
  -9.98999977       2.82177571E-05
  -9.97999954       2.92444474E-05
  -9.97000027       3.02660010E-05
  -9.96000004       3.12817756E-05
  -9.94999981       3.22913220E-05
  -9.93999958       3.32943891E-05
  -9.93000031       3.42908606E-05
  -9.92000008       3.52806710E-05
  -9.90999985       3.62636674E-05
  -9.89999962       3.72394788E-05
  -9.89000034       3.82074613E-05
  -9.88000011       3.91667272E-05
  -9.86999989       4.01161669E-05
  -9.85999966       4.10546163E-05
  -9.85000038       4.19810349E-05
  -9.84000015       4.28946441E-05
  -9.82999992       4.37951167E-05
  -9.81999969       4.46826525E-05
  -9.81000042       4.55580266E-05
  -9.80000019       4.64226177E-05
  -9.78999996       4.72783286E-05
  -9.77999973       4.81275965E-05
  -9.77000046       4.89732629E-05
  -9.76000023       4.98185400E-05
  -9.75000000       5.06669530E-05
  -9.73999977       5.15221909E-05
  -9.72999954       5.23880190E-05
  -9.72000027       5.32681479E-05
  -9.71000004       5.41660120E-05
  -9.69999981       5.50847180E-05
  -9.68999958       5.60268454E-05
  -9.68000031       5.69944641E-05
  -9.67000008       5.79890329E-05
  -9.65999985       5.90115778E-05
  -9.64999962       6.00627209E-05
  -9.64000034       6.11428477E-05
  -9.63000011       6.22522421E-05
  -9.61999989       6.33911404E-05
  -9.60999966       6.45598047E-05
  -9.60000038       6.57585697E-05
  -9.59000015       6.69877336E-05
  -9.57999992       6.82475511E-05
  -9.56999969       6.95381241E-05
  -9.56000042       7.08593361E-05
  -9.55000019       7.22107943E-05
  -9.53999996       7.35917638E-05
  -9.52999973       7.50011386E-05
  -9.52000046       7.64373981E-05
  -9.51000023       7.78985268E-05
  -9.50000000       7.93820800E-05
  -9.48999977       8.08850818E-05
  -9.47999954       8.24041563E-05
  -9.47000027       8.39354543E-05
  -9.46000004       8.54748723E-05
  -9.44999981       8.70180374E-05
  -9.43999958       8.85604677E-05
  -9.43000031       9.00976738E-05
  -9.42000008       9.16252393E-05
  -9.40999985       9.31388640E-05
  -9.39999962       9.46345099E-05
  -9.39000034       9.61083424E-05
  -9.38000011       9.75568764E-05
  -9.36999989       9.89769833E-05
  -9.35999966       1.00365985E-04
  -9.35000038       1.01721744E-04
  -9.34000015       1.03042730E-04
  -9.32999992       1.04328021E-04
  -9.31999969       1.05577434E-04
  -9.31000042       1.06791354E-04
  -9.30000019       1.07970744E-04
  -9.28999996       1.09117027E-04
  -9.27999973       1.10231951E-04
  -9.27000046       1.11317553E-04
  -9.26000023       1.12376074E-04
  -9.25000000       1.13409988E-04
  -9.23999977       1.14422044E-04
  -9.22999954       1.15415431E-04
  -9.22000027       1.16393763E-04
  -9.21000004       1.17361371E-04
  -9.19999981       1.18323129E-04
  -9.18999958       1.19284639E-04
  -9.18000031       1.20252014E-04
  -9.17000008       1.21231809E-04
  -9.15999985       1.22230995E-04
  -9.14999962       1.23256657E-04
  -9.14000034       1.24315935E-04
  -9.13000011       1.25416118E-04
  -9.11999989       1.26564395E-04
  -9.10999966       1.27768100E-04
  -9.10000038       1.29034554E-04
  -9.09000015       1.30371118E-04
  -9.07999992       1.31785215E-04
  -9.06999969       1.33283946E-04
  -9.06000042       1.34874208E-04
  -9.05000019       1.36562288E-04
  -9.03999996       1.38353702E-04
  -9.02999973       1.40252989E-04
  -9.02000046       1.42263583E-04
  -9.01000023       1.44387712E-04
  -9.00000000       1.46626262E-04
  -8.98999977       1.48978914E-04
  -8.97999954       1.51444125E-04
  -8.97000027       1.54019086E-04
  -8.96000004       1.56699956E-04
  -8.94999981       1.59481860E-04
  -8.93999958       1.62359094E-04
  -8.93000031       1.65325124E-04
  -8.92000008       1.68372906E-04
  -8.90999985       1.71494947E-04
  -8.89999962       1.74683461E-04
  -8.89000034       1.77930604E-04
  -8.88000011       1.81228388E-04
  -8.86999989       1.84568795E-04
  -8.85999966       1.87943864E-04
  -8.85000038       1.91345389E-04
  -8.84000015       1.94765104E-04
  -8.82999992       1.98194495E-04
  -8.81999969       2.01624629E-04
  -8.81000042       2.05046410E-04
  -8.80000019       2.08450088E-04
  -8.78999996       2.11825711E-04
  -8.77999973       2.15162901E-04
  -8.77000046       2.18450878E-04
  -8.76000023       2.21678711E-04
  -8.75000000       2.24835414E-04
  -8.73999977       2.27910074E-04
  -8.72999954       2.30892052E-04
  -8.72000027       2.33771309E-04
  -8.71000004       2.36538486E-04
  -8.69999981       2.39185072E-04
  -8.68999958       2.41703499E-04
  -8.68000031       2.44087001E-04
  -8.67000008       2.46329495E-04
  -8.65999985       2.48425495E-04
  -8.64999962       2.50369863E-04
  -8.64000034       2.52157770E-04
  -8.63000011       2.53784528E-04
  -8.61999989       2.55245483E-04
  -8.60999966       2.56536150E-04
  -8.60000038       2.57652486E-04
  -8.59000015       2.58590648E-04
  -8.57999992       2.59347173E-04
  -8.56999969       2.59918976E-04
  -8.56000042       2.60303437E-04
  -8.55000019       2.60498200E-04
  -8.53999996       2.60501489E-04
  -8.52999973       2.60311528E-04
  -8.52000046       2.59927037E-04
  -8.51000023       2.59347173E-04
  -8.50000000       2.58571497E-04
  -8.48999977       2.57599953E-04
  -8.47999954       2.56433035E-04
  -8.47000027       2.55071966E-04
  -8.46000004       2.53518316E-04
  -8.44999981       2.51774618E-04
  -8.43999958       2.49843870E-04
  -8.43000031       2.47729651E-04
  -8.42000008       2.45436386E-04
  -8.40999985       2.42968861E-04
  -8.39999962       2.40332331E-04
  -8.39000034       2.37532135E-04
  -8.38000011       2.34573527E-04
  -8.36999989       2.31461745E-04
  -8.35999966       2.28201272E-04
  -8.35000038       2.24796575E-04
  -8.34000015       2.21251394E-04
  -8.32999992       2.17569366E-04
  -8.31999969       2.13754014E-04
  -8.31000042       2.09808815E-04
  -8.30000019       2.05737422E-04
  -8.28999996       2.01543677E-04
  -8.27999973       1.97231435E-04
  -8.27000046       1.92804771E-04
  -8.26000023       1.88267877E-04
  -8.25000000       1.83625045E-04
  -8.23999977       1.78880917E-04
  -8.22999954       1.74040746E-04
  -8.22000027       1.69110383E-04
  -8.21000004       1.64096433E-04
  -8.19999981       1.59006158E-04
  -8.18999958       1.53847344E-04
  -8.18000031       1.48627980E-04
  -8.17000008       1.43355923E-04
  -8.15999985       1.38038682E-04
  -8.14999962       1.32683330E-04
  -8.14000034       1.27296691E-04
  -8.13000011       1.21885503E-04
  -8.11999989       1.16456853E-04
  -8.10999966       1.11018540E-04
  -8.10000038       1.05579100E-04
  -8.09000015       1.00148056E-04
  -8.07999992       9.47354201E-05
  -8.06999969       8.93515462E-05
  -8.06000042       8.40068169E-05
  -8.05000019       7.87113531E-05
  -8.03999996       7.34750283E-05
  -8.02999973       6.83076942E-05
  -8.02000046       6.32195224E-05
  -8.01000023       5.82214088E-05
  -8.00000000       5.33251878E-05
  -7.98999977       4.85436249E-05
  -7.98000002       4.38901807E-05
  -7.96999979       3.93788177E-05
  -7.96000004       3.50232367E-05
  -7.94999981       3.08366944E-05
  -7.94000006       2.68314525E-05
  -7.92999983       2.30189198E-05
  -7.92000008       1.94098557E-05
  -7.90999985       1.60144045E-05
  -7.90000010       1.28424954E-05
  -7.88999987       9.90392073E-06
  -7.88000011       7.20820844E-06
  -7.86999989       4.76436662E-06
  -7.86000013       2.58064983E-06
  -7.84999990       6.64131051E-07
  -7.84000015      -9.79302968E-07
  -7.82999992      -2.34491358E-06
  -7.82000017      -3.42888961E-06
  -7.80999994      -4.22773701E-06
  -7.80000019      -4.73800810E-06
  -7.78999996      -4.95603581E-06
  -7.78000021      -4.87787111E-06
  -7.76999998      -4.49935169E-06
  -7.76000023      -3.81653899E-06
  -7.75000000      -2.82615065E-06
  -7.73999977      -1.52569930E-06
  -7.73000002       8.61534701E-08
  -7.71999979       2.00975978E-06
  -7.71000004       4.24463724E-06
  -7.69999981       6.78942843E-06
  -7.69000006       9.64231367E-06
  -7.67999983       1.28008696E-05
  -7.67000008       1.62619217E-05
  -7.65999985       2.00215127E-05
  -7.65000010       2.40745430E-05
  -7.63999987       2.84148227E-05
  -7.63000011       3.30352777E-05
  -7.61999989       3.79279190E-05
  -7.61000013       4.30844811E-05
  -7.59999990       4.84966295E-05
  -7.59000015       5.41562913E-05
  -7.57999992       6.00558342E-05
  -7.57000017       6.61880840E-05
  -7.55999994       7.25461505E-05
  -7.55000019       7.91233615E-05
  -7.53999996       8.59133361E-05
  -7.53000021       9.29096204E-05
  -7.51999998       1.00106139E-04
  -7.51000023       1.07496962E-04
  -7.50000000       1.15076466E-04
  -7.48999977       1.22839367E-04
  -7.48000002       1.30780594E-04
  -7.46999979       1.38894990E-04
  -7.46000004       1.47177241E-04
  -7.44999981       1.55621703E-04
  -7.44000006       1.64222569E-04