  -16.0000000       0.00000000    
  -15.9899998       0.00000000    
  -15.9799995       0.00000000    
  -15.9700003       0.00000000    
  -15.9600000       0.00000000    
  -15.9499998       0.00000000    
  -15.9399996       0.00000000    
  -15.9300003       0.00000000    
  -15.9200001       0.00000000    
  -15.9099998       0.00000000    
  -15.8999996       0.00000000    
  -15.8900003       0.00000000    
  -15.8800001       3.65178380E-42
  -15.8699999       3.10781375E-40
  -15.8599997       1.38662014E-38
  -15.8500004       2.82756112E-37
  -15.8400002       3.58972076E-36
  -15.8299999       3.29680736E-35
  -15.8199997       2.37594431E-34
  -15.8100004       1.41199380E-33
  -15.8000002       7.14979451E-33
  -15.7900000       3.15583881E-32
  -15.7799997       1.23438979E-31
  -15.7700005       4.33107414E-31
  -15.7600002       1.37558286E-30
  -15.7500000       3.98134482E-30
  -15.7399998       1.05501916E-29
  -15.7299995       2.56697904E-29
  -15.7200003       5.74033712E-29
  -15.7100000       1.17827335E-28
  -15.6999998       2.21016350E-28
  -15.6899996       3.75248311E-28
  -15.6800003       5.65516250E-28
  -15.6700001       7.24160589E-28
  -15.6599998       6.94052719E-28
  -15.6499996       2.02030629E-28
  -15.6400003      -1.12112985E-27
  -15.6300001      -3.62205716E-27
  -15.6199999      -7.35856386E-27
  -15.6099997      -1.16816950E-26
  -15.6000004      -1.47656873E-26
  -15.5900002      -1.33403050E-26
  -15.5799999      -3.03491950E-27
  -15.5699997       2.02119753E-26
  -15.5600004       5.74306886E-26
  -15.5500002       1.02906930E-25
  -15.5400000       1.40704202E-25
  -15.5299997       1.43632638E-25
  -15.5200005       7.74250277E-26
  -15.5100002      -8.76666116E-26
  -15.5000000      -3.57792424E-25
  -15.4899998      -6.92632299E-25
  -15.4799995      -9.86945851E-25
  -15.4700003      -1.06841487E-24
  -15.4600000      -7.24387254E-25
  -15.4499998       2.33797073E-25
  -15.4399996       1.86955025E-24
  -15.4300003       3.99759247E-24
  -15.4200001       6.07046926E-24
  -15.4099998       7.12574979E-24
  -15.3999996       5.86116592E-24
  -15.3900003       9.13770324E-25
  -15.3800001      -8.59355015E-24
  -15.3699999      -2.22299630E-23
  -15.3599997      -3.72751198E-23
  -15.3500004      -4.79029221E-23
  -15.3400002      -4.51181327E-23
  -15.3299999      -1.82541593E-23
  -15.3199997       4.11861376E-23
  -15.3100004       1.33080342E-22
  -15.3000002       2.40590762E-22
  -15.2900000       3.23301301E-22
  -15.2799997       3.16612821E-22
  -15.2700005       1.43735468E-22
  -15.2600002      -2.54461764E-22
  -15.2500000      -8.71628343E-22
  -15.2399998      -1.58003250E-21
  -15.2299995      -2.09017454E-21
  -15.2200003      -1.96238382E-21
  -15.2100000      -7.10888177E-22
  -15.1999998       1.97448053E-21
  -15.1899996       5.90716131E-21
  -15.1800003       1.00738918E-20
  -15.1700001       1.24720217E-20
  -15.1599998       1.03515846E-20
  -15.1499996       1.07943849E-21
  -15.1400003      -1.63214157E-20
  -15.1300001      -3.92437747E-20
  -15.1199999      -5.99374038E-20
  -15.1099997      -6.55192961E-20
  -15.1000004      -4.08735112E-20
  -15.0900002       2.47853071E-20
  -15.0799999       1.28384480E-19
  -15.0699997       2.43509099E-19
  -15.0600004       3.16447275E-19
  -15.0500002       2.74561020E-19
  -15.0400000       5.21735932E-20
  -15.0299997      -3.66842478E-19
  -15.0200005      -9.00976497E-19
  -15.0100002      -1.34089772E-18
  -15.0000000      -1.36881083E-18
  -14.9899998      -6.55185672E-19
  -14.9799995       9.62406755E-19
  -14.9700003       3.25750756E-18
  -14.9600000       5.44450238E-18
  -14.9499998       6.19743236E-18
  -14.9399996       3.99203443E-18
  -14.9300003      -2.17786853E-18
  -14.9200001      -1.18338171E-17
  -14.9099998      -2.21553478E-17
  -14.8999996      -2.77982714E-17
  -14.8900003      -2.19934603E-17
  -14.8800001       7.38127382E-19
  -14.8699999       4.05747079E-17
  -14.8599997       8.83533185E-17
  -14.8500004       1.23695451E-16
  -14.8400002       1.17876295E-16
  -14.8299999       4.32765279E-17
  -14.8199997      -1.10995138E-16
  -14.8100004      -3.21293255E-16
  -14.8000002      -5.17325955E-16
  -14.7900000      -5.86015721E-16
  -14.7799997      -4.00238235E-16
  -14.7700005       1.25559717E-16
  -14.7600002       9.63259103E-16
  -14.7500000       1.90811620E-15
  -14.7399998       2.56254762E-15
  -14.7299995       2.40511575E-15
  -14.7200003       9.65296640E-16
  -14.7100000      -1.91429954E-15
  -14.6999998      -5.80062689E-15
  -14.6899996      -9.50191989E-15
  -14.6800003      -1.11557288E-14
  -14.6700001      -8.68738759E-15
  -14.6599998      -6.45945632E-16
  -14.6499996       1.27470073E-14
  -14.6400003       2.86951994E-14
  -14.6300001       4.15704831E-14
  -14.6199999       4.37864500E-14
  -14.6099997       2.80514341E-14
  -14.6000004      -9.23486988E-15
  -14.5900002      -6.43128874E-14
  -14.5799999      -1.23588721E-13
  -14.5699997      -1.64078562E-13
  -14.5600004      -1.58139737E-13
  -14.5500002      -8.27138108E-14
  -14.5400000       6.85013976E-14
  -14.5299997       2.73600939E-13
  -14.5200005       4.76915816E-13
  -14.5100002       5.94634259E-13
  -14.5000000       5.34819964E-13
  -14.4899998       2.30686293E-13
  -14.4799995      -3.20049488E-13
  -14.4700003      -1.02272195E-12
  -14.4600000      -1.67651667E-12
  -14.4499998      -2.00303446E-12
  -14.4399996      -1.71871111E-12
  -14.4300003      -6.42619746E-13
  -14.4200001       1.18662502E-12
  -14.4099998       3.42607193E-12
  -14.3999996       5.42261071E-12
  -14.3900003       6.32242999E-12
  -14.3800001       5.30359263E-12
  -14.3699999       1.89580014E-12
  -14.3599997      -3.69606082E-12
  -14.3500004      -1.03836037E-11
  -14.3400002      -1.62255070E-11
  -14.3299999      -1.87816828E-11
  -14.3199997      -1.57893629E-11
  -14.3100004      -6.04228950E-12
  -14.3000002       9.76586433E-12
  -14.2900000       2.85486669E-11
  -14.2799997       4.49910491E-11
  -14.2700005       5.25556716E-11
  -14.2600002       4.52848037E-11
  -14.2500000       2.00574956E-11
  -14.2399998      -2.13193335E-11
  -14.2299995      -7.09603903E-11
  -14.2200003      -1.15411208E-10
  -14.2100000      -1.38206266E-10
  -14.1999998      -1.24300306E-10
  -14.1899996      -6.55070512E-11
  -14.1800003       3.45378413E-11
  -14.1700001       1.57680549E-10
  -14.1599998       2.72421585E-10
  -14.1499996       3.39776762E-10
  -14.1400003       3.23361532E-10
  -14.1300001       2.01717365E-10
  -14.1199999      -2.03838769E-11
  -14.1099997      -3.05572706E-10
  -14.1000004      -5.85865301E-10
  -14.0900002      -7.74742215E-10
  -14.0799999      -7.88384691E-10
  -14.0699997      -5.71957592E-10
  -14.0600004      -1.24246627E-10
  -14.0500002       4.87346163E-10
  -14.0400000       1.12852605E-09
  -14.0299997       1.62030900E-09
  -14.0200005       1.78020809E-09
  -14.0100002       1.47483414E-09
  -14.0000000       6.71066258E-10
  -13.9899998      -5.29558120E-10
  -13.9799995      -1.88734250E-09
  -13.9700003      -3.05993186E-09
  -13.9600000      -3.67545483E-09
  -13.9499998      -3.43068240E-09
  -13.9399996      -2.19174368E-09
  -13.9300003      -6.91991117E-11
  -13.9200001       2.55901167E-09
  -13.9099998       5.09418774E-09
  -13.8999996       6.83426604E-09
  -13.8900003       7.14369452E-09
  -13.8800001       5.63934943E-09
  -13.8699999       2.34452724E-09
  -13.8599997      -2.23714425E-09
  -13.8500004      -7.16302040E-09
  -13.8400002      -1.12183054E-08
  -13.8299999      -1.31862601E-08
  -13.8199997      -1.21681563E-08
  -13.8100004      -7.87620102E-09
  -13.8000002      -8.16908319E-10
  -13.7900000       7.70230901E-09
  -13.7799997       1.57750932E-08
  -13.7700005       2.12880664E-08
  -13.7600002       2.24311894E-08
  -13.7500000       1.82118569E-08
  -13.7399998       8.83946250E-09
  -13.7299995      -4.14085211E-09
  -13.7200003      -1.80385431E-08
  -13.7100000      -2.95325133E-08
  -13.6999998      -3.54257388E-08
  -13.6899996      -3.34789867E-08
  -13.6800003      -2.31183979E-08
  -13.6700001      -5.81428372E-09
  -13.6599998       1.50155195E-08
  -13.6499996       3.46203208E-08
  -13.6400003       4.79617377E-08
  -13.6300001       5.09754123E-08
  -13.6199999       4.17468051E-08
  -13.6099997       2.12794919E-08
  -13.6000004      -6.40549658E-09
  -13.5900002      -3.49554128E-08
  -13.5799999      -5.70811913E-08
  -13.5699997      -6.63828530E-08
  -13.5600004      -5.91716294E-08
  -13.5500002      -3.57919561E-08
  -13.5400000      -1.01755804E-09
  -13.5299997       3.67160169E-08
  -13.5200005       6.71888429E-08
  -13.5100002       8.10195644E-08
  -13.5000000       7.24079641E-08
  -13.4899998       4.12508783E-08
  -13.4799995      -6.05178885E-09
  -13.4700003      -5.75134287E-08
  -13.4600000      -9.81958763E-08
  -13.4499998      -1.14072570E-07
  -13.4399996      -9.62144995E-08
  -13.4300003      -4.41700152E-08
  -13.4200001       3.25365725E-08
  -13.4099998       1.15497322E-07
  -13.3999996       1.81193982E-07
  -13.3900003       2.06816381E-07
  -13.3800001       1.76819640E-07
  -13.3699999       8.85231017E-08
  -13.3599997      -4.49428228E-08
  -13.3500004      -1.95554534E-07
  -13.3400002      -3.25515373E-07
  -13.3299999      -3.95826589E-07
  -13.3199997      -3.76519267E-07
  -13.3100004      -2.56054506E-07
  -13.3000002      -4.72816382E-08
  -13.2900000       2.12108930E-07
  -13.2799997       4.65522191E-07
  -13.2700005       6.49113133E-07
  -13.2600002       7.06908338E-07
  -13.2500000       6.05965624E-07
  -13.2399998       3.47685244E-07
  -13.2299995      -2.80470918E-08
  -13.2200003      -4.47837266E-07
  -13.2100000      -8.18664148E-07
  -13.1999998      -1.04823027E-06
  -13.1899996      -1.06739731E-06
  -13.1800003      -8.49384321E-07
  -13.1700001      -4.20591221E-07
  -13.1599998       1.40446545E-07
  -13.1499996       7.16918976E-07
  -13.1400003       1.17820048E-06
  -13.1300001       1.40992904E-06
  -13.1199999       1.34275058E-06
  -13.1099997       9.72630573E-07
  -13.1000004       3.66904970E-07
  -13.0900002      -3.46583874E-07
  -13.0799999      -1.00600880E-06
  -13.0699997      -1.45251249E-06
  -13.0600004      -1.56929320E-06
  -13.0500002      -1.31329375E-06
  -13.0400000      -7.31010061E-07
  -13.0299997       4.67620112E-08
  -13.0200005       8.31690215E-07
  -13.0100002       1.42119666E-06
  -13.0000000       1.64878134E-06
  -12.9899998       1.42929616E-06
  -12.9799995       7.87404304E-07
  -12.9700003      -1.39415519E-07
  -12.9600000      -1.12619875E-06
  -12.9499998      -1.91023673E-06
  -12.9399996      -2.25481517E-06
  -12.9300003      -2.01216676E-06
  -12.9200001      -1.16981244E-06
  -12.9099998       1.32760945E-07
  -12.8999996       1.62374499E-06
  -12.8900003       2.95323593E-06
  -12.8800001       3.77156493E-06
  -12.8699999       3.81442760E-06
  -12.8599997       2.97460292E-06
  -12.8500004       1.34168374E-06
  -12.8400002      -8.02098441E-07
  -12.8299999      -3.03221259E-06
  -12.8199997      -4.86932277E-06
  -12.8100004      -5.88547982E-06
  -12.8000002      -5.80488631E-06
  -12.7900000      -4.57497799E-06
  -12.7799997      -2.38941402E-06
  -12.7700005       3.44703352E-07
  -12.7600002       3.09023721E-06
  -12.7500000       5.29639192E-06
  -12.7399998       6.52177368E-06
  -12.7299995       6.53534471E-06
  -12.7200003       5.37054211E-06
  -12.7100000       3.31857154E-06
  -12.6999998       8.60692069E-07
  -12.6899996      -1.44552405E-06
  -12.6800003      -3.09984898E-06
  -12.6700001      -3.78089635E-06
  -12.6599998      -3.42571161E-06
  -12.6499996      -2.24666996E-06
  -12.6400003      -6.80051869E-07
  -12.6300001       7.23422943E-07
  -12.6199999       1.44090654E-06
  -12.6099997       1.11873294E-06
  -12.6000004      -3.22289026E-07
  -12.5900002      -2.64511687E-06
  -12.5799999      -5.33155026E-06
  -12.5699997      -7.68954578E-06
  -12.5600004      -9.01044405E-06
  -12.5500002      -8.74087709E-06
  -12.5400000      -6.62903813E-06
  -12.5299997      -2.80858399E-06
  -12.5200005       2.20292600E-06
  -12.5100002       7.59585055E-06
  -12.5000000       1.24338685E-05
  -12.4899998       1.58580824E-05
  -12.4799995       1.72838663E-05
  -12.4700003       1.65428883E-05
  -12.4600000       1.39331542E-05
  -12.4499998       1.01583000E-05
  -12.4399996       6.16290527E-06
  -12.4300003       2.89459103E-06
  -12.4200001       1.04358128E-06
  -12.4099998       8.19743320E-07
  -12.3999996       1.82225551E-06
  -12.3900003       3.04079731E-06
  -12.3800001       2.99879434E-06
  -12.3699999       1.80000672E-08
  -12.3599997      -7.44541376E-06
  -12.3500004      -2.04631633E-05
  -12.3400002      -3.93706032E-05
  -12.3299999      -6.36371333E-05
  -12.3199997      -9.19056474E-05
  -12.3100004      -1.22201600E-04
  -12.3000002      -1.52265318E-04
  -12.2900000      -1.79943352E-04
  -12.2799997      -2.03543488E-04
  -12.2700005      -2.22082192E-04
  -12.2600002      -2.35356551E-04
  -12.2500000      -2.43832415E-04
  -12.2399998      -2.48368684E-04
  -12.2299995      -2.49855919E-04
  -12.2200003      -2.48843833E-04
  -12.2100000      -2.45268631E-04
  -12.1999998      -2.38347842E-04
  -12.1899996      -2.26668984E-04
  -12.1800003      -2.08469559E-04
  -12.1700001      -1.82031377E-04
  -12.1599998      -1.46113394E-04
  -12.1499996      -1.00290803E-04
  -12.1400003      -4.51525448E-05
  -12.1300001       1.77407564E-05
  -12.1199999       8.60858636E-05
  -12.1099997       1.57241855E-04
  -12.1000004       2.28686491E-04
  -12.0900002       2.98441184E-04
  -12.0799999       3.65344982E-04
  -12.0699997       4.29136009E-04
  -12.0600004       4.90309962E-04
  -12.0500002       5.49804827E-04
  -12.0400000       6.08588452E-04
  -12.0299997       6.67260727E-04
  -12.0200005       7.25752150E-04
  -12.0100002       7.83201831E-04
  -12.0000000       8.38037231E-04
  -11.9899998       8.88216658E-04
  -11.9799995       9.31587536E-04
  -11.9700003       9.66255320E-04
  -11.9600000       9.90875647E-04
  -11.9499998       1.00480393E-03
  -11.9399996       1.00807601E-03
  -11.9300003       1.00122241E-03
  -11.9200001       9.84985614E-04
  -11.9099998       9.60003177E-04
  -11.8999996       9.26553330E-04
  -11.8900003       8.84405512E-04
  -11.8800001       8.32825550E-04
  -11.8699999       7.70722807E-04
  -11.8599997       6.96890405E-04
  -11.8500004       6.10289455E-04
  -11.8400002       5.10295853E-04
  -11.8299999       3.96857737E-04
  -11.8199997       2.70536257E-04
  -11.8100004       1.32415909E-04
  -11.8000002      -1.60641539E-05
  -11.7900000      -1.73321809E-04
  -11.7799997      -3.37825564E-04
  -11.7700005      -5.08217257E-04
  -11.7600002      -6.83339196E-04
  -11.7500000      -8.62175191E-04
  -11.7399998      -1.04370166E-03
  -11.7299995      -1.22673961E-03
  -11.7200003      -1.40981900E-03
  -11.7100000      -1.59113284E-03
  -11.6999998      -1.76857226E-03
  -11.6899996      -1.93987065E-03
  -11.6800003      -2.10281182E-03
  -11.6700001      -2.25546700E-03
  -11.6599998      -2.39636959E-03
  -11.6499996      -2.52462621E-03
  -11.6400003      -2.63988739E-03
  -11.6300001      -2.74220784E-03
  -11.6199999      -2.83178617E-03
  -11.6099997      -2.90868967E-03
  -11.6000004      -2.97257770E-03
  -11.5900002      -3.02251987E-03
  -11.5799999      -3.05694342E-03
  -11.5699997      -3.07374448E-03
  -11.5600004      -3.07051302E-03
  -11.5500002      -3.04484833E-03
  -11.5400000      -2.99469894E-03
  -11.5299997      -2.91861617E-03
  -11.5200005      -2.81590270E-03
  -11.5100002      -2.68658320E-03
  -11.5000000      -2.53124000E-03
  -11.4899998      -2.35072174E-03
  -11.4799995      -2.14581145E-03
  -11.4700003      -1.91694510E-03
  -11.4600000      -1.66403560E-03
  -11.4499998      -1.38645235E-03
  -11.4399996      -1.08318054E-03
  -11.4300003      -7.53110449E-04
  -11.4200001      -3.95375333E-04
  -11.4099998      -9.70332803E-06
  -11.3999996       4.03372804E-04
  -11.3900003       8.42449896E-04
  -11.3800001       1.30537455E-03
  -11.3699999       1.78951374E-03
  -11.3599997       2.29215831E-03
  -11.3500004       2.81087495E-03
  -11.3400002       3.34382476E-03
  -11.3299999       3.88988690E-03
  -11.3199997       4.44861595E-03
  -11.3100004       5.02000190E-03
  -11.3000002       5.60411159E-03
  -11.2900000       6.20067446E-03
  -11.2799997       6.80874661E-03
  -11.2700005       7.42650265E-03
  -11.2600002       8.05121474E-03
  -11.2500000       8.67945794E-03
  -11.2399998       9.30747204E-03
  -11.2299995       9.93159134E-03
  -11.2200003       1.05487332E-02
  -11.2100000       1.11566940E-02
  -11.1999998       1.17543507E-02
  -11.1899996       1.23416027E-02
  -11.1800003       1.29191177E-02
  -11.1700001       1.34879444E-02
  -11.1599998       1.40490336E-02
  -11.1499996       1.46028176E-02
  -11.1400003       1.51488977E-02
  -11.1300001       1.56859290E-02
  -11.1199999       1.62117518E-02
  -11.1099997       1.67236943E-02
  -11.1000004       1.72190126E-02
  -11.0900002       1.76954288E-02
  -11.0799999       1.81515645E-02
  -11.0699997       1.85872577E-02
  -11.0600004       1.90036315E-02
  -11.0500002       1.94029547E-02
  -11.0400000       1.97882708E-02
  -11.0299997       2.01628711E-02
  -11.0200005       2.05297414E-02
  -11.0100002       2.08910704E-02
  -11.0000000       2.12479234E-02
  -10.9899998       2.16001999E-02
  -10.9799995       2.19468102E-02
  -10.9700003       2.22860947E-02
  -10.9600000       2.26163771E-02
  -10.9499998       2.29365937E-02
  -10.9399996       2.32466888E-02
  -10.9300003       2.35479437E-02
  -10.9200001       2.38429252E-02
  -10.9099998       2.41351649E-02
  -10.8999996       2.44286675E-02
  -10.8900003       2.47272905E-02
  -10.8800001       2.50340458E-02
  -10.8699999       2.53506619E-02
  -10.8599997       2.56773662E-02
  -10.8500004       2.60128509E-02
  -10.8400002       2.63546035E-02
  -10.8299999       2.66993623E-02
  -10.8199997       2.70436853E-02
  -10.8100004       2.73844171E-02
  -10.8000002       2.77191252E-02
  -10.7900000       2.80461628E-02
  -10.7799997       2.83647086E-02
  -10.7700005       2.86745466E-02
  -10.7600002       2.89757196E-02
  -10.7500000       2.92682238E-02
  -10.7399998       2.95518525E-02
  -10.7299995       2.98259724E-02
  -10.7200003       3.00895628E-02
  -10.7100000       3.03413831E-02
  -10.6999998       3.05801220E-02
  -10.6899996       3.08046490E-02
  -10.6800003       3.10141221E-02
  -10.6700001       3.12081948E-02
  -10.6599998       3.13869976E-02
  -10.6499996       3.15510891E-02
  -10.6400003       3.17013003E-02
  -10.6300001       3.18386592E-02
  -10.6199999       3.19641680E-02
  -10.6099997       3.20785716E-02
  -10.6000004       3.21823880E-02
  -10.5900002       3.22756693E-02
  -10.5799999       3.23580950E-02
  -10.5699997       3.24291252E-02
  -10.5600004       3.24880853E-02
  -10.5500002       3.25345956E-02
  -10.5400000       3.25688012E-02
  -10.5299997       3.25916074E-02
  -10.5200005       3.26048806E-02
  -10.5100002       3.26113626E-02
  -10.5000000       3.26144882E-02
  -10.4899998       3.26177888E-02
  -10.4799995       3.26245390E-02
  -10.4700003       3.26369517E-02
  -10.4600000       3.26558538E-02
  -10.4499998       3.26804332E-02
  -10.4399996       3.27081569E-02
  -10.4300003       3.27353440E-02
  -10.4200001       3.27575840E-02
  -10.4099998       3.27706449E-02
  -10.3999996       3.27711552E-02
  -10.3900003       3.27570774E-02
  -10.3800001       3.27281617E-02
  -10.3699999       3.26857418E-02
  -10.3599997       3.26324217E-02
  -10.3500004       3.25715505E-02
  -10.3400002       3.25065032E-02
  -10.3299999       3.24400514E-02
  -10.3199997       3.23739834E-02
  -10.3100004       3.23088691E-02
  -10.3000002       3.22442017E-02
  -10.2900000       3.21786478E-02
  -10.2799997       3.21105905E-02
  -10.2700005       3.20386589E-02
  -10.2600002       3.19623984E-02
  -10.2500000       3.18824649E-02
  -10.2399998       3.18009071E-02
  -10.2299995       3.17211039E-02
  -10.2200003       3.16474549E-02
  -10.2100000       3.15847732E-02
  -10.1999998       3.15377712E-02
  -10.1899996       3.15103307E-02
  -10.1800003       3.15051973E-02
  -10.1700001       3.15235220E-02
  -10.1599998       3.15651000E-02
  -10.1499996       3.16285789E-02
  -10.1400003       3.17120627E-02
  -10.1300001       3.18136215E-02
  -10.1199999       3.19319293E-02
  -10.1099997       3.20665874E-02
  -10.1000004       3.22181210E-02
  -10.0900002       3.23878787E-02
  -10.0799999       3.25775482E-02
  -10.0699997       3.27890329E-02
  -10.0600004       3.30237336E-02
  -10.0500002       3.32828462E-02
  -10.0400000       3.35669704E-02
  -10.0299997       3.38768400E-02
  -10.0200005       3.42133269E-02
  -10.0100002       3.45778689E-02
  -10.0000000       3.49722169E-02
  -9.98999977       3.53986770E-02
  -9.97999954       3.58593427E-02
  -9.97000027       3.63559648E-02
  -9.96000004       3.68894674E-02
  -9.94999981       3.74598205E-02
  -9.93999958       3.80661562E-02
  -9.93000031       3.87072191E-02
  -9.92000008       3.93818729E-02
  -9.90999985       4.00892980E-02
  -9.89999962       4.08294983E-02
  -9.89000034       4.16031629E-02
  -9.88000011       4.24113572E-02
  -9.86999989       4.32550758E-02
  -9.85999966       4.41348366E-02
  -9.85000038       4.50508371E-02
  -9.84000015       4.60026897E-02
  -9.82999992       4.69902344E-02
  -9.81999969       4.80139926E-02
  -9.81000042       4.90755588E-02
  -9.80000019       5.01781553E-02
  -9.78999996       5.13261855E-02
  -9.77999973       5.25247455E-02
  -9.77000046       5.37785180E-02
  -9.76000023       5.50911017E-02
  -9.75000000       5.64640835E-02
  -9.73999977       5.78970239E-02
  -9.72999954       5.93878031E-02
  -9.72000027       6.09336421E-02
  -9.71000004       6.25323728E-02
  -9.69999981       6.41834438E-02
  -9.68999958       6.58886135E-02
  -9.68000031       6.76521435E-02
  -9.67000008       6.94795772E-02
  -9.65999985       7.13769943E-02
  -9.64999962       7.33487383E-02
  -9.64000034       7.53965229E-02
  -9.63000011       7.75178000E-02
  -9.61999989       7.97059387E-02
  -9.60999966       8.19507614E-02
  -9.60000038       8.42393115E-02
  -9.59000015       8.65581036E-02
  -9.57999992       8.88942629E-02
  -9.56999969       9.12364945E-02
  -9.56000042       9.35758725E-02
  -9.55000019       9.59051102E-02
  -9.53999996       9.82180610E-02
  -9.52999973      0.100508250    
  -9.52000046      0.102768362    
  -9.51000023      0.104988456    
  -9.50000000      0.107157059    
  -9.48999977      0.109261274    
  -9.47999954      0.111287631    
  -9.47000027      0.113224171    
  -9.46000004      0.115060173    
  -9.44999981      0.116788313    
  -9.43999958      0.118404113    
  -9.43000031      0.119905345    
  -9.42000008      0.121291481    
  -9.40999985      0.122562863    
  -9.39999962      0.123719938    
  -9.39000034      0.124763176    
  -9.38000011      0.125694007    
  -9.36999989      0.126515359    
  -9.35999966      0.127232894    
  -9.35000038      0.127855718    
  -9.34000015      0.128397793    
  -9.32999992      0.128876284    
  -9.31999969      0.129311696    
  -9.31000042      0.129726276    
  -9.30000019      0.130142614    
  -9.28999996      0.130582869    
  -9.27999973      0.131067693    
  -9.27000046      0.131617352    
  -9.26000023      0.132251307    
  -9.25000000      0.132989421    
  -9.23999977      0.133851677    
  -9.22999954      0.134858429    
  -9.22000027      0.136029437    
  -9.21000004      0.137383208    
  -9.19999981      0.138934866    
  -9.18999958      0.140696421    
  -9.18000031      0.142676428    
  -9.17000008      0.144880131    
  -9.15999985      0.147311062    
  -9.14999962      0.149971873    
  -9.14000034      0.152864724    
  -9.13000011      0.155991644    
  -9.11999989      0.159353077    
  -9.10999966      0.162946686    
  -9.10000038      0.166766062    
  -9.09000015      0.170799837    
  -9.07999992      0.175031751    
  -9.06999969      0.179441705    
  -9.06000042      0.184007719    
  -9.05000019      0.188708171    
  -9.03999996      0.193522781    
  -9.02999973      0.198434144    
  -9.02000046      0.203425914    
  -9.01000023      0.208482221    
  -9.00000000      0.213585272    
  -8.98999977      0.218713909    
  -8.97999954      0.223843455    
  -8.97000027      0.228945509    
  -8.96000004      0.233991355    
  -8.94999981      0.238952994    
  -8.93999958      0.243807271    
  -8.93000031      0.248534471    
  -8.92000008      0.253120929    
  -8.90999985      0.257555902    
  -8.89999962      0.261829704    
  -8.89000034      0.265932173    
  -8.88000011      0.269850403    
  -8.86999989      0.273568690    
  -8.85999966      0.277070105    
  -8.85000038      0.280338109    
  -8.84000015      0.283357799    
  -8.82999992      0.286117971    
  -8.81999969      0.288611621    
  -8.81000042      0.290833414    
  -8.80000019      0.292780966    
  -8.78999996      0.294449836    
  -8.77999973      0.295835912    
  -8.77000046      0.296933800    
  -8.76000023      0.297737896    
  -8.75000000      0.298244745    
  -8.73999977      0.298455060    
  -8.72999954      0.298373491    
  -8.72000027      0.298010260    
  -8.71000004      0.297378212    
  -8.69999981      0.296492189    
  -8.68999958      0.295367718    
  -8.68000031      0.294018477    
  -8.67000008      0.292457461    
  -8.65999985      0.290697396    
  -8.64999962      0.288752615    
  -8.64000034      0.286640286    
  -8.63000011      0.284379721    
  -8.61999989      0.281992942    
  -8.60999966      0.279504180    
  -8.60000038      0.276935607    
  -8.59000015      0.274308205    
  -8.57999992      0.271640092    
  -8.56999969      0.268947870    
  -8.56000042      0.266245902    
  -8.55000019      0.263550162    
  -8.53999996      0.260876834    
  -8.52999973      0.258244246    
  -8.52000046      0.255669773    
  -8.51000023      0.253170252    
  -8.50000000      0.250759095    
  -8.48999977      0.248445049    
  -8.47999954      0.246233881    
  -8.47000027      0.244128034    
  -8.46000004      0.242129892    
  -8.44999981      0.240242824    
  -8.43999958      0.238472357    
  -8.43000031      0.236825317    
  -8.42000008      0.235308170    
  -8.40999985      0.233924538    
  -8.39999962      0.232674107    
  -8.39000034      0.231549546    
  -8.38000011      0.230541393    
  -8.36999989      0.229636669    
  -8.35999966      0.228826687    
  -8.35000038      0.228106797    
  -8.34000015      0.227478415    
  -8.32999992      0.226950556    
  -8.31999969      0.226534635    
  -8.31000042      0.226239905    
  -8.30000019      0.226073176    
  -8.28999996      0.226032689    
  -8.27999973      0.226110950    
  -8.27000046      0.226298660    
  -8.26000023      0.226584256    
  -8.25000000      0.226963714    
  -8.23999977      0.227439612    
  -8.22999954      0.228022069    
  -8.22000027      0.228728175    
  -8.21000004      0.229575515    
  -8.19999981      0.230579630    
  -8.18999958      0.231749654    
  -8.18000031      0.233089253    
  -8.17000008      0.234597370    
  -8.15999985      0.236272871    
  -8.14999962      0.238118500    
  -8.14000034      0.240142941    
  -8.13000011      0.242363393    
  -8.11999989      0.244802192    
  -8.10999966      0.247482121    
  -8.10000038      0.250424027    
  -8.09000015      0.253641188    
  -8.07999992      0.257139117    
  -8.06999969      0.260915548    
  -8.06000042      0.264964730    
  -8.05000019      0.269279957    
  -8.03999996      0.273858309    
  -8.02999973      0.278701037    
  -8.02000046      0.283812076    
  -8.01000023      0.289196789    
  -8.00000000      0.294856191    
  -7.98999977      0.300788730    
  -7.98000002      0.306984454    
  -7.96999979      0.313429624    
  -7.96000004      0.320108801    
  -7.94999981      0.327010274    
  -7.94000006      0.334125012    
  -7.92999983      0.341453403    
  -7.92000008      0.348997861    
  -7.90999985      0.356765211    
  -7.90000010      0.364760220    
  -7.88999987      0.372982174    
  -7.88000011      0.381425947    
  -7.86999989      0.390080422    
  -7.86000013      0.398931146    
  -7.84999990      0.407963306    
  -7.84000015      0.417165488    
  -7.82999992      0.426527560    
  -7.82000017      0.436044931    
  -7.80999994      0.445711285    
  -7.80000019      0.455523819    
  -7.78999996      0.465472102    
  -7.78000021      0.475545406    
  -7.76999998      0.485729963    
  -7.76000023      0.496008962    
  -7.75000000      0.506367862    
  -7.73999977      0.516792476    
  -7.73000002      0.527273118    
  -7.71999979      0.537801027    
  -7.71000004      0.548369765    
  -7.69999981      0.558970749    
  -7.69000006      0.569596410    
  -7.67999983      0.580235839    
  -7.67000008      0.590879858    
  -7.65999985      0.601516426    
  -7.65000010      0.612135708    
  -7.63999987      0.622731209    
  -7.63000011      0.633292437    
  -7.61999989      0.643811762    
  -7.61000013      0.654281139    
  -7.59999990      0.664692700    
  -7.59000015      0.675039291    
  -7.57999992      0.685316861    
  -7.57000017      0.695525765    
  -7.55999994      0.705671608    
  -7.55000019      0.715766191    
  -7.53999996      0.725822628    
  -7.53000021      0.735851645    
  -7.51999998      0.745866716    
  -7.51000023      0.755872309    
  -7.50000000      0.765871227    
  -7.48999977      0.775860608    
  -7.48000002      0.785837889    
  -7.46999979      0.795804739    
  -7.46000004      0.805768490    
  -7.44999981      0.815741003    
  -7.44000006      0.825738490    