  -16.0000000       0.00000000    
  -15.9899998       0.00000000    
  -15.9799995       0.00000000    
  -15.9700003       0.00000000    
  -15.9600000       0.00000000    
  -15.9499998       0.00000000    
  -15.9399996       0.00000000    
  -15.9300003       0.00000000    
  -15.9200001       0.00000000    
  -15.9099998       0.00000000    
  -15.8999996       0.00000000    
  -15.8900003       0.00000000    
  -15.8800001       0.00000000    
  -15.8699999      -0.00000000    
  -15.8599997      -0.00000000    
  -15.8500004      -0.00000000    
  -15.8400002       1.40129846E-45
  -15.8299999       1.96181785E-44
  -15.8199997       2.14398665E-43
  -15.8100004       1.73060360E-42
  -15.8000002       1.14303916E-41
  -15.7900000       6.40225242E-41
  -15.7799997       3.11846362E-40
  -15.7700005       1.34478270E-39
  -15.7600002       5.20381714E-39
  -15.7500000       1.82575709E-38
  -15.7399998       5.85487105E-38
  -15.7299995       1.72696225E-37
  -15.7200003       4.70818930E-37
  -15.7100000       1.19070765E-36
  -15.6999998       2.80030409E-36
  -15.6899996       6.13206343E-36
  -15.6800003       1.25019664E-35
  -15.6700001       2.36892575E-35
  -15.6599998       4.15439133E-35
  -15.6499996       6.68864436E-35
  -15.6400003       9.73660364E-35
  -15.6300001       1.24210034E-34
  -15.6199999       1.28519874E-34
  -15.6099997       7.90337083E-35
  -15.6000004      -6.51258710E-35
  -15.5900002      -3.42040180E-34
  -15.5799999      -7.60945937E-34
  -15.5699997      -1.26298401E-33
  -15.5600004      -1.67857636E-33
  -15.5500002      -1.70480513E-33
  -15.5400000      -9.38939796E-34
  -15.5299997       9.93538111E-34
  -15.5200005       4.19931288E-33
  -15.5100002       8.20325639E-33
  -15.5000000       1.16809153E-32
  -15.4899998       1.24426268E-32
  -15.4799995       7.90290876E-33
  -15.4700003      -3.82938517E-33
  -15.4600000      -2.23770793E-32
  -15.4499998      -4.35890879E-32
  -15.4399996      -5.90544676E-32
  -15.4300003      -5.76850402E-32
  -15.4200001      -2.98996745E-32
  -15.4099998       2.63257014E-32
  -15.3999996       1.00011823E-31
  -15.3900003       1.66146770E-31
  -15.3800001       1.92567263E-31
  -15.3699999       1.55189611E-31
  -15.3599997       5.63232182E-32
  -15.3500004      -6.53821243E-32
  -15.3400002      -1.47114764E-31
  -15.3299999      -1.43359553E-31
  -15.3199997      -8.58047987E-32
  -15.3100004      -1.25743407E-31
  -15.3000002      -5.04235402E-31
  -15.2900000      -1.40330412E-30
  -15.2799997      -2.68418831E-30
  -15.2700005      -3.61599478E-30
  -15.2600002      -2.80636092E-30
  -15.2500000       1.40624107E-30
  -15.2399998       9.93994412E-30
  -15.2299995       2.14857587E-29
  -15.2200003       3.11768607E-29
  -15.2100000       3.04890027E-29
  -15.1999998       9.55360934E-30
  -15.1899996      -3.75404371E-29
  -15.1800003      -1.05367567E-28
  -15.1700001      -1.70722664E-28
  -15.1599998      -1.91974025E-28
  -15.1499996      -1.19294075E-28
  -15.1400003       8.19167098E-29
  -15.1300001       3.98369605E-28
  -15.1199999       7.39481361E-28
  -15.1099997       9.31005224E-28
  -15.1000004       7.52345707E-28
  -15.0900002       2.76518582E-29
  -15.0799999      -1.24289321E-27
  -15.0699997      -2.75733888E-27
  -15.0600004      -3.86566804E-27
  -15.0500002      -3.68261725E-27
  -15.0400000      -1.40520769E-27
  -15.0299997       3.20022342E-27
  -15.0200005       9.29013370E-27
  -15.0100002       1.46696435E-26
  -15.0000000       1.60453877E-26
  -14.9899998       1.00094308E-26
  -14.9799995      -5.28893989E-27
  -14.9700003      -2.81996450E-26
  -14.9600000      -5.21593290E-26
  -14.9499998      -6.58308863E-26
  -14.9399996      -5.56659636E-26
  -14.9300003      -1.11102076E-26
  -14.9200001       6.84540522E-26
  -14.9099998       1.67265962E-25
  -14.8999996       2.50533324E-25
  -14.8900003       2.68996466E-25
  -14.8800001       1.72820516E-25
  -14.8699999      -6.60407664E-26
  -14.8599997      -4.28079906E-25
  -14.8500004      -8.26459199E-25
  -14.8400002      -1.10526345E-24
  -14.8299999      -1.06682374E-24
  -14.8199997      -5.32954378E-25
  -14.8100004       5.66659940E-25
  -14.8000002       2.10088943E-24
  -14.7900000       3.67485646E-24
  -14.7799997       4.64285072E-24
  -14.7700005       4.23392889E-24
  -14.7600002       1.80207267E-24
  -14.7500000      -2.83219347E-24
  -14.7399998      -9.03852449E-24
  -14.7299995      -1.51732488E-23
  -14.7200003      -1.86791707E-23
  -14.7100000      -1.66186992E-23
  -14.6999998      -6.66345442E-24
  -14.6899996       1.16132245E-23
  -14.6800003       3.55061466E-23
  -14.6700001       5.85523045E-23
  -14.6599998       7.10975911E-23
  -14.6499996       6.24701791E-23
  -14.6400003       2.47318023E-23
  -14.6300001      -4.26907667E-23
  -14.6199999      -1.28923273E-22
  -14.6099997      -2.10058967E-22
  -14.6000004      -2.51995040E-22
  -14.5900002      -2.18778897E-22
  -14.5799999      -8.58459263E-23
  -14.5699997       1.44766806E-22
  -14.5600004       4.32365953E-22
  -14.5500002       6.95023767E-22
  -14.5400000       8.21955652E-22
  -14.5299997       7.02884104E-22
  -14.5200005       2.70556723E-22
  -14.5100002      -4.54352680E-22
  -14.5000000      -1.33243923E-21
  -14.4899998      -2.10693020E-21
  -14.4799995      -2.45039756E-21
  -14.4700003      -2.05781796E-21
  -14.4600000      -7.69393232E-22
  -14.4499998       1.31167974E-21
  -14.4399996       3.75318097E-21
  -14.4300003       5.82468074E-21
  -14.4200001       6.65063148E-21
  -14.4099998       5.47431886E-21
  -14.3999996       1.97515705E-21
  -14.3900003      -3.45905081E-21
  -14.3800001      -9.62130364E-21
  -14.3699999      -1.46328137E-20
  -14.3599997      -1.63824720E-20
  -14.3500004      -1.31956722E-20
  -14.3400002      -4.56472311E-21
  -14.3299999       8.30323253E-21
  -14.3199997       2.23750175E-20
  -14.3100004       3.32904492E-20
  -14.3000002       3.64762739E-20
  -14.2900000       2.86591134E-20
  -14.2799997       9.35567607E-21
  -14.2700005      -1.81923076E-20
  -14.2600002      -4.71193484E-20
  -14.2500000      -6.83150761E-20
  -14.2399998      -7.29321204E-20
  -14.2299995      -5.54361777E-20
  -14.2200003      -1.62722695E-20
  -14.2100000       3.68710653E-20
  -14.1999998       8.99691847E-20
  -14.1899996       1.25929576E-19
  -14.1800003       1.29626569E-19
  -14.1700001       9.33586735E-20
  -14.1599998       2.09446590E-20
  -14.1499996      -7.12321027E-20
  -14.1400003      -1.57213094E-19
  -14.1300001      -2.08269939E-19
  -14.1199999      -2.01943997E-19
  -14.1099997      -1.30658968E-19
  -14.1000004      -6.89010108E-21
  -14.0900002       1.37498640E-19
  -14.0799999       2.58564433E-19
  -14.0699997       3.12920022E-19
  -14.0600004       2.72321144E-19
  -14.0500002       1.35599421E-19
  -14.0400000      -6.65230410E-20
  -14.0299997      -2.76506704E-19
  -14.0200005      -4.24827684E-19
  -14.0100002      -4.51148907E-19
  -14.0000000      -3.25787824E-19
  -13.9899998      -6.44706702E-20
  -13.9799995       2.69419084E-19
  -13.9700003       5.77608745E-19
  -13.9600000       7.52744956E-19
  -13.9499998       7.10895872E-19
  -13.9399996       4.21565542E-19
  -13.9300003      -7.42195366E-20
  -13.9200001      -6.64593093E-19
  -13.9099998      -1.18830771E-18
  -13.8999996      -1.47323163E-18
  -13.8900003      -1.38312870E-18
  -13.8800001      -8.61115387E-19
  -13.8699999       4.17324348E-20
  -13.8599997       1.16124671E-18
  -13.8500004       2.24222422E-18
  -13.8400002       2.98572662E-18
  -13.8299999       3.11439829E-18
  -13.8199997       2.44447443E-18
  -13.8100004       9.50570834E-19
  -13.8000002      -1.19163701E-18
  -13.7900000      -3.59891809E-18
  -13.7799997      -5.72100197E-18
  -13.7700005      -6.93244727E-18
  -13.7600002      -6.66984638E-18
  -13.7500000      -4.59485058E-18
  -13.7399998      -7.49028537E-19
  -13.7299995       4.34438649E-18
  -13.7200003       9.67861866E-18
  -13.7100000       1.38957922E-17
  -13.6999998       1.55599919E-17
  -13.6899996       1.35362863E-17
  -13.6800003       7.39617754E-18
  -13.6700001      -2.26358512E-18
  -13.6599998      -1.37107420E-17
  -13.6499996      -2.42691996E-17
  -13.6400003      -3.08388384E-17
  -13.6300001      -3.06755232E-17
  -13.6199999      -2.22643222E-17
  -13.6099997      -6.04733672E-18
  -13.6000004       1.52470579E-17
  -13.5900002       3.68657690E-17
  -13.5799999       5.29410878E-17
  -13.5699997       5.79238386E-17
  -13.5600004       4.82302545E-17
  -13.5500002       2.36653776E-17
  -13.5400000      -1.18386064E-17
  -13.5299997      -5.05196059E-17
  -13.5200005      -8.22354642E-17
  -13.5100002      -9.68723524E-17
  -13.5000000      -8.72060719E-17
  -13.4899998      -5.14898226E-17
  -13.4799995       5.01122186E-18
  -13.4700003       7.01625911E-17
  -13.4600000       1.27051422E-16
  -13.4499998       1.57807691E-16
  -13.4399996       1.48429130E-16
  -13.4300003       9.34816596E-17
  -13.4200001      -6.27057343E-19
  -13.4099998      -1.14965214E-16
  -13.3999996      -2.20689710E-16
  -13.3900003      -2.84927484E-16
  -13.3800001      -2.79039255E-16
  -13.3699999      -1.87570377E-16
  -13.3599997      -1.56486525E-17
  -13.3500004       2.07502042E-16
  -13.3400002       4.30780602E-16
  -13.3299999       5.89932401E-16
  -13.3199997       6.22013668E-16
  -13.3100004       4.83117682E-16
  -13.3000002       1.65380682E-16
  -13.2900000      -2.91526215E-16
  -13.2799997      -7.98955887E-16
  -13.2700005      -1.23085248E-15
  -13.2600002      -1.44848489E-15
  -13.2500000      -1.33492340E-15
  -13.2399998      -8.32259052E-16
  -13.2299995       2.79545622E-17
  -13.2200003       1.11105545E-15
  -13.2100000       2.19023874E-15
  -13.1999998       2.98498074E-15
  -13.1899996       3.22279985E-15
  -13.1800003       2.71280513E-15
  -13.1700001       1.41361011E-15
  -13.1599998      -5.24051185E-16
  -13.1499996      -2.75680870E-15
  -13.1400003      -4.79885203E-15
  -13.1300001      -6.11913161E-15
  -13.1199999      -6.26819501E-15
  -13.1099997      -5.00591686E-15
  -13.1000004      -2.39611200E-15
  -13.0900002       1.16269777E-15
  -13.0799999       4.98839006E-15
  -13.0699997       8.24662553E-15
  -13.0600004       1.01385041E-14
  -13.0500002       1.01016370E-14
  -13.0400000       7.97241471E-15
  -13.0299997       4.06135823E-15
  -13.0200005      -8.87934315E-16
  -13.0100002      -5.85659629E-15
  -13.0000000      -9.79228786E-15
  -12.9899998      -1.18749835E-14
  -12.9799995      -1.17338805E-14
  -12.9700003      -9.54972812E-15
  -12.9600000      -6.00445478E-15
  -12.9499998      -2.08201545E-15
  -12.9399996       1.23025373E-15
  -12.9300003       3.25509743E-15
  -12.9200001       3.85579562E-15
  -12.9099998       3.50155903E-15
  -12.8999996       3.12895665E-15
  -12.8900003       3.82116976E-15
  -12.8800001       6.38809040E-15
  -12.8699999       1.09730433E-14
  -12.8599997       1.68205632E-14
  -12.8500004       2.23070108E-14
  -12.8400002       2.52670115E-14
  -12.8299999       2.35605958E-14
  -12.8199997       1.57432813E-14
  -12.8100004       1.65064709E-15
  -12.8000002      -1.72898788E-14
  -12.7900000      -3.81492425E-14
  -12.7799997      -5.70134624E-14
  -12.7700005      -6.98272142E-14
  -12.7600002      -7.33575052E-14
  -12.7500000      -6.60144140E-14
  -12.7399998      -4.82845202E-14
  -12.7299995      -2.26277533E-14
  -12.7200003       7.16115958E-15
  -12.7100000       3.69607604E-14
  -12.6999998       6.34053492E-14
  -12.6899996       8.46981448E-14
  -12.6800003       1.00866737E-13
  -12.6700001       1.13326767E-13
  -12.6599998       1.23835675E-13
  -12.6499996       1.33133535E-13
  -12.6400003       1.39717665E-13
  -12.6300001       1.39222360E-13
  -12.6199999       1.24756176E-13
  -12.6099997       8.83022835E-14
  -12.6000004       2.29753672E-14
  -12.5900002      -7.43640921E-14
  -12.5799999      -2.00818732E-13
  -12.5699997      -3.46172364E-13
  -12.5600004      -4.93112766E-13
  -12.5500002      -6.19106491E-13
  -12.5400000      -6.99653389E-13
  -12.5299997      -7.12275508E-13
  -12.5200005      -6.40379514E-13
  -12.5100002      -4.76144894E-13
  -12.5000000      -2.21845505E-13
  -12.4899998       1.10559009E-13
  -12.4799995       5.01237398E-13
  -12.4700003       9.24986325E-13
  -12.4600000       1.35351116E-12
  -12.4499998       1.75669830E-12
  -12.4399996       2.10246274E-12
  -12.4300003       2.35531082E-12
  -12.4200001       2.47432543E-12
  -12.4099998       2.41165985E-12
  -12.3999996       2.11272514E-12
  -12.3900003       1.51894198E-12
  -12.3800001       5.73336626E-13
  -12.3699999      -7.71542877E-13
  -12.3599997      -2.54464527E-12
  -12.3500004      -4.74811206E-12
  -12.3400002      -7.35146145E-12
  -12.3299999      -1.02896502E-11
  -12.3199997      -1.34656557E-11
  -12.3100004      -1.67571998E-11
  -12.3000002      -2.00263937E-11
  -12.2900000      -2.31304871E-11
  -12.2799997      -2.59317220E-11
  -12.2700005      -2.83047821E-11
  -12.2600002      -3.01411153E-11
  -12.2500000      -3.13502349E-11
  -12.2399998      -3.18588732E-11
  -12.2299995      -3.16096281E-11
  -12.2200003      -3.05602106E-11
  -12.2100000      -2.86842425E-11
  -12.1999998      -2.59736919E-11
  -12.1899996      -2.24420465E-11
  -12.1800003      -1.81269982E-11
  -12.1700001      -1.30910812E-11
  -12.1599998      -7.41943659E-12
  -12.1499996      -1.21418945E-12
  -12.1400003       5.41348563E-12
  -12.1300001       1.23522191E-11
  -12.1199999       1.94982936E-11
  -12.1099997       2.67606440E-11
  -12.1000004       3.40622600E-11
  -12.0900002       4.13379782E-11
  -12.0799999       4.85301313E-11
  -12.0699997       5.55836141E-11
  -12.0600004       6.24427385E-11
  -12.0500002       6.90509386E-11
  -12.0400000       7.53535775E-11
  -12.0299997       8.13027146E-11
  -12.0200005       8.68615874E-11
  -12.0100002       9.20064511E-11
  -12.0000000       9.67236430E-11
  -11.9899998       1.01001256E-10
  -11.9799995       1.04816489E-10
  -11.9700003       1.08121574E-10
  -11.9600000       1.10832017E-10
  -11.9499998       1.12820947E-10
  -11.9399996       1.13922288E-10
  -11.9300003       1.13943244E-10
  -11.9200001       1.12684112E-10
  -11.9099998       1.09961790E-10
  -11.8999996       1.05631226E-10
  -11.8900003       9.96006055E-11
  -11.8800001       9.18367535E-11
  -11.8699999       8.23604865E-11
  -11.8599997       7.12339840E-11
  -11.8500004       5.85447940E-11
  -11.8400002       4.43921878E-11
  -11.8299999       2.88793815E-11
  -11.8199997       1.21147545E-11
  -11.8100004      -5.77960986E-12
  -11.8000002      -2.46559665E-11
  -11.7900000      -4.43312262E-11
  -11.7799997      -6.45846224E-11
  -11.7700005      -8.51675744E-11
  -11.7600002      -1.05824779E-10
  -11.7500000      -1.26322799E-10
  -11.7399998      -1.46479398E-10
  -11.7299995      -1.66184178E-10
  -11.7200003      -1.85403762E-10
  -11.7100000      -2.04166989E-10
  -11.6999998      -2.22531174E-10
  -11.6899996      -2.40536174E-10
  -11.6800003      -2.58156468E-10
  -11.6700001      -2.75263146E-10
  -11.6599998      -2.91606517E-10
  -11.6499996      -3.06825426E-10
  -11.6400003      -3.20482002E-10
  -11.6300001      -3.32116556E-10
  -11.6199999      -3.41310008E-10
  -11.6099997      -3.47739976E-10
  -11.6000004      -3.51219165E-10
  -11.5900002      -3.51706636E-10
  -11.5799999      -3.49291984E-10
  -11.5699997      -3.44155288E-10
  -11.5600004      -3.36514733E-10
  -11.5500002      -3.26572630E-10
  -11.5400000      -3.14472365E-10
  -11.5299997      -3.00273001E-10
  -11.5200005      -2.83945228E-10
  -11.5100002      -2.65385547E-10
  -11.5000000      -2.44442577E-10
  -11.4899998      -2.20948038E-10
  -11.4799995      -1.94743749E-10
  -11.4700003      -1.65700370E-10
  -11.4600000      -1.33728195E-10
  -11.4499998      -9.87794013E-11
  -11.4399996      -6.08468068E-11
  -11.4300003      -1.99624605E-11
  -11.4200001       2.38027029E-11
  -11.4099998       7.03364589E-11
  -11.3999996       1.19483062E-10
  -11.3900003       1.71044970E-10
  -11.3800001       2.24788840E-10
  -11.3699999       2.80459544E-10
  -11.3599997       3.37798123E-10
  -11.3500004       3.96561783E-10
  -11.3400002       4.56542110E-10
  -11.3299999       5.17575149E-10
  -11.3199997       5.79543691E-10
  -11.3100004       6.42369602E-10
  -11.3000002       7.05999315E-10
  -11.2900000       7.70387976E-10
  -11.2799997       8.35483571E-10
  -11.2700005       9.01215547E-10
  -11.2600002       9.67489422E-10
  -11.2500000       1.03418529E-09
  -11.2399998       1.10115816E-09
  -11.2299995       1.16823873E-09
  -11.2200003       1.23523203E-09
  -11.2100000       1.30191635E-09
  -11.1999998       1.36804212E-09
  -11.1899996       1.43333756E-09
  -11.1800003       1.49751989E-09
  -11.1700001       1.56031299E-09
  -11.1599998       1.62147296E-09
  -11.1499996       1.68080894E-09
  -11.1400003       1.73820325E-09
  -11.1300001       1.79361559E-09
  -11.1199999       1.84708027E-09
  -11.1099997       1.89868721E-09
  -11.1000004       1.94855931E-09
  -11.0900002       1.99682915E-09
  -11.0799999       2.04362327E-09
  -11.0699997       2.08905826E-09
  -11.0600004       2.13325135E-09
  -11.0500002       2.17632956E-09
  -11.0400000       2.21844410E-09
  -11.0299997       2.25977481E-09
  -11.0200005       2.30051689E-09
  -11.0100002       2.34086039E-09
  -11.0000000       2.38095454E-09
  -10.9899998       2.42087927E-09
  -10.9799995       2.46062437E-09
  -10.9700003       2.50010013E-09
  -10.9600000       2.53915622E-09
  -10.9499998       2.57763610E-09
  -10.9399996       2.61542898E-09
  -10.9300003       2.65251132E-09
  -10.9200001       2.68896749E-09
  -10.9099998       2.72498624E-09
  -10.8999996       2.76081313E-09
  -10.8900003       2.79669243E-09
  -10.8800001       2.83279533E-09
  -10.8699999       2.86918134E-09
  -10.8599997       2.90576563E-09
  -10.8500004       2.94233482E-09
  -10.8400002       2.97859981E-09
  -10.8299999       3.01425018E-09
  -10.8199997       3.04901770E-09
  -10.8100004       3.08272297E-09
  -10.8000002       3.11528492E-09
  -10.7900000       3.14669912E-09
  -10.7799997       3.17700022E-09
  -10.7700005       3.20620996E-09
  -10.7600002       3.23430904E-09
  -10.7500000       3.26120841E-09
  -10.7399998       3.28680105E-09
  -10.7299995       3.31098460E-09
  -10.7200003       3.33372441E-09
  -10.7100000       3.35510619E-09
  -10.6999998       3.37534556E-09
  -10.6899996       3.39476203E-09
  -10.6800003       3.41373751E-09
  -10.6700001       3.43259776E-09
  -10.6599998       3.45156836E-09
  -10.6499996       3.47067375E-09
  -10.6400003       3.48974316E-09
  -10.6300001       3.50842488E-09
  -10.6199999       3.52626950E-09
  -10.6099997       3.54283780E-09
  -10.6000004       3.55780316E-09
  -10.5900002       3.57105145E-09
  -10.5799999       3.58271324E-09
  -10.5699997       3.59314245E-09
  -10.5600004       3.60283781E-09
  -10.5500002       3.61234509E-09
  -10.5400000       3.62212060E-09
  -10.5299997       3.63241881E-09
  -10.5200005       3.64326080E-09
  -10.5100002       3.65441943E-09
  -10.5000000       3.66551633E-09
  -10.4899998       3.67614805E-09
  -10.4799995       3.68604569E-09
  -10.4700003       3.69519837E-09
  -10.4600000       3.70395736E-09
  -10.4499998       3.71302966E-09
  -10.4399996       3.72338094E-09
  -10.4300003       3.73607145E-09
  -10.4200001       3.75203735E-09
  -10.4099998       3.77187837E-09
  -10.3999996       3.79570020E-09
  -10.3900003       3.82302945E-09
  -10.3800001       3.85290511E-09
  -10.3699999       3.88401888E-09
  -10.3599997       3.91499722E-09
  -10.3500004       3.94466504E-09
  -10.3400002       3.97227140E-09
  -10.3299999       3.99766442E-09
  -10.3199997       4.02128641E-09
  -10.3100004       4.04408862E-09
  -10.3000002       4.06724920E-09
  -10.2900000       4.09198320E-09
  -10.2799997       4.11922585E-09
  -10.2700005       4.14952206E-09
  -10.2600002       4.18291002E-09
  -10.2500000       4.21902424E-09
  -10.2399998       4.25724300E-09
  -10.2299995       4.29689129E-09
  -10.2200003       4.33744596E-09
  -10.2100000       4.37866765E-09
  -10.1999998       4.42064296E-09
  -10.1899996       4.46372805E-09
  -10.1800003       4.50843629E-09
  -10.1700001       4.55527571E-09
  -10.1599998       4.60461402E-09
  -10.1499996       4.65656846E-09
  -10.1400003       4.71099959E-09
  -10.1300001       4.76756190E-09
  -10.1199999       4.82580198E-09
  -10.1099997       4.88529306E-09
  -10.1000004       4.94573493E-09
  -10.0900002       5.00706410E-09
  -10.0799999       5.06949593E-09
  -10.0699997       5.13350562E-09
  -10.0600004       5.19981702E-09
  -10.0500002       5.26934274E-09
  -10.0400000       5.34307176E-09
  -10.0299997       5.42198020E-09
  -10.0200005       5.50690915E-09
  -10.0100002       5.59846569E-09
  -10.0000000       5.69690561E-09
  -9.98999977       5.80205395E-09
  -9.97999954       5.91333427E-09
  -9.97000027       6.02976336E-09
  -9.96000004       6.15010176E-09
  -9.94999981       6.27302477E-09
  -9.93999958       6.39736042E-09
  -9.93000031       6.52226806E-09
  -9.92000008       6.64740929E-09
  -9.90999985       6.77298173E-09
  -9.89999962       6.89970570E-09
  -9.89000034       7.02866343E-09
  -9.88000011       7.16107129E-09
  -9.86999989       7.29804883E-09
  -9.85999966       7.44043582E-09
  -9.85000038       7.58867724E-09
  -9.84000015       7.74280817E-09
  -9.82999992       7.90250887E-09
  -9.81999969       8.06735034E-09
  -9.81000042       8.23688140E-09
  -9.80000019       8.41087466E-09
  -9.78999996       8.58934435E-09
  -9.77999973       8.77256845E-09
  -9.77000046       8.96096264E-09
  -9.76000023       9.15496390E-09
  -9.75000000       9.35483779E-09
  -9.73999977       9.56061630E-09
  -9.72999954       9.77203740E-09
  -9.72000027       9.98865524E-09
  -9.71000004       1.02099529E-08
  -9.69999981       1.04355671E-08
  -9.68999958       1.06654436E-08
  -9.68000031       1.08999503E-08
  -9.67000008       1.11398357E-08
  -9.65999985       1.13861889E-08
  -9.64999962       1.16401662E-08
  -9.64000034       1.19028112E-08
  -9.63000011       1.21748061E-08
  -9.61999989       1.24563035E-08
  -9.60999966       1.27469280E-08
  -9.60000038       1.30457991E-08
  -9.59000015       1.33516469E-08
  -9.57999992       1.36629819E-08
  -9.56999969       1.39782701E-08
  -9.56000042       1.42959253E-08
  -9.55000019       1.46143799E-08
  -9.53999996       1.49320094E-08
  -9.52999973       1.52470960E-08
  -9.52000046       1.55577062E-08
  -9.51000023       1.58618221E-08
  -9.50000000       1.61573741E-08
  -9.48999977       1.64424403E-08
  -9.47999954       1.67154433E-08
  -9.47000027       1.69752532E-08
  -9.46000004       1.72212484E-08
  -9.44999981       1.74533188E-08
  -9.43999958       1.76717112E-08
  -9.43000031       1.78767898E-08
  -9.42000008       1.80689135E-08
  -9.40999985       1.82483166E-08
  -9.39999962       1.84151556E-08
  -9.39000034       1.85695779E-08
  -9.38000011       1.87119351E-08
  -9.36999989       1.88430178E-08
  -9.35999966       1.89640819E-08
  -9.35000038       1.90769747E-08
  -9.34000015       1.91839415E-08
  -9.32999992       1.92875529E-08
  -9.31999969       1.93904128E-08
  -9.31000042       1.94949994E-08
  -9.30000019       1.96035987E-08
  -9.28999996       1.97183621E-08
  -9.27999973       1.98414813E-08
  -9.27000046       1.99752588E-08
  -9.26000023       2.01223109E-08
  -9.25000000       2.02855830E-08
  -9.23999977       2.04680948E-08
  -9.22999954       2.06729656E-08
  -9.22000027       2.09028812E-08
  -9.21000004       2.11601598E-08
  -9.19999981       2.14464499E-08
  -9.18999958       2.17628866E-08
  -9.18000031       2.21102709E-08
  -9.17000008       2.24891483E-08
  -9.15999985       2.29001351E-08
  -9.14999962       2.33438566E-08
  -9.14000034       2.38209292E-08
  -9.13000011       2.43317597E-08
  -9.11999989       2.48762095E-08
  -9.10999966       2.54534900E-08
  -9.10000038       2.60620574E-08
  -9.09000015       2.66996700E-08
  -9.07999992       2.73637841E-08
  -9.06999969       2.80517547E-08
  -9.06000042       2.87611996E-08
  -9.05000019       2.94901987E-08
  -9.03999996       3.02371959E-08
  -9.02999973       3.10008907E-08
  -9.02000046       3.17798481E-08
  -9.01000023       3.25721707E-08
  -9.00000000       3.33752936E-08
  -8.98999977       3.41859661E-08
  -8.97999954       3.50003262E-08
  -8.97000027       3.58142742E-08
  -8.96000004       3.66238275E-08
  -8.94999981       3.74252771E-08
  -8.93999958       3.82153580E-08
  -8.93000031       3.89911285E-08
  -8.92000008       3.97496933E-08
  -8.90999985       4.04879650E-08
  -8.89999962       4.12024335E-08
  -8.89000034       4.18892121E-08
  -8.88000011       4.25442472E-08
  -8.86999989       4.31635563E-08
  -8.85999966       4.37438068E-08
  -8.85000038       4.42824657E-08
  -8.84000015       4.47780479E-08
  -8.82999992       4.52300561E-08
  -8.81999969       4.56386253E-08
  -8.81000042       4.60042422E-08
  -8.80000019       4.63274574E-08
  -8.78999996       4.66085268E-08
  -8.77999973       4.68476742E-08
  -8.77000046       4.70450630E-08
  -8.76000023       4.72011692E-08
  -8.75000000       4.73172399E-08
  -8.73999977       4.73951083E-08
  -8.72999954       4.74371156E-08
  -8.72000027       4.74461253E-08
  -8.71000004       4.74248267E-08
  -8.69999981       4.73756288E-08
  -8.68999958       4.73002402E-08
  -8.68000031       4.71996877E-08
  -8.67000008       4.70746535E-08
  -8.65999985       4.69255603E-08
  -8.64999962       4.67530761E-08
  -8.64000034       4.65584442E-08
  -8.63000011       4.63433771E-08
  -8.61999989       4.61099106E-08
  -8.60999966       4.58601761E-08
  -8.60000038       4.55962699E-08
  -8.59000015       4.53198687E-08
  -8.57999992       4.50324045E-08
  -8.56999969       4.47351134E-08
  -8.56000042       4.44292922E-08
  -8.55000019       4.41167565E-08
  -8.53999996       4.37997727E-08
  -8.52999973       4.34812364E-08
  -8.52000046       4.31643308E-08
  -8.51000023       4.28521716E-08
  -8.50000000       4.25474234E-08
  -8.48999977       4.22519726E-08
  -8.47999954       4.19670450E-08
  -8.47000027       4.16931805E-08
  -8.46000004       4.14306704E-08
  -8.44999981       4.11800691E-08
  -8.43999958       4.09422327E-08
  -8.43000031       4.07185254E-08
  -8.42000008       4.05108302E-08
  -8.40999985       4.03210194E-08
  -8.39999962       4.01507378E-08
  -8.39000034       4.00009981E-08
  -8.38000011       3.98719884E-08
  -8.36999989       3.97632434E-08
  -8.35999966       3.96736191E-08
  -8.35000038       3.96019821E-08
  -8.34000015       3.95473698E-08
  -8.32999992       3.95093345E-08
  -8.31999969       3.94877873E-08
  -8.31000042       3.94829094E-08
  -8.30000019       3.94948820E-08
  -8.28999996       3.95236306E-08
  -8.27999973       3.95686008E-08
  -8.27000046       3.96287660E-08
  -8.26000023       3.97030639E-08
  -8.25000000       3.97904181E-08
  -8.23999977       3.98900859E-08
  -8.22999954       4.00016411E-08
  -8.22000027       4.01252755E-08
  -8.21000004       4.02616500E-08
  -8.19999981       4.04113365E-08
  -8.18999958       4.05748963E-08
  -8.18000031       4.07526670E-08
  -8.17000008       4.09450074E-08
  -8.15999985       4.11522407E-08
  -8.14999962       4.13750918E-08
  -8.14000034       4.16150137E-08
  -8.13000011       4.18741699E-08
  -8.11999989       4.21553779E-08
  -8.10999966       4.24617248E-08
  -8.10000038       4.27962448E-08
  -8.09000015       4.31613891E-08
  -8.07999992       4.35589520E-08
  -8.06999969       4.39896688E-08
  -8.06000042       4.44537385E-08
  -8.05000019       4.49505606E-08
  -8.03999996       4.54799718E-08
  -8.02999973       4.60420111E-08
  -8.02000046       4.66371155E-08
  -8.01000023       4.72664077E-08
  -8.00000000       4.79311915E-08
  -7.98999977       4.86329519E-08
  -7.98000002       4.93730425E-08
  -7.96999979       5.01524369E-08
  -7.96000004       5.09716962E-08
  -7.94999981       5.18311403E-08
  -7.94000006       5.27311528E-08
  -7.92999983       5.36717728E-08
  -7.92000008       5.46530501E-08
  -7.90999985       5.56749384E-08
  -7.90000010       5.67373348E-08
  -7.88999987       5.78394328E-08
  -7.88000011       5.89802198E-08
  -7.86999989       6.01582002E-08
  -7.86000013       6.13714164E-08
  -7.84999990       6.26177510E-08
  -7.84000015       6.38954063E-08
  -7.82999992       6.52023360E-08
  -7.82000017       6.65368134E-08
  -7.80999994       6.78976022E-08
  -7.80000019       6.92829190E-08
  -7.78999996       7.06914278E-08
  -7.78000021       7.21214519E-08
  -7.76999998       7.35708738E-08
  -7.76000023       7.50375335E-08
  -7.75000000       7.65193420E-08
  -7.73999977       7.80142173E-08
  -7.73000002       7.95201842E-08
  -7.71999979       8.10354948E-08
  -7.71000004       8.25585005E-08
  -7.69999981       8.40876808E-08
  -7.69000006       8.56214513E-08
  -7.67999983       8.71580426E-08
  -7.67000008       8.86959342E-08
  -7.65999985       9.02334918E-08
  -7.65000010       9.17695502E-08
  -7.63999987       9.33031004E-08
  -7.63000011       9.48332257E-08
  -7.61999989       9.63592726E-08
  -7.61000013       9.78808643E-08
  -7.59999990       9.93980223E-08
  -7.59000015       1.00910334E-07
  -7.57999992       1.02417651E-07
  -7.57000017       1.03920080E-07
  -7.55999994       1.05418039E-07
  -7.55000019       1.06912417E-07
  -7.53999996       1.08404365E-07
  -7.53000021       1.09895524E-07
  -7.51999998       1.11387799E-07
  -7.51000023       1.12882994E-07
  -7.50000000       1.14382715E-07
  -7.48999977       1.15888099E-07
  -7.48000002       1.17400191E-07
  -7.46999979       1.18919701E-07
  -7.46000004       1.20447439E-07
  -7.44999981       1.21984272E-07
  -7.44000006       1.23531279E-07