  -16.0000000       0.00000000    
  -15.9899998       0.00000000    
  -15.9799995       0.00000000    
  -15.9700003       0.00000000    
  -15.9600000       0.00000000    
  -15.9499998       0.00000000    
  -15.9399996       0.00000000    
  -15.9300003       0.00000000    
  -15.9200001       0.00000000    
  -15.9099998       0.00000000    
  -15.8999996       0.00000000    
  -15.8900003       0.00000000    
  -15.8800001       0.00000000    
  -15.8699999      -0.00000000    
  -15.8599997      -1.40129846E-45
  -15.8500004      -2.10194770E-44
  -15.8400002      -2.43825933E-43
  -15.8299999      -2.07111913E-42
  -15.8199997      -1.42750275E-41
  -15.8100004      -8.27606873E-41
  -15.8000002      -4.14637209E-40
  -15.7900000      -1.82938954E-39
  -15.7799997      -7.20794299E-39
  -15.7700005      -2.56359118E-38
  -15.7600002      -8.30016434E-38
  -15.7500000      -2.46287913E-37
  -15.7399998      -6.73335033E-37
  -15.7299995      -1.70312084E-36
  -15.7200003      -3.99760812E-36
  -15.7100000      -8.72420568E-36
  -15.6999998      -1.77139738E-35
  -15.6899996      -3.34351058E-35
  -15.6800003      -5.84932704E-35
  -15.6700001      -9.42609520E-35
  -15.6599998      -1.38259246E-34
  -15.6499996      -1.80239283E-34
  -15.6400003      -1.97724372E-34
  -15.6300001      -1.53150498E-34
  -15.6199999       3.55219592E-36
  -15.6099997       3.21840022E-34
  -15.6000004       8.22438663E-34
  -15.5900002       1.45416319E-33
  -15.5799999       2.04520938E-33
  -15.5699997       2.27269031E-33
  -15.5600004       1.68847292E-33
  -15.5500002      -1.56256822E-34
  -15.5400000      -3.46472772E-33
  -15.5299997      -7.85889385E-33
  -15.5200005      -1.20763251E-32
  -15.5100002      -1.39176503E-32
  -15.5000000      -1.07029018E-32
  -15.4899998      -3.96339915E-34
  -15.4799995       1.67417138E-32
  -15.4700003       3.65940942E-32
  -15.4600000       5.08047836E-32
  -15.4499998       4.87749017E-32
  -15.4399996       2.25853357E-32
  -15.4300003      -2.62168037E-32
  -15.4200001      -8.12483769E-32
  -15.4099998      -1.12303415E-31
  -15.3999996      -8.71267773E-32
  -15.3900003       6.08994456E-33
  -15.3800001       1.33728739E-31
  -15.3699999       2.06516866E-31
  -15.3599997       1.04850581E-31
  -15.3500004      -2.48880766E-31
  -15.3400002      -7.85900493E-31
  -15.3299999      -1.20752535E-30
  -15.3199997      -1.00632115E-30
  -15.3100004       3.30047310E-31
  -15.3000002       2.92361394E-30
  -15.2900000       6.04609557E-30
  -15.2799997       7.87734236E-30
  -15.2700005       5.84729597E-30
  -15.2600002      -2.18711407E-30
  -15.2500000      -1.60646391E-29
  -15.2399998      -3.14789488E-29
  -15.2299995      -3.94779798E-29
  -15.2200003      -2.87153988E-29
  -15.2100000       8.91032091E-30
  -15.1999998       7.03975964E-29
  -15.1899996       1.35105454E-28
  -15.1800003       1.64848722E-28
  -15.1700001       1.15457839E-28
  -15.1599998      -3.93739134E-29
  -15.1499996      -2.78584298E-28
  -15.1400003      -5.13613642E-28
  -15.1300001      -5.97213302E-28
  -15.1199999      -3.75758225E-28
  -15.1099997       2.18285622E-28
  -15.1000004       1.06517330E-27
  -15.0900002       1.80657910E-27
  -15.0799999       1.91095141E-27
  -15.0699997       8.93351945E-28
  -15.0600004      -1.34492888E-27
  -15.0500002      -4.19132469E-27
  -15.0400000      -6.22748716E-27
  -15.0299997      -5.58205141E-27
  -15.0200005      -8.12779029E-28
  -15.0100002       7.87575231E-27
  -15.0000000       1.76120778E-26
  -14.9899998       2.28054280E-26
  -14.9799995       1.67528850E-26
  -14.9700003      -4.95205815E-27
  -14.9600000      -4.00650128E-26
  -14.9499998      -7.63827021E-26
  -14.9399996      -9.21677102E-26
  -14.9300003      -6.25518134E-26
  -14.9200001       2.78660338E-26
  -14.9099998       1.69462902E-25
  -14.8999996       3.16085176E-25
  -14.8900003       3.86762355E-25
  -14.8800001       2.88160510E-25
  -14.8699999      -4.15518030E-26
  -14.8599997      -5.78136584E-25
  -14.8500004      -1.16911671E-24
  -14.8400002      -1.53435270E-24
  -14.8299999      -1.33496042E-24
  -14.8199997      -3.15078096E-25
  -14.8100004       1.51471243E-24
  -14.8000002       3.72310674E-24
  -14.7900000       5.42913757E-24
  -14.7799997       5.48467772E-24
  -14.7700005       2.89507771E-24
  -14.7600002      -2.60067679E-24
  -14.7500000      -9.99160257E-24
  -14.7399998      -1.67869522E-23
  -14.7299995      -1.94182845E-23
  -14.7200003      -1.43789811E-23
  -14.7100000       6.44277061E-26
  -14.6999998       2.21163971E-23
  -14.6899996       4.54706399E-23
  -14.6800003       5.99641952E-23
  -14.6700001       5.43816537E-23
  -14.6599998       2.11618028E-23
  -14.6499996      -3.82609372E-23
  -14.6400003      -1.09664982E-22
  -14.6300001      -1.66319899E-22
  -14.6199999      -1.75177381E-22
  -14.6099997      -1.08962896E-22
  -14.6000004       3.85695459E-23
  -14.5900002       2.39692874E-22
  -14.5799999       4.29067278E-22
  -14.5699997       5.15427680E-22
  -14.5600004       4.10483078E-22
  -14.5500002       7.00210989E-23
  -14.5400000      -4.65526081E-22
  -14.5299997      -1.04941038E-21
  -14.5200005      -1.44405156E-21
  -14.5100002      -1.38380117E-21
  -14.5000000      -6.78878801E-22
  -14.4899998       6.66363050E-22
  -14.4799995       2.36581208E-21
  -14.4700003       3.84617780E-21
  -14.4600000       4.36266122E-21
  -14.4499998       3.23982856E-21
  -14.4399996       1.90436475E-22
  -14.4300003      -4.38835834E-21
  -14.4200001      -9.27551467E-21
  -14.4099998      -1.25689714E-20
  -14.3999996      -1.21726388E-20
  -14.3900003      -6.57339188E-21
  -14.3800001       4.28738536E-21
  -14.3699999       1.83619394E-20
  -14.3599997       3.14181970E-20
  -14.3500004       3.78031944E-20
  -14.3400002       3.20875897E-20
  -14.3299999       1.12967838E-20
  -14.3199997      -2.29117317E-20
  -14.3100004      -6.29963177E-20
  -14.3000002      -9.60543195E-20
  -14.2900000      -1.06610275E-19
  -14.2799997      -8.14759979E-20
  -14.2700005      -1.56273013E-20
  -14.2600002       8.27399622E-20
  -14.2500000       1.90179046E-19
  -14.2399998       2.70864919E-19
  -14.2299995       2.85102791E-19
  -14.2200003       2.02379857E-19
  -14.2100000       1.58075895E-20
  -14.1999998      -2.46807973E-19
  -14.1899996      -5.20460490E-19
  -14.1800003      -7.12876091E-19
  -14.1700001      -7.27586981E-19
  -14.1599998      -4.96406854E-19
  -14.1499996      -1.29546541E-20
  -14.1400003       6.44202729E-19
  -14.1300001       1.31028800E-18
  -14.1199999       1.76244561E-18
  -14.1099997       1.77692292E-18
  -14.1000004       1.20479425E-18
  -14.0900002       4.60908785E-20
  -14.0799999      -1.50338918E-18
  -14.0699997      -3.05676882E-18
  -14.0600004      -4.10611753E-18
  -14.0500002      -4.15380160E-18
  -14.0400000      -2.87923249E-18
  -14.0299997      -2.95964474E-19
  -14.0200005       3.15549034E-18
  -14.0100002       6.62767547E-18
  -14.0000000       9.02396228E-18
  -13.9899998       9.28044204E-18
  -13.9799995       6.71445003E-18
  -13.9700003       1.34514901E-18
  -13.9600000      -5.92384072E-18
  -13.9499998      -1.33539757E-17
  -13.9399996      -1.86974235E-17
  -13.9300003      -1.97656677E-17
  -13.9200001      -1.51231909E-17
  -13.9099998      -4.71986776E-18
  -13.8999996       9.75012512E-18
  -13.8900003       2.49394756E-17
  -13.8800001       3.64680804E-17
  -13.8699999       4.00049293E-17
  -13.8599997       3.25872137E-17
  -13.8500004       1.38286078E-17
  -13.8400002      -1.33748314E-17
  -13.8299999      -4.29665337E-17
  -13.8199997      -6.68232498E-17
  -13.8100004      -7.67039685E-17
  -13.8000002      -6.66543064E-17
  -13.7900000      -3.52479129E-17
  -13.7799997       1.30342116E-17
  -13.7700005       6.78715325E-17
  -13.7600002       1.14895930E-16
  -13.7500000       1.39030612E-16
  -13.7399998       1.28708959E-16
  -13.7299995       7.99189482E-17
  -13.7200003      -1.13906203E-18
  -13.7100000      -9.78225844E-17
  -13.6999998      -1.85782330E-16
  -13.6899996      -2.38444645E-16
  -13.6800003      -2.34183805E-16
  -13.6700001      -1.63442035E-16
  -13.6599998      -3.37419777E-17
  -13.6499996       1.29245369E-16
  -13.6400003       2.85625227E-16
  -13.6300001       3.90002345E-16
  -13.6199999       4.03403517E-16
  -13.6099997       3.05579471E-16
  -13.6000004       1.04234961E-16
  -13.5900002      -1.62027384E-16
  -13.5799999      -4.29059828E-16
  -13.5699997      -6.20830522E-16
  -13.5600004      -6.69022144E-16
  -13.5500002      -5.34050515E-16
  -13.5400000      -2.21738045E-16
  -13.5299997       2.09961296E-16
  -13.5200005       6.57985570E-16
  -13.5100002       9.95487859E-16
  -13.5000000       1.10401936E-15
  -13.4899998       9.09342597E-16
  -13.4799995       4.11243681E-16
  -13.4700003      -3.02384648E-16
  -13.4600000      -1.06422151E-15
  -13.4499998      -1.66077062E-15
  -13.4399996      -1.88526029E-15
  -13.4300003      -1.59869634E-15
  -13.4200001      -7.83040508E-16
  -13.4099998       4.30233021E-16
  -13.3999996       1.76903667E-15
  -13.3900003       2.87152195E-15
  -13.3800001       3.37220355E-15
  -13.3699999       3.00539106E-15
  -13.3599997       1.69974218E-15
  -13.3500004      -3.64491327E-16
  -13.3400002      -2.75847714E-15
  -13.3299999      -4.87812712E-15
  -13.3199997      -6.07980514E-15
  -13.3100004      -5.85150435E-15
  -13.3000002      -3.97809405E-15
  -13.2900000      -6.53885983E-16
  -13.2799997       3.49761588E-15
  -13.2700005       7.51770455E-15
  -13.2600002       1.03133919E-14
  -13.2500000       1.09279066E-14
  -13.2399998       8.81863281E-15
  -13.2299995       4.06862535E-15
  -13.2200003      -2.53535278E-15
  -13.2100000      -9.59936849E-15
  -13.1999998      -1.53937007E-14
  -13.1899996      -1.82524640E-14
  -13.1800003      -1.70142339E-14
  -13.1700001      -1.13934808E-14
  -13.1599998      -2.17588216E-15
  -13.1499996       8.83705916E-15
  -13.1400003       1.91527041E-14
  -13.1300001       2.61316034E-14
  -13.1199999       2.76383429E-14
  -13.1099997       2.26441756E-14
  -13.1000004       1.16203273E-14
  -13.0900002      -3.40392133E-15
  -13.0799999      -1.91725230E-14
  -13.0699997      -3.18837906E-14
  -13.0600004      -3.80866874E-14
  -13.0500002      -3.55879300E-14
  -13.0400000      -2.41400578E-14
  -13.0299997      -5.71141018E-15
  -13.0200005       1.57761547E-14
  -13.0100002       3.52321220E-14
  -13.0000000       4.75610897E-14
  -12.9899998       4.89504779E-14
  -12.9799995       3.79686754E-14
  -12.9700003       1.61752596E-14
  -12.9600000      -1.19622092E-14
  -12.9499998      -3.98960379E-14
  -12.9399996      -6.04393448E-14
  -12.9300003      -6.75193408E-14
  -12.9200001      -5.78329702E-14
  -12.9099998      -3.19767508E-14
  -12.8999996       5.28798519E-15
  -12.8900003       4.57907062E-14
  -12.8800001       7.96433503E-14
  -12.8699999       9.75398622E-14
  -12.8599997       9.31492839E-14
  -12.8500004       6.50138241E-14
  -12.8400002       1.74275335E-14
  -12.8299999      -4.00255526E-14
  -12.8199997      -9.42936389E-14
  -12.8100004      -1.31722568E-13
  -12.8000002      -1.41358781E-13
  -12.7900000      -1.17915944E-13
  -12.7799997      -6.36445988E-14
  -12.7700005       1.14607615E-14
  -12.7600002       9.13243819E-14
  -12.7500000       1.57090608E-13
  -12.7399998       1.91412045E-13
  -12.7299995       1.82775642E-13
  -12.7200003       1.28824523E-13
  -12.7100000       3.77886131E-14
  -12.6999998      -7.24820255E-14
  -12.6899996      -1.77853568E-13
  -12.6800003      -2.53016900E-13
  -12.6700001      -2.77301538E-13
  -12.6599998      -2.39877237E-13
  -12.6499996      -1.43072633E-13
  -12.6400003      -2.89174105E-15
  -12.6300001       1.53597851E-13
  -12.6199999       2.93616693E-13
  -12.6099997       3.85708772E-13
  -12.6000004       4.06940025E-13
  -12.5900002       3.48602576E-13
  -12.5799999       2.19014978E-13
  -12.5699997       4.25982220E-14
  -12.5600004      -1.44769288E-13
  -12.5500002      -3.03245330E-13
  -12.5400000      -3.97776809E-13
  -12.5299997      -4.06141402E-13
  -12.5200005      -3.24368001E-13
  -12.5100002      -1.68150595E-13
  -12.5000000       3.02513921E-14
  -12.4899998       2.29073677E-13
  -12.4799995       3.86528293E-13
  -12.4700003       4.70491051E-13
  -12.4600000       4.66000448E-13
  -12.4499998       3.78567403E-13
  -12.4399996       2.32205477E-13
  -12.4300003       6.23302611E-14
  -12.4200001      -9.50279555E-14
  -12.4099998      -2.15233945E-13
  -12.3999996      -2.95320626E-13
  -12.3900003      -3.59753460E-13
  -12.3800001      -4.59809057E-13
  -12.3699999      -6.66097548E-13
  -12.3599997      -1.05536662E-12
  -12.3500004      -1.69417106E-12
  -12.3400002      -2.62291859E-12
  -12.3299999      -3.84389439E-12
  -12.3199997      -5.31616981E-12
  -12.3100004      -6.95881720E-12
  -12.3000002      -8.66203463E-12
  -12.2900000      -1.03039088E-11
  -12.2799997      -1.17692314E-11
  -12.2700005      -1.29662713E-11
  -12.2600002      -1.38378085E-11
  -12.2500000      -1.43640646E-11
  -12.2399998      -1.45571315E-11
  -12.2299995      -1.44484633E-11
  -12.2200003      -1.40727013E-11
  -12.2100000      -1.34519522E-11
  -12.1999998      -1.25845358E-11
  -12.1899996      -1.14410573E-11
  -12.1800003      -9.96889550E-12
  -12.1700001      -8.10408338E-12
  -12.1599998      -5.78770452E-12
  -12.1499996      -2.98289431E-12
  -12.1400003       3.11713871E-13
  -12.1300001       4.05537626E-12
  -12.1199999       8.16702608E-12
  -12.1099997       1.25351101E-11
  -12.1000004       1.70331770E-11
  -12.0900002       2.15376415E-11
  -12.0799999       2.59437333E-11
  -12.0699997       3.01761532E-11
  -12.0600004       3.41922810E-11
  -12.0500002       3.79778015E-11
  -12.0400000       4.15360142E-11
  -12.0299997       4.48740073E-11
  -12.0200005       4.79889843E-11
  -12.0100002       5.08581892E-11
  -12.0000000       5.34346907E-11
  -11.9899998       5.56496758E-11
  -11.9799995       5.74204989E-11
  -11.9700003       5.86621723E-11
  -11.9600000       5.92991975E-11
  -11.9499998       5.92751542E-11
  -11.9399996       5.85573326E-11
  -11.9300003       5.71358898E-11
  -11.9200001       5.50180353E-11
  -11.9099998       5.22189895E-11
  -11.8999996       4.87525471E-11
  -11.8900003       4.46239608E-11
  -11.8800001       3.98273463E-11
  -11.8699999       3.43484477E-11
  -11.8599997       2.81725129E-11
  -11.8500004       2.12947073E-11
  -11.8400002       1.37309738E-11
  -11.8299999       5.52565676E-12
  -11.8199997      -3.24618132E-12
  -11.8100004      -1.24833789E-11
  -11.8000002      -2.20693411E-11
  -11.7900000      -3.18867363E-11
  -11.7799997      -4.18329364E-11
  -11.7700005      -5.18321011E-11
  -11.7600002      -6.18406715E-11
  -11.7500000      -7.18443013E-11
  -11.7399998      -8.18462312E-11
  -11.7299995      -9.18494378E-11
  -11.7200003      -1.01836553E-10
  -11.7100000      -1.11752170E-10
  -11.6999998      -1.21492580E-10
  -11.6899996      -1.30905800E-10
  -11.6800003      -1.39802614E-10
  -11.6700001      -1.47977297E-10
  -11.6599998      -1.55232951E-10
  -11.6499996      -1.61406569E-10
  -11.6400003      -1.66387334E-10
  -11.6300001      -1.70124276E-10
  -11.6199999      -1.72620904E-10
  -11.6099997      -1.73918102E-10
  -11.6000004      -1.74069051E-10
  -11.5900002      -1.73113190E-10
  -11.5799999      -1.71053796E-10
  -11.5699997      -1.67846639E-10
  -11.5600004      -1.63401584E-10
  -11.5500002      -1.57596228E-10
  -11.5400000      -1.50299717E-10
  -11.5299997      -1.41399170E-10
  -11.5200005      -1.30823560E-10
  -11.5100002      -1.18558746E-10
  -11.5000000      -1.04650226E-10
  -11.4899998      -8.91943394E-11
  -11.4799995      -7.23198237E-11
  -11.4700003      -5.41660466E-11
  -11.4600000      -3.48625122E-11
  -11.4499998      -1.45158399E-11
  -11.4399996       6.79396036E-12
  -11.4300003       2.90069774E-11
  -11.4200001       5.20709031E-11
  -11.4099998       7.59259669E-11
  -11.3999996       1.00493364E-10
  -11.3900003       1.25670779E-10
  -11.3800001       1.51336929E-10
  -11.3699999       1.77364942E-10
  -11.3599997       2.03639952E-10
  -11.3500004       2.30078401E-10
  -11.3400002       2.56642263E-10
  -11.3299999       2.83345181E-10
  -11.3199997       3.10249021E-10
  -11.3100004       3.37451039E-10
  -11.3000002       3.65064062E-10
  -11.2900000       3.93194144E-10
  -11.2799997       4.21919027E-10
  -11.2700005       4.51271021E-10
  -11.2600002       4.81226836E-10
  -11.2500000       5.11705067E-10
  -11.2399998       5.42569767E-10
  -11.2299995       5.73641579E-10
  -11.2200003       6.04712558E-10
  -11.2100000       6.35563102E-10
  -11.1999998       6.65982047E-10
  -11.1899996       6.95785318E-10
  -11.1800003       7.24832805E-10
  -11.1700001       7.53040408E-10
  -11.1599998       7.80386811E-10
  -11.1499996       8.06910039E-10
  -11.1400003       8.32695912E-10
  -11.1300001       8.57858895E-10
  -11.1199999       8.82516116E-10
  -11.1099997       9.06760000E-10
  -11.1000004       9.30637956E-10
  -11.0900002       9.54138102E-10
  -11.0799999       9.77189996E-10
  -11.0699997       9.99677674E-10
  -11.0600004       1.02146769E-09
  -11.0500002       1.04243947E-09
  -11.0400000       1.06251608E-09
  -11.0299997       1.08169018E-09
  -11.0200005       1.10003251E-09
  -11.0100002       1.11768572E-09
  -11.0000000       1.13484466E-09
  -10.9899998       1.15172116E-09
  -10.9799995       1.16851107E-09
  -10.9700003       1.18536392E-09
  -10.9600000       1.20236354E-09
  -10.9499998       1.21952437E-09
  -10.9399996       1.23680244E-09
  -10.9300003       1.25411348E-09
  -10.9200001       1.27135613E-09
  -10.9099998       1.28843203E-09
  -10.8999996       1.30525080E-09
  -10.8900003       1.32172662E-09
  -10.8800001       1.33776479E-09
  -10.8699999       1.35324141E-09
  -10.8599997       1.36799305E-09
  -10.8500004       1.38181522E-09
  -10.8400002       1.39447121E-09
  -10.8299999       1.40572298E-09
  -10.8199997       1.41536705E-09
  -10.8100004       1.42327283E-09
  -10.8000002       1.42940315E-09
  -10.7900000       1.43382106E-09
  -10.7799997       1.43667189E-09
  -10.7700005       1.43814383E-09
  -10.7600002       1.43841672E-09
  -10.7500000       1.43761592E-09
  -10.7399998       1.43577727E-09
  -10.7299995       1.43283796E-09
  -10.7200003       1.42866019E-09
  -10.7100000       1.42306655E-09
  -10.6999998       1.41590095E-09
  -10.6899996       1.40707324E-09
  -10.6800003       1.39660250E-09
  -10.6700001       1.38461298E-09
  -10.6599998       1.37131961E-09
  -10.6499996       1.35697520E-09
  -10.6400003       1.34181566E-09
  -10.6300001       1.32600741E-09
  -10.6199999       1.30961353E-09
  -10.6099997       1.29259070E-09
  -10.6000004       1.27481425E-09
  -10.5900002       1.25611754E-09
  -10.5799999       1.23635335E-09
  -10.5699997       1.21543497E-09
  -10.5600004       1.19336729E-09
  -10.5500002       1.17025067E-09
  -10.5400000       1.14626597E-09
  -10.5299997       1.12164222E-09
  -10.5200005       1.09662368E-09
  -10.5100002       1.07144582E-09
  -10.5000000       1.04632658E-09
  -10.4899998       1.02145825E-09
  -10.4799995       9.97031568E-10
  -10.4700003       9.73240599E-10
  -10.4600000       9.50282186E-10
  -10.4499998       9.28341848E-10
  -10.4399996       9.07567244E-10
  -10.4300003       8.88030649E-10
  -10.4200001       8.69702088E-10
  -10.4099998       8.52428572E-10
  -10.3999996       8.35942926E-10
  -10.3900003       8.19905366E-10
  -10.3800001       8.03949018E-10
  -10.3699999       7.87750032E-10
  -10.3599997       7.71073594E-10
  -10.3500004       7.53813623E-10
  -10.3400002       7.35993599E-10
  -10.3299999       7.17748416E-10
  -10.3199997       6.99275693E-10
  -10.3100004       6.80792034E-10
  -10.3000002       6.62474353E-10
  -10.2900000       6.44449660E-10
  -10.2799997       6.26780683E-10
  -10.2700005       6.09479578E-10
  -10.2600002       5.92530913E-10
  -10.2500000       5.75907655E-10
  -10.2399998       5.59580549E-10
  -10.2299995       5.43502854E-10
  -10.2200003       5.27583921E-10
  -10.2100000       5.11666987E-10
  -10.1999998       4.95507024E-10
  -10.1899996       4.78781514E-10
  -10.1800003       4.61127053E-10
  -10.1700001       4.42209436E-10
  -10.1599998       4.21803703E-10
  -10.1499996       3.99876660E-10
  -10.1400003       3.76640025E-10
  -10.1300001       3.52564061E-10
  -10.1199999       3.28344130E-10
  -10.1099997       3.04815506E-10
  -10.1000004       2.82832091E-10
  -10.0900002       2.63151806E-10
  -10.0799999       2.46319909E-10
  -10.0699997       2.32596831E-10
  -10.0600004       2.21939314E-10
  -10.0500002       2.14028809E-10
  -10.0400000       2.08347062E-10
  -10.0299997       2.04273889E-10
  -10.0200005       2.01192840E-10
  -10.0100002       1.98579250E-10
  -10.0000000       1.96072644E-10
  -9.98999977       1.93498675E-10
  -9.97999954       1.90869931E-10
  -9.97000027       1.88354304E-10
  -9.96000004       1.86229962E-10
  -9.94999981       1.84835189E-10
  -9.93999958       1.84516596E-10
  -9.93000031       1.85588850E-10
  -9.92000008       1.88315072E-10
  -9.90999985       1.92887775E-10
  -9.89999962       1.99439340E-10
  -9.89000034       2.08048356E-10
  -9.88000011       2.18758428E-10
  -9.86999989       2.31597186E-10
  -9.85999966       2.46587334E-10
  -9.85000038       2.63748218E-10
  -9.84000015       2.83098739E-10
  -9.82999992       3.04645725E-10
  -9.81999969       3.28379324E-10
  -9.81000042       3.54268004E-10
  -9.80000019       3.82263554E-10
  -9.78999996       4.12312934E-10
  -9.77999973       4.44374149E-10
  -9.77000046       4.78426632E-10
  -9.76000023       5.14465970E-10
  -9.75000000       5.52492163E-10
  -9.73999977       5.92475513E-10
  -9.72999954       6.34314656E-10
  -9.72000027       6.77811252E-10
  -9.71000004       7.22657323E-10
  -9.69999981       7.68450692E-10
  -9.68999958       8.14749823E-10
  -9.68000031       8.61136329E-10
  -9.67000008       9.07292519E-10
  -9.65999985       9.53044643E-10
  -9.64999962       9.98376382E-10
  -9.64000034       1.04338738E-09
  -9.63000011       1.08821541E-09
  -9.61999989       1.13294341E-09
  -9.60999966       1.17751608E-09
  -9.60000038       1.22170063E-09
  -9.59000015       1.26510469E-09
  -9.57999992       1.30724787E-09
  -9.56999969       1.34767597E-09
  -9.56000042       1.38607592E-09
  -9.55000019       1.42235657E-09
  -9.53999996       1.45666990E-09
  -9.52999973       1.48937274E-09
  -9.52000046       1.52092827E-09
  -9.51000023       1.55178992E-09
  -9.50000000       1.58230340E-09
  -9.48999977       1.61264924E-09
  -9.47999954       1.64285840E-09
  -9.47000027       1.67287073E-09
  -9.46000004       1.70261705E-09
  -9.44999981       1.73210757E-09
  -9.43999958       1.76146131E-09
  -9.43000031       1.79089976E-09
  -9.42000008       1.82068538E-09
  -9.40999985       1.85104820E-09
  -9.39999962       1.88212002E-09
  -9.39000034       1.91392080E-09
  -9.38000011       1.94636818E-09
  -9.36999989       1.97934602E-09
  -9.35999966       2.01276462E-09
  -9.35000038       2.04659578E-09
  -9.34000015       2.08085060E-09
  -9.32999992       2.11551043E-09
  -9.31999969       2.15042095E-09
  -9.31000042       2.18519891E-09
  -9.30000019       2.21919372E-09
  -9.28999996       2.25152808E-09
  -9.27999973       2.28122232E-09
  -9.27000046       2.30736585E-09
  -9.26000023       2.32928743E-09
  -9.25000000       2.34666064E-09
  -9.23999977       2.35949904E-09
  -9.22999954       2.36805064E-09
  -9.22000027       2.37260100E-09
  -9.21000004       2.37327358E-09
  -9.19999981       2.36987563E-09
  -9.18999958       2.36186004E-09
  -9.18000031       2.34841391E-09
  -9.17000008       2.32865305E-09
  -9.15999985       2.30184827E-09
  -9.14999962       2.26761521E-09
  -9.14000034       2.22600427E-09
  -9.13000011       2.17744267E-09
  -9.11999989       2.12258144E-09
  -9.10999966       2.06207451E-09
  -9.10000038       1.99639016E-09
  -9.09000015       1.92571936E-09
  -9.07999992       1.84999904E-09
  -9.06999969       1.76907400E-09
  -9.06000042       1.68288594E-09
  -9.05000019       1.59167757E-09
  -9.03999996       1.49606783E-09
  -9.02999973       1.39702028E-09
  -9.02000046       1.29569744E-09
  -9.01000023       1.19324084E-09
  -9.00000000       1.09058296E-09
  -8.98999977       9.88343518E-10
  -8.97999954       8.86871077E-10
  -8.97000027       7.86389898E-10
  -8.96000004       6.87222113E-10
  -8.94999981       5.89990279E-10
  -8.93999958       4.95708863E-10
  -8.93000031       4.05762840E-10
  -8.92000008       3.21745353E-10
  -8.90999985       2.45225562E-10
  -8.89999962       1.77523496E-10
  -8.89000034       1.19571283E-10
  -8.88000011       7.19103943E-11
  -8.86999989       3.48102172E-11
  -8.85999966       8.47479378E-12
  -8.85000038      -6.75683684E-12
  -8.84000015      -1.02761619E-11
  -8.82999992      -1.19171123E-12
  -8.81999969       2.15691510E-11
  -8.81000042       5.90850077E-11
  -8.80000019       1.12263518E-10
  -8.78999996       1.81726245E-10
  -8.77999973       2.67800088E-10
  -8.77000046       3.70598774E-10
  -8.76000023       4.90161911E-10
  -8.75000000       6.26574848E-10
  -8.73999977       7.80036147E-10
  -8.72999954       9.50803769E-10
  -8.72000027       1.13907295E-09
  -8.71000004       1.34481104E-09
  -8.69999981       1.56763902E-09
  -8.68999958       1.80678983E-09
  -8.68000031       2.06119788E-09
  -8.67000008       2.32967312E-09
  -8.65999985       2.61113087E-09
  -8.64999962       2.90476776E-09
  -8.64000034       3.21014881E-09
  -8.63000011       3.52717588E-09
  -8.61999989       3.85592713E-09
  -8.60999966       4.19645962E-09
  -8.60000038       4.54861704E-09
  -8.59000015       4.91191754E-09
  -8.57999992       5.28555955E-09
  -8.56999969       5.66853009E-09
  -8.56000042       6.05976469E-09
  -8.55000019       6.45831699E-09
  -8.53999996       6.86346757E-09
  -8.52999973       7.27474347E-09
  -8.52000046       7.69186226E-09
  -8.51000023       8.11464140E-09
  -8.50000000       8.54289084E-09
  -8.48999977       8.97636099E-09
  -8.47999954       9.41472500E-09
  -8.47000027       9.85762494E-09
  -8.46000004       1.03047073E-08
  -8.44999981       1.07556515E-08
  -8.43999958       1.12101448E-08
  -8.43000031       1.16678303E-08
  -8.42000008       1.21282335E-08
  -8.40999985       1.25907205E-08
  -8.39999962       1.30545192E-08
  -8.39000034       1.35187941E-08
  -8.38000011       1.39827456E-08
  -8.36999989       1.44457291E-08
  -8.35999966       1.49072825E-08
  -8.35000038       1.53671085E-08
  -8.34000015       1.58249343E-08
  -8.32999992       1.62803335E-08
  -8.31999969       1.67325531E-08
  -8.31000042       1.71804064E-08
  -8.30000019       1.76222645E-08
  -8.28999996       1.80561841E-08
  -8.27999973       1.84800655E-08
  -8.27000046       1.88918765E-08
  -8.26000023       1.92897929E-08
  -8.25000000       1.96722496E-08
  -8.23999977       2.00378896E-08
  -8.22999954       2.03854675E-08
  -8.22000027       2.07136797E-08
  -8.21000004       2.10211457E-08
  -8.19999981       2.13064215E-08
  -8.18999958       2.15680789E-08
  -8.18000031       2.18049117E-08
  -8.17000008       2.20160548E-08
  -8.15999985       2.22010641E-08
  -8.14999962       2.23598811E-08
  -8.14000034       2.24926868E-08
  -8.13000011       2.25997034E-08
  -8.11999989       2.26810801E-08
  -8.10999966       2.27367050E-08
  -8.10000038       2.27663417E-08
  -8.09000015       2.27697043E-08
  -8.07999992       2.27466899E-08
  -8.06999969       2.26975292E-08
  -8.06000042       2.26228867E-08
  -8.05000019       2.25237784E-08
  -8.03999996       2.24014443E-08
  -8.02999973       2.22570886E-08
  -8.02000046       2.20917009E-08
  -8.01000023       2.19059260E-08
  -8.00000000       2.17001030E-08
  -7.98999977       2.14744151E-08
  -7.98000002       2.12291020E-08
  -7.96999979       2.09646842E-08
  -7.96000004       2.06820960E-08
  -7.94999981       2.03826804E-08
  -7.94000006       2.00680503E-08
  -7.92999983       1.97399075E-08
  -7.92000008       1.93998506E-08
  -7.90999985       1.90492013E-08
  -7.90000010       1.86889491E-08
  -7.88999987       1.83198292E-08
  -7.88000011       1.79425026E-08
  -7.86999989       1.75577100E-08
  -7.86000013       1.71663856E-08
  -7.84999990       1.67697216E-08
  -7.84000015       1.63691762E-08
  -7.82999992       1.59662985E-08
  -7.82000017       1.55626729E-08
  -7.80999994       1.51598467E-08
  -7.80000019       1.47592365E-08
  -7.78999996       1.43621834E-08
  -7.78000021       1.39700296E-08
  -7.76999998       1.35840708E-08
  -7.76000023       1.32056766E-08
  -7.75000000       1.28362183E-08
  -7.73999977       1.24770674E-08
  -7.73000002       1.21294823E-08
  -7.71999979       1.17946133E-08
  -7.71000004       1.14734640E-08
  -7.69999981       1.11669172E-08
  -7.69000006       1.08757598E-08
  -7.67999983       1.06007629E-08
  -7.67000008       1.03426441E-08
  -7.65999985       1.01021804E-08
  -7.65000010       9.88003190E-09
  -7.63999987       9.67683800E-09
  -7.63000011       9.49315826E-09
  -7.61999989       9.32945010E-09
  -7.61000013       9.18612830E-09
  -7.59999990       9.06356235E-09
  -7.59000015       8.96204355E-09
  -7.57999992       8.88174334E-09
  -7.57000017       8.82266882E-09
  -7.55999994       8.78464235E-09
  -7.55000019       8.76724648E-09
  -7.53999996       8.76981598E-09
  -7.53000021       8.79164563E-09
  -7.51999998       8.83209417E-09
  -7.51000023       8.89073526E-09
  -7.50000000       8.96742058E-09
  -7.48999977       9.06230291E-09
  -7.48000002       9.17568510E-09
  -7.46999979       9.30784960E-09
  -7.46000004       9.45878131E-09
  -7.44999981       9.62800506E-09
  -7.44000006       9.81454740E-09