 -0.5000000        1.0000000E-24
 -0.4500000        1.0000000E-24
 -0.4000000        1.0000001E-24
 -0.3500000        1.0000001E-24
 -0.3000000        1.0000001E-24
 -0.2500000       -1.1925829E-15
 -0.2000000       -1.7613118E-14
 -0.1500000       -1.5394989E-13
 -0.1000000       -1.0280007E-12
 -5.0000001E-02   -5.6387096E-12
  0.0000000E+00   -2.5935618E-11
  5.0000001E-02   -1.0042395E-10
  0.1000000       -3.2607647E-10
  0.1500000       -8.7587487E-10
  0.2000000       -1.8766324E-09
  0.2500000       -2.8590146E-09
  0.3000000       -1.4018846E-09
  0.3500000        9.0679091E-09
  0.4000000        4.1181313E-08
  0.4500000        1.1216577E-07
  0.5000000        2.3450905E-07
  0.5500000        3.9575784E-07
  0.6000000        5.3116372E-07
  0.6500000        5.0408732E-07
  0.7000000        1.1894623E-07
  0.7500000       -8.0990151E-07
  0.8000000       -2.3310520E-06
  0.8500000       -4.2078718E-06
  0.9000000       -5.8275723E-06
  0.9500000       -6.2608660E-06
   1.000000       -4.5295301E-06
   1.050000       -4.9761500E-08
   1.100000        6.8925606E-06
   1.150000        1.4855526E-05
   1.200000        2.1351791E-05
   1.250000        2.3442582E-05
   1.300000        1.8708839E-05
   1.350000        6.3103112E-06
   1.400000       -1.2244019E-05
   1.450000       -3.2940959E-05
   1.500000       -4.9885068E-05
   1.550000       -5.6647019E-05
   1.600000       -4.8096503E-05
   1.650000       -2.2334374E-05
   1.700000        1.7765347E-05
   1.750000        6.3958709E-05
   1.800000        1.0350552E-04
   1.850000        1.2180483E-04
   1.900000        1.0656834E-04
   1.950000        5.2588868E-05
   2.000000       -3.4472865E-05
   2.050000       -1.3699847E-04
   2.100000       -2.2809170E-04
   2.150000       -2.7777598E-04
   2.200000       -2.6101546E-04
   2.250000       -1.6509896E-04
   2.300000        5.6503650E-06
   2.350000        2.2846625E-04
   2.400000        4.6325478E-04
   2.450000        6.5526308E-04
   2.500000        7.3983305E-04
   2.550000        6.5201364E-04
   2.600000        3.4452387E-04
   2.650000       -1.8548081E-04
   2.700000       -8.6752023E-04
   2.750000       -1.5417639E-03
   2.800000       -1.9746483E-03
   2.850000       -1.9185618E-03
   2.900000       -1.2098647E-03
   2.950000        1.2503962E-04
   3.000000        1.8049108E-03
   3.050000        3.3193028E-03
   3.100000        4.0668147E-03
   3.150000        3.5794044E-03
   3.200000        1.7548604E-03
   3.250000       -1.0079320E-03
   3.300000       -3.8585283E-03
   3.350000       -5.7510962E-03
   3.400000       -5.8368989E-03
   3.450000       -3.8447520E-03
   3.500000       -2.7866577E-04
   3.550000        3.6834183E-03
   3.600000        6.5878350E-03
   3.650000        7.2641405E-03
   3.700000        5.3204182E-03
   3.750000        1.3558590E-03
   3.800000       -3.2223454E-03
   3.850000       -6.7244996E-03
   3.900000       -7.8397356E-03
   3.950000       -6.1584958E-03
   4.000000       -2.3339416E-03
   4.050000        2.1869023E-03
   4.100000        5.7462524E-03
   4.150000        7.1239737E-03
   4.200000        5.9818956E-03
   4.250000        2.9331043E-03
   4.300000       -7.6648069E-04
   4.350000       -3.7487478E-03
   4.400000       -5.0529693E-03
   4.450000       -4.4312109E-03
   4.500000       -2.3494076E-03
   4.550000        2.7152660E-04
   4.600000        2.4367326E-03
   4.650000        3.4238873E-03
   4.700000        2.9858632E-03
   4.750000        1.3761774E-03
   4.800000       -7.7347190E-04
   4.850000       -2.6661633E-03
   4.900000       -3.5860920E-03
   4.950000       -3.1283433E-03
   5.000000       -1.3603350E-03
   5.050000        1.1433143E-03
   5.100000        3.4401913E-03
   5.150000        4.5341584E-03
   5.200000        3.7845864E-03
   5.250000        1.2541182E-03
   5.300000       -2.1842774E-03
   5.350000       -5.0925286E-03
   5.400000       -6.0280222E-03
   5.450000       -4.2147324E-03
   5.500000       -2.1178110E-05
   5.550000        5.0202180E-03
   5.600000        8.7370770E-03
   5.650000        9.2169819E-03
   5.700000        5.7118949E-03
   5.750000       -8.7169930E-04
   5.800000       -8.1663877E-03
   5.850000       -1.3200576E-02
   5.900000       -1.3596365E-02
   5.950000       -8.6150970E-03
   6.000000        4.0043847E-04
   6.050000        1.0397601E-02
   6.100000        1.7677536E-02
   6.150000        1.9250879E-02
   6.200000        1.3975806E-02
   6.250000        3.0617118E-03
   6.300000       -1.0235728E-02
   6.350000       -2.1617167E-02
   6.400000       -2.7106898E-02
   6.450000       -2.4355536E-02
   6.500000       -1.3484716E-02
   6.550000        2.7845823E-03
   6.600000        1.9788897E-02
   6.650000        3.2226987E-02
   6.700000        3.5784531E-02
   6.750000        2.8615152E-02
   6.800000        1.2184140E-02
   6.850000       -8.8962512E-03
   6.900000       -2.8127300E-02
   6.950000       -3.9183877E-02
   7.000000       -3.8126573E-02
   7.050000       -2.4958817E-02
   7.100000       -3.8665147E-03
   7.150000        1.8079391E-02
   7.200000        3.3382379E-02
   7.250000        3.6862120E-02
   7.300000        2.7616972E-02
   7.350000        9.3978122E-03
   7.400000       -1.0806995E-02
   7.450000       -2.5452733E-02
   7.500000       -2.9335015E-02
   7.550000       -2.1550983E-02
   7.600000       -5.7510906E-03
   7.650000        1.1397070E-02
   7.700000        2.2892995E-02
   7.750000        2.4153501E-02
   7.800000        1.4753414E-02
   7.850000       -1.4862744E-03
   7.900000       -1.8042700E-02
   7.950000       -2.8228413E-02
   8.000000       -2.7740428E-02
   8.050000       -1.6281165E-02
   8.100000        2.3114185E-03
   8.150000        2.1436473E-02
   8.200000        3.4094993E-02
   8.250000        3.5410717E-02
   8.300000        2.4432337E-02
   8.350000        4.5868899E-03
   8.400000       -1.7399659E-02
   8.450000       -3.3785775E-02
   8.500000       -3.8549490E-02
   8.550000       -2.9629257E-02
   8.600000       -9.8427534E-03
   8.650000        1.3923653E-02
   8.700000        3.3059057E-02
   8.750000        4.0328287E-02
   8.800000        3.2614220E-02
   8.850000        1.2251615E-02
   8.900000       -1.3623309E-02
   8.950000       -3.5553832E-02
   9.000000       -4.5210026E-02
   9.050000       -3.8532268E-02
   9.100000       -1.7374668E-02
   9.150000        1.1007721E-02
   9.200000        3.6481228E-02
   9.250000        4.9663842E-02
   9.300000        4.5345474E-02
   9.350000        2.4456458E-02
   9.400000       -6.1284583E-03
   9.450000       -3.5888087E-02
   9.500000       -5.4257207E-02
   9.550000       -5.4294825E-02
   9.600000       -3.5168760E-02
   9.650000       -2.6097824E-03
   9.700000        3.2840174E-02
   9.750000        5.9240922E-02
   9.800000        6.7234881E-02
   9.850000        5.3293101E-02
   9.900000        2.1122461E-02
   9.950000       -1.9308835E-02
   10.00000       -5.4902274E-02
   10.05000       -7.3751763E-02
   10.10000       -6.9231085E-02
   10.15000       -4.2419236E-02
   10.20000       -1.9415924E-03
   10.25000        3.8824689E-02
   10.30000        6.6286869E-02
   10.35000        7.1349159E-02
   10.40000        5.2612539E-02
   10.45000        1.6876347E-02
   10.50000       -2.3277696E-02
   10.55000       -5.3963613E-02
   10.60000       -6.4905532E-02
   10.65000       -5.2997813E-02
   10.70000       -2.3230491E-02
   10.75000        1.3312980E-02
   10.80000        4.3594189E-02
   10.85000        5.7335325E-02
   10.90000        5.0582137E-02
   10.95000        2.6857898E-02
   11.00000       -4.4289068E-03
   11.05000       -3.1649511E-02
   11.10000       -4.5287773E-02
   11.15000       -4.1338604E-02
   11.20000       -2.2556743E-02
   11.25000        2.8441530E-03
   11.30000        2.4500189E-02
   11.35000        3.3941187E-02
   11.40000        2.7837064E-02
   11.45000        9.2180194E-03
   11.50000       -1.3796929E-02
   11.55000       -3.1278916E-02
   11.60000       -3.5507601E-02
   11.65000       -2.4147194E-02
   11.70000       -1.2964382E-03
   11.75000        2.4052612E-02
   11.80000        4.1578136E-02
   11.85000        4.3807875E-02
   11.90000        2.9220408E-02
   11.95000        2.9807177E-03
   12.00000       -2.5024651E-02
   12.05000       -4.4074811E-02
   12.10000       -4.6844989E-02
   12.15000       -3.2260060E-02
   12.20000       -5.8353115E-03
   12.25000        2.2575594E-02
   12.30000        4.2640746E-02
   12.35000        4.7419671E-02
   12.40000        3.5729308E-02
   12.45000        1.2203098E-02
   12.50000       -1.4773993E-02
   12.55000       -3.6259167E-02
   12.60000       -4.5771111E-02
   12.65000       -4.1096415E-02
   12.70000       -2.4478503E-02
   12.75000       -1.4444599E-03
   12.80000        2.1082371E-02
   12.85000        3.6712624E-02
   12.90000        4.1125957E-02
   12.95000        3.3041108E-02
   13.00000        1.4579643E-02
   13.05000       -9.0453019E-03
   13.10000       -3.0630058E-02
   13.15000       -4.2876370E-02
   13.20000       -4.0762149E-02
   13.25000       -2.3659581E-02
   13.30000        3.7409493E-03
   13.35000        3.2417297E-02
   13.40000        5.1928971E-02
   13.45000        5.4360036E-02
   13.50000        3.7721921E-02
   13.55000        7.2351396E-03
   13.60000       -2.6316229E-02
   13.65000       -5.0687782E-02
   13.70000       -5.7083208E-02
   13.75000       -4.3734536E-02
   13.80000       -1.6538821E-02
   13.85000        1.3549541E-02
   13.90000        3.5183616E-02
   13.95000        4.1231465E-02
   14.00000        3.1305626E-02
   14.05000        1.1246722E-02
   14.10000       -9.9458434E-03
   14.15000       -2.4119748E-02
   14.20000       -2.7047109E-02
   14.25000       -1.9384729E-02
   14.30000       -5.4912632E-03
   14.35000        8.9337956E-03
   14.40000        1.9099565E-02
   14.45000        2.2377152E-02
   14.50000        1.8442873E-02
   14.55000        8.7997010E-03
   14.60000       -3.7506646E-03
   14.65000       -1.5499452E-02
   14.70000       -2.2368247E-02
   14.75000       -2.0980868E-02
   14.80000       -1.0243373E-02
   14.85000        7.2644367E-03
   14.90000        2.5168888E-02
   14.95000        3.5198685E-02
   15.00000        3.0790316E-02
   15.05000        1.0872848E-02
   15.10000       -1.8291345E-02
   15.15000       -4.4741906E-02
   15.20000       -5.5792142E-02
   15.25000       -4.4260651E-02
   15.30000       -1.2809710E-02
   15.35000        2.6199453E-02
   15.40000        5.5812795E-02
   15.45000        6.2389065E-02
   15.50000        4.2421598E-02
   15.55000        4.6563530E-03
   15.60000       -3.3845041E-02
   15.65000       -5.5896550E-02
   15.70000       -5.2500591E-02
   15.75000       -2.6977366E-02
   15.80000        7.2239162E-03
   15.85000        3.3788171E-02
   15.90000        4.1900575E-02
   15.95000        3.1207161E-02
   16.00000        1.0837523E-02
   16.05000       -6.6638300E-03
   16.10000       -1.2801295E-02
   16.15000       -7.6126563E-03
   16.20000        1.3206321E-03
   16.25000        4.5087095E-03
   16.30000       -2.7874066E-03
   16.35000       -1.7083967E-02
   16.40000       -2.8623918E-02
   16.45000       -2.7616076E-02
   16.50000       -1.0916530E-02
   16.55000        1.5086963E-02
   16.60000        3.7406091E-02
   16.65000        4.3686073E-02
   16.70000        2.9521625E-02
   16.75000        1.4280124E-03
   16.80000       -2.6471503E-02
   16.85000       -4.0248178E-02
   16.90000       -3.3933442E-02
   16.95000       -1.2669701E-02
   17.00000        1.0617928E-02
   17.05000        2.3018129E-02
   17.10000        1.9193267E-02
   17.15000        4.1457242E-03
   17.20000       -1.0431206E-02
   17.25000       -1.3887371E-02
   17.30000       -3.5623726E-03
   17.35000        1.3461036E-02
   17.40000        2.4968024E-02
   17.45000        2.1726942E-02
   17.50000        3.9359769E-03
   17.55000       -1.8261185E-02
   17.60000       -3.0797483E-02
   17.65000       -2.4668641E-02
   17.70000       -2.2326221E-03
   17.75000        2.3401715E-02
   17.80000        3.5940088E-02
   17.85000        2.6045505E-02
   17.90000       -2.2052547E-03
   17.95000       -3.2859687E-02
   18.00000       -4.7168292E-02
   18.05000       -3.5015896E-02
   18.10000       -1.7584412E-03
   18.15000        3.4028899E-02
   18.20000        5.1033579E-02
   18.25000        3.7966657E-02
   18.30000        9.5781754E-04
   18.35000       -3.9168794E-02
   18.40000       -5.8580600E-02
   18.45000       -4.4467974E-02
   18.50000       -3.1227856E-03
   18.55000        4.2982455E-02
   18.60000        6.7767061E-02
   18.65000        5.6625854E-02
   18.70000        1.5186626E-02
   18.75000       -3.3569869E-02
   18.80000       -6.2367707E-02
   18.85000       -5.5366997E-02
   18.90000       -1.7363733E-02
   18.95000        2.9012421E-02
   19.00000        5.6544982E-02
   19.05000        4.9381718E-02
   19.10000        1.2299445E-02
   19.15000       -3.2200549E-02
   19.20000       -5.7267442E-02
   19.25000       -4.7643404E-02
   19.30000       -8.7407334E-03
   19.35000        3.6513414E-02
   19.40000        6.1182044E-02
   19.45000        5.0171971E-02
   19.50000        9.0837535E-03
   19.55000       -3.9095055E-02
   19.60000       -6.7388445E-02
   19.65000       -6.0340136E-02
   19.70000       -2.2537613E-02
   19.75000        2.4649454E-02
   19.80000        5.5865340E-02
   19.85000        5.6293432E-02
   19.90000        2.9339239E-02
   19.95000       -6.7282557E-03
   20.00000       -3.0625807E-02
   20.05000       -3.0856818E-02
   20.10000       -1.1680883E-02
   20.15000        1.1013845E-02
   20.20000        2.0828616E-02
   20.25000        1.1617368E-02
   20.30000       -8.9639835E-03
   20.35000       -2.5175812E-02
   20.40000       -2.4216628E-02
   20.45000       -5.1941290E-03
   20.50000        1.9926555E-02
   20.55000        3.4112964E-02
   20.60000        2.6753539E-02
   20.65000        1.2632639E-03
   20.70000       -2.6411071E-02
   20.75000       -3.7773255E-02
   20.80000       -2.4029912E-02
   20.85000        7.3563769E-03
   20.90000        3.6429651E-02
   20.95000        4.2961843E-02
   21.00000        1.9717271E-02
   21.05000       -2.1715667E-02
   21.10000       -5.6714509E-02
   21.15000       -6.2089272E-02
   21.20000       -3.0676391E-02
   21.25000        2.2996744E-02
   21.30000        6.9940791E-02
   21.35000        8.3055049E-02
   21.40000        5.3126533E-02
   21.45000       -5.1087220E-03
   21.50000       -6.0736794E-02
   21.55000       -8.3993278E-02
   21.60000       -6.3116431E-02
   21.65000       -1.0864519E-02
   21.70000        4.3108020E-02
   21.75000        6.9473512E-02
   21.80000        5.5872530E-02
   21.85000        1.3245428E-02
   21.90000       -3.1624261E-02
   21.95000       -5.2576624E-02
   22.00000       -3.9498951E-02
   22.05000       -3.5083243E-03
   22.10000        3.0910064E-02
   22.15000        4.1633122E-02
   22.20000        2.2639286E-02
   22.25000       -1.2672060E-02
   22.30000       -4.0422861E-02
   22.35000       -4.1672081E-02
   22.40000       -1.4563891E-02
   22.45000        2.4396438E-02
   22.50000        5.0691988E-02
   22.55000        4.7242187E-02
   22.60000        1.5247263E-02
   22.65000       -2.6379663E-02
   22.70000       -5.2658364E-02
   22.75000       -4.8000377E-02
   22.80000       -1.5825784E-02
   22.85000        2.3672631E-02
   22.90000        4.6218213E-02
   22.95000        3.8643889E-02
   23.00000        7.0541548E-03
   23.05000       -2.7194038E-02
   23.10000       -4.1199457E-02
   23.15000       -2.5296055E-02
   23.20000        1.0470732E-02
   23.25000        4.2410925E-02
   23.30000        4.8174314E-02
   23.35000        2.1328958E-02
   23.40000       -2.3721009E-02
   23.45000       -5.9859999E-02
   23.50000       -6.3712113E-02
   23.55000       -3.0391565E-02
   23.60000        2.2654995E-02
   23.65000        6.5384343E-02
   23.70000        7.2840348E-02
   23.75000        4.0181719E-02
   23.80000       -1.4100939E-02
   23.85000       -5.8879148E-02
   23.90000       -6.8692513E-02
   23.95000       -3.8730372E-02
   24.00000        1.2482138E-02
   24.05000        5.4274678E-02
   24.10000        6.2139861E-02
   24.15000        3.2162145E-02
   24.20000       -1.7016971E-02
   24.25000       -5.5714842E-02
   24.30000       -6.1113559E-02
   24.35000       -3.0721212E-02
   24.40000        1.6608343E-02
   24.45000        5.2470881E-02
   24.50000        5.6166288E-02
   24.55000        2.6901482E-02
   24.60000       -1.6307700E-02
   24.65000       -4.6693496E-02
   24.70000       -4.6172500E-02
   24.75000       -1.6090289E-02
   24.80000        2.4115393E-02
   24.85000        4.9230844E-02
   24.90000        4.3799274E-02
   24.95000        1.1326358E-02
   25.00000       -2.8301733E-02
   25.05000       -5.1319115E-02
   25.10000       -4.4613201E-02
   25.15000       -1.3354571E-02
   25.20000        2.2757391E-02
   25.25000        4.2015407E-02
   25.30000        3.4054656E-02
   25.35000        5.7903272E-03
   25.40000       -2.3515029E-02
   25.45000       -3.4704898E-02
   25.50000       -2.0776305E-02
   25.55000        8.9679724E-03
   25.60000        3.5077959E-02
   25.65000        4.0374409E-02
   25.70000        2.0757969E-02
   25.75000       -1.2306950E-02
   25.80000       -3.9042998E-02
   25.85000       -4.3672074E-02
   25.90000       -2.4054255E-02
   25.95000        7.2751758E-03
   26.00000        3.1143604E-02
   26.05000        3.3685751E-02
   26.10000        1.4712766E-02
   26.15000       -1.2593346E-02
   26.20000       -3.0259645E-02
   26.25000       -2.6850186E-02
   26.30000       -4.4449046E-03
   26.35000        2.2947308E-02
   26.40000        3.8327437E-02
   26.45000        3.2250606E-02
   26.50000        8.3991643E-03
   26.55000       -1.9100446E-02
   26.60000       -3.4661207E-02
   26.65000       -3.0710997E-02
   26.70000       -1.1763562E-02
   26.75000        9.1958195E-03
   26.80000        1.9368380E-02
   26.85000        1.4131010E-02
   26.90000       -6.8247720E-04
   26.95000       -1.3376457E-02
   27.00000       -1.4548536E-02
   27.05000       -3.3017755E-03
   27.10000        1.2516759E-02
   27.15000        2.2000173E-02
   27.20000        1.8782379E-02
   27.25000        5.3357435E-03
   27.30000       -8.9443708E-03
   27.35000       -1.4509190E-02
   27.40000       -8.5624587E-03
   27.45000        2.7833728E-03
   27.50000        8.7975366E-03
   27.55000        2.1071844E-03
   27.60000       -1.5131183E-02
   27.65000       -3.1432413E-02
   27.70000       -3.3007417E-02
   27.75000       -1.3378571E-02
   27.80000        2.0779368E-02
   27.85000        5.1939707E-02
   27.90000        6.1480440E-02
   27.95000        4.1248143E-02
   28.00000       -3.4455198E-04
   28.05000       -4.1994892E-02
   28.10000       -6.1355434E-02
   28.15000       -4.8207104E-02
   28.20000       -1.0912613E-02
   28.25000        2.8117143E-02
   28.30000        4.5600362E-02
   28.35000        3.1439807E-02
   28.40000       -4.9189874E-03
   28.45000       -3.9938129E-02
   28.50000       -5.0219785E-02
   28.55000       -2.7019555E-02
   28.60000        1.7846478E-02
   28.65000        5.8523282E-02
   28.70000        7.0367798E-02
   28.75000        4.4825725E-02
   28.80000       -5.0987806E-03
   28.85000       -5.2220959E-02
   28.90000       -7.1073413E-02
   28.95000       -5.2786294E-02
   29.00000       -9.9778567E-03
   29.05000        3.1266320E-02
   29.10000        4.7381178E-02
   29.15000        3.1469159E-02
   29.20000       -3.0525918E-03
   29.25000       -3.1474315E-02
   29.30000       -3.3800948E-02
   29.35000       -7.6960931E-03
   29.40000        2.9823184E-02
   29.45000        5.3133793E-02
   29.50000        4.4563193E-02
   29.55000        6.3338266E-03
   29.60000       -3.9843831E-02
   29.65000       -6.5671556E-02
   29.70000       -5.3927720E-02
   29.75000       -9.9259019E-03
   29.80000        4.0679529E-02
   29.85000        6.6916540E-02
   29.90000        5.1505502E-02
   29.95000        2.2196730E-03
   30.00000       -5.1738288E-02
   30.05000       -7.6720312E-02
   30.10000       -5.5099573E-02
   30.15000        3.1427233E-03
   30.20000        6.5108739E-02
   30.25000        9.3743905E-02
   30.30000        6.9889612E-02
   30.35000        4.5209522E-03
   30.40000       -6.6477008E-02
   30.45000       -0.1024657    
   30.50000       -8.1683032E-02
   30.55000       -1.4534699E-02
   30.60000        6.1517194E-02
   30.65000        0.1029284    
   30.70000        8.5059844E-02
   30.75000        1.6783163E-02
   30.80000       -6.3899599E-02
   30.85000       -0.1109898    
   30.90000       -9.6493922E-02
   30.95000       -2.6526606E-02
   31.00000        6.1687600E-02
   31.05000        0.1202909    
   31.10000        0.1172401    
   31.15000        5.3899661E-02
   31.20000       -3.5957389E-02
   31.25000       -0.1049673    
   31.30000       -0.1181031    
   31.35000       -7.1249552E-02
   31.40000        7.6317713E-03
   31.45000        7.4885584E-02
   31.50000        9.5512122E-02
   31.55000        6.1799243E-02
   31.60000       -3.8000396E-03
   31.65000       -6.2489532E-02
   31.70000       -8.1322663E-02
   31.75000       -5.1156867E-02
   31.80000        9.3462691E-03
   31.85000        6.5240651E-02
   31.90000        8.5259512E-02
   31.95000        5.8836609E-02
   32.00000        9.9391351E-04
   32.05000       -5.6943726E-02
   32.10000       -8.4965765E-02
   32.15000       -7.0269793E-02
   32.20000       -2.2938786E-02
   32.25000        3.0972974E-02
   32.30000        6.4313799E-02
   32.35000        6.3060805E-02
   32.40000        3.2318898E-02
   32.45000       -8.3945617E-03
   32.50000       -3.7030555E-02
   32.55000       -4.0933877E-02
   32.60000       -2.2351749E-02
   32.65000        4.7753998E-03
   32.70000        2.4004238E-02
   32.75000        2.5797499E-02
   32.80000        1.1885035E-02
   32.85000       -7.2816731E-03
   32.90000       -1.9724490E-02
   32.95000       -1.9112159E-02
   33.00000       -7.7531836E-03
   33.05000        5.8811950E-03
   33.10000        1.3045818E-02
   33.15000        1.0139233E-02
   33.20000        4.0946939E-04
   33.25000       -8.7650726E-03
   33.30000       -1.0973132E-02
   33.35000       -4.8837578E-03
   33.40000        5.1602190E-03
   33.45000        1.2262418E-02
   33.50000        1.1654763E-02
   33.55000        3.8767650E-03
   33.60000       -5.5827470E-03
   33.65000       -9.9377604E-03
   33.70000       -5.7106945E-03
   33.75000        4.6740994E-03
   33.80000        1.4054928E-02
   33.85000        1.4884727E-02
   33.90000        4.1920766E-03
   33.95000       -1.3907105E-02
   34.00000       -2.9849438E-02
   34.05000       -3.3704199E-02
   34.10000       -2.0918081E-02
   34.15000        4.5545409E-03
   34.20000        3.1643666E-02
   34.25000        4.7501396E-02
   34.30000        4.4009846E-02
   34.35000        2.2004638E-02
   34.40000       -9.0262573E-03
   34.45000       -3.5586830E-02
   34.50000       -4.6695720E-02
   34.55000       -3.8915034E-02
   34.60000       -1.7428281E-02
   34.65000        7.1208631E-03
   34.70000        2.4123948E-02
   34.75000        2.7893126E-02
   34.80000        1.9583270E-02
   34.85000        5.5679427E-03
   34.90000       -6.4287190E-03
   34.95000       -1.1176696E-02
   35.00000       -7.8676818E-03
   35.05000        4.3818128E-04
   35.10000        9.0099946E-03
   35.15000        1.3794091E-02
   35.20000        1.2757424E-02
   35.25000        6.0043810E-03
   35.30000       -4.7584190E-03
   35.35000       -1.6708227E-02
   35.40000       -2.6161946E-02
   35.45000       -2.9050561E-02
   35.50000       -2.2172762E-02
   35.55000       -5.1611145E-03
   35.60000        1.7861020E-02
   35.65000        3.8436614E-02
   35.70000        4.6647690E-02
   35.75000        3.6013532E-02
   35.80000        8.0377506E-03
   35.85000       -2.6548075E-02
   35.90000       -5.1544275E-02
   35.95000       -5.3045884E-02
   36.00000       -2.7500140E-02
   36.05000        1.4619633E-02
   36.10000        5.2474171E-02
   36.15000        6.4961448E-02
   36.20000        4.2422418E-02
   36.25000       -6.5581300E-03
   36.30000       -5.7806164E-02
   36.35000       -8.3315939E-02
   36.40000       -6.6449597E-02
   36.45000       -1.2299575E-02
   36.50000        5.3152230E-02
   36.55000        9.5646411E-02
   36.60000        9.0920545E-02
   36.65000        3.8790431E-02
   36.70000       -3.5208575E-02
   36.75000       -9.2400253E-02
   36.80000       -0.1015951    
   36.85000       -5.6640610E-02
   36.90000        1.9137276E-02
   36.95000        8.4748991E-02
   37.00000        0.1037061    
   37.05000        6.4493351E-02
   37.10000       -1.2250463E-02
   37.15000       -8.4365912E-02
   37.20000       -0.1112082    
   37.25000       -7.6458789E-02
   37.30000        2.1699648E-03
   37.35000        8.2143396E-02
   37.40000        0.1194425    
   37.45000        9.3123578E-02
   37.50000        1.7245736E-02
   37.55000       -6.6744648E-02
   37.60000       -0.1130729    
   37.65000       -9.7207665E-02
   37.70000       -2.9467560E-02
   37.75000        5.1088996E-02
   37.80000        9.9016286E-02
   37.85000        8.8301264E-02
   37.90000        2.6878390E-02
   37.95000       -4.8426986E-02
   38.00000       -9.3503572E-02
   38.05000       -8.2537450E-02
   38.10000       -2.2744523E-02
   38.15000        5.0222255E-02
   38.20000        9.3387634E-02
   38.25000        8.1666261E-02
   38.30000        2.2406438E-02
   38.35000       -4.9193040E-02
   38.40000       -9.0997830E-02
   38.45000       -7.8802057E-02
   38.50000       -2.0476051E-02
   38.55000        4.8904940E-02
   38.60000        8.8001676E-02
   38.65000        7.3776118E-02
   38.70000        1.5109774E-02
   38.75000       -5.2590623E-02
   38.80000       -8.8577472E-02
   38.85000       -7.1128778E-02
   38.90000       -1.0580391E-02
   38.95000        5.6775942E-02
   39.00000        9.0353101E-02
   39.05000        6.9622509E-02
   39.10000        6.6231303E-03
   39.15000       -6.0940433E-02
   39.20000       -9.2057452E-02
   39.25000       -6.7028187E-02
   39.30000        3.3063258E-04
   39.35000        7.0327029E-02
   39.40000        0.1006051    
   39.45000        7.1362272E-02
   39.50000       -2.3438502E-03
   39.55000       -7.8671552E-02
   39.60000       -0.1130046    
   39.65000       -8.4027395E-02
   39.70000       -6.6275615E-03
   39.75000        7.6074220E-02
   39.80000        0.1171779    
   39.85000        9.2933662E-02
   39.90000        1.6604839E-02
   39.95000       -6.8819284E-02
   40.00000       -0.1149844    
   40.05000       -9.5700838E-02
   40.10000       -2.1898417E-02
   40.15000        6.4537100E-02
   40.20000        0.1145155    
   40.25000        9.9539950E-02
   40.30000        2.7773464E-02
   40.35000       -6.0652412E-02
   40.40000       -0.1162923    
   40.45000       -0.1080974    
   40.50000       -4.0573966E-02
   40.55000        4.9082898E-02
   40.60000        0.1119795    
   40.65000        0.1146363    
   40.70000        5.7038542E-02
   40.75000       -2.8177856E-02
   40.80000       -9.4485439E-02
   40.85000       -0.1073100    
   40.90000       -6.2484927E-02
   40.95000        1.2625439E-02
   41.00000        7.5363524E-02
   41.05000        9.1806710E-02
   41.10000        5.5056710E-02
   41.15000       -1.2065768E-02
   41.20000       -7.0789322E-02
   41.25000       -8.8379413E-02
   41.30000       -5.5912454E-02
   41.35000        7.7492655E-03
   41.40000        6.7361817E-02
   41.45000        9.1146544E-02
   41.50000        6.7836158E-02
   41.55000        1.1753273E-02
   41.60000       -4.6238638E-02
   41.65000       -7.6235533E-02
   41.70000       -6.5252818E-02
   41.75000       -2.3045972E-02
   41.80000        2.4777487E-02
   41.85000        5.1821638E-02
   41.90000        4.5394503E-02
   41.95000        1.2510961E-02
   42.00000       -2.5378991E-02
   42.05000       -4.5349564E-02
   42.10000       -3.6022805E-02
   42.15000       -3.4248470E-03
   42.20000        3.3197451E-02
   42.25000        5.2761227E-02
   42.30000        4.4252045E-02
   42.35000        1.2509873E-02
   42.40000       -2.5034567E-02
   42.45000       -4.8459183E-02
   42.50000       -4.6391949E-02
   42.55000       -2.1843003E-02
   42.60000        1.0175602E-02
   42.65000        3.1574931E-02
   42.70000        3.1434331E-02
   42.75000        1.1810862E-02
   42.80000       -1.3973106E-02
   42.85000       -2.9365908E-02
   42.90000       -2.4262408E-02
   42.95000       -8.4249995E-04
   43.00000        2.7647130E-02
   43.05000        4.4400193E-02
   43.10000        3.8594540E-02
   43.15000        1.1640696E-02
   43.20000       -2.3325169E-02
   43.25000       -4.8416462E-02
   43.30000       -5.0606698E-02
   43.35000       -2.8730068E-02
   43.40000        5.9113144E-03
   43.45000        3.5614319E-02
   43.50000        4.5682747E-02
   43.55000        3.2081060E-02
   43.60000        3.2586784E-03
   43.65000       -2.4720512E-02
   43.70000       -3.6982987E-02
   43.75000       -2.7756568E-02
   43.80000       -3.1469984E-03
   43.85000        2.2583444E-02
   43.90000        3.5040997E-02
   43.95000        2.7550658E-02
   44.00000        4.5644124E-03
   44.05000       -2.1100855E-02
   44.10000       -3.5502527E-02
   44.15000       -3.1192286E-02
   44.20000       -1.1035923E-02
   44.25000        1.3728146E-02
   44.30000        2.9917324E-02
   44.35000        2.9618893E-02
   44.40000        1.4193824E-02
   44.45000       -6.9899741E-03
   44.50000       -2.2145405E-02
   44.55000       -2.3664219E-02
   44.60000       -1.2005936E-02
   44.65000        5.1423805E-03
   44.70000        1.7692393E-02
   44.75000        1.9009400E-02
   44.80000        9.4122393E-03
   44.85000       -4.5370879E-03
   44.90000       -1.4290433E-02