 -0.5000000        1.4026939E-30
 -0.4500000        1.4026939E-30
 -0.4000000        6.9600979E-30
 -0.3500000        6.8908156E-30
 -0.3000000       -8.3242839E-31
 -0.2500000        1.1830925E-30
 -0.2000000       -3.4800982E-30
 -0.1500000       -3.5083212E-31
 -0.1000000       -1.4995441E-30
 -5.0000001E-02   -1.2437767E-30
  0.0000000E+00    1.5860812E-30
  5.0000001E-02    9.7430276E-31
  0.1000000       -2.2291374E-31
  0.1500000       -4.9507313E-31
  0.2000000       -3.5368925E-31
  0.2500000        3.6303601E-31
  0.3000000        6.3342730E-30
  0.3500000        4.2900384E-29
  0.4000000        2.0054308E-28
  0.4500000        7.8273004E-28
  0.5000000        2.5387379E-27
  0.5500000        6.3475377E-27
  0.6000000        9.3456298E-27
  0.6500000       -1.3430573E-26
  0.7000000       -1.7160953E-25
  0.7500000       -8.3251114E-25
  0.8000000       -3.0189111E-24
  0.8500000       -9.1340272E-24
  0.9000000       -2.3768007E-23
  0.9500000       -5.2896450E-23
   1.000000       -9.5805535E-23
   1.050000       -1.1628575E-22
   1.100000        2.9092401E-23
   1.150000        7.2096389E-22
   1.200000        2.7159092E-21
   1.250000        7.0552189E-21
   1.300000        1.4156663E-20
   1.350000        2.1146921E-20
   1.400000        1.6713026E-20
   1.450000       -2.5290044E-20
   1.500000       -1.4720518E-19
   1.550000       -3.8959555E-19
   1.600000       -7.3297001E-19
   1.650000       -9.8495787E-19
   1.700000       -6.3769458E-19
   1.750000        1.1926781E-18
   1.800000        5.5096648E-18
   1.850000        1.2547545E-17
   1.900000        2.0063062E-17
   1.950000        2.1185120E-17
   2.000000        3.3291335E-18
   2.050000       -4.8887625E-17
   2.100000       -1.4307947E-16
   2.150000       -2.5910312E-16
   2.200000       -3.2447680E-16
   2.250000       -2.0189570E-16
   2.300000        2.8127614E-16
   2.350000        1.2281807E-15
   2.400000        2.4822258E-15
   2.450000        3.4064017E-15
   2.500000        2.7888932E-15
   2.550000       -8.7594372E-16
   2.600000       -8.4966265E-15
   2.650000       -1.8890983E-14
   2.700000       -2.7228797E-14
   2.750000       -2.4644078E-14
   2.800000       -6.8934321E-16
   2.850000        5.0184639E-14
   2.900000        1.1896889E-13
   2.950000        1.7361740E-13
   3.000000        1.5973790E-13
   3.050000        1.9273076E-14
   3.100000       -2.6948252E-13
   3.150000       -6.4074906E-13
   3.200000       -9.0775998E-13
   3.250000       -7.8897322E-13
   3.300000       -2.8779327E-14
   3.350000        1.3935149E-12
   3.400000        3.0454519E-12
   3.450000        3.9688409E-12
   3.500000        2.9308847E-12
   3.550000       -9.1536186E-13
   3.600000       -7.1093713E-12
   3.650000       -1.3163786E-11
   3.700000       -1.4735773E-11
   3.750000       -7.2726009E-12
   3.800000        1.0902408E-11
   3.850000        3.5169870E-11
   3.900000        5.3059390E-11
   3.950000        4.7090651E-11
   4.000000        3.3063530E-12
   4.050000       -7.6278185E-11
   4.100000       -1.6314801E-10
   4.150000       -2.0241811E-10
   4.200000       -1.3122989E-10
   4.250000        8.4145038E-11
   4.300000        4.0450757E-10
   4.350000        6.9208450E-10
   4.400000        7.3263745E-10
   4.450000        3.2312733E-10
   4.500000       -5.8862348E-10
   4.550000       -1.7686007E-09
   4.600000       -2.6553868E-09
   4.650000       -2.4995574E-09
   4.700000       -7.0964096E-10
   4.750000        2.6832314E-09
   4.800000        6.6569443E-09
   4.850000        9.2098205E-09
   4.900000        7.9692803E-09
   4.950000        1.3784976E-09
   5.000000       -9.9164073E-09
   5.050000       -2.2186116E-08
   5.100000       -2.9040963E-08
   5.150000       -2.3618894E-08
   5.200000       -2.2199618E-09
   5.250000        3.1932494E-08
   5.300000        6.6873504E-08
   5.350000        8.4033211E-08
   5.400000        6.5109774E-08
   5.450000        2.1906585E-09
   5.500000       -9.2888392E-08
   5.550000       -1.8543341E-07
   5.600000       -2.2564933E-07
   5.650000       -1.6807880E-07
   5.700000        2.4170435E-09
   5.750000        2.4907200E-07
   5.800000        4.7939500E-07
   5.850000        5.6880828E-07
   5.900000        4.1105736E-07
   5.950000       -1.9619440E-08
   6.000000       -6.2186024E-07
   6.050000       -1.1663717E-06
   6.100000       -1.3596801E-06
   6.150000       -9.6547842E-07
   6.200000        5.5394448E-08
   6.250000        1.4494980E-06
   6.300000        2.6842558E-06
   6.350000        3.1039585E-06
   6.400000        2.2032541E-06
   6.450000       -7.3881878E-08
   6.500000       -3.1465665E-06
   6.550000       -5.8504188E-06
   6.600000       -6.7887195E-06
   6.650000       -4.9131195E-06
   6.700000       -1.3323245E-07
   6.750000        6.3244120E-06
   6.800000        1.2057472E-05
   6.850000        1.4220617E-05
   6.900000        1.0692243E-05
   6.950000        1.2671843E-06
   7.000000       -1.1665913E-05
   7.050000       -2.3424800E-05
   7.100000       -2.8458013E-05
   7.150000       -2.2569318E-05
   7.200000       -5.1652346E-06
   7.250000        1.9473668E-05
   7.300000        4.2727490E-05
   7.350000        5.4220975E-05
   7.400000        4.5855490E-05
   7.450000        1.5896387E-05
   7.500000       -2.8647788E-05
   7.550000       -7.2806215E-05
   7.600000       -9.8019205E-05
   7.650000       -8.9090929E-05
   7.700000       -4.1369389E-05
   7.750000        3.4831151E-05
   7.800000        1.1504851E-04
   7.850000        1.6755317E-04
   7.900000        1.6475026E-04
   7.950000        9.5354138E-05
   8.000000       -2.7511396E-05
   8.050000       -1.6644126E-04
   8.100000       -2.6972342E-04
   8.150000       -2.8908046E-04
   8.200000       -1.9955808E-04
   8.250000       -1.4009735E-05
   8.300000        2.1460479E-04
   8.350000        4.0627579E-04
   8.400000        4.8000310E-04
   8.450000        3.8497965E-04
   8.500000        1.2565544E-04
   8.550000       -2.3007543E-04
   8.600000       -5.6556670E-04
   8.650000       -7.5116975E-04
   8.700000       -6.9086818E-04
   8.750000       -3.6390091E-04
   8.800000        1.5506250E-04
   8.850000        7.0804008E-04
   8.900000        1.0985461E-03
   8.950000        1.1574131E-03
   9.000000        8.0858142E-04
   9.050000        1.1089240E-04
   9.100000       -7.4260030E-04
   9.150000       -1.4734386E-03
   9.200000       -1.8038572E-03
   9.250000       -1.5547066E-03
   9.300000       -7.2239444E-04
   9.350000        4.9468019E-04
   9.400000        1.7358554E-03
   9.450000        2.5788895E-03
   9.500000        2.6750939E-03
   9.550000        1.8776249E-03
   9.600000        3.1917187E-04
   9.650000       -1.5931430E-03
   9.700000       -3.2744061E-03
   9.750000       -4.1300664E-03
   9.800000       -3.7500949E-03
   9.850000       -2.0697301E-03
   9.900000        5.5938086E-04
   9.950000        3.4225297E-03
   10.00000        5.6199976E-03
   10.05000        6.3306000E-03
   10.10000        5.0891610E-03
   10.15000        1.9915362E-03
   10.20000       -2.2492253E-03
   10.25000       -6.4366525E-03
   10.30000       -9.2016319E-03
   10.35000       -9.4188042E-03
   10.40000       -6.6113174E-03
   10.45000       -1.2108217E-03
   10.50000        5.4361355E-03
   10.55000        1.1359981E-02
   10.60000        1.4512675E-02
   10.65000        1.3427945E-02
   10.70000        7.7982903E-03
   10.75000       -1.2372885E-03
   10.80000       -1.1238793E-02
   10.85000       -1.9067591E-02
   10.90000       -2.1818867E-02
   10.95000       -1.7824396E-02
   11.00000       -7.3993411E-03
   11.05000        6.9600130E-03
   11.10000        2.1080874E-02
   11.15000        3.0259371E-02
   11.20000        3.0756734E-02
   11.25000        2.1191448E-02
   11.30000        3.3392031E-03
   11.35000       -1.8017607E-02
   11.40000       -3.6276393E-02
   11.45000       -4.4979446E-02
   11.50000       -3.9997246E-02
   11.55000       -2.1217318E-02
   11.60000        6.9008255E-03
   11.65000        3.6240384E-02
   11.70000        5.7286873E-02
   11.75000        6.2132414E-02
   11.80000        4.7296546E-02
   11.85000        1.5387662E-02
   11.90000       -2.5087075E-02
   11.95000       -6.1900962E-02
   12.00000       -8.2753733E-02
   12.05000       -7.9307772E-02
   12.10000       -5.0301500E-02
   12.15000       -2.6133135E-03
   12.20000        5.0260752E-02
   12.25000        9.2028625E-02
   12.30000        0.1086424    
   12.35000        9.2986517E-02
   12.40000        4.7645424E-02
   12.45000       -1.5281241E-02
   12.50000       -7.7442139E-02
   12.55000       -0.1196886    
   12.60000       -0.1280721    
   12.65000       -9.8473817E-02
   12.70000       -3.8321633E-02
   12.75000        3.5269815E-02
   12.80000        0.1004695    
   12.85000        0.1373299    
   12.90000        0.1339811    
   12.95000        9.0470061E-02
   13.00000        1.9007185E-02
   13.05000       -5.9500407E-02
   13.10000       -0.1215988    
   13.15000       -0.1482558    
   13.20000       -0.1305471    
   13.25000       -7.2368354E-02
   13.30000        1.0589640E-02
   13.35000        9.5242038E-02
   13.40000        0.1575410    
   13.45000        0.1790650    
   13.50000        0.1519366    
   13.55000        8.0817893E-02
   13.60000       -1.8381173E-02
   13.65000       -0.1225501    
   13.70000       -0.2069801    
   13.75000       -0.2510755    
   13.80000       -0.2428686    
   13.85000       -0.1814791    
   13.90000       -7.7193744E-02
   13.95000        5.0658569E-02
   14.00000        0.1775251    
   14.05000        0.2784399    
   14.10000        0.3330329    
   14.15000        0.3299031    
   14.20000        0.2695111    
   14.25000        0.1648457    
   14.30000        3.9374985E-02
   14.35000       -7.7703066E-02
   14.40000       -0.1582087    
   14.45000       -0.1823180    
   14.50000       -0.1445891    
   14.55000       -5.6764137E-02
   14.60000        5.3959969E-02
   14.65000        0.1513407    
   14.70000        0.1999005    
   14.75000        0.1755983    
   14.80000        7.4194342E-02
   14.85000       -8.5532427E-02
   14.90000       -0.2652734    
   14.95000       -0.4169781    
   15.00000       -0.4964791    
   15.05000       -0.4770311    
   15.10000       -0.3584897    
   15.15000       -0.1688930    
   15.20000        4.2620394E-02
   15.25000        0.2198938    
   15.30000        0.3167704    
   15.35000        0.3117203    
   15.40000        0.2151637    
   15.45000        6.6669174E-02
   15.50000       -7.7593081E-02
   15.55000       -0.1634527    
   15.60000       -0.1574071    
   15.65000       -5.8975380E-02
   15.70000        9.7864754E-02
   15.75000        0.2552484    
   15.80000        0.3509670    
   15.85000        0.3406256    
   15.90000        0.2147476    
   15.95000        4.5191920E-03
   16.00000       -0.2264847    
   16.05000       -0.4024391    
   16.10000       -0.4608098    
   16.15000       -0.3746203    
   16.20000       -0.1635233    
   16.25000        0.1106381    
   16.30000        0.3628405    
   16.35000        0.5123770    
   16.40000        0.5096453    
   16.45000        0.3530348    
   16.50000        8.9982413E-02
   16.55000       -0.1983534    
   16.60000       -0.4236770    
   16.65000       -0.5193539    
   16.70000       -0.4615969    
   16.75000       -0.2758733    
   16.80000       -2.6575474E-02
   16.85000        0.2061479    
   16.90000        0.3540193    
   16.95000        0.3829062    
   17.00000        0.3020139    
   17.05000        0.1571369    
   17.10000        1.0994375E-02
   17.15000       -8.1656620E-02
   17.20000       -9.4623238E-02
   17.25000       -3.8898148E-02
   17.30000        4.3711275E-02
   17.35000        9.9142388E-02
   17.40000        8.4331773E-02
   17.45000       -1.4080015E-02
   17.50000       -0.1729795    
   17.55000       -0.3405763    
   17.60000       -0.4556302    
   17.65000       -0.4705039    
   17.70000       -0.3690135    
   17.75000       -0.1722619    
   17.80000        6.9477603E-02
   17.85000        0.2951851    
   17.90000        0.4542246    
   17.95000        0.5218171    
   18.00000        0.5031806    
   18.05000        0.4256144    
   18.10000        0.3228794    
   18.15000        0.2192910    
   18.20000        0.1207099    
   18.25000        1.6256353E-02
   18.30000       -0.1104383    
   18.35000       -0.2661007    
   18.40000       -0.4364251    
   18.45000       -0.5846270    
   18.50000       -0.6618717    
   18.55000       -0.6261638    
   18.60000       -0.4621287    
   18.65000       -0.1929745    
   18.70000        0.1215436    
   18.75000        0.4020007    
   18.80000        0.5757393    
   18.85000        0.6031488    
   18.90000        0.4932531    
   18.95000        0.3014773    
   19.00000        0.1090684    
   19.05000       -8.9649772E-03
   19.10000       -1.5252833E-02
   19.15000        7.2181091E-02
   19.20000        0.1844142    
   19.25000        0.2286539    
   19.30000        0.1287784    
   19.35000       -0.1362024    
   19.40000       -0.5122429    
   19.45000       -0.8795851    
   19.50000        -1.091146    
   19.55000        -1.027851    
   19.60000       -0.6504851    
   19.65000       -2.6770975E-02
   19.70000        0.6799095    
   19.75000         1.259780    
   19.80000         1.528361    
   19.85000         1.394723    
   19.90000        0.8995813    
   19.95000        0.2062426    
   20.00000       -0.4552622    
   20.05000       -0.8720750    
   20.10000       -0.9292759    
   20.15000       -0.6555581    
   20.20000       -0.2137015    
   20.25000        0.1635817    
   20.30000        0.2699545    
   20.35000        1.6985716E-02
   20.40000       -0.5167832    
   20.45000        -1.102716    
   20.50000        -1.443726    
   20.55000        -1.293409    
   20.60000       -0.5680621    
   20.65000        0.5941797    
   20.70000         1.855941    
   20.75000         2.784275    
   20.80000         3.002955    
   20.85000         2.339302    
   20.90000        0.9090406    
   20.95000       -0.8980120    
   21.00000        -2.533665    
   21.05000        -3.472446    
   21.10000        -3.395209    
   21.15000        -2.307951    
   21.20000       -0.5496014    
   21.25000         1.317922    
   21.30000         2.700406    
   21.35000         3.174857    
   21.40000         2.631989    
   21.45000         1.305930    
   21.50000       -0.3185965    
   21.55000        -1.685504    
   21.60000        -2.365081    
   21.65000        -2.196860    
   21.70000        -1.327106    
   21.75000       -0.1321828    
   21.80000        0.9371681    
   21.85000         1.526954    
   21.90000         1.500323    
   21.95000        0.9646211    
   22.00000        0.2017394    
   22.05000       -0.4631769    
   22.10000       -0.7972668    
   22.15000       -0.7443689    
   22.20000       -0.4272945    
   22.25000       -7.2653644E-02
   22.30000        0.1050437    
   22.35000        7.7945963E-03
   22.40000       -0.2984931    
   22.45000       -0.6137589    
   22.50000       -0.6977182    
   22.55000       -0.3876249    
   22.60000        0.3110491    
   22.65000         1.201732    
   22.70000         1.955457    
   22.75000         2.231986    
   22.80000         1.818015    
   22.85000        0.7282034    
   22.90000       -0.7732864    
   22.95000        -2.244179    
   23.00000        -3.206901    
   23.05000        -3.313415    
   23.10000        -2.472713    
   23.15000       -0.8936335    
   23.20000        0.9743024    
   23.25000         2.582709    
   23.30000         3.459800    
   23.35000         3.359093    
   23.40000         2.331721    
   23.45000        0.7010412    
   23.50000        -1.047116    
   23.55000        -2.417571    
   23.60000        -3.050271    
   23.65000        -2.812283    
   23.70000        -1.815694    
   23.75000       -0.3659558    
   23.80000         1.134645    
   23.85000         2.295748    
   23.90000         2.831283    
   23.95000         2.617922    
   24.00000         1.713932    
   24.05000        0.3407638    
   24.10000        -1.166645    
   24.15000        -2.433116    
   24.20000        -3.129360    
   24.25000        -3.055313    
   24.30000        -2.200285    
   24.35000       -0.7594483    
   24.40000        0.9057461    
   24.45000         2.359630    
   24.50000         3.214314    
   24.55000         3.244977    
   24.60000         2.459793    
   24.65000         1.098541    
   24.70000       -0.4422307    
   24.75000        -1.733617    
   24.80000        -2.446451    
   24.85000        -2.446522    
   24.90000        -1.822082    
   24.95000       -0.8374074    
   25.00000        0.1677996    
   25.05000        0.8956245    
   25.10000         1.182702    
   25.15000         1.038461    
   25.20000        0.6196200    
   25.25000        0.1544774    
   25.30000       -0.1524648    
   25.35000       -0.1993371    
   25.40000       -2.0118246E-02
   25.45000        0.2394026    
   25.50000        0.3927753    
   25.55000        0.3023825    
   25.60000       -4.9855534E-02
   25.65000       -0.5419197    
   25.70000       -0.9537012    
   25.75000        -1.058320    
   25.80000       -0.7270698    
   25.85000       -3.0650855E-03
   25.90000        0.8919398    
   25.95000         1.627350    
   26.00000         1.887568    
   26.05000         1.502120    
   26.10000        0.5281021    
   26.15000       -0.7523119    
   26.20000        -1.922968    
   26.25000        -2.580682    
   26.30000        -2.481817    
   26.35000        -1.631933    
   26.40000       -0.2849319    
   26.45000         1.146021    
   26.50000         2.229984    
   26.55000         2.658961    
   26.60000         2.339048    
   26.65000         1.405417    
   26.70000        0.1637379    
   26.75000        -1.015265    
   26.80000        -1.810204    
   26.85000        -2.037444    
   26.90000        -1.691381    
   26.95000       -0.9305934    
   27.00000       -1.8500479E-02
   27.05000        0.7623925    
   27.10000         1.197716    
   27.15000         1.204270    
   27.20000        0.8487683    
   27.25000        0.3146178    
   27.30000       -0.1733192    
   27.35000       -0.4388721    
   27.40000       -0.4235817    
   27.45000       -0.2042176    
   27.50000        5.0980564E-02
   27.55000        0.1691991    
   27.60000        6.2782355E-02
   27.65000       -0.2226270    
   27.70000       -0.5278106    
   27.75000       -0.6605933    
   27.80000       -0.4983906    
   27.85000       -6.0094330E-02
   27.90000        0.4918974    
   27.95000        0.9237612    
   28.00000         1.041876    
   28.05000        0.7874894    
   28.10000        0.2654124    
   28.15000       -0.3084100    
   28.20000       -0.7130594    
   28.25000       -0.8268560    
   28.30000       -0.6755441    
   28.35000       -0.4012116    
   28.40000       -0.1719901    
   28.45000       -8.4435761E-02
   28.50000       -0.1133527    
   28.55000       -0.1362483    
   28.60000       -1.7192226E-02
   28.65000        0.2986488    
   28.70000        0.7345220    
   28.75000         1.105887    
   28.80000         1.207784    
   28.85000        0.9205291    
   28.90000        0.2789595    
   28.95000       -0.5297971    
   29.00000        -1.238115    
   29.05000        -1.603671    
   29.10000        -1.500649    
   29.15000       -0.9597721    
   29.20000       -0.1481831    
   29.25000        0.6932467    
   29.30000         1.325371    
   29.35000         1.573869    
   29.40000         1.368603    
   29.45000        0.7590371    
   29.50000       -9.2438519E-02
   29.55000       -0.9416100    
   29.60000        -1.521790    
   29.65000        -1.626393    
   29.70000        -1.192310    
   29.75000       -0.3471124    
   29.80000        0.6142746    
   29.85000         1.331706    
   29.90000         1.528510    
   29.95000         1.141163    
   30.00000        0.3610799    
   30.05000       -0.4448321    
   30.10000       -0.9074066    
   30.15000       -0.8402071    
   30.20000       -0.3385502    
   30.25000        0.2676128    
   30.30000        0.5915682    
   30.35000        0.4087834    
   30.40000       -0.2030936    
   30.45000       -0.8880804    
   30.50000        -1.198320    
   30.55000       -0.8497297    
   30.60000        9.2779949E-02
   30.65000         1.210884    
   30.70000         1.926222    
   30.75000         1.799743    
   30.80000        0.7808030    
   30.85000       -0.7318431    
   30.90000        -2.060307    
   30.95000        -2.570320    
   31.00000        -1.984297    
   31.05000       -0.5240395    
   31.10000         1.190685    
   31.15000         2.435388    
   31.20000         2.716088    
   31.25000         1.979558    
   31.30000        0.6023279    
   31.35000       -0.8200052    
   31.40000        -1.761760    
   31.45000        -1.983908    
   31.50000        -1.581052    
   31.55000       -0.8614467    
   31.60000       -0.1511178    
   31.65000        0.3591731    
   31.70000        0.6487924    
   31.75000        0.7910428    
   31.80000        0.8412947    
   31.85000        0.7776330    
   31.90000        0.5350586    
   31.95000        0.1011569    
   32.00000       -0.4079451    
   32.05000       -0.7637221    
   32.10000       -0.7434419    
   32.15000       -0.2846210    
   32.20000        0.4279501    
   32.25000         1.017287    
   32.30000         1.103007    
   32.35000        0.5273389    
   32.40000       -0.5152209    
   32.45000        -1.535972    
   32.50000        -1.986668    
   32.55000        -1.554189    
   32.60000       -0.3533739    
   32.65000         1.098142    
   32.70000         2.123709    
   32.75000         2.228678    
   32.80000         1.358305    
   32.85000       -6.7884885E-02
   32.90000        -1.367033    
   32.95000        -1.938534    
   33.00000        -1.561341    
   33.05000       -0.4880575    
   33.10000        0.7070704    
   33.15000         1.436353    
   33.20000         1.393445    
   33.25000        0.6810076    
   33.30000       -0.2834246    
   33.35000        -1.014671    
   33.40000        -1.213787    
   33.45000       -0.8912566    
   33.50000       -0.3074358    
   33.55000        0.2138831    
   33.60000        0.4762056    
   33.65000        0.4931849    
   33.70000        0.4275177    
   33.75000        0.4415785    
   33.80000        0.5662830    
   33.85000        0.6756029    
   33.90000        0.5805677    
   33.95000        0.1769228    
   34.00000       -0.4545583    
   34.05000        -1.065480    
   34.10000        -1.369419    
   34.15000        -1.205668    
   34.20000       -0.6358622    
   34.25000        8.7148331E-02
   34.30000        0.6600802    
   34.35000        0.8940672    
   34.40000        0.8039418    
   34.45000        0.5702739    
   34.50000        0.4023006    
   34.55000        0.3915776    
   34.60000        0.4512355    
   34.65000        0.3809569    
   34.70000        1.7360788E-02
   34.75000       -0.6264436    
   34.80000        -1.324694    
   34.85000        -1.737207    
   34.90000        -1.590999    
   34.95000       -0.8418314    
   35.00000        0.2787655    
   35.05000         1.360493    
   35.10000         2.003136    
   35.15000         1.995226    
   35.20000         1.390688    
   35.25000        0.4534535    
   35.30000       -0.4856327    
   35.35000        -1.172907    
   35.40000        -1.502620    
   35.45000        -1.494792    
   35.50000        -1.220232    
   35.55000       -0.7387419    
   35.60000       -9.4609961E-02
   35.65000        0.6379828    
   35.70000         1.310630    
   35.75000         1.712430    
   35.80000         1.653335    
   35.85000         1.078283    
   35.90000        0.1377283    
   35.95000       -0.8443372    
   36.00000        -1.505121    
   36.05000        -1.614639    
   36.10000        -1.187936    
   36.15000       -0.4698871    
   36.20000        0.2027366    
   36.25000        0.5833893    
   36.30000        0.6351566    
   36.35000        0.5174322    
   36.40000        0.4512656    
   36.45000        0.5510293    
   36.50000        0.7328320    
   36.55000        0.7632647    
   36.60000        0.4228958    
   36.65000       -0.3174841    
   36.70000        -1.224529    
   36.75000        -1.891681    
   36.80000        -1.949517    
   36.85000        -1.278456    
   36.90000       -9.7044125E-02
   36.95000         1.131948    
   37.00000         1.929298    
   37.05000         2.033472    
   37.10000         1.509972    
   37.15000        0.6795716    
   37.20000       -8.3089702E-02
   37.25000       -0.5541363    
   37.30000       -0.7459532    
   37.35000       -0.8310208    
   37.40000       -0.9666039    
   37.45000        -1.146217    
   37.50000        -1.184620    
   37.55000       -0.8527656    
   37.60000       -7.5091086E-02
   37.65000        0.9482463    
   37.70000         1.792058    
   37.75000         2.020181    
   37.80000         1.444134    
   37.85000        0.2671367    
   37.90000       -0.9874814    
   37.95000        -1.738638    
   38.00000        -1.657630    
   38.05000       -0.8465454    
   38.10000        0.2232077    
   38.15000        0.9808523    
   38.20000         1.078463    
   38.25000        0.5759566    
   38.30000       -0.1199217    
   38.35000       -0.5234526    
   38.40000       -0.3795227    
   38.45000        0.1765410    
   38.50000        0.7092155    
   38.55000        0.7689757    
   38.60000        0.1967891    
   38.65000       -0.7462350    
   38.70000        -1.512810    
   38.75000        -1.593618    
   38.80000       -0.8373130    
   38.85000        0.4317145    
   38.90000         1.577545    
   38.95000         2.008265    
   39.00000         1.513587    
   39.05000        0.3823108    
   39.10000       -0.7719460    
   39.15000        -1.372253    
   39.20000        -1.208465    
   39.25000       -0.5361619    
   39.30000        0.1133369    
   39.35000        0.2906362    
   39.40000       -7.3201366E-02
   39.45000       -0.6193588    
   39.50000       -0.8012140    
   39.55000       -0.2649738    
   39.60000        0.8711393    
   39.65000         2.027425    
   39.70000         2.476836    
   39.75000         1.786024    
   39.80000        0.1175418    
   39.85000        -1.801538    
   39.90000        -3.046089    
   39.95000        -2.994439    
   40.00000        -1.676962    
   40.05000        0.2343173    
   40.10000         1.794699    
   40.15000         2.304196    
   40.20000         1.675376    
   40.25000        0.4416325    
   40.30000       -0.5916303    
   40.35000       -0.8395624    
   40.40000       -0.2778676    
   40.45000        0.5712704    
   40.50000        0.9931284    
   40.55000        0.5533863    
   40.60000       -0.6033893    
   40.65000        -1.817310    
   40.70000        -2.305522    
   40.75000        -1.647751    
   40.80000       -6.8644807E-02
   40.85000         1.660588    
   40.90000         2.650815    
   40.95000         2.403327    
   41.00000         1.096306    
   41.05000       -0.5223353    
   41.10000        -1.573698    
   41.15000        -1.558291    
   41.20000       -0.6351995    
   41.25000        0.4947925    
   41.30000         1.030129    
   41.35000        0.5676360    
   41.40000       -0.6408347    
   41.45000        -1.830082    
   41.50000        -2.179323    
   41.55000        -1.314671    
   41.60000        0.4428308    
   41.65000         2.233131    
   41.70000         3.129131    
   41.75000         2.652183    
   41.80000         1.035194    
   41.85000       -0.9132499    
   41.90000        -2.258433    
   41.95000        -2.440157    
   42.00000        -1.541435    
   42.05000       -0.1860248    
   42.10000        0.8554438    
   42.15000         1.107640    
   42.20000        0.6236038    
   42.25000       -0.1114931    
   42.30000       -0.5250576    
   42.35000       -0.3265167    
   42.40000        0.3244752    
   42.45000        0.9433344    
   42.50000         1.048278    
   42.55000        0.4791145    
   42.60000       -0.4911801    
   42.65000        -1.316924    
   42.70000        -1.508678    
   42.75000       -0.9273866    
   42.80000        0.1326829    
   42.85000         1.116067    
   42.90000         1.523289    
   42.95000         1.181798    
   43.00000        0.3165340    
   43.05000       -0.6066672    
   43.10000        -1.155823    
   43.15000        -1.155503    
   43.20000       -0.7335012    
   43.25000       -0.1859650    
   43.30000        0.2321033    
   43.35000        0.4480177    
   43.40000        0.5600038    
   43.45000        0.6992380    
   43.50000        0.8782651    
   43.55000        0.9450272    
   43.60000        0.6846623    
   43.65000        3.4246764E-03
   43.70000       -0.9363679    
   43.75000        -1.738913    
   43.80000        -1.965110    
   43.85000        -1.388356    
   43.90000       -0.1611375    
   43.95000         1.219172    
   44.00000         2.141570    
   44.05000         2.188068    
   44.10000         1.346231    
   44.15000        1.0140016E-02
   44.20000        -1.227059    
   44.25000        -1.869355    
   44.30000        -1.739802    
   44.35000        -1.017725    
   44.40000       -9.3456239E-02
   44.45000        0.6553009    
   44.50000         1.030660    
   44.55000         1.043907    
   44.60000        0.8225734    
   44.65000        0.4856008    
   44.70000        8.2394794E-02
   44.75000       -0.3707405    
   44.80000       -0.8056343    
   44.85000        -1.059500    
   44.90000       -0.9351864    