 -0.5000000        1.0000000E-24
 -0.4500000        1.0000000E-24
 -0.4000000        1.0000001E-24
 -0.3500000        1.0000002E-24
 -0.3000000        1.0000002E-24
 -0.2500000        1.0000002E-24
 -0.2000000       -3.2339249E-16
 -0.1500000       -6.0237371E-15
 -0.1000000       -6.3253724E-14
 -5.0000001E-02   -4.9127450E-13
  0.0000000E+00   -3.1006610E-12
  5.0000001E-02   -1.6531158E-11
  0.1000000       -7.5751176E-11
  0.1500000       -3.0091366E-10
  0.2000000       -1.0408945E-09
  0.2500000       -3.1399954E-09
  0.3000000       -8.2421039E-09
  0.3500000       -1.8664723E-08
  0.4000000       -3.5684536E-08
  0.4500000       -5.4443682E-08
  0.5000000       -5.4252503E-08
  0.5500000        1.3410066E-08
  0.6000000        2.2940037E-07
  0.6500000        6.8502112E-07
  0.7000000        1.4122077E-06
  0.7500000        2.2604966E-06
  0.8000000        2.7592434E-06
  0.8500000        2.0660691E-06
  0.9000000       -8.5321790E-07
  0.9500000       -6.7010465E-06
   1.000000       -1.5027506E-05
   1.050000       -2.3429249E-05
   1.100000       -2.7346163E-05
   1.150000       -2.1080512E-05
   1.200000       -2.9708099E-07
   1.250000        3.4541736E-05
   1.300000        7.5318720E-05
   1.350000        1.0606193E-04
   1.400000        1.0703633E-04
   1.450000        6.3046529E-05
   1.500000       -2.6659582E-05
   1.550000       -1.4163584E-04
   1.600000       -2.4163144E-04
   1.650000       -2.7855844E-04
   1.700000       -2.1651511E-04
   1.750000       -5.2120944E-05
   1.800000        1.7510736E-04
   1.850000        3.9013426E-04
   1.900000        5.0787639E-04
   1.950000        4.6769265E-04
   2.000000        2.6144434E-04
   2.050000       -5.9285987E-05
   2.100000       -4.0190745E-04
   2.150000       -6.6898868E-04
   2.200000       -7.9311803E-04
   2.250000       -7.5170206E-04
   2.300000       -5.5504090E-04
   2.350000       -2.1937425E-04
   2.400000        2.5023194E-04
   2.450000        8.4500067E-04
   2.500000        1.5045413E-03
   2.550000        2.0647706E-03
   2.600000        2.2502181E-03
   2.650000        1.7508341E-03
   2.700000        3.8207020E-04
   2.750000       -1.7316362E-03
   2.800000       -4.0534735E-03
   2.850000       -5.7099108E-03
   2.900000       -5.7778745E-03
   2.950000       -3.7073167E-03
   3.000000        2.9711798E-04
   3.050000        5.1438035E-03
   3.100000        9.1078337E-03
   3.150000        1.0444632E-02
   3.200000        8.1503745E-03
   3.250000        2.5382806E-03
   3.300000       -4.6739150E-03
   3.350000       -1.0887298E-02
   3.400000       -1.3605963E-02
   3.450000       -1.1494482E-02
   3.500000       -5.0404184E-03
   3.550000        3.5116272E-03
   3.600000        1.0982008E-02
   3.650000        1.4518056E-02
   3.700000        1.2762628E-02
   3.750000        6.4164302E-03
   3.800000       -2.0585642E-03
   3.850000       -9.4645917E-03
   3.900000       -1.3167445E-02
   3.950000       -1.2102605E-02
   4.000000       -7.0730499E-03
   4.050000       -2.6104366E-04
   4.100000        5.7692421E-03
   4.150000        9.1003450E-03
   4.200000        9.0822270E-03
   4.250000        6.3452777E-03
   4.300000        2.3085130E-03
   4.350000       -1.5055633E-03
   4.400000       -4.0158723E-03
   4.450000       -4.8007811E-03
   4.500000       -4.0112655E-03
   4.550000       -2.1438566E-03
   4.600000        1.5605800E-04
   4.650000        2.1969907E-03
   4.700000        3.3104764E-03
   4.750000        2.9884083E-03
   4.800000        1.1153404E-03
   4.850000       -1.8127955E-03
   4.900000       -4.6771108E-03
   4.950000       -6.0713105E-03
   5.000000       -4.9338359E-03
   5.050000       -1.2021596E-03
   5.100000        3.8926452E-03
   5.150000        8.1620794E-03
   5.200000        9.3911691E-03
   5.250000        6.4758295E-03
   5.300000        1.8538302E-04
   5.350000       -6.9243009E-03
   5.400000       -1.1532096E-02
   5.450000       -1.1102893E-02
   5.500000       -5.2349875E-03
   5.550000        3.9030388E-03
   5.600000        1.2351946E-02
   5.650000        1.6074404E-02
   5.700000        1.2835093E-02
   5.750000        3.3619218E-03
   5.800000       -8.7856892E-03
   5.850000       -1.8619470E-02
   5.900000       -2.1788161E-02
   5.950000       -1.6407352E-02
   6.000000       -3.8844263E-03
   6.050000        1.1564592E-02
   6.100000        2.4451228E-02
   6.150000        2.9959500E-02
   6.200000        2.5581459E-02
   6.250000        1.1939129E-02
   6.300000       -7.3661543E-03
   6.350000       -2.6736176E-02
   6.400000       -4.0088426E-02
   6.450000       -4.2555120E-02
   6.500000       -3.2018758E-02
   6.550000       -1.0109432E-02
   6.600000        1.7719846E-02
   6.650000        4.3312185E-02
   6.700000        5.8078442E-02
   6.750000        5.5902161E-02
   6.800000        3.5711821E-02
   6.850000        2.6097111E-03
   6.900000       -3.3203579E-02
   6.950000       -5.9661329E-02
   7.000000       -6.7205533E-02
   7.050000       -5.2622098E-02
   7.100000       -2.0667661E-02
   7.150000        1.7392132E-02
   7.200000        4.7936469E-02
   7.250000        6.0235724E-02
   7.300000        5.0634220E-02
   7.350000        2.3900036E-02
   7.400000       -8.8393241E-03
   7.450000       -3.4694649E-02
   7.500000       -4.4193782E-02
   7.550000       -3.4886703E-02
   7.600000       -1.1959499E-02
   7.650000        1.4247213E-02
   7.700000        3.2636262E-02
   7.750000        3.5788465E-02
   7.800000        2.2685267E-02
   7.850000       -1.2033489E-03
   7.900000       -2.6288263E-02
   7.950000       -4.2611677E-02
   8.000000       -4.3521378E-02
   8.050000       -2.8000679E-02
   8.100000       -9.6992403E-04
   8.150000        2.8416932E-02
   8.200000        4.9859129E-02
   8.250000        5.5396482E-02
   8.300000        4.2222708E-02
   8.350000        1.3918396E-02
   8.400000       -2.0395093E-02
   8.450000       -4.8879758E-02
   8.500000       -6.1009806E-02
   8.550000       -5.1495843E-02
   8.600000       -2.2641495E-02
   8.650000        1.5937630E-02
   8.700000        5.0405394E-02
   8.750000        6.7670956E-02
   8.800000        6.0427986E-02
   8.850000        3.0266078E-02
   8.900000       -1.2514180E-02
   8.950000       -5.2486062E-02
   9.000000       -7.4799314E-02
   9.050000       -7.0811599E-02
   9.100000       -4.1441530E-02
   9.150000        3.0719265E-03
   9.200000        4.6897721E-02
   9.250000        7.4374735E-02
   9.300000        7.5627841E-02
   9.350000        5.0007954E-02
   9.400000        6.2241443E-03
   9.450000       -4.0730622E-02
   9.500000       -7.4679315E-02
   9.550000       -8.3633721E-02
   9.600000       -6.3732319E-02
   9.650000       -2.0578556E-02
   9.700000        3.2377280E-02
   9.750000        7.7932701E-02
   9.800000        0.1005377    
   9.850000        9.1431722E-02
   9.900000        5.1900063E-02
   9.950000       -6.5468922E-03
   10.00000       -6.5419063E-02
   10.05000       -0.1051433    
   10.10000       -0.1117948    
   10.15000       -8.2305968E-02
   10.20000       -2.6088964E-02
   10.25000        3.7831608E-02
   10.30000        8.7404855E-02
   10.35000        0.1055475    
   10.40000        8.6512864E-02
   10.45000        3.8089193E-02
   10.50000       -2.1340977E-02
   10.55000       -6.9798931E-02
   10.60000       -9.0028211E-02
   10.65000       -7.5855382E-02
   10.70000       -3.4133762E-02
   10.75000        1.8367216E-02
   10.80000        6.1726879E-02
   10.85000        8.0502748E-02
   10.90000        6.9240525E-02
   10.95000        3.3890836E-02
   11.00000       -1.1124901E-02
   11.05000       -4.8783246E-02
   11.10000       -6.5868244E-02
   11.15000       -5.7544652E-02
   11.20000       -2.8600182E-02
   11.25000        8.8271983E-03
   11.30000        3.9998196E-02
   11.35000        5.3016137E-02
   11.40000        4.3082826E-02
   11.45000        1.4165998E-02
   11.50000       -2.2450458E-02
   11.55000       -5.2253984E-02
   11.60000       -6.2870033E-02
   11.65000       -4.8849143E-02
   11.70000       -1.4089808E-02
   11.75000        2.9174808E-02
   11.80000        6.4694934E-02
   11.85000        7.8385167E-02
   11.90000        6.4030871E-02
   11.95000        2.6155185E-02
   12.00000       -2.1334615E-02
   12.05000       -6.0413346E-02
   12.10000       -7.6100871E-02
   12.15000       -6.2563881E-02
   12.20000       -2.5526226E-02
   12.25000        2.0108532E-02
   12.30000        5.6430936E-02
   12.35000        6.9821902E-02
   12.40000        5.6224518E-02
   12.45000        2.2215720E-02
   12.50000       -1.8350635E-02
   12.55000       -5.0383408E-02
   12.60000       -6.3474163E-02
   12.65000       -5.5217255E-02
   12.70000       -3.0897237E-02
   12.75000       -2.7609989E-04
   12.80000        2.6616883E-02
   12.85000        4.2734362E-02
   12.90000        4.5270808E-02
   12.95000        3.5158865E-02
   13.00000        1.5835384E-02
   13.05000       -7.7420026E-03
   13.10000       -2.9581333E-02
   13.15000       -4.3189675E-02
   13.20000       -4.2898580E-02
   13.25000       -2.6121056E-02
   13.30000        4.3488257E-03
   13.35000        3.9570246E-02
   13.40000        6.6503212E-02
   13.45000        7.2809748E-02
   13.50000        5.2626017E-02
   13.55000        1.0458365E-02
   13.60000       -3.9239693E-02
   13.65000       -7.7352121E-02
   13.70000       -8.8268310E-02
   13.75000       -6.7176774E-02
   13.80000       -2.2781409E-02
   13.85000        2.6219267E-02
   13.90000        5.9471261E-02
   13.95000        6.4192504E-02
   14.00000        4.0795937E-02
   14.05000        2.1751635E-03
   14.10000       -3.2883182E-02
   14.15000       -4.8750162E-02
   14.20000       -3.9928623E-02
   14.25000       -1.2670267E-02
   14.30000        1.9136172E-02
   14.35000        4.1244697E-02
   14.40000        4.5562714E-02
   14.45000        3.2782800E-02
   14.50000        1.0433607E-02
   14.55000       -1.1844285E-02
   14.60000       -2.6816625E-02
   14.65000       -3.1685051E-02
   14.70000       -2.7285419E-02
   14.75000       -1.5943928E-02
   14.80000       -1.9608065E-05
   14.85000        1.7845312E-02
   14.90000        3.3479489E-02
   14.95000        4.0783990E-02
   15.00000        3.3628520E-02
   15.05000        9.7207092E-03
   15.10000       -2.5822841E-02
   15.15000       -6.0128391E-02
   15.20000       -7.6972589E-02
   15.25000       -6.4629920E-02
   15.30000       -2.3229890E-02
   15.35000        3.2891117E-02
   15.40000        8.0190063E-02
   15.45000        9.6643589E-02
   15.50000        7.3009580E-02
   15.55000        1.8495202E-02
   15.60000       -4.2760506E-02
   15.65000       -8.3142132E-02
   15.70000       -8.5211679E-02
   15.75000       -5.0315160E-02
   15.80000        2.5769882E-03
   15.85000        4.7222916E-02
   15.90000        6.3974544E-02
   15.95000        4.9504001E-02
   16.00000        1.7119985E-02
   16.05000       -1.2180815E-02
   16.10000       -2.2458356E-02
   16.15000       -1.1799274E-02
   16.20000        7.6779220E-03
   16.25000        1.8511498E-02
   16.30000        9.7329626E-03
   16.35000       -1.5591326E-02
   16.40000       -4.1895114E-02
   16.45000       -5.0872497E-02
   16.50000       -3.3436500E-02
   16.55000        3.6637112E-03
   16.60000        4.0950947E-02
   16.65000        5.7473052E-02
   16.70000        4.3485004E-02
   16.75000        6.7472644E-03
   16.80000       -3.1648643E-02
   16.85000       -4.9657706E-02
   16.90000       -3.7473582E-02
   16.95000       -3.4697577E-03
   17.00000        3.0883282E-02
   17.05000        4.4175666E-02
   17.10000        2.8298490E-02
   17.15000       -6.4232871E-03
   17.20000       -3.7517767E-02
   17.25000       -4.4348244E-02
   17.30000       -2.1199569E-02
   17.35000        1.8737134E-02
   17.40000        5.1170580E-02
   17.45000        5.5671889E-02
   17.50000        2.8566040E-02
   17.55000       -1.4394298E-02
   17.60000       -4.7496274E-02
   17.65000       -5.1005632E-02
   17.70000       -2.3677550E-02
   17.75000        1.6167440E-02
   17.80000        4.2004991E-02
   17.85000        3.6050938E-02
   17.90000        1.1533834E-03
   17.95000       -4.0175684E-02
   18.00000       -5.9515186E-02
   18.05000       -4.0852800E-02
   18.10000        8.0371648E-03
   18.15000        5.8801755E-02
   18.20000        7.9087436E-02
   18.25000        5.2766822E-02
   18.30000       -8.7021887E-03
   18.35000       -7.1388610E-02
   18.40000       -9.8190032E-02
   18.45000       -7.1131058E-02
   18.50000       -3.1046569E-03
   18.55000        6.8580650E-02
   18.60000        0.1036258    
   18.65000        8.2630150E-02
   18.70000        1.8999130E-02
   18.75000       -4.8714951E-02
   18.80000       -7.9892755E-02
   18.85000       -5.6644753E-02
   18.90000        4.8249140E-03
   18.95000        6.3637257E-02
   19.00000        7.9246402E-02
   19.05000        3.7105922E-02
   19.10000       -4.0821571E-02
   19.15000       -0.1077540    
   19.20000       -0.1196728    
   19.25000       -6.2578246E-02
   19.30000        3.7148729E-02
   19.35000        0.1261661    
   19.40000        0.1541537    
   19.45000        0.1030392    
   19.50000       -1.7942116E-03
   19.55000       -0.1052088    
   19.60000       -0.1531958    
   19.65000       -0.1230420    
   19.70000       -3.5273552E-02
   19.75000        5.9357844E-02
   19.80000        0.1098490    
   19.85000        9.3991220E-02
   19.90000        2.9458575E-02
   19.95000       -3.9076693E-02
   20.00000       -6.8354517E-02
   20.05000       -4.2867605E-02
   20.10000        1.6812492E-02
   20.15000        6.8341613E-02
   20.20000        7.5176083E-02
   20.25000        3.0007578E-02
   20.30000       -4.0544644E-02
   20.35000       -9.2758484E-02
   20.40000       -9.3450889E-02
   20.45000       -4.1004397E-02
   20.50000        3.3461750E-02
   20.55000        8.5521609E-02
   20.60000        8.5237682E-02
   20.65000        3.5765864E-02
   20.70000       -2.9053092E-02
   20.75000       -6.6682801E-02
   20.80000       -5.3545106E-02
   20.85000       -6.1858073E-04
   20.90000        5.3322721E-02
   20.95000        6.6999786E-02
   21.00000        2.4593171E-02
   21.05000       -5.1710341E-02
   21.10000       -0.1134532    
   21.15000       -0.1156080    
   21.20000       -4.6197750E-02
   21.25000        6.2993467E-02
   21.30000        0.1524301    
   21.35000        0.1690418    
   21.40000        9.8483868E-02
   21.45000       -2.4328895E-02
   21.50000       -0.1336417    
   21.55000       -0.1701168    
   21.60000       -0.1151689    
   21.65000       -1.8976107E-03
   21.70000        0.1041883    
   21.75000        0.1434648    
   21.80000        9.6842274E-02
   21.85000       -3.8309470E-03
   21.90000       -9.5734701E-02
   21.95000       -0.1233073    
   22.00000       -7.1655646E-02
   22.05000        2.4992436E-02
   22.10000        0.1047959    
   22.15000        0.1165941    
   22.20000        5.1616468E-02
   22.25000       -5.0771117E-02
   22.30000       -0.1268778    
   22.35000       -0.1276526    
   22.40000       -4.9116284E-02
   22.45000        6.4335063E-02
   22.50000        0.1459513    
   22.55000        0.1464154    
   22.60000        6.3477129E-02
   22.65000       -5.6384355E-02
   22.70000       -0.1452476    
   22.75000       -0.1535906    
   22.80000       -7.8881197E-02
   22.85000        3.3939205E-02
   22.90000        0.1199209    
   22.95000        0.1326560    
   23.00000        7.0710897E-02
   23.05000       -2.3531809E-02
   23.10000       -9.1175131E-02
   23.15000       -9.3075514E-02
   23.20000       -3.2868110E-02
   23.25000        4.6908028E-02
   23.30000        9.2543796E-02
   23.35000        7.3179021E-02
   23.40000        5.9530139E-06
   23.45000       -8.0979653E-02
   23.50000       -0.1178575    
   23.55000       -8.5209131E-02
   23.60000       -4.1574240E-05
   23.65000        8.8460565E-02
   23.70000        0.1288327    
   23.75000        9.8374315E-02
   23.80000        1.6369157E-02
   23.85000       -6.8315148E-02
   23.90000       -0.1072479    
   23.95000       -8.1435204E-02
   24.00000       -1.1627145E-02
   24.05000        5.5930071E-02
   24.10000        7.8950837E-02
   24.15000        4.5247246E-02
   24.20000       -2.0566564E-02
   24.25000       -7.3573917E-02
   24.30000       -7.7546179E-02
   24.35000       -2.8088450E-02
   24.40000        4.4518776E-02
   24.45000        9.4412267E-02
   24.50000        8.9089662E-02
   24.55000        3.0050322E-02
   24.60000       -4.7750622E-02
   24.65000       -9.7280838E-02
   24.70000       -8.8358440E-02
   24.75000       -2.6231661E-02
   24.80000        5.1603258E-02
   24.85000        9.8284855E-02
   24.90000        8.6024061E-02
   24.95000        2.2684924E-02
   25.00000       -5.3446844E-02
   25.05000       -9.7206958E-02
   25.10000       -8.3798476E-02
   25.15000       -2.3144692E-02
   25.20000        4.7057875E-02
   25.25000        8.4842503E-02
   25.30000        6.9334283E-02
   25.35000        1.2541238E-02
   25.40000       -4.9144622E-02
   25.45000       -7.7886775E-02
   25.50000       -5.7325728E-02
   25.55000       -1.5441775E-03
   25.60000        5.4814011E-02
   25.65000        7.8432702E-02
   25.70000        5.7300866E-02
   25.75000        6.6430271E-03
   25.80000       -4.2110175E-02
   25.85000       -6.1576717E-02
   25.90000       -4.4800408E-02
   25.95000       -7.7283382E-03
   26.00000        2.2961080E-02
   26.05000        2.8065266E-02
   26.10000        8.0008656E-03
   26.15000       -1.8779391E-02
   26.20000       -2.9497067E-02
   26.25000       -1.3329821E-02
   26.30000        2.0784700E-02
   26.35000        5.0038256E-02
   26.40000        5.3318568E-02
   26.45000        2.5926471E-02
   26.50000       -1.6573854E-02
   26.55000       -4.8185095E-02
   26.60000       -4.9640551E-02
   26.65000       -2.1496471E-02
   26.70000        1.5790939E-02
   26.75000        3.5265326E-02
   26.80000        2.1795906E-02
   26.85000       -1.6813938E-02
   26.90000       -5.3730331E-02
   26.95000       -6.0141105E-02
   27.00000       -2.4799902E-02
   27.05000        3.6734942E-02
   27.10000        8.9825317E-02
   27.15000        0.1013819    
   27.20000        6.0812134E-02
   27.25000       -1.2057301E-02
   27.30000       -7.7675015E-02
   27.35000       -0.1000781    
   27.40000       -6.8661697E-02
   27.45000       -4.7862157E-03
   27.50000        5.1248632E-02
   27.55000        6.5135077E-02
   27.60000        3.0031815E-02
   27.65000       -2.8939329E-02
   27.70000       -7.0326507E-02
   27.75000       -6.2694721E-02
   27.80000       -5.3412169E-03
   27.85000        6.9801882E-02
   27.90000        0.1167850    
   27.95000        0.1037127    
   28.00000        3.3072144E-02
   28.05000       -5.8435425E-02
   28.10000       -0.1208961    
   28.15000       -0.1205359    
   28.20000       -5.9664585E-02
   28.25000        2.4955250E-02
   28.30000        8.4363237E-02
   28.35000        8.6729631E-02
   28.40000        3.5894781E-02
   28.45000       -3.2083184E-02
   28.50000       -7.2028130E-02
   28.55000       -5.7974011E-02
   28.60000        8.3703548E-04
   28.65000        6.6110492E-02
   28.70000        9.4829433E-02
   28.75000        6.6483311E-02
   28.80000       -3.8433746E-03
   28.85000       -7.4696183E-02
   28.90000       -0.1039964    
   28.95000       -7.5167790E-02
   29.00000       -7.2608069E-03
   29.05000        5.7275310E-02
   29.10000        7.9463735E-02
   29.15000        4.8347130E-02
   29.20000       -1.2364089E-02
   29.25000       -5.9864048E-02
   29.30000       -6.0264766E-02
   29.35000       -1.1202067E-02
   29.40000        5.5659220E-02
   29.45000        9.4347522E-02
   29.50000        7.4464604E-02
   29.55000        2.2833943E-03
   29.60000       -8.0896921E-02
   29.65000       -0.1231043    
   29.70000       -9.4283536E-02
   29.75000       -6.8395138E-03
   29.80000        8.9419290E-02
   29.85000        0.1360246    
   29.90000        0.1015184    
   29.95000        2.2904947E-03
   30.00000       -0.1049141    
   30.05000       -0.1554607    
   30.10000       -0.1155279    
   30.15000       -3.8428530E-03
   30.20000        0.1172770    
   30.25000        0.1772590    
   30.30000        0.1387151    
   30.35000        2.0515501E-02
   30.40000       -0.1116640    
   30.45000       -0.1825159    
   30.50000       -0.1507133    
   30.55000       -3.3506669E-02
   30.60000        0.1023812    
   30.65000        0.1787126    
   30.70000        0.1507998    
   30.75000        3.3610448E-02
   30.80000       -0.1063152    
   30.85000       -0.1886321    
   30.90000       -0.1650023    
   30.95000       -4.6700463E-02
   31.00000        0.1016937    
   31.05000        0.1987197    
   31.10000        0.1916356    
   31.15000        8.5303694E-02
   31.20000       -6.1624497E-02
   31.25000       -0.1703741    
   31.30000       -0.1859106    
   31.35000       -0.1061215    
   31.40000        1.9516908E-02
   31.45000        0.1198773    
   31.50000        0.1427381    
   31.55000        8.2696944E-02
   31.60000       -1.8689305E-02
   31.65000       -9.9265143E-02
   31.70000       -0.1128780    
   31.75000       -5.4902405E-02
   31.80000        3.7298188E-02
   31.85000        0.1079718    
   31.90000        0.1159354    
   31.95000        5.7562385E-02
   32.00000       -3.2842409E-02
   32.05000       -0.1043228    
   32.10000       -0.1188906    
   32.15000       -7.2113551E-02
   32.20000        6.5521970E-03
   32.25000        7.2633244E-02
   32.30000        9.2690565E-02
   32.35000        6.2134769E-02
   32.40000        5.1281638E-03
   32.45000       -4.2080324E-02
   32.50000       -5.3463466E-02
   32.55000       -2.7640257E-02
   32.60000        1.3590820E-02
   32.65000        4.0667072E-02
   32.70000        3.5428908E-02
   32.75000        2.1154210E-03
   32.80000       -3.6205646E-02
   32.85000       -5.3005569E-02
   32.90000       -3.5550445E-02
   32.95000        6.7512169E-03
   33.00000        4.7993794E-02
   33.05000        6.1815906E-02
   33.10000        3.7902161E-02
   33.15000       -1.1204649E-02
   33.20000       -5.7191268E-02
   33.25000       -7.2735853E-02
   33.30000       -4.7878042E-02
   33.35000        3.8395636E-03
   33.40000        5.3179849E-02
   33.45000        7.2369412E-02
   33.50000        5.1435098E-02
   33.55000        4.0187910E-03
   33.60000       -4.0811401E-02
   33.65000       -5.5951364E-02
   33.70000       -3.2582346E-02
   33.75000        1.4281556E-02
   33.80000        5.4446544E-02
   33.85000        6.0486220E-02
   33.90000        2.4545770E-02
   33.95000       -3.5924055E-02
   34.00000       -8.7140039E-02
   34.05000       -9.7834468E-02
   34.10000       -5.7367463E-02
   34.15000        1.7257553E-02
   34.20000        8.9670569E-02
   34.25000        0.1233063    
   34.30000        0.1009290    
   34.35000        3.3754244E-02
   34.40000       -4.4776887E-02
   34.45000       -9.6973933E-02
   34.50000       -0.1005985    
   34.55000       -5.9526511E-02
   34.60000        1.0821968E-04
   34.65000        4.5546979E-02
   34.70000        5.5624887E-02
   34.75000        3.1309336E-02
   34.80000       -6.9298223E-03
   34.85000       -3.2671332E-02
   34.90000       -2.9605158E-02
   34.95000       -6.2533654E-04
   35.00000        3.5032272E-02
   35.05000        5.4325476E-02
   35.10000        4.4664115E-02
   35.15000        1.1205487E-02
   35.20000       -2.6977018E-02
   35.25000       -4.9083985E-02
   35.30000       -4.5300346E-02
   35.35000       -2.2070009E-02
   35.40000        3.1660050E-03
   35.45000        1.4106771E-02
   35.50000        6.5426710E-03
   35.55000       -9.1629699E-03
   35.60000       -1.5817376E-02
   35.65000       -2.3140553E-03
   35.70000        2.7030306E-02
   35.75000        5.3514622E-02
   35.80000        5.5663906E-02
   35.85000        2.4428751E-02
   35.90000       -2.8088789E-02
   35.95000       -7.3111832E-02
   36.00000       -8.1524588E-02
   36.05000       -4.2768065E-02
   36.10000        2.5694158E-02
   36.15000        8.5564397E-02
   36.20000        9.8933749E-02
   36.25000        5.1780932E-02
   36.30000       -3.4634762E-02
   36.35000       -0.1127714    
   36.40000       -0.1347065    
   36.45000       -8.0804408E-02
   36.50000        2.5899790E-02
   36.55000        0.1294369    
   36.60000        0.1708984    
   36.65000        0.1224407    
   36.70000        5.5295527E-03
   36.75000       -0.1183257    
   36.80000       -0.1806054    
   36.85000       -0.1446555    
   36.90000       -2.8090574E-02
   36.95000        0.1050827    
   37.00000        0.1794049    
   37.05000        0.1508439    
   37.10000        3.3103637E-02
   37.15000       -0.1084442    
   37.20000       -0.1927659    
   37.25000       -0.1692349    
   37.30000       -4.7473043E-02
   37.35000        0.1066481    
   37.40000        0.2073253    
   37.45000        0.1972428    
   37.50000        8.0499634E-02
   37.55000       -7.9069689E-02
   37.60000       -0.1936176    
   37.65000       -0.2008638    
   37.70000       -9.9193975E-02
   37.75000        5.1884323E-02
   37.80000        0.1661819    
   37.85000        0.1802755    
   37.90000        8.9420393E-02
   37.95000       -5.0703451E-02
   38.00000       -0.1571456    
   38.05000       -0.1681998    
   38.10000       -7.8933597E-02
   38.15000        5.6821659E-02
   38.20000        0.1588092    
   38.25000        0.1677020    
   38.30000        7.9545431E-02
   38.35000       -5.2774422E-02
   38.40000       -0.1514862    
   38.45000       -0.1600527    
   38.50000       -7.6048747E-02
   38.55000        4.8464209E-02
   38.60000        0.1388368    
   38.65000        0.1426102    
   38.70000        6.0333133E-02
   38.75000       -5.5796459E-02
   38.80000       -0.1342504    
   38.85000       -0.1276913    
   38.90000       -4.1378833E-02
   38.95000        7.0559584E-02
   39.00000        0.1385290    
   39.05000        0.1201525    
   39.10000        2.6294269E-02
   39.15000       -8.5408457E-02
   39.20000       -0.1456399    
   39.25000       -0.1158849    
   39.30000       -1.2479730E-02
   39.35000        0.1025520    
   39.40000        0.1586319    
   39.45000        0.1195031    
   39.50000        5.9428066E-03
   39.55000       -0.1156831    
   39.60000       -0.1725697    
   39.65000       -0.1291349    
   39.70000       -9.0327114E-03
   39.75000        0.1179591    
   39.80000        0.1767911    
   39.85000        0.1317152    
   39.90000        8.0974996E-03
   39.95000       -0.1217452    
   40.00000       -0.1806887    
   40.05000       -0.1323040    
   40.10000       -2.9193312E-03
   40.15000        0.1329509    
   40.20000        0.1955660    
   40.25000        0.1463921    
   40.30000        1.0961980E-02
   40.35000       -0.1352214    
   40.40000       -0.2096662    
   40.45000       -0.1699626    
   40.50000       -3.7860528E-02
   40.55000        0.1133404    
   40.60000        0.2005908    
   40.65000        0.1779155    
   40.70000        6.1516181E-02
   40.75000       -8.0777526E-02
   40.80000       -0.1690372    
   40.85000       -0.1566554    
   40.90000       -5.5687189E-02
   40.95000        7.1815476E-02
   41.00000        0.1506752    
   41.05000        0.1359190    
   41.10000        3.7706271E-02
   41.15000       -8.5837811E-02
   41.20000       -0.1629082    
   41.25000       -0.1491531    
   41.30000       -5.2108377E-02
   41.35000        7.4377805E-02
   41.40000        0.1615750    
   41.45000        0.1645045    
   41.50000        8.5758775E-02
   41.55000       -2.8252080E-02
   41.60000       -0.1152602    
   41.65000       -0.1324125    
   41.70000       -7.8628391E-02
   41.75000        7.8667700E-03
   41.80000        7.4040987E-02
   41.85000        8.3397426E-02
   41.90000        3.5859302E-02
   41.95000       -3.4578770E-02
   42.00000       -8.1872083E-02
   42.05000       -7.5845629E-02
   42.10000       -1.9503258E-02
   42.15000        5.3857751E-02
   42.20000        0.1011651    
   42.25000        9.5045835E-02
   42.30000        3.9251991E-02
   42.35000       -3.4509078E-02
   42.40000       -8.5751392E-02
   42.45000       -8.8646173E-02
   42.50000       -4.5992367E-02
   42.55000        1.3948873E-02
   42.60000        5.5180356E-02
   42.65000        5.5342533E-02
   42.70000        1.8142581E-02
   42.75000       -3.0062944E-02
   42.80000       -5.6950528E-02
   42.85000       -4.3951549E-02
   42.90000        2.6594996E-03
   42.95000        5.5610742E-02
   43.00000        8.2852699E-02
   43.05000        6.6468932E-02
   43.10000        1.3257276E-02
   43.15000       -4.8997309E-02
   43.20000       -8.7199301E-02
   43.25000       -8.1440523E-02
   43.30000       -3.5803787E-02
   43.35000        2.4424460E-02
   43.40000        6.7209445E-02
   43.45000        7.1473166E-02
   43.50000        3.8082950E-02
   43.55000       -1.1740722E-02
   43.60000       -4.9212981E-02
   43.65000       -5.4377772E-02
   43.70000       -2.6793402E-02
   43.75000        1.5234597E-02
   43.80000        4.5963749E-02
   43.85000        4.7268037E-02
   43.90000        1.8786591E-02
   43.95000       -2.2396747E-02
   44.00000       -5.2005738E-02
   44.05000       -5.2634567E-02
   44.10000       -2.3552909E-02
   44.15000        1.9158524E-02
   44.20000        5.1943600E-02
   44.25000        5.7065081E-02
   44.30000        3.2298360E-02
   44.35000       -8.2768165E-03
   44.40000       -4.2537596E-02
   44.45000       -5.2724615E-02
   44.50000       -3.4950309E-02
   44.55000       -6.4517558E-04
   44.60000        3.0523567E-02
   44.65000        4.1947268E-02
   44.70000        2.9096372E-02
   44.75000        1.3297908E-03
   44.80000       -2.4179760E-02
   44.85000       -3.2611616E-02
   44.90000       -1.9822616E-02