 -0.5000000        3.6009245E-31
 -0.4500000        1.0802773E-30
 -0.4000000        1.2981664E-30
 -0.3500000        6.3787101E-31
 -0.3000000       -2.3493870E-31
 -0.2500000        3.2339241E-15
 -0.2000000        6.0237371E-14
 -0.1500000        6.2930330E-13
 -0.1000000        4.8525064E-12
 -5.0000001E-02    3.0374068E-11
  0.0000000E+00    1.6039885E-10
  5.0000001E-02    7.2650524E-10
  0.1000000        2.8438247E-09
  0.1500000        9.6514317E-09
  0.2000000        2.8390819E-08
  0.2500000        7.2012107E-08
  0.3000000        1.5524729E-07
  0.3500000        2.7442434E-07
  0.4000000        3.5778947E-07
  0.4500000        1.8567945E-07
  0.5000000       -6.7853773E-07
  0.5500000       -2.8365284E-06
  0.6000000       -6.7161095E-06
  0.6500000       -1.1828073E-05
  0.7000000       -1.5754757E-05
  0.7500000       -1.3470359E-05
  0.8000000        1.9442796E-06
  0.8500000        3.6124628E-05
  0.9000000        8.7671157E-05
  0.9500000        1.4174289E-04
   1.000000        1.6728204E-04
   1.050000        1.2318656E-04
   1.100000       -2.3487337E-05
   1.150000       -2.7049071E-04
   1.200000       -5.5622228E-04
   1.250000       -7.5615779E-04
   1.300000       -7.1520190E-04
   1.350000       -3.1717640E-04
   1.400000        4.3015354E-04
   1.450000        1.3369587E-03
   1.500000        2.0468237E-03
   1.550000        2.1497190E-03
   1.600000        1.3692267E-03
   1.650000       -2.5116251E-04
   1.700000       -2.2643749E-03
   1.750000       -3.9162254E-03
   1.800000       -4.4225538E-03
   1.850000       -3.3276926E-03
   1.900000       -7.7558542E-04
   1.950000        2.4643214E-03
   2.000000        5.2697891E-03
   2.050000        6.6335201E-03
   2.100000        6.0970266E-03
   2.150000        3.9121034E-03
   2.200000        8.2712865E-04
   2.250000       -2.3807783E-03
   2.300000       -5.3232806E-03
   2.350000       -8.0527263E-03
   2.400000       -1.0643749E-02
   2.450000       -1.2543096E-02
   2.500000       -1.2197710E-02
   2.550000       -7.4567804E-03
   2.600000        3.1393615E-03
   2.650000        1.8681483E-02
   2.700000        3.4824710E-02
   2.750000        4.4355445E-02
   2.800000        3.9782748E-02
   2.850000        1.7244002E-02
   2.900000       -2.0025959E-02
   2.950000       -6.0749926E-02
   3.000000       -8.8511176E-02
   3.050000       -8.8107131E-02
   3.100000       -5.3008273E-02
   3.150000        9.5745772E-03
   3.200000        7.9063445E-02
   3.250000        0.1282428    
   3.300000        0.1342557    
   3.350000        8.9320481E-02
   3.400000        6.0719475E-03
   3.450000       -8.5655265E-02
   3.500000       -0.1500609    
   3.550000       -0.1602241    
   3.600000       -0.1100642    
   3.650000       -1.7806258E-02
   3.700000        8.1016101E-02
   3.750000        0.1482118    
   3.800000        0.1588101    
   3.850000        0.1110888    
   3.900000        2.6380185E-02
   3.950000       -6.0943820E-02
   4.000000       -0.1184155    
   4.050000       -0.1284228    
   4.100000       -9.3613766E-02
   4.150000       -3.3129811E-02
   4.200000        2.7550619E-02
   4.250000        6.7737035E-02
   4.300000        7.8508340E-02
   4.350000        6.3243911E-02
   4.400000        3.2952361E-02
   4.450000       -4.5817345E-05
   4.500000       -2.6568960E-02
   4.550000       -4.1672979E-02
   4.600000       -4.3408398E-02
   4.650000       -3.1544365E-02
   4.700000       -7.9145180E-03
   4.750000        2.1951007E-02
   4.800000        4.8011802E-02
   4.850000        5.7924468E-02
   4.900000        4.2585280E-02
   4.950000        2.5675092E-03
   5.000000       -4.8691232E-02
   5.050000       -8.8264614E-02
   5.100000       -9.3642280E-02
   5.150000       -5.4985158E-02
   5.200000        1.6862581E-02
   5.250000        9.2057928E-02
   5.300000        0.1340013    
   5.350000        0.1171748    
   5.400000        4.1785870E-02
   5.450000       -6.2971160E-02
   5.500000       -0.1500593    
   5.550000       -0.1758692    
   5.600000       -0.1217134    
   5.650000       -4.8311055E-03
   5.700000        0.1271251    
   5.750000        0.2162079    
   5.800000        0.2198136    
   5.850000        0.1300242    
   5.900000       -2.2121742E-02
   5.950000       -0.1790377    
   6.000000       -0.2797194    
   6.050000       -0.2833561    
   6.100000       -0.1839485    
   6.150000       -1.1301860E-02
   6.200000        0.1802039    
   6.250000        0.3294760    
   6.300000        0.3867529    
   6.350000        0.3272227    
   6.400000        0.1581896    
   6.450000       -8.0696307E-02
   6.500000       -0.3244565    
   6.550000       -0.4973857    
   6.600000       -0.5342160    
   6.650000       -0.4035859    
   6.700000       -0.1258999    
   6.750000        0.2236659    
   6.800000        0.5329242    
   6.850000        0.6891537    
   6.900000        0.6227101    
   6.950000        0.3400193    
   7.000000       -7.0392370E-02
   7.050000       -0.4653784    
   7.100000       -0.7001416    
   7.150000       -0.6860403    
   7.200000       -0.4284348    
   7.250000       -2.6976749E-02
   7.300000        0.3633571    
   7.350000        0.5947350    
   7.400000        0.5859460    
   7.450000        0.3535437    
   7.500000        1.9201934E-03
   7.550000       -0.3223423    
   7.600000       -0.4913378    
   7.650000       -0.4459561    
   7.700000       -0.2154114    
   7.750000        9.9510238E-02
   7.800000        0.3699175    
   7.850000        0.4897341    
   7.900000        0.4140821    
   7.950000        0.1723306    
   8.000000       -0.1461098    
   8.050000       -0.4255137    
   8.100000       -0.5641751    
   8.150000       -0.5082898    
   8.200000       -0.2697952    
   8.250000        7.6364249E-02
   8.300000        0.4147809    
   8.350000        0.6261780    
   8.400000        0.6279815    
   8.450000        0.4061469    
   8.500000        2.6160389E-02
   8.550000       -0.3836839    
   8.600000       -0.6743357    
   8.650000       -0.7304693    
   8.700000       -0.5173328    
   8.750000       -0.1002246    
   8.800000        0.3740505    
   8.850000        0.7294233    
   8.900000        0.8275225    
   8.950000        0.6228517    
   9.000000        0.1832549    
   9.050000       -0.3335788    
   9.100000       -0.7388361    
   9.150000       -0.8833927    
   9.200000       -0.7130277    
   9.250000       -0.2873006    
   9.300000        0.2436682    
   9.350000        0.6940370    
   9.400000        0.9073852    
   9.450000        0.8090339    
   9.500000        0.4290308    
   9.550000       -0.1094695    
   9.600000       -0.6305506    
   9.650000       -0.9610946    
   9.700000       -0.9851112    
   9.750000       -0.6816037    
   9.800000       -0.1349902    
   9.850000        0.4863758    
   9.900000        0.9797848    
   9.950000         1.173190    
   10.00000        0.9859638    
   10.05000        0.4637578    
   10.10000       -0.2283729    
   10.15000       -0.8570576    
   10.20000        -1.201374    
   10.25000        -1.134937    
   10.30000       -0.6771576    
   10.35000        8.9205503E-03
   10.40000        0.6745826    
   10.45000         1.078537    
   10.50000         1.078879    
   10.55000        0.6868700    
   10.60000        6.0563266E-02
   10.65000       -0.5589439    
   10.70000       -0.9422238    
   10.75000       -0.9586037    
   10.80000       -0.6213534    
   10.85000       -7.5136125E-02
   10.90000        0.4661178    
   10.95000        0.8036519    
   11.00000        0.8267387    
   11.05000        0.5474323    
   11.10000        8.7614387E-02
   11.15000       -0.3726791    
   11.20000       -0.6637168    
   11.25000       -0.6859825    
   11.30000       -0.4418887    
   11.35000       -3.0846238E-02
   11.40000        0.3885011    
   11.45000        0.6553323    
   11.50000        0.6641989    
   11.55000        0.4041943    
   11.60000       -3.4050137E-02
   11.65000       -0.4878037    
   11.70000       -0.7802401    
   11.75000       -0.7878467    
   11.80000       -0.4921017    
   11.85000        6.6428781E-03
   11.90000        0.5223016    
   11.95000        0.8536553    
   12.00000        0.8656843    
   12.05000        0.5476604    
   12.10000        2.1503001E-02
   12.15000       -0.5057480    
   12.20000       -0.8267244    
   12.25000       -0.8195707    
   12.30000       -0.4971323    
   12.35000        2.0652413E-03
   12.40000        0.4760619    
   12.45000        0.7457505    
   12.50000        0.7259898    
   12.55000        0.4512342    
   12.60000        4.8338190E-02
   12.65000       -0.3257685    
   12.70000       -0.5494099    
   12.75000       -0.5751393    
   12.80000       -0.4301033    
   12.85000       -0.1865389    
   12.90000        7.5754330E-02
   12.95000        0.2943529    
   13.00000        0.4290071    
   13.05000        0.4541658    
   13.10000        0.3544758    
   13.15000        0.1331721    
   13.20000       -0.1706860    
   13.25000       -0.4724733    
   13.30000       -0.6569118    
   13.35000       -0.6215425    
   13.40000       -0.3323940    
   13.45000        0.1387723    
   13.50000        0.6235136    
   13.55000        0.9186562    
   13.60000        0.8781036    
   13.65000        0.4902849    
   13.70000       -0.1017542    
   13.75000       -0.6548693    
   13.80000       -0.9339604    
   13.85000       -0.8225264    
   13.90000       -0.3797321    
   13.95000        0.1867531    
   14.00000        0.6201727    
   14.05000        0.7367899    
   14.10000        0.5092518    
   14.15000        7.0453301E-02
   14.20000       -0.3607989    
   14.25000       -0.5906463    
   14.30000       -0.5391465    
   14.35000       -0.2642615    
   14.40000        8.4622741E-02
   14.45000        0.3512934    
   14.50000        0.4462709    
   14.55000        0.3725001    
   14.60000        0.1984037    
   14.65000        4.6836063E-03
   14.70000       -0.1574145    
   14.75000       -0.2726592    
   14.80000       -0.3378912    
   14.85000       -0.3349880    
   14.90000       -0.2293832    
   14.95000       -1.4872104E-03
   15.00000        0.3106346    
   15.05000        0.5945138    
   15.10000        0.6984901    
   15.15000        0.5114964    
   15.20000        4.5014799E-02
   15.25000       -0.5374266    
   15.30000       -0.9752092    
   15.35000        -1.034198    
   15.40000       -0.6375240    
   15.45000        7.1804613E-02
   15.50000        0.7814828    
   15.55000         1.157699    
   15.60000         1.016372    
   15.65000        0.4245115    
   15.70000       -0.3282689    
   15.75000       -0.8778848    
   15.80000       -0.9753783    
   15.85000       -0.6139735    
   15.90000       -2.2809923E-02
   15.95000        0.4685453    
   16.00000        0.6168472    
   16.05000        0.3957823    
   16.10000       -3.8164705E-03
   16.15000       -0.3013636    
   16.20000       -0.3031083    
   16.25000       -2.0550728E-02
   16.30000        0.3410281    
   16.35000        0.5162810    
   16.40000        0.3528126    
   16.45000       -8.4584758E-02
   16.50000       -0.5453604    
   16.55000       -0.7438729    
   16.60000       -0.5380924    
   16.65000       -2.5340378E-02
   16.70000        0.5072573    
   16.75000        0.7513355    
   16.80000        0.5640489    
   16.85000        5.8249116E-02
   16.90000       -0.4618790    
   16.95000       -0.6835677    
   17.00000       -0.4764534    
   17.05000        2.5848061E-02
   17.10000        0.5059886    
   17.15000        0.6581610    
   17.20000        0.3792482    
   17.25000       -0.1631821    
   17.30000       -0.6308522    
   17.35000       -0.7236984    
   17.40000       -0.3693440    
   17.45000        0.2260481    
   17.50000        0.7006626    
   17.55000        0.7606216    
   17.60000        0.3661103    
   17.65000       -0.2381906    
   17.70000       -0.6717333    
   17.75000       -0.6568264    
   17.80000       -0.1988343    
   17.85000        0.4085181    
   17.90000        0.7622688    
   17.95000        0.6066883    
   18.00000        6.7734718E-03
   18.05000       -0.6755215    
   18.10000       -0.9965441    
   18.15000       -0.7105019    
   18.20000        6.0349196E-02
   18.25000        0.8778951    
   18.30000         1.241553    
   18.35000        0.8948773    
   18.40000       -2.5756955E-03
   18.45000       -0.9508529    
   18.50000        -1.397116    
   18.55000        -1.067304    
   18.60000       -0.1404953    
   18.65000        0.8462651    
   18.70000         1.313449    
   18.75000        0.9889175    
   18.80000        7.9298854E-02
   18.85000       -0.8471735    
   18.90000        -1.202815    
   18.95000       -0.7442098    
   19.00000        0.2653171    
   19.05000         1.200681    
   19.10000         1.448599    
   19.15000        0.7885095    
   19.20000       -0.4517605    
   19.25000        -1.568217    
   19.30000        -1.887445    
   19.35000        -1.170051    
   19.40000        0.2312680    
   19.45000         1.559477    
   19.50000         2.082478    
   19.55000         1.514016    
   19.60000        0.1783341    
   19.65000        -1.179218    
   19.70000        -1.823992    
   19.75000        -1.451221    
   19.80000       -0.3463320    
   19.85000        0.8039033    
   19.90000         1.330676    
   19.95000        0.9781281    
   20.00000        3.7907422E-02
   20.05000       -0.8516704    
   20.10000        -1.112092    
   20.15000       -0.5836363    
   20.20000        0.3833387    
   20.25000         1.157205    
   20.30000         1.227659    
   20.35000        0.5290625    
   20.40000       -0.5175380    
   20.45000        -1.269121    
   20.50000        -1.265254    
   20.55000       -0.5177551    
   20.60000        0.4975585    
   20.65000         1.142906    
   20.70000         1.024483    
   20.75000        0.2449163    
   20.80000       -0.6606447    
   20.85000        -1.068679    
   20.90000       -0.6761833    
   20.95000        0.2872962    
   21.00000         1.187102    
   21.05000         1.380464    
   21.10000        0.6389780    
   21.15000       -0.6725513    
   21.20000        -1.786010    
   21.25000        -1.986275    
   21.30000        -1.060481    
   21.35000        0.5394621    
   21.40000         1.933704    
   21.45000         2.321252    
   21.50000         1.457876    
   21.55000       -0.1847280    
   21.60000        -1.682189    
   21.65000        -2.193568    
   21.70000        -1.453623    
   21.75000        7.3458254E-02
   21.80000         1.472954    
   21.85000         1.925766    
   21.90000         1.194763    
   21.95000       -0.2407869    
   22.00000        -1.482991    
   22.05000        -1.764508    
   22.10000       -0.9160126    
   22.15000        0.5317935    
   22.20000         1.673648    
   22.25000         1.784938    
   22.30000        0.7688119    
   22.35000       -0.7776156    
   22.40000        -1.919876    
   22.45000        -1.950674    
   22.50000       -0.8208035    
   22.55000        0.8247389    
   22.60000         2.027994    
   22.65000         2.087246    
   22.70000        0.9720654    
   22.75000       -0.6636574    
   22.80000        -1.875290    
   22.85000        -1.988015    
   22.90000       -0.9871675    
   22.95000        0.4920959    
   23.00000         1.561871    
   23.05000         1.618854    
   23.10000        0.6954349    
   23.15000       -0.5830676    
   23.20000        -1.399830    
   23.25000        -1.254115    
   23.30000       -0.2627094    
   23.35000        0.9253749    
   23.40000         1.541582    
   23.45000         1.178631    
   23.50000        4.2295933E-02
   23.55000        -1.178153    
   23.60000        -1.736688    
   23.65000        -1.288735    
   23.70000       -9.9134386E-02
   23.75000         1.124633    
   23.80000         1.666889    
   23.85000         1.236165    
   23.90000        0.1311982    
   23.95000       -0.9562066    
   24.00000        -1.373650    
   24.05000       -0.9057783    
   24.10000        0.1068272    
   24.15000        0.9951710    
   24.20000         1.188209    
   24.25000        0.5697970    
   24.30000       -0.4548495    
   24.35000        -1.220642    
   24.40000        -1.225000    
   24.45000       -0.4457061    
   24.50000        0.6436170    
   24.55000         1.368397    
   24.60000         1.273306    
   24.65000        0.4060770    
   24.70000       -0.7104876    
   24.75000        -1.399610    
   24.80000        -1.245159    
   24.85000       -0.3442068    
   24.90000        0.7559951    
   24.95000         1.394702    
   25.00000         1.198914    
   25.05000        0.3035166    
   25.10000       -0.7406162    
   25.15000        -1.308554    
   25.20000        -1.079863    
   25.25000       -0.2227609    
   25.30000        0.7230097    
   25.35000         1.184782    
   25.40000        0.9042740    
   25.45000        8.1808984E-02
   25.50000       -0.7634233    
   25.55000        -1.121392    
   25.60000       -0.7997652    
   25.65000       -2.4868965E-02
   25.70000        0.7178928    
   25.75000        0.9941061    
   25.80000        0.6821966    
   25.85000        2.6907057E-02
   25.90000       -0.5384749    
   25.95000       -0.6776060    
   26.00000       -0.3579316    
   26.05000        0.1496002    
   26.10000        0.4684398    
   26.15000        0.3749721    
   26.20000       -5.4498732E-02
   26.25000       -0.5028147    
   26.30000       -0.6336737    
   26.35000       -0.3253322    
   26.40000        0.2411195    
   26.45000        0.6989197    
   26.50000        0.7411075    
   26.55000        0.3306603    
   26.60000       -0.2668866    
   26.65000       -0.6543076    
   26.70000       -0.5676061    
   26.75000       -6.0038805E-02
   26.80000        0.5207976    
   26.85000        0.7552597    
   26.90000        0.4332637    
   26.95000       -0.2893124    
   27.00000       -0.9687643    
   27.05000        -1.146250    
   27.10000       -0.6464645    
   27.15000        0.2901359    
   27.20000         1.134392    
   27.25000         1.384869    
   27.30000        0.8802044    
   27.35000       -9.0133667E-02
   27.40000       -0.9529141    
   27.45000        -1.199095    
   27.50000       -0.6992039    
   27.55000        0.2121729    
   27.60000        0.9407423    
   27.65000         1.003577    
   27.70000        0.3375467    
   27.75000       -0.6498561    
   27.80000        -1.324963    
   27.85000        -1.221256    
   27.90000       -0.3391027    
   27.95000        0.8371291    
   28.00000         1.621475    
   28.05000         1.539674    
   28.10000        0.6209984    
   28.15000       -0.6123138    
   28.20000        -1.454903    
   28.25000        -1.440267    
   28.30000       -0.6177345    
   28.35000        0.4846873    
   28.40000         1.188124    
   28.45000         1.079221    
   28.50000        0.2589028    
   28.55000       -0.7286512    
   28.60000        -1.240839    
   28.65000       -0.9399162    
   28.70000       -3.7243962E-03
   28.75000        0.9867247    
   28.80000         1.411786    
   28.85000         1.001520    
   28.90000        4.7117472E-03
   28.95000       -0.9673518    
   29.00000        -1.324421    
   29.05000       -0.8672336    
   29.10000        8.9288861E-02
   29.15000        0.9182773    
   29.20000         1.082104    
   29.25000        0.4789980    
   29.30000       -0.4866240    
   29.35000        -1.159237    
   29.40000        -1.055488    
   29.45000       -0.1880464    
   29.50000        0.9206433    
   29.55000         1.553610    
   29.60000         1.253868    
   29.65000        0.1338591    
   29.70000        -1.162647    
   29.75000        -1.837020    
   29.80000        -1.428628    
   29.85000       -0.1209800    
   29.90000         1.337344    
   29.95000         2.064319    
   30.00000         1.577502    
   30.05000        0.1061299    
   30.10000        -1.516180    
   30.15000        -2.328043    
   30.20000        -1.811009    
   30.25000       -0.2143741    
   30.30000         1.567434    
   30.35000         2.503783    
   30.40000         2.030305    
   30.45000        0.3904873    
   30.50000        -1.490090    
   30.55000        -2.530936    
   30.60000        -2.122181    
   30.65000       -0.4841791    
   30.70000         1.451020    
   30.75000         2.571143    
   30.80000         2.222418    
   30.85000        0.5868685    
   30.90000        -1.419312    
   30.95000        -2.666951    
   31.00000        -2.454193    
   31.05000       -0.8994167    
   31.10000         1.134153    
   31.15000         2.532589    
   31.20000         2.556769    
   31.25000         1.242860    
   31.30000       -0.6425166    
   31.35000        -2.054260    
   31.40000        -2.259975    
   31.45000        -1.232206    
   31.50000        0.3717999    
   31.55000         1.614265    
   31.60000         1.819614    
   31.65000        0.9418863    
   31.70000       -0.4436209    
   31.75000        -1.501752    
   31.80000        -1.628736    
   31.85000       -0.7863726    
   31.90000        0.5040869    
   31.95000         1.487769    
   32.00000         1.618848    
   32.05000        0.8604877    
   32.10000       -0.3220793    
   32.15000        -1.254414    
   32.20000        -1.447459    
   32.25000       -0.8613842    
   32.30000        0.1049769    
   32.35000        0.8756148    
   32.40000         1.042147    
   32.45000        0.5859201    
   32.50000       -0.1443907    
   32.55000       -0.6705326    
   32.60000       -0.6830686    
   32.65000       -0.2183838    
   32.70000        0.3855087    
   32.75000        0.7163389    
   32.80000        0.5512097    
   32.85000       -6.5444410E-03
   32.90000       -0.5975561    
   32.95000       -0.8354326    
   33.00000       -0.5506440    
   33.05000        0.1009114    
   33.10000        0.7301970    
   33.15000        0.9509282    
   33.20000        0.6153126    
   33.25000       -9.3125135E-02
   33.30000       -0.7657449    
   33.35000        -1.010573    
   33.40000       -0.6853002    
   33.45000        1.7439961E-02
   33.50000        0.6834981    
   33.55000        0.9224626    
   33.60000        0.5997078    
   33.65000       -8.2277834E-02
   33.70000       -0.7023162    
   33.75000       -0.8702821    
   33.80000       -0.4620488    
   33.85000        0.2989991    
   33.90000        0.9640940    
   33.95000         1.116856    
   34.00000        0.6191097    
   34.05000       -0.2977149    
   34.10000        -1.150911    
   34.15000        -1.470378    
   34.20000        -1.060493    
   34.25000       -0.1125955    
   34.30000        0.8955117    
   34.35000         1.457060    
   34.40000         1.307292    
   34.45000        0.5582327    
   34.50000       -0.3744603    
   34.55000        -1.007062    
   34.60000        -1.050739    
   34.65000       -0.5551766    
   34.70000        0.1423681    
   34.75000        0.6255463    
   34.80000        0.6398146    
   34.85000        0.2267655    
   34.90000       -0.3204504    
   34.95000       -0.6463724    
   35.00000       -0.5495141    
   35.05000       -9.6327573E-02
   35.10000        0.4311945    
   35.15000        0.7164144    
   35.20000        0.6029061    
   35.25000        0.1832479    
   35.30000       -0.2701290    
   35.35000       -0.4846613    
   35.40000       -0.3617738    
   35.45000       -3.3775985E-02
   35.50000        0.2326911    
   35.55000        0.2236013    
   35.60000       -6.8481669E-02
   35.65000       -0.4284674    
   35.70000       -0.5582811    
   35.75000       -0.2863370    
   35.80000        0.2908525    
   35.85000        0.8375205    
   35.90000        0.9754042    
   35.95000        0.5343633    
   36.00000       -0.3034274    
   36.05000        -1.072177    
   36.10000        -1.283319    
   36.15000       -0.7323973    
   36.20000        0.3378292    
   36.25000         1.335680    
   36.30000         1.645524    
   36.35000         1.000725    
   36.40000       -0.3196604    
   36.45000        -1.606056    
   36.50000        -2.102412    
   36.55000        -1.449991    
   36.60000        6.9955528E-02
   36.65000         1.653685    
   36.70000         2.407666    
   36.75000         1.861357    
   36.80000        0.2633072    
   36.85000        -1.525142    
   36.90000        -2.497383    
   36.95000        -2.074961    
   37.00000       -0.4576198    
   37.05000         1.463008    
   37.10000         2.592885    
   37.15000         2.258706    
   37.20000        0.6079193    
   37.25000        -1.452921    
   37.30000        -2.758829    
   37.35000        -2.547989    
   37.40000       -0.9059536    
   37.45000         1.268254    
   37.50000         2.763128    
   37.55000         2.741180    
   37.60000         1.217950    
   37.65000       -0.9442298    
   37.70000        -2.527480    
   37.75000        -2.653763    
   37.80000        -1.283917    
   37.85000        0.7676122    
   37.90000         2.309791    
   37.95000         2.465665    
   38.00000         1.174969    
   38.05000       -0.7821165    
   38.10000        -2.250214    
   38.15000        -2.377430    
   38.20000        -1.108805    
   38.25000        0.7926390    
   38.30000         2.204768    
   38.35000         2.310322    
   38.40000         1.072788    
   38.45000       -0.7543725    
   38.50000        -2.085171    
   38.55000        -2.148859    
   38.60000       -0.9414611    
   38.65000        0.7850400    
   38.70000         1.984073    
   38.75000         1.945843    
   38.80000        0.7189539    
   38.85000       -0.9287137    
   38.90000        -1.982510    
   38.95000        -1.799080    
   39.00000       -0.4959294    
   39.05000         1.122350    
   39.10000         2.055616    
   39.15000         1.719348    
   39.20000        0.3047693    
   39.25000        -1.331600    
   39.30000        -2.184372    
   39.35000        -1.711119    
   39.40000       -0.1695131    
   39.45000         1.526891    
   39.50000         2.351866    
   39.55000         1.785129    
   39.60000        0.1345209    
   39.65000        -1.635368    
   39.70000        -2.470939    
   39.75000        -1.858236    
   39.80000       -0.1375562    
   39.85000         1.686942    
   39.90000         2.534609    
   39.95000         1.887865    
   40.00000        0.1055880    
   40.05000        -1.777696    
   40.10000        -2.652553    
   40.15000        -1.984854    
   40.20000       -0.1344087    
   40.25000         1.846047    
   40.30000         2.816144    
   40.35000         2.206290    
   40.40000        0.3474159    
   40.45000        -1.718058    
   40.50000        -2.833034    
   40.55000        -2.384516    
   40.60000       -0.6457508    
   40.65000         1.390750    
   40.70000         2.586937    
   40.75000         2.305541    
   40.80000        0.7587835    
   40.85000        -1.133499    
   40.90000        -2.284710    
   40.95000        -2.063627    
   41.00000       -0.6410356    
   41.05000         1.129692    
   41.10000         2.217573    
   41.15000         2.006152    
   41.20000        0.6331593    
   41.25000        -1.107994    
   41.30000        -2.235307    
   41.35000        -2.136832    
   41.40000       -0.9012660    
   41.45000        0.7581635    
   41.50000         1.927568    
   41.55000         2.010193    
   41.60000         1.041607    
   41.65000       -0.3663165    
   41.70000        -1.402792    
   41.75000        -1.526693    
   41.80000       -0.7553053    
   41.85000        0.3818194    
   41.90000         1.179766    
   41.95000         1.177319    
   42.00000        0.4126727    
   42.05000       -0.6236860    
   42.10000        -1.297034    
   42.15000        -1.206684    
   42.20000       -0.4118810    
   42.25000        0.6191324    
   42.30000         1.295553    
   42.35000         1.250039    
   42.40000        0.5413758    
   42.45000       -0.3975877    
   42.50000        -1.025951    
   42.55000        -1.011729    
   42.60000       -0.4139380    
   42.65000        0.3703790    
   42.70000        0.8540599    
   42.75000        0.7509392    
   42.80000        0.1388949    
   42.85000       -0.5960934    
   42.90000       -0.9956193    
   42.95000       -0.8019314    
   43.00000       -0.1085826    
   43.05000        0.6959540    
   43.10000         1.154663    
   43.15000         1.004567    
   43.20000        0.3244329    
   43.25000       -0.5139561    
   43.30000        -1.058652    
   43.35000        -1.030134    
   43.40000       -0.4704857    
   43.45000        0.2912713    
   43.50000        0.8321495    
   43.55000        0.8729711    
   43.60000        0.4263794    
   43.65000       -0.2241924    
   43.70000       -0.6961257    
   43.75000       -0.7275761    
   43.80000       -0.3203371    
   43.85000        0.2717740    
   43.90000        0.6966556    
   43.95000        0.7079334    
   44.00000        0.3023859    
   44.05000       -0.2845266    
   44.10000       -0.7179355    
   44.15000       -0.7549725    
   44.20000       -0.3790704    
   44.25000        0.1964546    
   44.30000        0.6534289    
   44.35000        0.7483736    
   44.40000        0.4444902    
   44.45000       -7.5867549E-02
   44.50000       -0.5207975    
   44.55000       -0.6547474    
   44.60000       -0.4259329    
   44.65000        1.4268994E-02
   44.70000        0.4061795    
   44.75000        0.5327716    
   44.80000        0.3394251    
   44.85000       -4.3564558E-02
   44.90000       -0.3840507    