 -0.5000000        1.0000000E-24
 -0.4500000        1.0000000E-24
 -0.4000000        1.0000000E-24
 -0.3500000        1.0000000E-24
 -0.3000000        1.0000000E-24
 -0.2500000        1.0000000E-24
 -0.2000000        1.0000001E-24
 -0.1500000        1.0000002E-24
 -0.1000000        1.0000002E-24
 -5.0000001E-02    1.0000002E-24
  0.0000000E+00    1.0000002E-24
  5.0000001E-02    1.0000002E-24
  0.1000000        1.0000002E-24
  0.1500000        1.0000002E-24
  0.2000000        1.0000001E-24
  0.2500000        1.0000001E-24
  0.3000000        1.0000001E-24
  0.3500000        1.0000001E-24
  0.4000000        1.0000001E-24
  0.4500000        1.0000001E-24
  0.5000000        1.0000001E-24
  0.5500000        1.0000000E-24
  0.6000000        1.0000000E-24
  0.6500000        1.0000000E-24
  0.7000000        1.0000000E-24
  0.7500000        1.0000001E-24
  0.8000000        1.0000001E-24
  0.8500000        1.0000001E-24
  0.9000000        1.0000000E-24
  0.9500000        1.0000000E-24
   1.000000        1.0000000E-24
   1.050000        9.9999992E-25
   1.100000        1.0000000E-24
   1.150000        1.0000001E-24
   1.200000        1.0000002E-24
   1.250000        1.0000002E-24
   1.300000        1.0000004E-24
   1.350000        1.0000005E-24
   1.400000        1.0000004E-24
   1.450000        1.0000004E-24
   1.500000        1.0000004E-24
   1.550000        1.0000003E-24
   1.600000        1.0000002E-24
   1.650000        1.0000000E-24
   1.700000        1.0000000E-24
   1.750000        9.9999982E-25
   1.800000        9.9999982E-25
   1.850000        9.9999982E-25
   1.900000        9.9999982E-25
   1.950000        9.9999982E-25
   2.000000        9.9999992E-25
   2.050000        1.0000001E-24
   2.100000        1.0000002E-24
   2.150000        1.0000003E-24
   2.200000        1.0000003E-24
   2.250000        1.0000003E-24
   2.300000        1.0000003E-24
   2.350000        1.0000002E-24
   2.400000        1.0000002E-24
   2.450000        1.0000002E-24
   2.500000        1.0000002E-24
   2.550000        1.0000002E-24
   2.600000        1.0000003E-24
   2.650000        1.0000003E-24
   2.700000        1.0000002E-24
   2.750000        1.0000002E-24
   2.800000        1.0000001E-24
   2.850000        1.0000001E-24
   2.900000        9.9999992E-25
   2.950000        9.9999972E-25
   3.000000        9.9999963E-25
   3.050000        9.9999963E-25
   3.100000        9.9999972E-25
   3.150000        9.9999982E-25
   3.200000        1.0000000E-24
   3.250000        1.0000003E-24
   3.300000        1.0000006E-24
   3.350000        1.0000008E-24
   3.400000        1.0000008E-24
   3.450000        1.0000008E-24
   3.500000        1.0000005E-24
   3.550000        1.0000003E-24
   3.600000        1.0000000E-24
   3.650000        9.9999982E-25
   3.700000        9.9999963E-25
   3.750000        9.9999963E-25
   3.800000        9.9999963E-25
   3.850000        9.9999982E-25
   3.900000        1.0000001E-24
   3.950000        1.0000001E-24
   4.000000        9.9999953E-25
   4.050000        9.9999834E-25
   4.100000        9.9999667E-25
   4.150000        9.9999598E-25
   4.200000        9.9999864E-25
   4.250000        1.0000079E-24
   4.300000        1.0000253E-24
   4.350000        1.0000466E-24
   4.400000        1.0000558E-24
   4.450000        1.0000239E-24
   4.500000        9.9991591E-25
   4.550000        9.9971721E-25
   4.600000        9.9947927E-25
   4.650000        9.9936982E-25
   4.700000        9.9968635E-25
   4.750000        1.0007658E-24
   4.800000        1.0027281E-24
   4.850000        1.0050586E-24
   4.900000        1.0061904E-24
   4.950000        1.0034661E-24
   5.000000        9.9401927E-25
   5.050000        9.7700265E-25
   5.100000        9.5695208E-25
   5.150000        9.4681590E-25
   5.200000        9.6763276E-25
   5.250000        1.0409958E-24
   5.300000        1.1718726E-24
   5.350000        1.3245258E-24
   5.400000        1.4032326E-24
   5.450000        1.2591036E-24
   5.500000        7.4734404E-25
   5.550000       -1.5402828E-25
   5.600000       -1.1899640E-24
   5.650000       -1.7211620E-24
   5.700000       -7.9831802E-25
   5.750000        2.4463192E-24
   5.800000        8.0575057E-24
   5.850000        1.4368306E-23
   5.900000        1.7486191E-23
   5.950000        1.1918513E-23
   6.000000       -6.9939469E-24
   6.050000       -3.8860402E-23
   6.100000       -7.3613426E-23
   6.150000       -8.9464791E-23
   6.200000       -5.7379123E-23
   6.250000        4.5063278E-23
   6.300000        2.1168686E-22
   6.350000        3.8590805E-22
   6.400000        4.5474996E-22
   6.450000        2.7708236E-22
   6.500000       -2.4348170E-22
   6.550000       -1.0529545E-21
   6.600000       -1.8538250E-21
   6.650000       -2.0996871E-21
   6.700000       -1.1559007E-21
   6.750000        1.3444505E-21
   6.800000        5.0300716E-21
   6.850000        8.4322420E-21
   6.900000        9.0712495E-21
   6.950000        4.2909651E-21
   7.000000       -7.1188690E-21
   7.050000       -2.2971379E-20
   7.100000       -3.6442379E-20
   7.150000       -3.6918938E-20
   7.200000       -1.3993880E-20
   7.250000        3.5603847E-20
   7.300000        1.0044220E-19
   7.350000        1.5062995E-19
   7.400000        1.4315639E-19
   7.450000        3.9626407E-20
   7.500000       -1.6588630E-19
   7.550000       -4.1929718E-19
   7.600000       -5.9702526E-19
   7.650000       -5.3350125E-19
   7.700000       -9.4602902E-20
   7.750000        7.1670190E-19
   7.800000        1.6659405E-18
   7.850000        2.2703126E-18
   7.900000        1.9229954E-18
   7.950000        1.7798335E-19
   8.000000       -2.8707061E-18
   8.050000       -6.2832288E-18
   8.100000       -8.2750057E-18
   8.150000       -6.7247054E-18
   8.200000       -2.1320858E-19
   8.250000        1.0684924E-17
   8.300000        2.2462602E-17
   8.350000        2.8869533E-17
   8.400000        2.2821574E-17
   8.450000       -2.3354899E-20
   8.500000       -3.7081521E-17
   8.550000       -7.6101801E-17
   8.600000       -9.6305985E-17
   8.650000       -7.5059964E-17
   8.700000        4.7555539E-19
   8.750000        1.2042060E-16
   8.800000        2.4452883E-16
   8.850000        3.0711043E-16
   8.900000        2.3885956E-16
   8.950000        2.8926822E-18
   9.000000       -3.6707496E-16
   9.050000       -7.4624301E-16
   9.100000       -9.3670621E-16
   9.150000       -7.3469065E-16
   9.200000       -3.6676206E-17
   9.250000        1.0524733E-15
   9.300000        2.1663996E-15
   9.350000        2.7357824E-15
   9.400000        2.1840706E-15
   9.450000        2.2572652E-16
   9.500000       -2.8392180E-15
   9.550000       -5.9906100E-15
   9.600000       -7.6617705E-15
   9.650000       -6.2794508E-15
   9.700000       -1.0654887E-15
   9.750000        7.1891252E-15
   9.800000        1.5787227E-14
   9.850000        2.0599040E-14
   9.900000        1.7475960E-14
   9.950000        4.3150234E-15
   10.00000       -1.6973160E-14
   10.05000       -3.9620173E-14
   10.10000       -5.3190508E-14
   10.15000       -4.7096624E-14
   10.20000       -1.5698372E-14
   10.25000        3.6845384E-14
   10.30000        9.4445007E-14
   10.35000        1.3182704E-13
   10.40000        1.2282504E-13
   10.45000        5.2465834E-14
   10.50000       -7.1414405E-14
   10.55000       -2.1273791E-13
   10.60000       -3.1291853E-13
   10.65000       -3.0936405E-13
   10.70000       -1.6294588E-13
   10.75000        1.1498285E-13
   10.80000        4.4870244E-13
   10.85000        7.0859507E-13
   10.90000        7.5001230E-13
   10.95000        4.7302770E-13
   11.00000       -1.1657640E-13
   11.05000       -8.7210501E-13
   11.10000       -1.5211929E-12
   11.15000       -1.7419502E-12
   11.20000       -1.2869132E-12
   11.25000       -1.1629570E-13
   11.30000        1.5145551E-12
   11.35000        3.0663475E-12
   11.40000        3.8526053E-12
   11.45000        3.2833955E-12
   11.50000        1.1460066E-12
   11.55000       -2.1845455E-12
   11.60000       -5.7151558E-12
   11.65000       -8.0519810E-12
   11.70000       -7.8502474E-12
   11.75000       -4.3809331E-12
   11.80000        1.9826614E-12
   11.85000        9.5796183E-12
   11.90000        1.5740147E-11
   11.95000        1.7551304E-11
   12.00000        1.2945157E-11
   12.05000        1.7711067E-12
   12.10000       -1.3574439E-11
   12.15000       -2.8334021E-11
   12.20000       -3.6550901E-11
   12.25000       -3.3034363E-11
   12.30000       -1.5599026E-11
   12.35000        1.3204647E-11
   12.40000        4.5677472E-11
   12.45000        7.0412398E-11
   12.50000        7.5574151E-11
   12.55000        5.3301984E-11
   12.60000        3.8890328E-12
   12.65000       -6.1913634E-11
   12.70000       -1.2389310E-10
   12.75000       -1.5726527E-10
   12.80000       -1.4075568E-10
   12.85000       -6.5747151E-11
   12.90000        5.6668014E-11
   12.95000        1.9404307E-10
   13.00000        2.9858457E-10
   13.05000        3.2080977E-10
   13.10000        2.2792028E-10
   13.15000        2.1264856E-11
   13.20000       -2.5407934E-10
   13.25000       -5.1363569E-10
   13.30000       -6.5423472E-10
   13.35000       -5.8797422E-10
   13.40000       -2.8025615E-10
   13.45000        2.2156336E-10
   13.50000        7.8268614E-10
   13.55000        1.2073575E-09
   13.60000        1.2962939E-09
   13.65000        9.2173269E-10
   13.70000        9.6181535E-11
   13.75000       -9.9336461E-10
   13.80000       -2.0084812E-09
   13.85000       -2.5465530E-09
   13.90000       -2.2762234E-09
   13.95000       -1.0821845E-09
   14.00000        8.3357926E-10
   14.05000        2.9442813E-09
   14.10000        4.5120059E-09
   14.15000        4.8107847E-09
   14.20000        3.4025169E-09
   14.25000        3.7468104E-10
   14.30000       -3.5596441E-09
   14.35000       -7.1714972E-09
   14.40000       -9.0460537E-09
   14.45000       -8.0630045E-09
   14.50000       -3.8839532E-09
   14.55000        2.7334535E-09
   14.60000        9.9528039E-09
   14.65000        1.5279285E-08
   14.70000        1.6321540E-08
   14.75000        1.1692564E-08
   14.80000        1.7496430E-09
   14.85000       -1.1135329E-08
   14.90000       -2.2980149E-08
   14.95000       -2.9274558E-08
   15.00000       -2.6496252E-08
   15.05000       -1.3604812E-08
   15.10000        7.0336856E-09
   15.15000        2.9750053E-08
   15.20000        4.6888204E-08
   15.25000        5.1120061E-08
   15.30000        3.8139362E-08
   15.35000        8.8472767E-09
   15.40000       -2.9860789E-08
   15.45000       -6.6282396E-08
   15.50000       -8.7057344E-08
   15.55000       -8.1563499E-08
   15.60000       -4.6251575E-08
   15.65000        1.2635325E-08
   15.70000        7.9253994E-08
   15.75000        1.3179080E-07
   15.80000        1.4894039E-07
   15.85000        1.1751614E-07
   15.90000        3.8728544E-08
   15.95000       -6.9353590E-08
   16.00000       -1.7478952E-07
   16.05000       -2.4022904E-07
   16.10000       -2.3495008E-07
   16.15000       -1.4693381E-07
   16.20000        9.2676888E-09
   16.25000        1.9246124E-07
   16.30000        3.4407770E-07
   16.35000        4.0531805E-07
   16.40000        3.3766841E-07
   16.45000        1.4022066E-07
   16.50000       -1.4289154E-07
   16.55000       -4.2942213E-07
   16.60000       -6.2057887E-07
   16.65000       -6.3240185E-07
   16.70000       -4.2777845E-07
   16.75000       -3.7994752E-08
   16.80000        4.3564964E-07
   16.85000        8.4437255E-07
   16.90000        1.0350894E-06
   16.95000        9.0286983E-07
   17.00000        4.3600241E-07
   17.05000       -2.6339137E-07
   17.10000       -9.9472072E-07
   17.15000       -1.5112404E-06
   17.20000       -1.5975414E-06
   17.25000       -1.1496001E-06
   17.30000       -2.2996396E-07
   17.35000        9.2538306E-07
   17.40000        1.9590943E-06
   17.45000        2.4953702E-06
   17.50000        2.2665511E-06
   17.55000        1.2234783E-06
   17.60000       -4.1129141E-07
   17.65000       -2.1752492E-06
   17.70000       -3.4856337E-06
   17.75000       -3.8200606E-06
   17.80000       -2.9056528E-06
   17.85000       -8.5287490E-07
   17.90000        1.8208293E-06
   17.95000        4.3032405E-06
   18.00000        5.7183402E-06
   18.05000        5.4154880E-06
   18.10000        3.2268129E-06
   18.15000       -4.0020558E-07
   18.20000       -4.4595504E-06
   18.25000       -7.6425531E-06
   18.30000       -8.7359876E-06
   18.35000       -7.0483561E-06
   18.40000       -2.7236320E-06
   18.45000        3.1810630E-06
   18.50000        8.9154437E-06
   18.55000        1.2523379E-05
   18.60000        1.2472068E-05
   18.65000        8.2312172E-06
   18.70000        5.9933052E-07
   18.75000       -8.3696914E-06
   18.80000       -1.5872720E-05
   18.85000       -1.9188295E-05
   18.90000       -1.6599550E-05
   18.95000       -8.1125017E-06
   19.00000        4.2999459E-06
   19.05000        1.7076734E-05
   19.10000        2.6030588E-05
   19.15000        2.7653061E-05
   19.20000        2.0374811E-05
   19.25000        5.3551162E-06
   19.30000       -1.3526433E-05
   19.35000       -3.0581639E-05
   19.40000       -3.9948074E-05
   19.45000       -3.7500995E-05
   19.50000       -2.2446522E-05
   19.55000        1.9732736E-06
   19.60000        2.9013161E-05
   19.65000        5.0181057E-05
   19.70000        5.7797268E-05
   19.75000        4.7616817E-05
   19.80000        2.0659905E-05
   19.85000       -1.6451680E-05
   19.90000       -5.2950614E-05
   19.95000       -7.6918543E-05
   20.00000       -7.9028061E-05
   20.05000       -5.5898563E-05
   20.10000       -1.1921255E-05
   20.15000        4.1227977E-05
   20.20000        8.7505439E-05
   20.25000        1.1118312E-04
   20.30000        1.0198013E-04
   20.35000        5.9023667E-05
   20.40000       -7.7838786E-06
   20.45000       -7.9732315E-05
   20.50000       -1.3434404E-04
   20.55000       -1.5219666E-04
   20.60000       -1.2351456E-04
   20.65000       -5.2369884E-05
   20.70000        4.3125663E-05
   20.75000        1.3513048E-04
   20.80000        1.9397134E-04
   20.85000        1.9745897E-04
   20.90000        1.3876615E-04
   20.95000        3.0183441E-05
   21.00000       -9.8873657E-05
   21.05000       -2.0954276E-04
   21.10000       -2.6497527E-04
   21.15000       -2.4227318E-04
   21.20000       -1.4112124E-04
   21.25000        1.3965424E-05
   21.30000        1.7910030E-04
   21.35000        3.0316328E-04
   21.40000        3.4335404E-04
   21.45000        2.7950783E-04
   21.50000        1.2249697E-04
   21.55000       -8.6481108E-05
   21.60000       -2.8629831E-04
   21.65000       -4.1350065E-04
   21.70000       -4.2214166E-04
   21.75000       -2.9973313E-04
   21.80000       -7.3931238E-05
   21.85000        1.9291831E-04
   21.90000        4.2062707E-04
   21.95000        5.3497660E-04
   22.00000        4.9151236E-04
   22.05000        2.9179864E-04
   22.10000       -1.3576754E-05
   22.15000       -3.3719579E-04
   22.20000       -5.7949114E-04
   22.25000       -6.5905770E-04
   22.30000       -5.3946103E-04
   22.35000       -2.4385577E-04
   22.40000        1.4804666E-04
   22.45000        5.2094797E-04
   22.50000        7.5753074E-04
   22.55000        7.7495753E-04
   22.60000        5.5305805E-04
   22.65000        1.4481814E-04
   22.70000       -3.3528684E-04
   22.75000       -7.4291806E-04
   22.80000       -9.4686920E-04
   22.85000       -8.7073364E-04
   22.90000       -5.2015687E-04
   22.95000        1.3732091E-05
   23.00000        5.7726033E-04
   23.05000        9.9800341E-04
   23.10000        1.1370786E-03
   23.15000        9.3419675E-04
   23.20000        4.3105046E-04
   23.25000       -2.3549773E-04
   23.30000       -8.7007583E-04
   23.35000       -1.2756778E-03
   23.40000       -1.3143033E-03
   23.45000       -9.5282198E-04
   23.50000       -2.7907107E-04
   23.55000        5.1841879E-04
   23.60000        1.2027876E-03
   23.65000        1.5588832E-03
   23.70000        1.4603419E-03
   23.75000        9.1292977E-04
   23.80000        5.9612688E-05
   23.85000       -8.5612765E-04
   23.90000       -1.5595462E-03
   23.95000       -1.8268230E-03
   24.00000       -1.5556484E-03
   24.05000       -8.0208149E-04
   24.10000        2.2912344E-04
   24.15000        1.2398539E-03
   24.20000        1.9247794E-03
   24.25000        2.0633833E-03
   24.30000        1.5901551E-03
   24.35000        6.2073354E-04
   24.40000       -5.7565176E-04
   24.45000       -1.6511446E-03
   24.50000       -2.2806940E-03
   24.55000       -2.2602514E-03
   24.60000       -1.5719990E-03
   24.65000       -3.9588139E-04
   24.70000        9.3770557E-04
   24.75000        2.0416044E-03
   24.80000        2.5851789E-03
   24.85000        2.3937919E-03
   24.90000        1.5043957E-03
   24.95000        1.5962425E-04
   25.00000       -1.2591869E-03
   25.05000       -2.3413526E-03
   25.10000       -2.7668783E-03
   25.15000       -2.4018039E-03
   25.20000       -1.3402988E-03
   25.25000        1.1959394E-04
   25.30000        1.5601763E-03
   25.35000        2.5641110E-03
   25.40000        2.8353801E-03
   25.45000        2.2858914E-03
   25.50000        1.0624297E-03
   25.55000       -4.9394515E-04
   25.60000       -1.9442728E-03
   25.65000       -2.8759555E-03
   25.70000       -3.0191783E-03
   25.75000       -2.3223660E-03
   25.80000       -9.6571341E-04
   25.85000        6.9020031E-04
   25.90000        2.2052163E-03
   25.95000        3.1806976E-03
   26.00000        3.3667982E-03
   26.05000        2.7265646E-03
   26.10000        1.4404175E-03
   26.15000       -1.4840392E-04
   26.20000       -1.6306186E-03
   26.25000       -2.6421768E-03
   26.30000       -2.9594628E-03
   26.35000       -2.5534756E-03
   26.40000       -1.5901137E-03
   26.45000       -3.7859337E-04
   26.50000        7.1642024E-04
   26.55000        1.3746452E-03
   26.60000        1.4057341E-03
   26.65000        7.9917494E-04
   26.70000       -2.7285330E-04
   26.75000       -1.4988671E-03
   26.80000       -2.5056254E-03
   26.85000       -2.9500364E-03
   26.90000       -2.6029993E-03
   26.95000       -1.4054790E-03
   27.00000        5.1582028E-04
   27.05000        2.8762005E-03
   27.10000        5.2971975E-03
   27.15000        7.3922090E-03
   27.20000        8.8536805E-03
   27.25000        9.5216762E-03
   27.30000        9.4177071E-03
   27.35000        8.7354146E-03
   27.40000        7.7895527E-03
   27.45000        6.9345520E-03
   27.50000        6.4716749E-03
   27.55000        6.5673729E-03
   27.60000        7.2038346E-03
   27.65000        8.1758369E-03
   27.70000        9.1371452E-03
   27.75000        9.6872710E-03
   27.80000        9.4784256E-03
   27.85000        8.3159590E-03
   27.90000        6.2255231E-03
   27.95000        3.4671407E-03
   28.00000        4.8903289E-04
   28.05000       -2.1705746E-03
   28.10000       -4.0111952E-03
   28.15000       -4.6957489E-03
   28.20000       -4.1412166E-03
   28.25000       -2.5486818E-03
   28.30000       -3.6177755E-04
   28.35000        1.8390944E-03
   28.40000        3.4820330E-03
   28.45000        4.1519059E-03
   28.50000        3.7025185E-03
   28.55000        2.3012741E-03
   28.60000        3.9137297E-04
   28.65000       -1.4220398E-03
   28.70000       -2.5346512E-03
   28.75000       -2.5129886E-03
   28.80000       -1.2258487E-03
   28.85000        1.1006496E-03
   28.90000        3.9235181E-03
   28.95000        6.5130666E-03
   29.00000        8.1421975E-03
   29.05000        8.2863336E-03
   29.10000        6.7797457E-03
   29.15000        3.8828531E-03
   29.20000        2.3685359E-04
   29.25000       -3.2882467E-03
   29.30000       -5.8163414E-03
   29.35000       -6.7011053E-03
   29.40000       -5.7105320E-03
   29.45000       -3.1062539E-03
   29.50000        4.0977891E-04
   29.55000        3.8730095E-03
   29.60000        6.3146409E-03
   29.65000        7.0318948E-03
   29.70000        5.7945084E-03
   29.75000        2.9261978E-03
   29.80000       -7.6755387E-04
   29.85000       -4.2114300E-03
   29.90000       -6.3573876E-03
   29.95000       -6.4855712E-03
   30.00000       -4.4231536E-03
   30.05000       -6.1540026E-04
   30.10000        3.9767362E-03
   30.15000        8.1291711E-03
   30.20000        1.0690058E-02
   30.25000        1.0904707E-02
   30.30000        8.6371386E-03
   30.35000        4.4226190E-03
   30.40000       -6.6739979E-04
   30.45000       -5.3131096E-03
   30.50000       -8.3077205E-03
   30.55000       -8.8909706E-03
   30.60000       -6.9601783E-03
   30.65000       -3.0984101E-03
   30.70000        1.5888436E-03
   30.75000        5.7826336E-03
   30.80000        8.3179204E-03
   30.85000        8.5058389E-03
   30.90000        6.3207187E-03
   30.95000        2.4006963E-03
   31.00000       -2.1361522E-03
   31.05000       -6.0064611E-03
   31.10000       -8.1175407E-03
   31.15000       -7.8653786E-03
   31.20000       -5.2935733E-03
   31.25000       -1.0725216E-03
   31.30000        3.6913047E-03
   31.35000        7.7598859E-03
   31.40000        1.0096583E-02
   31.45000        1.0137154E-02
   31.50000        7.9282541E-03
   31.55000        4.1007516E-03
   31.60000       -3.0987151E-04
   31.65000       -4.1439822E-03
   31.70000       -6.4228633E-03
   31.75000       -6.5987585E-03
   31.80000       -4.6874913E-03
   31.85000       -1.2534828E-03
   31.90000        2.7447247E-03
   31.95000        6.2058717E-03
   32.00000        8.1691789E-03
   32.05000        8.0584241E-03
   32.10000        5.8274455E-03
   32.15000        1.9728686E-03
   32.20000       -2.5874290E-03
   32.25000       -6.7393496E-03
   32.30000       -9.4457911E-03
   32.35000       -1.0001519E-02
   32.40000       -8.2077738E-03
   32.45000       -4.4240346E-03
   32.50000        5.1598385E-04
   32.55000        5.5039348E-03
   32.60000        9.4233109E-03
   32.65000        1.1417146E-02
   32.70000        1.1090585E-02
   32.75000        8.5979458E-03
   32.80000        4.5931186E-03
   32.85000        5.7053228E-05
   32.90000       -3.9521721E-03
   32.95000       -6.5613468E-03
   33.00000       -7.2883465E-03
   33.05000       -6.1405604E-03
   33.10000       -3.5832967E-03
   33.15000       -3.9153267E-04
   33.20000        2.5704023E-03
   33.25000        4.5785243E-03
   33.30000        5.2256626E-03
   33.35000        4.4999463E-03
   33.40000        2.7504745E-03
   33.45000        5.5816787E-04
   33.50000       -1.4443846E-03
   33.55000       -2.7488554E-03
   33.60000       -3.0933993E-03
   33.65000       -2.5018326E-03
   33.70000       -1.2378616E-03
   33.75000        3.0191400E-04
   33.80000        1.7166473E-03
   33.85000        2.7101389E-03
   33.90000        3.1501832E-03
   33.95000        3.0684932E-03
   34.00000        2.6120902E-03
   34.05000        1.9714574E-03
   34.10000        1.3144182E-03
   34.15000        7.4748055E-04
   34.20000        3.1208390E-04
   34.25000        7.9107922E-06
   34.30000       -1.7471318E-04
   34.35000       -2.3270631E-04
   34.40000       -1.5042958E-04
   34.45000        7.8317746E-05
   34.50000        4.1919140E-04
   34.55000        7.7619567E-04
   34.60000        9.9739176E-04
   34.65000        9.1374584E-04
   34.70000        4.0272565E-04
   34.75000       -5.4483680E-04
   34.80000       -1.7819806E-03
   34.85000       -3.0099121E-03
   34.90000       -3.8382560E-03
   34.95000       -3.8908222E-03
   35.00000       -2.9284253E-03
   35.05000       -9.5025904E-04
   35.10000        1.7625008E-03
   35.15000        4.6824943E-03
   35.20000        7.1498170E-03
   35.25000        8.5372720E-03
   35.30000        8.4228469E-03
   35.35000        6.7194924E-03
   35.40000        3.7217892E-03
   35.45000        5.1336563E-05
   35.50000       -3.4887067E-03
   35.55000       -6.1129527E-03
   35.60000       -7.2535453E-03
   35.65000       -6.7055798E-03
   35.70000       -4.6777646E-03
   35.75000       -1.7339609E-03
   35.80000        1.3585223E-03
   35.85000        3.8322166E-03
   35.90000        5.1186532E-03
   35.95000        4.9893316E-03
   36.00000        3.6011515E-03
   36.05000        1.4359560E-03
   36.10000       -8.4658747E-04
   36.15000       -2.5996633E-03
   36.20000       -3.3689553E-03
   36.25000       -3.0107233E-03
   36.30000       -1.7161414E-03
   36.35000        6.2807121E-05
   36.40000        1.7619070E-03
   36.45000        2.8821351E-03
   36.50000        3.1420568E-03
   36.55000        2.5590162E-03
   36.60000        1.4345469E-03
   36.65000        2.4868670E-04
   36.70000       -5.0385331E-04
   36.75000       -4.8411393E-04
   36.80000        3.6864632E-04
   36.85000        1.8030334E-03
   36.90000        3.3236640E-03
   36.95000        4.3428047E-03
   37.00000        4.3698000E-03
   37.05000        3.1791406E-03
   37.10000        9.0299750E-04
   37.15000       -1.9836358E-03
   37.20000       -4.7840094E-03
   37.25000       -6.7722932E-03
   37.30000       -7.4001909E-03
   37.35000       -6.4547393E-03
   37.40000       -4.1193799E-03
   37.45000       -9.2052697E-04
   37.50000        2.4224003E-03
   37.55000        5.1958472E-03
   37.60000        6.8783695E-03
   37.65000        7.2590373E-03
   37.70000        6.4568119E-03
   37.75000        4.8430455E-03
   37.80000        2.9002968E-03
   37.85000        1.0689503E-03
   37.90000       -3.6724552E-04
   37.95000       -1.3236300E-03
   38.00000       -1.8804632E-03
   38.05000       -2.1956682E-03
   38.10000       -2.4054791E-03
   38.15000       -2.5547815E-03
   38.20000       -2.5835177E-03
   38.25000       -2.3705633E-03
   38.30000       -1.8120869E-03
   38.35000       -8.9729001E-04
   38.40000        2.5400190E-04
   38.45000        1.4110397E-03
   38.50000        2.3038732E-03
   38.55000        2.7194088E-03
   38.60000        2.5828495E-03
   38.65000        1.9901944E-03
   38.70000        1.1763409E-03
   38.75000        4.2898610E-04
   38.80000       -1.9254718E-05
   38.85000       -7.8391233E-05
   38.90000        1.6693497E-04
   38.95000        4.9502018E-04
   39.00000        6.4109702E-04
   39.05000        4.1204301E-04
   39.10000       -2.2286960E-04
   39.15000       -1.1015104E-03
   39.20000       -1.9125511E-03
   39.25000       -2.2991621E-03
   39.30000       -1.9861315E-03
   39.35000       -8.8524690E-04
   39.40000        8.5781293E-04
   39.45000        2.8902763E-03
   39.50000        4.7420440E-03
   39.55000        5.9475019E-03
   39.60000        6.1611412E-03
   39.65000        5.2357945E-03
   39.70000        3.2490692E-03
   39.75000        4.8198266E-04
   39.80000       -2.6341032E-03
   39.85000       -5.5843042E-03
   39.90000       -7.8397226E-03
   39.95000       -8.9280736E-03
   40.00000       -8.5088741E-03
   40.05000       -6.4527206E-03
   40.10000       -2.9124958E-03
   40.15000        1.6386745E-03
   40.20000        6.4332178E-03
   40.25000        1.0520033E-02
   40.30000        1.2957384E-02
   40.35000        1.3051903E-02
   40.40000        1.0579381E-02
   40.45000        5.9126071E-03
   40.50000       -2.6944360E-06
   40.55000       -5.8417208E-03
   40.60000       -1.0227584E-02
   40.65000       -1.2105136E-02
   40.70000       -1.1049726E-02
   40.75000       -7.4092960E-03
   40.80000       -2.2243692E-03
   40.85000        3.0609926E-03
   40.90000        7.0155174E-03
   40.95000        8.6378204E-03
   41.00000        7.6434058E-03
   41.05000        4.5301071E-03
   41.10000        4.0143396E-04
   41.15000       -3.3937590E-03
   41.20000       -5.6868941E-03
   41.25000       -5.8421078E-03
   41.30000       -3.9239549E-03
   41.35000       -6.3335261E-04
   41.40000        2.9559920E-03
   41.45000        5.7624066E-03
   41.50000        7.0345104E-03
   41.55000        6.5515526E-03
   41.60000        4.6296571E-03
   41.65000        1.9501586E-03
   41.70000       -7.1160565E-04
   41.75000       -2.7494514E-03
   41.80000       -3.8869409E-03
   41.85000       -4.1890740E-03
   41.90000       -3.9412878E-03
   41.95000       -3.4634282E-03
   42.00000       -2.9466075E-03
   42.05000       -2.3834270E-03
   42.10000       -1.6158646E-03
   42.15000       -4.7080897E-04
   42.20000        1.0861020E-03
   42.25000        2.8557903E-03
   42.30000        4.4217585E-03
   42.35000        5.2798963E-03
   42.40000        5.0345585E-03
   42.45000        3.5817586E-03
   42.50000        1.2006761E-03
   42.55000       -1.4927899E-03
   42.60000       -3.7245736E-03
   42.65000       -4.8155300E-03
   42.70000       -4.4200262E-03
   42.75000       -2.6618757E-03
   42.80000       -1.1296009E-04
   42.85000        2.3855933E-03
   42.90000        4.0034363E-03
   42.95000        4.2077466E-03
   43.00000        2.9561634E-03
   43.05000        7.2458072E-04
   43.10000       -1.6461121E-03
   43.15000       -3.2371448E-03
   43.20000       -3.3767263E-03
   43.25000       -1.8897393E-03
   43.30000        8.1808172E-04
   43.35000        3.8763727E-03
   43.40000        6.2319338E-03
   43.45000        7.0019970E-03
   43.50000        5.7778801E-03
   43.55000        2.7737862E-03
   43.60000       -1.2308322E-03
   43.65000       -5.1347949E-03
   43.70000       -7.8599015E-03
   43.75000       -8.6793229E-03
   43.80000       -7.4220509E-03
   43.85000       -4.4932081E-03
   43.90000       -7.1594334E-04
   43.95000        2.9400310E-03
   44.00000        5.6464681E-03
   44.05000        6.9291545E-03
   44.10000        6.7486730E-03
   44.15000        5.4431148E-03
   44.20000        3.5712421E-03
   44.25000        1.7192620E-03
   44.30000        3.3397129E-04
   44.35000       -3.7513554E-04
   44.40000       -4.5093804E-04
   44.45000       -1.3283432E-04
   44.50000        2.4258852E-04
   44.55000        3.5286075E-04
   44.60000       -1.4299921E-05
   44.65000       -8.9927186E-04
   44.70000       -2.1536765E-03
   44.75000       -3.4708073E-03
   44.80000       -4.4577480E-03
   44.85000       -4.7353557E-03
   44.90000       -4.0448844E-03