  -16.0000000       0.00000000    
  -15.9899998       0.00000000    
  -15.9799995       0.00000000    
  -15.9700003       0.00000000    
  -15.9600000       0.00000000    
  -15.9499998       0.00000000    
  -15.9399996       0.00000000    
  -15.9300003       0.00000000    
  -15.9200001       0.00000000    
  -15.9099998       0.00000000    
  -15.8999996       0.00000000    
  -15.8900003       0.00000000    
  -15.8800001       0.00000000    
  -15.8699999       0.00000000    
  -15.8599997       0.00000000    
  -15.8500004       0.00000000    
  -15.8400002       0.00000000    
  -15.8299999       0.00000000    
  -15.8199997       0.00000000    
  -15.8100004       0.00000000    
  -15.8000002       0.00000000    
  -15.7900000       0.00000000    
  -15.7799997       0.00000000    
  -15.7700005       0.00000000    
  -15.7600002       0.00000000    
  -15.7500000       0.00000000    
  -15.7399998       0.00000000    
  -15.7299995       0.00000000    
  -15.7200003       0.00000000    
  -15.7100000       0.00000000    
  -15.6999998       0.00000000    
  -15.6899996       0.00000000    
  -15.6800003       0.00000000    
  -15.6700001       0.00000000    
  -15.6599998       0.00000000    
  -15.6499996       0.00000000    
  -15.6400003       0.00000000    
  -15.6300001       0.00000000    
  -15.6199999       0.00000000    
  -15.6099997       0.00000000    
  -15.6000004       0.00000000    
  -15.5900002       0.00000000    
  -15.5799999       0.00000000    
  -15.5699997       0.00000000    
  -15.5600004       0.00000000    
  -15.5500002       0.00000000    
  -15.5400000       0.00000000    
  -15.5299997       0.00000000    
  -15.5200005       0.00000000    
  -15.5100002       0.00000000    
  -15.5000000       0.00000000    
  -15.4899998       0.00000000    
  -15.4799995       0.00000000    
  -15.4700003       0.00000000    
  -15.4600000       0.00000000    
  -15.4499998       0.00000000    
  -15.4399996       0.00000000    
  -15.4300003       0.00000000    
  -15.4200001       0.00000000    
  -15.4099998       0.00000000    
  -15.3999996       0.00000000    
  -15.3900003       0.00000000    
  -15.3800001       0.00000000    
  -15.3699999       0.00000000    
  -15.3599997       0.00000000    
  -15.3500004       0.00000000    
  -15.3400002       0.00000000    
  -15.3299999       0.00000000    
  -15.3199997       0.00000000    
  -15.3100004       0.00000000    
  -15.3000002       0.00000000    
  -15.2900000       0.00000000    
  -15.2799997       0.00000000    
  -15.2700005       0.00000000    
  -15.2600002       0.00000000    
  -15.2500000       0.00000000    
  -15.2399998       0.00000000    
  -15.2299995       0.00000000    
  -15.2200003       0.00000000    
  -15.2100000       0.00000000    
  -15.1999998      -0.00000000    
  -15.1899996      -0.00000000    
  -15.1800003       0.00000000    
  -15.1700001      -0.00000000    
  -15.1599998       0.00000000    
  -15.1499996       0.00000000    
  -15.1400003      -0.00000000    
  -15.1300001       0.00000000    
  -15.1199999      -0.00000000    
  -15.1099997      -0.00000000    
  -15.1000004      -0.00000000    
  -15.0900002      -0.00000000    
  -15.0799999      -0.00000000    
  -15.0699997      -0.00000000    
  -15.0600004       0.00000000    
  -15.0500002       1.40129846E-45
  -15.0400000       2.80259693E-45
  -15.0299997       2.80259693E-45
  -15.0200005       2.80259693E-45
  -15.0100002       1.40129846E-45
  -15.0000000      -4.20389539E-45
  -14.9899998      -1.12103877E-44
  -14.9799995      -1.40129846E-44
  -14.9700003      -1.40129846E-44
  -14.9600000      -1.40129846E-44
  -14.9499998      -9.80908925E-45
  -14.9399996      -2.80259693E-45
  -14.9300003       1.40129846E-45
  -14.9200001       5.60519386E-45
  -14.9099998       5.60519386E-45
  -14.8999996       2.80259693E-45
  -14.8900003      -1.40129846E-44
  -14.8800001      -5.04467447E-44
  -14.8699999      -8.96831017E-44
  -14.8599997      -1.27518160E-43
  -14.8500004      -1.41531145E-43
  -14.8400002      -1.10702579E-43
  -14.8299999      -9.80908925E-45
  -14.8199997       1.66754517E-43
  -14.8100004       3.82554481E-43
  -14.8000002       5.68927177E-43
  -14.7900000       6.33386906E-43
  -14.7799997       4.61027195E-43
  -14.7700005      -3.64337601E-44
  -14.7600002      -8.61798556E-43
  -14.7500000      -1.87353605E-42
  -14.7399998      -2.76476187E-42
  -14.7299995      -3.08005402E-42
  -14.7200003      -2.30933987E-42
  -14.7100000      -8.82818033E-44
  -14.6999998       3.57891628E-42
  -14.6899996       8.09530123E-42
  -14.6800003       1.21520603E-41
  -14.6700001       1.38322171E-41
  -14.6599998       1.10394293E-41
  -14.6499996       2.20284119E-42
  -14.6400003      -1.27826446E-41
  -14.6300001      -3.16693453E-41
  -14.6199999      -4.93915670E-41
  -14.6099997      -5.84944018E-41
  -14.6000004      -5.06597421E-41
  -14.5900002      -1.94065824E-41
  -14.5799999       3.64631873E-41
  -14.5699997       1.09617974E-40
  -14.5600004       1.82426639E-40
  -14.5500002       2.28113173E-40
  -14.5400000       2.15857417E-40
  -14.5299997       1.19910511E-40
  -14.5200005      -6.85319027E-41
  -14.5100002      -3.29795594E-40
  -14.5000000      -6.08773098E-40
  -14.4899998      -8.17134970E-40
  -14.4799995      -8.48308255E-40
  -14.4700003      -6.05785530E-40
  -14.4600000      -4.10132035E-41
  -14.4499998       8.07935445E-40
  -14.4399996       1.78984350E-39
  -14.4300003       2.64021166E-39
  -14.4200001       3.01910455E-39
  -14.4099998       2.59049359E-39
  -14.3999996       1.13409747E-39
  -14.3900003      -1.33345460E-39
  -14.3800001      -4.46412212E-39
  -14.3699999      -7.55204023E-39
  -14.3599997      -9.61088679E-39
  -14.3500004      -9.57125247E-39
  -14.3400002      -6.58207825E-39
  -14.3299999      -3.61017925E-40
  -14.3199997       8.49711936E-39
  -14.3100004       1.83652831E-38
  -14.3000002       2.66865073E-38
  -14.2900000       3.03955370E-38
  -14.2799997       2.66461667E-38
  -14.2700005       1.37329786E-38
  -14.2600002      -8.00002274E-39
  -14.2500000      -3.55375484E-38
  -14.2399998      -6.31372679E-38
  -14.2299995      -8.30433740E-38
  -14.2200003      -8.70145082E-38
  -14.2100000      -6.84884232E-38
  -14.1999998      -2.49676242E-38
  -14.1899996       3.99797066E-38
  -14.1800003       1.15782319E-37
  -14.1700001       1.85573373E-37
  -14.1599998       2.28833026E-37
  -14.1499996       2.25805638E-37
  -14.1400003       1.62995035E-37
  -14.1300001       3.85595775E-38
  -14.1199999      -1.33867130E-37
  -14.1099997      -3.24370125E-37
  -14.1000004      -4.89975600E-37
  -14.0900002      -5.82106198E-37
  -14.0799999      -5.57415902E-37
  -14.0699997      -3.90057145E-37
  -14.0600004      -8.25942130E-38
  -14.0500002       3.27535422E-37
  -14.0400000       7.68684089E-37
  -14.0299997       1.14426275E-36
  -14.0200005       1.35025120E-36
  -14.0100002       1.29845338E-36
  -14.0000000       9.41051243E-37
  -13.9899998       2.90773803E-37
  -13.9799995      -5.69070939E-37
  -13.9700003      -1.48911427E-36
  -13.9600000      -2.27474228E-36
  -13.9499998      -2.72136610E-36
  -13.9399996      -2.65854381E-36
  -13.9300003      -1.99426807E-36
  -13.9200001      -7.49239133E-37
  -13.9099998       9.28391936E-37
  -13.8999996       2.77427554E-36
  -13.8900003       4.44655562E-36
  -13.8800001       5.58735661E-36
  -13.8699999       5.89655201E-36
  -13.8599997       5.20311510E-36
  -13.8500004       3.51799006E-36
  -13.8400002       1.05469130E-36
  -13.8299999      -1.79051667E-36
  -13.8199997      -4.49880105E-36
  -13.8100004      -6.52020256E-36
  -13.8000002      -7.37942623E-36
  -13.7900000      -6.77440465E-36
  -13.7799997      -4.64592941E-36
  -13.7700005      -1.20173903E-36
  -13.7600002       3.11248110E-36
  -13.7500000       7.69097026E-36
  -13.7399998       1.18791381E-35
  -13.7299995       1.50942960E-35
  -13.7200003       1.69290242E-35
  -13.7100000       1.72138793E-35
  -13.6999998       1.60255538E-35
  -13.6899996       1.36402947E-35
  -13.6800003       1.04466041E-35
  -13.6700001       6.84260757E-36
  -13.6599998       3.14855810E-36
  -13.6499996      -4.38522341E-37
  -13.6400003      -3.83211589E-36
  -13.6300001      -6.98692419E-36
  -13.6199999      -9.79354035E-36
  -13.6099997      -1.19725965E-35
  -13.6000004      -1.30114411E-35
  -13.5900002      -1.21815725E-35
  -13.5799999      -8.65852608E-36
  -13.5699997      -1.74004571E-36
  -13.5600004       8.87197976E-36
  -13.5500002       2.27862735E-35
  -13.5400000       3.87102544E-35
  -13.5299997       5.43862206E-35
  -13.5200005       6.67307997E-35
  -13.5100002       7.21950748E-35
  -13.5000000       6.73152121E-35
  -13.4899998       4.93749699E-35
  -13.4799995       1.70639995E-35
  -13.4700003      -2.90025279E-35
  -13.4600000      -8.60272052E-35
  -13.4499998      -1.49125670E-34
  -13.4399996      -2.11803511E-34
  -13.4300003      -2.66775389E-34
  -13.4200001      -3.07020849E-34
  -13.4099998      -3.26921234E-34
  -13.3999996      -3.23300367E-34
  -13.3900003      -2.96202169E-34
  -13.3800001      -2.49280544E-34
  -13.3699999      -1.89740263E-34
  -13.3599997      -1.27837284E-34
  -13.3500004      -7.60111209E-35
  -13.3400002      -4.77647378E-35
  -13.3299999      -5.64212952E-35
  -13.3199997      -1.13874213E-34
  -13.3100004      -2.29417995E-34
  -13.3000002      -4.08710432E-34
  -13.2900000      -6.52892062E-34
  -13.2799997      -9.57890418E-34
  -13.2700005      -1.31395914E-33
  -13.2600002      -1.70555010E-33
  -13.2500000      -2.11166834E-33
  -13.2399998      -2.50689617E-33
  -13.2299995      -2.86324508E-33
  -13.2200003      -3.15293776E-33
  -13.2100000      -3.35205585E-33
  -13.1999998      -3.44482109E-33
  -13.1899996      -3.42800969E-33
  -13.1800003      -3.31485440E-33
  -13.1700001      -3.13761666E-33
  -13.1599998      -2.94807353E-33
  -13.1499996      -2.81527958E-33
  -13.1400003      -2.82034413E-33
  -13.1300001      -3.04835660E-33
  -13.1199999      -3.57816146E-33
  -13.1099997      -4.47115623E-33
  -13.1000004      -5.76062615E-33
  -13.0900002      -7.44332868E-33
  -13.0799999      -9.47486356E-33
  -13.0699997      -1.17700523E-32
  -13.0600004      -1.42088556E-32
  -13.0500002      -1.66476316E-32
  -13.0400000      -1.89346588E-32
  -13.0299997      -2.09282884E-32
  -13.0200005      -2.25154834E-32
  -13.0100002      -2.36284474E-32
  -13.0000000      -2.42571620E-32
  -12.9899998      -2.44561879E-32
  -12.9799995      -2.43448583E-32
  -12.9700003      -2.41005803E-32
  -12.9600000      -2.39460557E-32
  -12.9499998      -2.41316163E-32
  -12.9399996      -2.49144617E-32
  -12.9300003      -2.65364852E-32
  -12.9200001      -2.92027709E-32
  -12.9099998      -3.30622157E-32
  -12.8999996      -3.81917409E-32
  -12.8900003      -4.45852547E-32
  -12.8800001      -5.21485499E-32
  -12.8699999      -6.07007298E-32
  -12.8599997      -6.99833559E-32
  -12.8500004      -7.96776343E-32
  -12.8400002      -8.94295942E-32
  -12.8299999      -9.88830903E-32
  -12.8199997      -1.07718435E-31
  -12.8100004      -1.15694129E-31
  -12.8000002      -1.22687333E-31
  -12.7900000      -1.28728022E-31
  -12.7799997      -1.34021050E-31
  -12.7700005      -1.38950097E-31
  -12.7600002      -1.44059548E-31
  -12.7500000      -1.50010876E-31
  -12.7399998      -1.57514350E-31
  -12.7299995      -1.67238381E-31
  -12.7200003      -1.79703863E-31
  -12.7100000      -1.95171618E-31
  -12.6999998      -2.13535484E-31
  -12.6899996      -2.34231920E-31
  -12.6800003      -2.56177106E-31
  -12.6700001      -2.77741644E-31
  -12.6599998      -2.96766714E-31
  -12.6499996      -3.10623136E-31
  -12.6400003      -3.16309567E-31
  -12.6300001      -3.10582111E-31
  -12.6199999      -2.90099640E-31
  -12.6099997      -2.51573471E-31
  -12.6000004      -1.91899676E-31
  -12.5900002      -1.08258963E-31
  -12.5799999       1.83634185E-33
  -12.5699997       1.40564792E-31
  -12.5600004       3.09899690E-31
  -12.5500002       5.11809535E-31
  -12.5400000       7.48567404E-31
  -12.5299997       1.02316749E-30
  -12.5200005       1.33986514E-30
  -12.5100002       1.70483826E-30
  -12.5000000       2.12697145E-30
  -12.4899998       2.61877365E-30
  -12.4799995       3.19739805E-30
  -12.4700003       3.88583901E-30
  -12.4600000       4.71423978E-30
  -12.4499998       5.72135971E-30
  -12.4399996       6.95621295E-30
  -12.4300003       8.47996434E-30
  -12.4200001       1.03679896E-29
  -12.4099998       1.27123323E-29
  -12.3999996       1.56243128E-29
  -12.3900003       1.92376132E-29
  -12.3800001       2.37118268E-29
  -12.3699999       2.92358332E-29
  -12.3599997       3.60320548E-29
  -12.3500004       4.43602092E-29
  -12.3400002       5.45208739E-29
  -12.3299999       6.68584955E-29
  -12.3199997       8.17631711E-29
  -12.3100004       9.96696732E-29
  -12.3000002       1.21053941E-28
  -12.2900000       1.46424758E-28
  -12.2799997       1.76308847E-28
  -12.2700005       2.11228196E-28
  -12.2600002       2.51666177E-28
  -12.2500000       2.98020109E-28
  -12.2399998       3.50537787E-28
  -12.2299995       4.09231321E-28
  -12.2200003       4.73766537E-28
  -12.2100000       5.43323711E-28
  -12.1999998       6.16417231E-28
  -12.1899996       6.90677863E-28
  -12.1800003       7.62583854E-28
  -12.1700001       8.27133948E-28
  -12.1599998       8.77458883E-28
  -12.1499996       9.04353146E-28
  -12.1400003       8.95728254E-28
  -12.1300001       8.35970500E-28
  -12.1199999       7.05204623E-28
  -12.1099997       4.78420450E-28
  -12.1000004       1.24497516E-28
  -12.0900002      -3.94917665E-28
  -12.0799999      -1.12666266E-27
  -12.0699997      -2.12750586E-27
  -12.0600004      -3.46571594E-27
  -12.0500002      -5.22284468E-27
  -12.0400000      -7.49568005E-27
  -12.0299997      -1.03983939E-26
  -12.0200005      -1.40649015E-26
  -12.0100002      -1.86513589E-26
  -12.0000000      -2.43390075E-26
  -11.9899998      -3.13371728E-26
  -11.9799995      -3.98862495E-26
  -11.9700003      -5.02614406E-26
  -11.9600000      -6.27759731E-26
  -11.9499998      -7.77850811E-26
  -11.9399996      -9.56899125E-26
  -11.9300003      -1.16941813E-25
  -11.9200001      -1.42046091E-25
  -11.9099998      -1.71566831E-25
  -11.8999996      -2.06131536E-25
  -11.8900003      -2.46434526E-25
  -11.8800001      -2.93242303E-25
  -11.8699999      -3.47398491E-25
  -11.8599997      -4.09826971E-25
  -11.8500004      -4.81537115E-25
  -11.8400002      -5.63626375E-25
  -11.8299999      -6.57285661E-25
  -11.8199997      -7.63802246E-25
  -11.8100004      -8.84562059E-25
  -11.8000002      -1.02105403E-24
  -11.7900000      -1.17486849E-24
  -11.7799997      -1.34770161E-24
  -11.7700005      -1.54135759E-24
  -11.7600002      -1.75774224E-24
  -11.7500000      -1.99886664E-24
  -11.7399998      -2.26684388E-24
  -11.7299995      -2.56388511E-24
  -11.7200003      -2.89229560E-24
  -11.7100000      -3.25446657E-24
  -11.6999998      -3.65287209E-24
  -11.6899996      -4.09005604E-24
  -11.6800003      -4.56862167E-24
  -11.6700001      -5.09123019E-24
  -11.6599998      -5.66056727E-24
  -11.6499996      -6.27934306E-24
  -11.6400003      -6.95026689E-24
  -11.6300001      -7.67602839E-24
  -11.6199999      -8.45928286E-24
  -11.6099997      -9.30261856E-24
  -11.6000004      -1.02085346E-23
  -11.5900002      -1.11794180E-23
  -11.5799999      -1.22174927E-23
  -11.5699997      -1.33248215E-23
  -11.5600004      -1.45032393E-23
  -11.5500002      -1.57543506E-23
  -11.5400000      -1.70794634E-23
  -11.5299997      -1.84795321E-23
  -11.5200005      -1.99551785E-23
  -11.5100002      -2.15065918E-23
  -11.5000000      -2.31335101E-23
  -11.4899998      -2.48351636E-23
  -11.4799995      -2.66102473E-23
  -11.4700003      -2.84568445E-23
  -11.4600000      -3.03723881E-23
  -11.4499998      -3.23536280E-23
  -11.4399996      -3.43965601E-23
  -11.4300003      -3.64964005E-23
  -11.4200001      -3.86475264E-23
  -11.4099998      -4.08434280E-23
  -11.3999996      -4.30766333E-23
  -11.3900003      -4.53387455E-23
  -11.3800001      -4.76202796E-23
  -11.3699999      -4.99107562E-23
  -11.3599997      -5.21986169E-23
  -11.3500004      -5.44711106E-23
  -11.3400002      -5.67144227E-23
  -11.3299999      -5.89135019E-23
  -11.3199997      -6.10520848E-23
  -11.3100004      -6.31127284E-23
  -11.3000002      -6.50768216E-23
  -11.2900000      -6.69245358E-23
  -11.2799997      -6.86347926E-23
  -11.2700005      -7.01852577E-23
  -11.2600002      -7.15525492E-23
  -11.2500000      -7.27120612E-23
  -11.2399998      -7.36381713E-23
  -11.2299995      -7.43041403E-23
  -11.2200003      -7.46822066E-23
  -11.2100000      -7.47436872E-23
  -11.1999998      -7.44590789E-23
  -11.1899996      -7.37981144E-23
  -11.1800003      -7.27298642E-23
  -11.1700001      -7.12227738E-23
  -11.1599998      -6.92449292E-23
  -11.1499996      -6.67640563E-23
  -11.1400003      -6.37476667E-23
  -11.1300001      -6.01633100E-23
  -11.1199999      -5.59786553E-23
  -11.1099997      -5.11616750E-23
  -11.1000004      -4.56808240E-23
  -11.0900002      -3.95051633E-23
  -11.0799999      -3.26047288E-23
  -11.0699997      -2.49505266E-23
  -11.0600004      -1.65148441E-23
  -11.0500002      -7.27147764E-24
  -11.0400000       2.80421711E-24
  -11.0299997       1.37348777E-23
  -11.0200005       2.55408927E-23
  -11.0100002       3.82405152E-23
  -11.0000000       5.18494481E-23
  -10.9899998       6.63804174E-23
  -10.9799995       8.18433470E-23
  -10.9700003       9.82450337E-23
  -10.9600000       1.15588873E-22
  -10.9499998       1.33874744E-22
  -10.9399996       1.53098969E-22
  -10.9300003       1.73253987E-22
  -10.9200001       1.94328286E-22
  -10.9099998       2.16306493E-22
  -10.8999996       2.39169273E-22
  -10.8900003       2.62892857E-22
  -10.8800001       2.87449933E-22
  -10.8699999       3.12808870E-22
  -10.8599997       3.38934277E-22
  -10.8500004       3.65786901E-22
  -10.8400002       3.93323952E-22
  -10.8299999       4.21499767E-22
  -10.8199997       4.50265093E-22
  -10.8100004       4.79568310E-22
  -10.8000002       5.09356102E-22
  -10.7900000       5.39572630E-22
  -10.7799997       5.70161904E-22
  -10.7700005       6.01067228E-22
  -10.7600002       6.32232661E-22
  -10.7500000       6.63602769E-22
  -10.7399998       6.95125650E-22
  -10.7299995       7.26751829E-22
  -10.7200003       7.58436572E-22
  -10.7100000       7.90141813E-22
  -10.6999998       8.21835594E-22
  -10.6899996       8.53495397E-22
  -10.6800003       8.85109408E-22
  -10.6700001       9.16678182E-22
  -10.6599998       9.48215756E-22
  -10.6499996       9.79752522E-22
  -10.6400003       1.01133846E-21
  -10.6300001       1.04304396E-21
  -10.6199999       1.07496240E-21
  -10.6099997       1.10721376E-21
  -10.6000004       1.13994738E-21
  -10.5900002       1.17334288E-21
  -10.5799999       1.20761725E-21
  -10.5699997       1.24302406E-21
  -10.5600004       1.27986136E-21
  -10.5500002       1.31846955E-21
  -10.5400000       1.35924021E-21
  -10.5299997       1.40261791E-21
  -10.5200005       1.44910623E-21
  -10.5100002       1.49926981E-21
  -10.5000000       1.55373903E-21
  -10.4899998       1.61321565E-21
  -10.4799995       1.67847780E-21
  -10.4700003       1.75038587E-21
  -10.4600000       1.82988225E-21
  -10.4499998       1.91800546E-21
  -10.4399996       2.01588782E-21
  -10.4300003       2.12476264E-21
  -10.4200001       2.24597712E-21
  -10.4099998       2.38098588E-21
  -10.3999996       2.53136856E-21
  -10.3900003       2.69882478E-21
  -10.3800001       2.88518921E-21
  -10.3699999       3.09243653E-21
  -10.3599997       3.32267809E-21
  -10.3500004       3.57818421E-21
  -10.3400002       3.86137927E-21
  -10.3299999       4.17484760E-21
  -10.3199997       4.52135186E-21
  -10.3100004       4.90382071E-21
  -10.3000002       5.32536859E-21
  -10.2900000       5.78929736E-21
  -10.2799997       6.29909830E-21
  -10.2700005       6.85848404E-21
  -10.2600002       7.47134732E-21
  -10.2500000       8.14180952E-21
  -10.2399998       8.87420283E-21
  -10.2299995       9.67308239E-21
  -10.2200003       1.05432384E-20
  -10.2100000       1.14896962E-20
  -10.1999998       1.25176976E-20
  -10.1899996       1.36327572E-20
  -10.1800003       1.48406138E-20
  -10.1700001       1.61472716E-20
  -10.1599998       1.75589700E-20
  -10.1499996       1.90822263E-20
  -10.1400003       2.07237937E-20
  -10.1300001       2.24907032E-20
  -10.1199999       2.43902233E-20
  -10.1099997       2.64299457E-20
  -10.1000004       2.86176251E-20
  -10.0900002       3.09613574E-20
  -10.0799999       3.34694983E-20
  -10.0699997       3.61505780E-20
  -10.0600004       3.90134728E-20
  -10.0500002       4.20672653E-20
  -10.0400000       4.53213065E-20
  -10.0299997       4.87851706E-20
  -10.0200005       5.24686511E-20
  -10.0100002       5.63817938E-20
  -10.0000000       6.05348802E-20
  -9.98999977       6.49383310E-20
  -9.97999954       6.96028477E-20
  -9.97000027       7.45392612E-20
  -9.96000004       7.97586481E-20
  -9.94999981       8.52721300E-20
  -9.93999958       9.10909902E-20
  -9.93000031       9.72267446E-20
  -9.92000008       1.03690948E-19
  -9.90999985       1.10495226E-19
  -9.89999962       1.17651294E-19
  -9.89000034       1.25170831E-19
  -9.88000011       1.33065663E-19
  -9.86999989       1.41347692E-19
  -9.85999966       1.50028436E-19
  -9.85000038       1.59119733E-19
  -9.84000015       1.68633033E-19
  -9.82999992       1.78579841E-19
  -9.81999969       1.88971375E-19
  -9.81000042       1.99818906E-19
  -9.80000019       2.11133276E-19
  -9.78999996       2.22924994E-19
  -9.77999973       2.35204439E-19
  -9.77000046       2.47981510E-19
  -9.76000023       2.61265720E-19
  -9.75000000       2.75066221E-19
  -9.73999977       2.89391515E-19
  -9.72999954       3.04249851E-19
  -9.72000027       3.19648593E-19
  -9.71000004       3.35594490E-19
  -9.69999981       3.52093926E-19
  -9.68999958       3.69151967E-19
  -9.68000031       3.86773602E-19
  -9.67000008       4.04962321E-19
  -9.65999985       4.23720891E-19
  -9.64999962       4.43050912E-19
  -9.64000034       4.62953343E-19
  -9.63000011       4.83427821E-19
  -9.61999989       5.04472640E-19
  -9.60999966       5.26084750E-19
  -9.60000038       5.48259963E-19
  -9.59000015       5.70992696E-19
  -9.57999992       5.94276175E-19
  -9.56999969       6.18101148E-19
  -9.56000042       6.42457792E-19
  -9.55000019       6.67333698E-19
  -9.53999996       6.92715373E-19
  -9.52999973       7.18586946E-19
  -9.52000046       7.44931666E-19
  -9.51000023       7.71729268E-19
  -9.50000000       7.98957469E-19
  -9.48999977       8.26594038E-19
  -9.47999954       8.54612041E-19
  -9.47000027       8.82982527E-19
  -9.46000004       9.11675665E-19
  -9.44999981       9.40656868E-19
  -9.43999958       9.69890051E-19
  -9.43000031       9.99336957E-19
  -9.42000008       1.02895674E-18
  -9.40999985       1.05870381E-18
  -9.39999962       1.08853184E-18
  -9.39000034       1.11839048E-18
  -9.38000011       1.14822781E-18
  -9.36999989       1.17798574E-18
  -9.35999966       1.20760563E-18
  -9.35000038       1.23702410E-18
  -9.34000015       1.26617570E-18
  -9.32999992       1.29498992E-18
  -9.31999969       1.32339458E-18
  -9.31000042       1.35131244E-18
  -9.30000019       1.37866420E-18
  -9.28999996       1.40536539E-18
  -9.27999973       1.43132934E-18
  -9.27000046       1.45646478E-18
  -9.26000023       1.48067387E-18
  -9.25000000       1.50385964E-18
  -9.23999977       1.52591962E-18
  -9.22999954       1.54674679E-18
  -9.22000027       1.56622937E-18
  -9.21000004       1.58425436E-18
  -9.19999981       1.60070088E-18
  -9.18999958       1.61544879E-18
  -9.18000031       1.62836914E-18
  -9.17000008       1.63933228E-18
  -9.15999985       1.64820245E-18
  -9.14999962       1.65484130E-18
  -9.14000034       1.65910655E-18
  -9.13000011       1.66085211E-18
  -9.11999989       1.65992691E-18
  -9.10999966       1.65617492E-18
  -9.10000038       1.64944302E-18
  -9.09000015       1.63956286E-18
  -9.07999992       1.62637378E-18
  -9.06999969       1.60970329E-18
  -9.06000042       1.58937905E-18
  -9.05000019       1.56522734E-18
  -9.03999996       1.53706495E-18
  -9.02999973       1.50470843E-18
  -9.02000046       1.46797551E-18
  -9.01000023       1.42667449E-18
  -9.00000000       1.38061459E-18
  -8.98999977       1.32960019E-18
  -8.97999954       1.27343638E-18
  -8.97000027       1.21192372E-18
  -8.96000004       1.14485933E-18
  -8.94999981       1.07203879E-18
  -8.93999958       9.93258110E-19
  -8.93000031       9.08310073E-19
  -8.92000008       8.16987628E-19
  -8.90999985       7.19079222E-19
  -8.89999962       6.14376302E-19
  -8.89000034       5.02668404E-19
  -8.88000011       3.83744958E-19
  -8.86999989       2.57392912E-19
  -8.85999966       1.23403780E-19
  -8.85000038      -1.84316908E-20
  -8.84000015      -1.68320618E-19
  -8.82999992      -3.26473350E-19
  -8.81999969      -4.93095133E-19
  -8.81000042      -6.68388663E-19
  -8.80000019      -8.52558617E-19
  -8.78999996      -1.04579949E-18
  -8.77999973      -1.24830633E-18
  -8.77000046      -1.46027064E-18
  -8.76000023      -1.68188080E-18
  -8.75000000      -1.91332066E-18
  -8.73999977      -2.15476517E-18
  -8.72999954      -2.40638834E-18
  -8.72000027      -2.66835479E-18
  -8.71000004      -2.94082663E-18
  -8.69999981      -3.22395257E-18
  -8.68999958      -3.51788044E-18
  -8.68000031      -3.82274572E-18
  -8.67000008      -4.13867743E-18
  -8.65999985      -4.46579634E-18
  -8.64999962      -4.80421123E-18
  -8.64000034      -5.15401847E-18
  -8.63000011      -5.51531152E-18
  -8.61999989      -5.88816153E-18
  -8.60999966      -6.27263590E-18
  -8.60000038      -6.66878800E-18
  -8.59000015      -7.07665587E-18
  -8.57999992      -7.49626226E-18
  -8.56999969      -7.92762041E-18
  -8.56000042      -8.37072369E-18
  -8.55000019      -8.82554895E-18
  -8.53999996      -9.29206310E-18
  -8.52999973      -9.77021237E-18
  -8.52000046      -1.02599157E-17
  -8.51000023      -1.07610904E-17
  -8.50000000      -1.12736255E-17
  -8.48999977      -1.17973856E-17
  -8.47999954      -1.23322240E-17
  -8.47000027      -1.28779696E-17
  -8.46000004      -1.34344298E-17
  -8.44999981      -1.40013901E-17
  -8.43999958      -1.45786050E-17
  -8.43000031      -1.51658106E-17
  -8.42000008      -1.57627256E-17
  -8.40999985      -1.63690275E-17
  -8.39999962      -1.69843969E-17
  -8.39000034      -1.76084518E-17
  -8.38000011      -1.82407983E-17
  -8.36999989      -1.88810162E-17
  -8.35999966      -1.95286689E-17
  -8.35000038      -2.01832599E-17
  -8.34000015      -2.08442980E-17
  -8.32999992      -2.15112305E-17
  -8.31999969      -2.21835249E-17
  -8.31000042      -2.28605507E-17
  -8.30000019      -2.35416645E-17
  -8.28999996      -2.42262325E-17
  -8.27999973      -2.49135452E-17
  -8.27000046      -2.56028910E-17
  -8.26000023      -2.62934776E-17
  -8.25000000      -2.69845010E-17
  -8.23999977      -2.76751538E-17
  -8.22999954      -2.83645857E-17
  -8.22000027      -2.90518470E-17
  -8.21000004      -2.97360114E-17
  -8.19999981      -3.04161293E-17
  -8.18999958      -3.10911748E-17
  -8.18000031      -3.17600926E-17
  -8.17000008      -3.24218272E-17
  -8.15999985      -3.30752304E-17
  -8.14999962      -3.37191773E-17
  -8.14000034      -3.43524568E-17
  -8.13000011      -3.49738117E-17
  -8.11999989      -3.55819681E-17
  -8.10999966      -3.61756489E-17
  -8.10000038      -3.67534875E-17
  -8.09000015      -3.73141538E-17
  -8.07999992      -3.78561854E-17
  -8.06999969      -3.83781596E-17
  -8.06000042      -3.88785410E-17
  -8.05000019      -3.93558540E-17
  -8.03999996      -3.98085203E-17
  -8.02999973      -4.02349087E-17
  -8.02000046      -4.06334245E-17
  -8.01000023      -4.10024000E-17
  -8.00000000      -4.13401544E-17
  -7.98999977      -4.16449175E-17
  -7.98000002      -4.19149291E-17
  -7.96999979      -4.21483859E-17
  -7.96000004      -4.23435046E-17
  -7.94999981      -4.24983958E-17
  -7.94000006      -4.26111505E-17
  -7.92999983      -4.26798759E-17
  -7.92000008      -4.27026896E-17
  -7.90999985      -4.26775466E-17
  -7.90000010      -4.26025246E-17
  -7.88999987      -4.24755226E-17
  -7.88000011      -4.22945884E-17
  -7.86999989      -4.20576707E-17
  -7.86000013      -4.17626187E-17
  -7.84999990      -4.14072917E-17
  -7.84000015      -4.09897673E-17
  -7.82999992      -4.05078320E-17
  -7.82000017      -3.99592855E-17
  -7.80999994      -3.93420467E-17
  -7.80000019      -3.86538357E-17
  -7.78999996      -3.78926674E-17
  -7.78000021      -3.70563249E-17
  -7.76999998      -3.61426411E-17
  -7.76000023      -3.51493659E-17
  -7.75000000      -3.40744282E-17
  -7.73999977      -3.29156507E-17
  -7.73000002      -3.16708365E-17
  -7.71999979      -3.03377886E-17
  -7.71000004      -2.89144656E-17
  -7.69999981      -2.73987646E-17
  -7.69000006      -2.57885318E-17
  -7.67999983      -2.40817290E-17
  -7.67000008      -2.22762254E-17
  -7.65999985      -2.03700968E-17
  -7.65000010      -1.83612622E-17
  -7.63999987      -1.62476470E-17
  -7.63000011      -1.40274430E-17
  -7.61999989      -1.16987558E-17
  -7.61000013      -9.25968725E-18
  -7.59999990      -6.70837893E-18
  -7.59000015      -4.04311739E-18
  -7.57999992      -1.26225807E-18
  -7.57000017       1.63593805E-18
  -7.55999994       4.65303694E-18
  -7.55000019       7.79047386E-18
  -7.53999996       1.10498724E-17
  -7.53000021       1.44325845E-17
  -7.51999998       1.79398915E-17
  -7.51000023       2.15730110E-17
  -7.50000000       2.53331937E-17
  -7.48999977       2.92214488E-17
  -7.48000002       3.32388103E-17
  -7.46999979       3.73861053E-17
  -7.46000004       4.16641279E-17
  -7.44999981       4.60736292E-17
  -7.44000006       5.06151420E-17