  -16.0000000       0.00000000    
  -15.9899998       0.00000000    
  -15.9799995       0.00000000    
  -15.9700003       0.00000000    
  -15.9600000       0.00000000    
  -15.9499998       0.00000000    
  -15.9399996       0.00000000    
  -15.9300003       0.00000000    
  -15.9200001       0.00000000    
  -15.9099998       0.00000000    
  -15.8999996       0.00000000    
  -15.8900003      -9.80908925E-45
  -15.8800001      -3.22298647E-44
  -15.8699999      -2.35418142E-43
  -15.8599997      -1.70678153E-42
  -15.8500004      -9.73482043E-42
  -15.8400002      -4.54945559E-41
  -15.8299999      -1.79073332E-40
  -15.8199997      -6.06672552E-40
  -15.8100004      -1.79163155E-39
  -15.8000002      -4.62706651E-39
  -15.7900000      -1.03496149E-38
  -15.7799997      -1.93291831E-38
  -15.7700005      -2.65420278E-38
  -15.7600002      -9.05314758E-39
  -15.7500000       1.03270484E-37
  -15.7399998       4.88556723E-37
  -15.7299995       1.54743457E-36
  -15.7200003       4.10097040E-36
  -15.7100000       9.70643725E-36
  -15.6999998       2.11226434E-35
  -15.6899996       4.29408890E-35
  -15.6800003       8.23634453E-35
  -15.6700001       1.50055527E-34
  -15.6599998       2.60920463E-34
  -15.6499996       4.34560471E-34
  -15.6400003       6.95104156E-34
  -15.6300001       1.07003166E-33
  -15.6199999       1.58763828E-33
  -15.6099997       2.27287453E-33
  -15.6000004       3.14148367E-33
  -15.5900002       4.19264195E-33
  -15.5799999       5.40062512E-33
  -15.5699997       6.70632311E-33
  -15.5600004       8.00962235E-33
  -15.5500002       9.16371609E-33
  -15.5400000       9.97214249E-33
  -15.5299997       1.01889205E-32
  -15.5200005       9.52153069E-33
  -15.5100002       7.63572845E-33
  -15.5000000       4.16067548E-33
  -15.4899998      -1.30748712E-33
  -15.4799995      -9.20533520E-33
  -15.4700003      -2.00063349E-32
  -15.4600000      -3.42298401E-32
  -15.4499998      -5.24543313E-32
  -15.4399996      -7.53336890E-32
  -15.4300003      -1.03614913E-31
  -15.4200001      -1.38157097E-31
  -15.4099998      -1.79951552E-31
  -15.3999996      -2.30147265E-31
  -15.3900003      -2.90085745E-31
  -15.3800001      -3.61351995E-31
  -15.3699999      -4.45846246E-31
  -15.3599997      -5.45882555E-31
  -15.3500004      -6.64311025E-31
  -15.3400002      -8.04657386E-31
  -15.3299999      -9.71265937E-31
  -15.3199997      -1.16942504E-30
  -15.3100004      -1.40545086E-30
  -15.3000002      -1.68670819E-30
  -15.2900000      -2.02155049E-30
  -15.2799997      -2.41917621E-30
  -15.2700005      -2.88941119E-30
  -15.2600002      -3.44244706E-30
  -15.2500000      -4.08857962E-30
  -15.2399998      -4.83800147E-30
  -15.2299995      -5.70070411E-30
  -15.2200003      -6.68653687E-30
  -15.2100000      -7.80544950E-30
  -15.1999998      -9.06792141E-30
  -15.1899996      -1.04855495E-29
  -15.1800003      -1.20717349E-29
  -15.1700001      -1.38423988E-29
  -15.1599998      -1.58166259E-29
  -15.1499996      -1.80171905E-29
  -15.1400003      -2.04708583E-29
  -15.1300001      -2.32084745E-29
  -15.1199999      -2.62648516E-29
  -15.1099997      -2.96783969E-29
  -15.1000004      -3.34907150E-29
  -15.0900002      -3.77460693E-29
  -15.0799999      -4.24909137E-29
  -15.0699997      -4.77734566E-29
  -15.0600004      -5.36433601E-29
  -15.0500002      -6.01514987E-29
  -15.0400000      -6.73498243E-29
  -15.0299997      -7.52913182E-29
  -15.0200005      -8.40299244E-29
  -15.0100002      -9.36206342E-29
  -15.0000000      -1.04119480E-28
  -14.9899998      -1.15583879E-28
  -14.9799995      -1.28072933E-28
  -14.9700003      -1.41648091E-28
  -14.9600000      -1.56373992E-28
  -14.9499998      -1.72319717E-28
  -14.9399996      -1.89560172E-28
  -14.9300003      -2.08177427E-28
  -14.9200001      -2.28262084E-28
  -14.9099998      -2.49914255E-28
  -14.8999996      -2.73244296E-28
  -14.8900003      -2.98372217E-28
  -14.8800001      -3.25427320E-28
  -14.8699999      -3.54545888E-28
  -14.8599997      -3.85869261E-28
  -14.8500004      -4.19541064E-28
  -14.8400002      -4.55704492E-28
  -14.8299999      -4.94499847E-28
  -14.8199997      -5.36062426E-28
  -14.8100004      -5.80521652E-28
  -14.8000002      -6.28000640E-28
  -14.7900000      -6.78617594E-28
  -14.7799997      -7.32486673E-28
  -14.7700005      -7.89719870E-28
  -14.7600002      -8.50430382E-28
  -14.7500000      -9.14732946E-28
  -14.7399998      -9.82746006E-28
  -14.7299995      -1.05459138E-27
  -14.7200003      -1.13039579E-27
  -14.7100000      -1.21028712E-27
  -14.6999998      -1.29439595E-27
  -14.6899996      -1.38285285E-27
  -14.6800003      -1.47578667E-27
  -14.6700001      -1.57332376E-27
  -14.6599998      -1.67558833E-27
  -14.6499996      -1.78270277E-27
  -14.6400003      -1.89478573E-27
  -14.6300001      -2.01195507E-27
  -14.6199999      -2.13432577E-27
  -14.6099997      -2.26201146E-27
  -14.6000004      -2.39511903E-27
  -14.5900002      -2.53374901E-27
  -14.5799999      -2.67799114E-27
  -14.5699997      -2.82791612E-27
  -14.5600004      -2.98357671E-27
  -14.5500002      -3.14499680E-27
  -14.5400000      -3.31217195E-27
  -14.5299997      -3.48506229E-27
  -14.5200005      -3.66359138E-27
  -14.5100002      -3.84764711E-27
  -14.5000000      -4.03708312E-27
  -14.4899998      -4.23171452E-27
  -14.4799995      -4.43133099E-27
  -14.4700003      -4.63570144E-27
  -14.4600000      -4.84456623E-27
  -14.4499998      -5.05765612E-27
  -14.4399996      -5.27469071E-27
  -14.4300003      -5.49542116E-27
  -14.4200001      -5.71958361E-27
  -14.4099998      -5.94694349E-27
  -14.3999996      -6.17735597E-27
  -14.3900003      -6.41070858E-27
  -14.3800001      -6.64696048E-27
  -14.3699999      -6.88625958E-27
  -14.3599997      -7.12897067E-27
  -14.3500004      -7.37578244E-27
  -14.3400002      -7.62751612E-27
  -14.3299999      -7.88556916E-27
  -14.3199997      -8.15187982E-27
  -14.3100004      -8.42930079E-27
  -14.3000002      -8.72141120E-27
  -14.2900000      -9.03287182E-27
  -14.2799997      -9.37009445E-27
  -14.2700005      -9.74131976E-27
  -14.2600002      -1.01567991E-26
  -14.2500000      -1.06300656E-26
  -14.2399998      -1.11778994E-26
  -14.2299995      -1.18211770E-26
  -14.2200003      -1.25859206E-26
  -14.2100000      -1.35035253E-26
  -14.1999998      -1.46135081E-26
  -14.1899996      -1.59626959E-26
  -14.1800003      -1.76079116E-26
  -14.1700001      -1.96176025E-26
  -14.1599998      -2.20734929E-26
  -14.1499996      -2.50716990E-26
  -14.1400003      -2.87260833E-26
  -14.1300001      -3.31706396E-26
  -14.1199999      -3.85606828E-26
  -14.1099997      -4.50781067E-26
  -14.1000004      -5.29334912E-26
  -14.0900002      -6.23692475E-26
  -14.0799999      -7.36639114E-26
  -14.0699997      -8.71373106E-26
  -14.0600004      -1.03153997E-25
  -14.0500002      -1.22129436E-25
  -14.0400000      -1.44533111E-25
  -14.0299997      -1.70892331E-25
  -14.0200005      -2.01799457E-25
  -14.0100002      -2.37927376E-25
  -14.0000000      -2.80027675E-25
  -13.9899998      -3.28933156E-25
  -13.9799995      -3.85564790E-25
  -13.9700003      -4.50965353E-25
  -13.9600000      -5.26268190E-25
  -13.9499998      -6.12730846E-25
  -13.9399996      -7.11744378E-25
  -13.9300003      -8.24807275E-25
  -13.9200001      -9.53589755E-25
  -13.9099998      -1.09989565E-24
  -13.8999996      -1.26567220E-24
  -13.8900003      -1.45312409E-24
  -13.8800001      -1.66450361E-24
  -13.8699999      -1.90236904E-24
  -13.8599997      -2.16940200E-24
  -13.8500004      -2.46856133E-24
  -13.8400002      -2.80282536E-24
  -13.8299999      -3.17557180E-24
  -13.8199997      -3.59029491E-24
  -13.8100004      -4.05086859E-24
  -13.8000002      -4.56145566E-24
  -13.7900000      -5.12602566E-24
  -13.7799997      -5.74923603E-24
  -13.7700005      -6.43578364E-24
  -13.7600002      -7.19074483E-24
  -13.7500000      -8.01927439E-24
  -13.7399998      -8.92675474E-24
  -13.7299995      -9.91883726E-24
  -13.7200003      -1.10018589E-23
  -13.7100000      -1.21818504E-23
  -13.6999998      -1.34649232E-23
  -13.6899996      -1.48579459E-23
  -13.6800003      -1.63673334E-23
  -13.6700001      -1.80001114E-23
  -13.6599998      -1.97631524E-23
  -13.6499996      -2.16642425E-23
  -13.6400003      -2.37108648E-23
  -13.6300001      -2.59094359E-23
  -13.6199999      -2.82678902E-23
  -13.6099997      -3.07934126E-23
  -13.6000004      -3.34927211E-23
  -13.5900002      -3.63734486E-23
  -13.5799999      -3.94435344E-23
  -13.5699997      -4.27087843E-23
  -13.5600004      -4.61756134E-23
  -13.5500002      -4.98516547E-23
  -13.5400000      -5.37424113E-23
  -13.5299997      -5.78521495E-23
  -13.5200005      -6.21872872E-23
  -13.5100002      -6.67539336E-23
  -13.5000000      -7.15539250E-23
  -13.4899998      -7.65884732E-23
  -13.4799995      -8.18649177E-23
  -13.4700003      -8.73832521E-23
  -13.4600000      -9.31416590E-23
  -13.4499998      -9.91401195E-23
  -13.4399996      -1.05376797E-22
  -13.4300003      -1.11851111E-22
  -13.4200001      -1.18554472E-22
  -13.4099998      -1.25485076E-22
  -13.3999996      -1.32634365E-22
  -13.3900003      -1.39994992E-22
  -13.3800001      -1.47553542E-22
  -13.3699999      -1.55300232E-22
  -13.3599997      -1.63216735E-22
  -13.3500004      -1.71293270E-22
  -13.3400002      -1.79506650E-22
  -13.3299999      -1.87837286E-22
  -13.3199997      -1.96263242E-22
  -13.3100004      -2.04763691E-22
  -13.3000002      -2.13306929E-22
  -13.2900000      -2.21862346E-22
  -13.2799997      -2.30394590E-22
  -13.2700005      -2.38877937E-22
  -13.2600002      -2.47266015E-22
  -13.2500000      -2.55524593E-22
  -13.2399998      -2.63607249E-22
  -13.2299995      -2.71469984E-22
  -13.2200003      -2.79066399E-22
  -13.2100000      -2.86342751E-22
  -13.1999998      -2.93247695E-22
  -13.1899996      -2.99725063E-22
  -13.1800003      -3.05706421E-22
  -13.1700001      -3.11142872E-22
  -13.1599998      -3.15961209E-22
  -13.1499996      -3.20097819E-22
  -13.1400003      -3.23486765E-22
  -13.1300001      -3.26052292E-22
  -13.1199999      -3.27723567E-22
  -13.1099997      -3.28417487E-22
  -13.1000004      -3.28065642E-22
  -13.0900002      -3.26582508E-22
  -13.0799999      -3.23887481E-22
  -13.0699997      -3.19899909E-22
  -13.0600004      -3.14531818E-22
  -13.0500002      -3.07707528E-22
  -13.0400000      -2.99326796E-22
  -13.0299997      -2.89311417E-22
  -13.0200005      -2.77568623E-22
  -13.0100002      -2.64012838E-22
  -13.0000000      -2.48554900E-22
  -12.9899998      -2.31100702E-22
  -12.9799995      -2.11567232E-22
  -12.9700003      -1.89861011E-22
  -12.9600000      -1.65897108E-22
  -12.9499998      -1.39582980E-22
  -12.9399996      -1.10831196E-22
  -12.9300003      -7.95565529E-23
  -12.9200001      -4.56738095E-23
  -12.9099998      -9.09664540E-24
  -12.8999996       3.02574006E-23
  -12.8900003       7.24811774E-23
  -12.8800001       1.17650438E-22
  -12.8699999       1.65845787E-22
  -12.8599997       2.17171110E-22
  -12.8500004       2.71702098E-22
  -12.8400002       3.29516995E-22
  -12.8299999       3.90708594E-22
  -12.8199997       4.55350255E-22
  -12.8100004       5.23529900E-22
  -12.8000002       5.95355016E-22
  -12.7900000       6.70923347E-22
  -12.7799997       7.50327839E-22
  -12.7700005       8.33675929E-22
  -12.7600002       9.21079849E-22
  -12.7500000       1.01265718E-21
  -12.7399998       1.10860327E-21
  -12.7299995       1.20898646E-21
  -12.7200003       1.31398266E-21
  -12.7100000       1.42378746E-21
  -12.6999998       1.53859623E-21
  -12.6899996       1.65859467E-21
  -12.6800003       1.78410539E-21
  -12.6700001       1.91534357E-21
  -12.6599998       2.05258245E-21
  -12.6499996       2.19613484E-21
  -12.6400003       2.34645068E-21
  -12.6300001       2.50390096E-21
  -12.6199999       2.66901376E-21
  -12.6099997       2.84221884E-21
  -12.6000004       3.02408346E-21
  -12.5900002       3.21529163E-21
  -12.5799999       3.41648777E-21
  -12.5699997       3.62853277E-21
  -12.5600004       3.85218859E-21
  -12.5500002       4.08847185E-21
  -12.5400000       4.33839833E-21
  -12.5299997       4.60310259E-21
  -12.5200005       4.88391385E-21
  -12.5100002       5.18219970E-21
  -12.5000000       5.49948526E-21
  -12.4899998       5.83725566E-21
  -12.4799995       6.19750534E-21
  -12.4700003       6.58207162E-21
  -12.4600000       6.99318200E-21
  -12.4499998       7.43314354E-21
  -12.4399996       7.90453713E-21
  -12.4300003       8.40994286E-21
  -12.4200001       8.95256527E-21
  -12.4099998       9.53553211E-21
  -12.3999996       1.01622846E-20
  -12.3900003       1.08366525E-20
  -12.3800001       1.15623120E-20
  -12.3699999       1.23437982E-20
  -12.3599997       1.31855659E-20
  -12.3500004       1.40928570E-20
  -12.3400002       1.50711403E-20
  -12.3299999       1.61255775E-20
  -12.3199997       1.72625841E-20
  -12.3100004       1.84887226E-20
  -12.3000002       1.98108755E-20
  -12.2900000       2.12367071E-20
  -12.2799997       2.27735634E-20
  -12.2700005       2.44298908E-20
  -12.2600002       2.62149127E-20
  -12.2500000       2.81378604E-20
  -12.2399998       3.02088945E-20
  -12.2299995       3.24391220E-20
  -12.2200003       3.48385436E-20
  -12.2100000       3.74203003E-20
  -12.1999998       4.01953361E-20
  -12.1899996       4.31777261E-20
  -12.1800003       4.63815453E-20
  -12.1700001       4.98205487E-20
  -12.1599998       5.35119456E-20
  -12.1499996       5.74698077E-20
  -12.1400003       6.17138259E-20
  -12.1300001       6.62587245E-20
  -12.1199999       7.11263722E-20
  -12.1099997       7.63342949E-20
  -12.1000004       8.19037601E-20
  -12.0900002       8.78566559E-20
  -12.0799999       9.42148766E-20
  -12.0699997       1.01002811E-19
  -12.0600004       1.08244241E-19
  -12.0500002       1.15964182E-19
  -12.0400000       1.24187016E-19
  -12.0299997       1.32946536E-19
  -12.0200005       1.42267763E-19
  -12.0100002       1.52179455E-19
  -12.0000000       1.62719144E-19
  -11.9899998       1.73914375E-19
  -11.9799995       1.85795131E-19
  -11.9700003       1.98401480E-19
  -11.9600000       2.11768460E-19
  -11.9499998       2.25931046E-19
  -11.9399996       2.40933078E-19
  -11.9300003       2.56805795E-19
  -11.9200001       2.73591745E-19
  -11.9099998       2.91330970E-19
  -11.8999996       3.10078475E-19
  -11.8900003       3.29874355E-19
  -11.8800001       3.50768601E-19
  -11.8699999       3.72788744E-19
  -11.8599997       3.96002353E-19
  -11.8500004       4.20446936E-19
  -11.8400002       4.46172537E-19
  -11.8299999       4.73249260E-19
  -11.8199997       5.01707065E-19
  -11.8100004       5.31621018E-19
  -11.8000002       5.63026171E-19
  -11.7900000       5.95992575E-19
  -11.7799997       6.30570276E-19
  -11.7700005       6.66829376E-19
  -11.7600002       7.04819765E-19
  -11.7500000       7.44591643E-19
  -11.7399998       7.86210047E-19
  -11.7299995       8.29754902E-19
  -11.7200003       8.75251387E-19
  -11.7100000       9.22789456E-19
  -11.6999998       9.72439318E-19
  -11.6899996       1.02426074E-18
  -11.6800003       1.07830406E-18
  -11.6700001       1.13461924E-18
  -11.6599998       1.19331629E-18
  -11.6499996       1.25441516E-18
  -11.6400003       1.31800622E-18
  -11.6300001       1.38410912E-18
  -11.6199999       1.45287419E-18
  -11.6099997       1.52428149E-18
  -11.6000004       1.59844102E-18
  -11.5900002       1.67538257E-18
  -11.5799999       1.75514657E-18
  -11.5699997       1.83787290E-18
  -11.5600004       1.92348154E-18
  -11.5500002       2.01217247E-18
  -11.5400000       2.10394609E-18
  -11.5299997       2.19882205E-18
  -11.5200005       2.29686053E-18
  -11.5100002       2.39812171E-18
  -11.5000000       2.50264549E-18
  -11.4899998       2.61045194E-18
  -11.4799995       2.72158117E-18
  -11.4700003       2.83605263E-18
  -11.4600000       2.95394737E-18
  -11.4499998       3.07528443E-18
  -11.4399996       3.20004436E-18
  -11.4300003       3.32818704E-18
  -11.4200001       3.45979251E-18
  -11.4099998       3.59488103E-18
  -11.3999996       3.73343172E-18
  -11.3900003       3.87550578E-18
  -11.3800001       4.02094233E-18
  -11.3699999       4.16978149E-18
  -11.3599997       4.32202366E-18
  -11.3500004       4.47758821E-18
  -11.3400002       4.63651525E-18
  -11.3299999       4.79868525E-18
  -11.3199997       4.96397786E-18
  -11.3100004       5.13239307E-18
  -11.3000002       5.30377000E-18
  -11.2900000       5.47815002E-18
  -11.2799997       5.65549175E-18
  -11.2700005       5.83527656E-18
  -11.2600002       6.01790274E-18
  -11.2500000       6.20281069E-18
  -11.2399998       6.39008025E-18
  -11.2299995       6.57935282E-18
  -11.2200003       6.77062551E-18
  -11.2100000       6.96370022E-18
  -11.1999998       7.15813647E-18
  -11.1899996       7.35405337E-18
  -11.1800003       7.55093146E-18
  -11.1700001       7.74876990E-18
  -11.1599998       7.94708810E-18
  -11.1499996       8.14564785E-18
  -11.1400003       8.34412653E-18
  -11.1300001       8.54228509E-18
  -11.1199999       8.73964376E-18
  -11.1099997       8.93612067E-18
  -11.1000004       9.13107721E-18
  -11.0900002       9.32427186E-18
  -11.0799999       9.51498497E-18
  -11.0699997       9.70297582E-18
  -11.0600004       9.88784325E-18
  -11.0500002       1.00688692E-17
  -11.0400000       1.02457304E-17
  -11.0299997       1.04178683E-17
  -11.0200005       1.05847222E-17
  -11.0100002       1.07458107E-17
  -11.0000000       1.09002552E-17
  -10.9899998       1.10477324E-17
  -10.9799995       1.11872844E-17
  -10.9700003       1.13185100E-17
  -10.9600000       1.14405274E-17
  -10.9499998       1.15527775E-17
  -10.9399996       1.16542990E-17
  -10.9300003       1.17446123E-17
  -10.9200001       1.18223540E-17
  -10.9099998       1.18869659E-17
  -10.8999996       1.19375670E-17
  -10.8900003       1.19736751E-17
  -10.8800001       1.19938517E-17
  -10.8699999       1.19972944E-17
  -10.8599997       1.19830421E-17
  -10.8500004       1.19498167E-17
  -10.8400002       1.18971344E-17
  -10.8299999       1.18237949E-17
  -10.8199997       1.17285989E-17
  -10.8100004       1.16103443E-17
  -10.8000002       1.14679104E-17
  -10.7900000       1.13004163E-17
  -10.7799997       1.11063407E-17
  -10.7700005       1.08845620E-17
  -10.7600002       1.06339618E-17
  -10.7500000       1.03531770E-17
  -10.7399998       1.00410867E-17
  -10.7299995       9.69608954E-18
  -10.7200003       9.31690664E-18
  -10.7100000       8.90225424E-18
  -10.6999998       8.45085185E-18
  -10.6899996       7.96117995E-18
  -10.6800003       7.43195559E-18
  -10.6700001       6.86149834E-18
  -10.6599998       6.24864725E-18
  -10.6499996       5.59180091E-18
  -10.6400003       4.88943813E-18
  -10.6300001       4.14007743E-18
  -10.6199999       3.34219824E-18
  -10.6099997       2.49429882E-18
  -10.6000004       1.59487805E-18
  -10.5900002       6.42349741E-19
  -10.5799999      -3.64834859E-19
  -10.5699997      -1.42820446E-18
  -10.5600004      -2.54924285E-18
  -10.5500002      -3.72954893E-18
  -10.5400000      -4.97078307E-18
  -10.5299997      -6.27430805E-18
  -10.5200005      -7.64180386E-18
  -10.5100002      -9.07471230E-18
  -10.5000000      -1.05743941E-17
  -10.4899998      -1.21426110E-17
  -10.4799995      -1.37808836E-17
  -10.4700003      -1.54904939E-17
  -10.4600000      -1.72727207E-17
  -10.4499998      -1.91290893E-17
  -10.4399996      -2.10611980E-17
  -10.4300003      -2.30703270E-17
  -10.4200001      -2.51580796E-17
  -10.4099998      -2.73254185E-17
  -10.3999996      -2.95732984E-17
  -10.3900003      -3.19033272E-17
  -10.3800001      -3.43164579E-17
  -10.3699999      -3.68144606E-17
  -10.3599997      -3.93973321E-17
  -10.3500004      -4.20663495E-17
  -10.3400002      -4.48227998E-17
  -10.3299999      -4.76679603E-17
  -10.3199997      -5.06024729E-17
  -10.3100004      -5.36253713E-17
  -10.3000002      -5.67382704E-17
  -10.2900000      -5.99421129E-17
  -10.2799997      -6.32372365E-17
  -10.2700005      -6.66242698E-17
  -10.2600002      -7.01028952E-17
  -10.2500000      -7.36737611E-17
  -10.2399998      -7.73362124E-17
  -10.2299995      -8.10921815E-17
  -10.2200003      -8.49384655E-17
  -10.2100000      -8.88763415E-17
  -10.1999998      -9.29045324E-17
  -10.1899996      -9.70236669E-17
  -10.1800003      -1.01233123E-16
  -10.1700001      -1.05530333E-16
  -10.1599998      -1.09917209E-16
  -10.1499996      -1.14387339E-16
  -10.1400003      -1.18943953E-16
  -10.1300001      -1.23585760E-16
  -10.1199999      -1.28307611E-16
  -10.1099997      -1.33110195E-16
  -10.1000004      -1.37992176E-16
  -10.0900002      -1.42949754E-16
  -10.0799999      -1.47982916E-16
  -10.0699997      -1.53087798E-16
  -10.0600004      -1.58260589E-16
  -10.0500002      -1.63499977E-16
  -10.0400000      -1.68800868E-16
  -10.0299997      -1.74163249E-16
  -10.0200005      -1.79576874E-16
  -10.0100002      -1.85044287E-16
  -10.0000000      -1.90555255E-16
  -9.98999977      -1.96109793E-16
  -9.97999954      -2.01702765E-16
  -9.97000027      -2.07330319E-16
  -9.96000004      -2.12987308E-16
  -9.94999981      -2.18664838E-16
  -9.93999958      -2.24361558E-16
  -9.93000031      -2.30069819E-16
  -9.92000008      -2.35784485E-16
  -9.90999985      -2.41496558E-16
  -9.89999962      -2.47199684E-16
  -9.89000034      -2.52892592E-16
  -9.88000011      -2.58562392E-16
  -9.86999989      -2.64198920E-16
  -9.85999966      -2.69799555E-16
  -9.85000038      -2.75354106E-16
  -9.84000015      -2.80854844E-16
  -9.82999992      -2.86294066E-16
  -9.81999969      -2.91659014E-16
  -9.81000042      -2.96947067E-16
  -9.80000019      -3.02142926E-16
  -9.78999996      -3.07241429E-16
  -9.77999973      -3.12224603E-16
  -9.77000046      -3.17084825E-16
  -9.76000023      -3.21819475E-16
  -9.75000000      -3.26403008E-16
  -9.73999977      -3.30830237E-16
  -9.72999954      -3.35093487E-16
  -9.72000027      -3.39177403E-16
  -9.71000004      -3.43069149E-16
  -9.69999981      -3.46758507E-16
  -9.68999958      -3.50232665E-16
  -9.68000031      -3.53471084E-16
  -9.67000008      -3.56458463E-16
  -9.65999985      -3.59194724E-16
  -9.64999962      -3.61654296E-16
  -9.64000034      -3.63837153E-16
  -9.63000011      -3.65707454E-16
  -9.61999989      -3.67262607E-16
  -9.60999966      -3.68479608E-16
  -9.60000038      -3.69355811E-16
  -9.59000015      -3.69863104E-16
  -9.57999992      -3.69986082E-16
  -9.56999969      -3.69709394E-16
  -9.56000042      -3.69025309E-16
  -9.55000019      -3.67908284E-16
  -9.53999996      -3.66345429E-16
  -9.52999973      -3.64318823E-16
  -9.52000046      -3.61802871E-16
  -9.51000023      -3.58795057E-16
  -9.50000000      -3.55264518E-16
  -9.48999977      -3.51195980E-16
  -9.47999954      -3.46571471E-16
  -9.47000027      -3.41375639E-16
  -9.46000004      -3.35587969E-16
  -9.44999981      -3.29193082E-16
  -9.43999958      -3.22170490E-16
  -9.43000031      -3.14499707E-16
  -9.42000008      -3.06165326E-16
  -9.40999985      -2.97144346E-16
  -9.39999962      -2.87423928E-16
  -9.39000034      -2.76975856E-16
  -9.38000011      -2.65784830E-16
  -9.36999989      -2.53837987E-16
  -9.35999966      -2.41109702E-16
  -9.35000038      -2.27582056E-16
  -9.34000015      -2.13242239E-16
  -9.32999992      -1.98064652E-16
  -9.31999969      -1.82033879E-16
  -9.31000042      -1.65132011E-16
  -9.30000019      -1.47341103E-16
  -9.28999996      -1.28640694E-16
  -9.27999973      -1.09016648E-16
  -9.27000046      -8.84484774E-17
  -9.26000023      -6.69246687E-17
  -9.25000000      -4.44240789E-17
  -9.23999977      -2.09351770E-17
  -9.22999954       3.56189431E-18
  -9.22000027       2.90818638E-17
  -9.21000004       5.56401848E-17
  -9.19999981       8.32497531E-17
  -9.18999958       1.11924247E-16
  -9.18000031       1.41677695E-16
  -9.17000008       1.72524187E-16
  -9.15999985       2.04476175E-16
  -9.14999962       2.37540755E-16
  -9.14000034       2.71733913E-16
  -9.13000011       3.07063366E-16
  -9.11999989       3.43540576E-16
  -9.10999966       3.81166917E-16
  -9.10000038       4.19956368E-16
  -9.09000015       4.59916709E-16
  -9.07999992       5.01053023E-16
  -9.06999969       5.43365336E-16
  -9.06000042       5.86863919E-16
  -9.05000019       6.31551207E-16
  -9.03999996       6.77432440E-16
  -9.02999973       7.24497349E-16
  -9.02000046       7.72751122E-16
  -9.01000023       8.22193547E-16
  -9.00000000       8.72809483E-16
  -8.98999977       9.24614283E-16
  -8.97999954       9.77587194E-16
  -8.97000027       1.03172859E-15
  -8.96000004       1.08702787E-15
  -8.94999981       1.14349554E-15
  -8.93999958       1.20111104E-15
  -8.93000031       1.25985383E-15
  -8.92000008       1.31969311E-15
  -8.90999985       1.38064941E-15
  -8.89999962       1.44266133E-15
  -8.89000034       1.50573902E-15
  -8.88000011       1.56988271E-15
  -8.86999989       1.63503045E-15
  -8.85999966       1.70118277E-15
  -8.85000038       1.76831881E-15
  -8.84000015       1.83633609E-15
  -8.82999992       1.90529643E-15
  -8.81999969       1.97511757E-15
  -8.81000042       2.04586091E-15
  -8.80000019       2.11736256E-15
  -8.78999996       2.18963311E-15
  -8.77999973       2.26262088E-15
  -8.77000046       2.33630555E-15
  -8.76000023       2.41066657E-15
  -8.75000000       2.48560145E-15
  -8.73999977       2.56108988E-15
  -8.72999954       2.63711109E-15
  -8.72000027       2.71354226E-15
  -8.71000004       2.79032177E-15
  -8.69999981       2.86749092E-15
  -8.68999958       2.94494700E-15
  -8.68000031       3.02260785E-15
  -8.67000008       3.10039173E-15
  -8.65999985       3.17827811E-15
  -8.64999962       3.25616448E-15
  -8.64000034       3.33396890E-15
  -8.63000011       3.41169138E-15
  -8.61999989       3.48918833E-15
  -8.60999966       3.56637801E-15
  -8.60000038       3.64321915E-15
  -8.59000015       3.71960924E-15
  -8.57999992       3.79548687E-15
  -8.56999969       3.87070891E-15
  -8.56000042       3.94515167E-15
  -8.55000019       4.01885709E-15
  -8.53999996       4.09157825E-15
  -8.52999973       4.16327493E-15
  -8.52000046       4.23394628E-15
  -8.51000023       4.30330642E-15
  -8.50000000       4.37139559E-15
  -8.48999977       4.43800880E-15
  -8.47999954       4.50306432E-15
  -8.47000027       4.56648040E-15
  -8.46000004       4.62817489E-15
  -8.44999981       4.68798347E-15
  -8.43999958       4.74574222E-15
  -8.43000031       4.80132833E-15
  -8.42000008       4.85461941E-15
  -8.40999985       4.90553245E-15
  -8.39999962       4.95394504E-15
  -8.39000034       4.99973394E-15
  -8.38000011       5.04269461E-15
  -8.36999989       5.08274444E-15
  -8.35999966       5.11967889E-15
  -8.35000038       5.15341579E-15
  -8.34000015       5.18383274E-15
  -8.32999992       5.21080608E-15
  -8.31999969       5.23413125E-15
  -8.31000042       5.25372567E-15
  -8.30000019       5.26930260E-15
  -8.28999996       5.28090399E-15
  -8.27999973       5.28815967E-15
  -8.27000046       5.29119290E-15
  -8.26000023       5.28959455E-15
  -8.25000000       5.28324053E-15
  -8.23999977       5.27196737E-15
  -8.22999954       5.25577549E-15
  -8.22000027       5.23445906E-15
  -8.21000004       5.20785460E-15
  -8.19999981       5.17575713E-15
  -8.18999958       5.13804384E-15
  -8.18000031       5.09446823E-15
  -8.17000008       5.04503115E-15
  -8.15999985       4.98956743E-15
  -8.14999962       4.92775054E-15
  -8.14000034       4.85949748E-15
  -8.13000011       4.78468541E-15
  -8.11999989       4.70306870E-15
  -8.10999966       4.61456519E-15
  -8.10000038       4.51901056E-15
  -8.09000015       4.41620066E-15
  -8.07999992       4.30605292E-15
  -8.06999969       4.18836235E-15
  -8.06000042       4.06312896E-15
  -8.05000019       3.93006643E-15
  -8.03999996       3.78901004E-15
  -8.02999973       3.63983695E-15
  -8.02000046       3.48234239E-15
  -8.01000023       3.31644443E-15
  -8.00000000       3.14206088E-15
  -7.98999977       2.95890483E-15
  -7.98000002       2.76701714E-15
  -7.96999979       2.56625487E-15
  -7.96000004       2.35635100E-15
  -7.94999981       2.13728520E-15
  -7.94000006       1.90891411E-15
  -7.92999983       1.67111458E-15
  -7.92000008       1.42382511E-15
  -7.90999985       1.16686147E-15
  -7.90000010       9.00141490E-16
  -7.88999987       6.23624249E-16
  -7.88000011       3.37176447E-16
  -7.86999989       4.07161492E-17
  -7.86000013      -2.65838617E-16
  -7.84999990      -5.82528857E-16
  -7.84000015      -9.09472510E-16
  -7.82999992      -1.24670534E-15
  -7.82000017      -1.59428891E-15
  -7.80999994      -1.95225128E-15
  -7.80000019      -2.32063078E-15
  -7.78999996      -2.69947134E-15
  -7.78000021      -3.08881131E-15
  -7.76999998      -3.48867587E-15
  -7.76000023      -3.89907562E-15
  -7.75000000      -4.31997010E-15
  -7.73999977      -4.75137880E-15
  -7.73000002      -5.19334323E-15
  -7.71999979      -5.64567873E-15
  -7.71000004      -6.10846746E-15
  -7.69999981      -6.58168910E-15
  -7.69000006      -7.06536397E-15
  -7.67999983      -7.55924559E-15
  -7.67000008      -8.06333522E-15
  -7.65999985      -8.57754860E-15
  -7.65000010      -9.10180609E-15
  -7.63999987      -9.63598487E-15
  -7.63000011      -1.01800003E-14
  -7.61999989      -1.07335676E-14
  -7.61000013      -1.12965633E-14
  -7.59999990      -1.18691525E-14
  -7.59000015      -1.24510040E-14
  -7.57999992      -1.30419569E-14
  -7.57000017      -1.36416825E-14
  -7.55999994      -1.42500164E-14
  -7.55000019      -1.48667953E-14
  -7.53999996      -1.54917718E-14
  -7.53000021      -1.61247019E-14
  -7.51999998      -1.67651740E-14
  -7.51000023      -1.74133525E-14
  -7.50000000      -1.80683359E-14
  -7.48999977      -1.87306174E-14
  -7.48000002      -1.93991280E-14
  -7.46999979      -2.00740354E-14
  -7.46000004      -2.07550075E-14
  -7.44999981      -2.14412279E-14
  -7.44000006      -2.21330234E-14