  -16.0000000       0.00000000    
  -15.9899998       0.00000000    
  -15.9799995       0.00000000    
  -15.9700003       0.00000000    
  -15.9600000       0.00000000    
  -15.9499998       0.00000000    
  -15.9399996       0.00000000    
  -15.9300003       0.00000000    
  -15.9200001       0.00000000    
  -15.9099998       0.00000000    
  -15.8999996       0.00000000    
  -15.8900003       0.00000000    
  -15.8800001       1.40129846E-45
  -15.8699999       4.20389539E-45
  -15.8599997       1.68155816E-44
  -15.8500004       5.32493416E-44
  -15.8400002       1.58346726E-43
  -15.8299999       3.01279170E-43
  -15.8199997      -3.47522019E-43
  -15.8100004      -6.39272359E-42
  -15.8000002      -3.60680212E-41
  -15.7900000      -1.48823502E-40
  -15.7799997      -5.13072821E-40
  -15.7700005      -1.55468740E-39
  -15.7600002      -4.25056564E-39
  -15.7500000      -1.06550209E-38
  -15.7399998      -2.47557338E-38
  -15.7299995      -5.37294153E-38
  -15.7200003      -1.09581080E-37
  -15.7100000      -2.10990752E-37
  -15.6999998      -3.84974445E-37
  -15.6899996      -6.67763380E-37
  -15.6800003      -1.10426418E-36
  -15.6700001      -1.74577431E-36
  -15.6599998      -2.64650134E-36
  -15.6499996      -3.86097555E-36
  -15.6400003      -5.44645010E-36
  -15.6300001      -7.47628900E-36
  -15.6199999      -1.00709905E-35
  -15.6099997      -1.34514091E-35
  -15.6000004      -1.80120202E-35
  -15.5900002      -2.44003756E-35
  -15.5799999      -3.35712032E-35
  -15.5699997      -4.67641040E-35
  -15.5600004      -6.53366335E-35
  -15.5500002      -9.03785949E-35
  -15.5400000      -1.22047388E-34
  -15.5299997      -1.58607099E-34
  -15.5200005      -1.95229936E-34
  -15.5100002      -2.22722912E-34
  -15.5000000      -2.26460364E-34
  -15.4899998      -1.85909861E-34
  -15.4799995      -7.51997773E-35
  -15.4700003       1.34851243E-34
  -15.4600000       4.72961805E-34
  -15.4499998       9.61853763E-34
  -15.4399996       1.61133147E-33
  -15.4300003       2.41077839E-33
  -15.4200001       3.32234376E-33
  -15.4099998       4.27636102E-33
  -15.3999996       5.17069769E-33
  -15.3900003       5.87547966E-33
  -15.3800001       6.24411285E-33
  -15.3699999       6.13059059E-33
  -15.3599997       5.41203881E-33
  -15.3500004       4.01413762E-33
  -15.3400002       1.93602597E-33
  -15.3299999      -7.29321557E-34
  -15.3199997      -3.78357469E-33
  -15.3100004      -6.92419658E-33
  -15.3000002      -9.76077097E-33
  -15.2900000      -1.18474329E-32
  -15.2799997      -1.27300425E-32
  -15.2700005      -1.20044628E-32
  -15.2600002      -9.38069839E-33
  -15.2500000      -4.74544388E-33
  -15.2399998       1.78422465E-33
  -15.2299995       9.82332197E-33
  -15.2200003       1.87037094E-32
  -15.2100000       2.74857616E-32
  -15.1999998       3.49969265E-32
  -15.1899996       3.98991053E-32
  -15.1800003       4.07768852E-32
  -15.1700001       3.62459657E-32
  -15.1599998       2.50712139E-32
  -15.1499996       6.28675244E-33
  -15.1400003      -2.06883876E-32
  -15.1300001      -5.59521558E-32
  -15.1199999      -9.90426754E-32
  -15.1099997      -1.48898059E-31
  -15.1000004      -2.03857780E-31
  -15.0900002      -2.61717117E-31
  -15.0799999      -3.19843596E-31
  -15.0699997      -3.75356082E-31
  -15.0600004      -4.25372144E-31
  -15.0500002      -4.67314864E-31
  -15.0400000      -4.99261227E-31
  -15.0299997      -5.20316682E-31
  -15.0200005      -5.30966896E-31
  -15.0100002      -5.33385687E-31
  -15.0000000      -5.31630862E-31
  -14.9899998      -5.31721516E-31
  -14.9799995      -5.41518509E-31
  -14.9700003      -5.70420201E-31
  -14.9600000      -6.28856329E-31
  -14.9499998      -7.27603920E-31
  -14.9399996      -8.76954709E-31
  -14.9300003      -1.08578899E-30
  -14.9200001      -1.36065371E-30
  -14.9099998      -1.70489394E-30
  -14.8999996      -2.11794159E-30
  -14.8900003      -2.59482027E-30
  -14.8800001      -3.12597877E-30
  -14.8699999      -3.69742852E-30
  -14.8599997      -4.29126908E-30
  -14.8500004      -4.88661766E-30
  -14.8400002      -5.46084195E-30
  -14.8299999      -5.99113585E-30
  -14.8199997      -6.45633407E-30
  -14.8100004      -6.83884332E-30
  -14.8000002      -7.12660509E-30
  -14.7900000      -7.31491139E-30
  -14.7799997      -7.40799775E-30
  -14.7700005      -7.42014164E-30
  -14.7600002      -7.37617477E-30
  -14.7500000      -7.31126792E-30
  -14.7399998      -7.26977993E-30
  -14.7299995      -7.30322114E-30
  -14.7200003      -7.46701095E-30
  -14.7100000      -7.81634079E-30
  -14.6999998      -8.40097262E-30
  -14.6899996      -9.25911058E-30
  -14.6800003      -1.04104270E-29
  -14.6700001      -1.18486227E-29
  -14.6599998      -1.35332359E-29
  -14.6499996      -1.53814184E-29
  -14.6400003      -1.72592046E-29
  -14.6300001      -1.89726007E-29
  -14.6199999      -2.02585652E-29
  -14.6099997      -2.07752711E-29
  -14.6000004      -2.00920144E-29
  -14.5900002      -1.76777574E-29
  -14.5799999      -1.28887415E-29
  -14.5699997      -4.95390371E-30
  -14.5600004       7.04184160E-30
  -14.5500002       2.41763340E-29
  -14.5400000       4.77129704E-29
  -14.5299997       7.91259290E-29
  -14.5200005       1.20128821E-28
  -14.5100002       1.72706492E-28
  -14.5000000       2.39149992E-28
  -14.4899998       3.22094955E-28
  -14.4799995       4.24559604E-28
  -14.4700003       5.49985936E-28
  -14.4600000       7.02280532E-28
  -14.4499998       8.85849004E-28
  -14.4399996       1.10563054E-27
  -14.4300003       1.36712368E-27
  -14.4200001       1.67640685E-27
  -14.4099998       2.04013855E-27
  -14.3999996       2.46554220E-27
  -14.3900003       2.96037369E-27
  -14.3800001       3.53287312E-27
  -14.3699999       4.19165633E-27
  -14.3599997       4.94558664E-27
  -14.3500004       5.80361309E-27
  -14.3400002       6.77454486E-27
  -14.3299999       7.86674358E-27
  -14.3199997       9.08780320E-27
  -14.3100004       1.04441062E-26
  -14.3000002       1.19403188E-26
  -14.2900000       1.35787537E-26
  -14.2799997       1.53586427E-26
  -14.2700005       1.72753281E-26
  -14.2600002       1.93192359E-26
  -14.2500000       2.14747429E-26
  -14.2399998       2.37188858E-26
  -14.2299995       2.60198929E-26
  -14.2200003       2.83354677E-26
  -14.2100000       3.06108322E-26
  -14.1999998       3.27766314E-26
  -14.1899996       3.47466327E-26
  -14.1800003       3.64148948E-26
  -14.1700001       3.76528703E-26
  -14.1599998       3.83061673E-26
  -14.1499996       3.81910891E-26
  -14.1400003       3.70904186E-26
  -14.1300001       3.47493136E-26
  -14.1199999       3.08706479E-26
  -14.1099997       2.51099218E-26
  -14.1000004       1.70699223E-26
  -14.0900002       6.29474025E-27
  -14.0799999      -7.73632654E-27
  -14.0699997      -2.56154938E-26
  -14.0600004      -4.80135475E-26
  -14.0500002      -7.56870685E-26
  -14.0400000      -1.09486868E-25
  -14.0299997      -1.50365332E-25
  -14.0200005      -1.99385740E-25
  -14.0100002      -2.57730891E-25
  -14.0000000      -3.26712241E-25
  -13.9899998      -4.07779187E-25
  -13.9799995      -5.02529443E-25
  -13.9700003      -6.12718224E-25
  -13.9600000      -7.40267566E-25
  -13.9499998      -8.87278107E-25
  -13.9399996      -1.05603656E-24
  -13.9300003      -1.24902832E-24
  -13.9200001      -1.46894332E-24
  -13.9099998      -1.71868770E-24
  -13.8999996      -2.00139475E-24
  -13.8900003      -2.32042923E-24
  -13.8800001      -2.67939644E-24
  -13.8699999      -3.08214977E-24
  -13.8599997      -3.53279839E-24
  -13.8500004      -4.03570511E-24
  -13.8400002      -4.59549658E-24
  -13.8299999      -5.21707007E-24
  -13.8199997      -5.90559181E-24
  -13.8100004      -6.66648365E-24
  -13.8000002      -7.50541987E-24
  -13.7900000      -8.42834216E-24
  -13.7799997      -9.44146202E-24
  -13.7700005      -1.05512071E-23
  -13.7600002      -1.17642353E-23
  -13.7500000      -1.30874509E-23
  -13.7399998      -1.45279054E-23
  -13.7299995      -1.60928950E-23
  -13.7200003      -1.77898452E-23
  -13.7100000      -1.96262945E-23
  -13.6999998      -2.16098789E-23
  -13.6899996      -2.37483278E-23
  -13.6800003      -2.60493420E-23
  -13.6700001      -2.85206791E-23
  -13.6599998      -3.11700874E-23
  -13.6499996      -3.40050452E-23
  -13.6400003      -3.70330815E-23
  -13.6300001      -4.02613023E-23
  -13.6199999      -4.36967000E-23
  -13.6099997      -4.73458822E-23
  -13.6000004      -5.12150398E-23
  -13.5900002      -5.53099285E-23
  -13.5799999      -5.96356630E-23
  -13.5699997      -6.41967305E-23
  -13.5600004      -6.89968229E-23
  -13.5500002      -7.40393733E-23
  -13.5400000      -7.93262686E-23
  -13.5299997      -8.48587458E-23
  -13.5200005      -9.06370383E-23
  -13.5100002      -9.66599030E-23
  -13.5000000      -1.02924954E-22
  -13.4899998      -1.09428425E-22
  -13.4799995      -1.16165511E-22
  -13.4700003      -1.23129070E-22
  -13.4600000      -1.30310759E-22
  -13.4499998      -1.37700758E-22
  -13.4399996      -1.45286810E-22
  -13.4300003      -1.53055007E-22
  -13.4200001      -1.60989547E-22
  -13.4099998      -1.69071736E-22
  -13.3999996      -1.77281683E-22
  -13.3900003      -1.85596201E-22
  -13.3800001      -1.93990098E-22
  -13.3699999      -2.02436223E-22
  -13.3599997      -2.10904235E-22
  -13.3500004      -2.19361417E-22
  -13.3400002      -2.27772063E-22
  -13.3299999      -2.36098572E-22
  -13.3199997      -2.44300226E-22
  -13.3100004      -2.52333203E-22
  -13.3000002      -2.60151357E-22
  -13.2900000      -2.67705615E-22
  -13.2799997      -2.74944354E-22
  -13.2700005      -2.81812746E-22
  -13.2600002      -2.88253713E-22
  -13.2500000      -2.94207858E-22
  -13.2399998      -2.99612098E-22
  -13.2299995      -3.04403021E-22
  -13.2200003      -3.08511888E-22
  -13.2100000      -3.11870365E-22
  -13.1999998      -3.14406711E-22
  -13.1899996      -3.16047643E-22
  -13.1800003      -3.16717430E-22
  -13.1700001      -3.16339281E-22
  -13.1599998      -3.14834665E-22
  -13.1499996      -3.12124568E-22
  -13.1400003      -3.08128161E-22
  -13.1300001      -3.02763200E-22
  -13.1199999      -2.95948426E-22
  -13.1099997      -2.87601268E-22
  -13.1000004      -2.77639507E-22
  -13.0900002      -2.65982011E-22
  -13.0799999      -2.52546536E-22
  -13.0699997      -2.37251646E-22
  -13.0600004      -2.20018204E-22
  -13.0500002      -2.00768344E-22
  -13.0400000      -1.79425214E-22
  -13.0299997      -1.55913587E-22
  -13.0200005      -1.30160674E-22
  -13.0100002      -1.02096606E-22
  -13.0000000      -7.16537633E-23
  -12.9899998      -3.87663951E-23
  -12.9799995      -3.37301185E-24
  -12.9700003       3.45861738E-23
  -12.9600000       7.51669900E-23
  -12.9499998       1.18422322E-22
  -12.9399996       1.64401591E-22
  -12.9300003       2.13151832E-22
  -12.9200001       2.64717259E-22
  -12.9099998       3.19139372E-22
  -12.8999996       3.76456667E-22
  -12.8900003       4.36706581E-22
  -12.8800001       4.99924506E-22
  -12.8699999       5.66145958E-22
  -12.8599997       6.35405674E-22
  -12.8500004       7.07739650E-22
  -12.8400002       7.83185802E-22
  -12.8299999       8.61782854E-22
  -12.8199997       9.43579021E-22
  -12.8100004       1.02862201E-21
  -12.8000002       1.11697161E-21
  -12.7900000       1.20869525E-21
  -12.7799997       1.30387202E-21
  -12.7700005       1.40259540E-21
  -12.7600002       1.50497374E-21
  -12.7500000       1.61113427E-21
  -12.7399998       1.72122775E-21
  -12.7299995       1.83542936E-21
  -12.7200003       1.95394662E-21
  -12.7100000       2.07701296E-21
  -12.6999998       2.20490627E-21
  -12.6899996       2.33793977E-21
  -12.6800003       2.47647536E-21
  -12.6700001       2.62093389E-21
  -12.6599998       2.77177722E-21
  -12.6499996       2.92954920E-21
  -12.6400003       3.09484739E-21
  -12.6300001       3.26836165E-21
  -12.6199999       3.45085252E-21
  -12.6099997       3.64317403E-21
  -12.6000004       3.84628201E-21
  -12.5900002       4.06124234E-21
  -12.5799999       4.28924046E-21
  -12.5699997       4.53158216E-21
  -12.5600004       4.78969927E-21
  -12.5500002       5.06519848E-21
  -12.5400000       5.35982583E-21
  -12.5299997       5.67549621E-21
  -12.5200005       6.01431391E-21
  -12.5100002       6.37856298E-21
  -12.5000000       6.77076331E-21
  -12.4899998       7.19363193E-21
  -12.4799995       7.65012820E-21
  -12.4700003       8.14346146E-21
  -12.4600000       8.67710685E-21
  -12.4499998       9.25483516E-21
  -12.4399996       9.88066757E-21
  -12.4300003       1.05590219E-20
  -12.4200001       1.12945713E-20
  -12.4099998       1.20923894E-20
  -12.3999996       1.29579135E-20
  -12.3900003       1.38969106E-20
  -12.3800001       1.49156804E-20
  -12.3699999       1.60208228E-20
  -12.3599997       1.72194430E-20
  -12.3500004       1.85191490E-20
  -12.3400002       1.99280169E-20
  -12.3299999       2.14545981E-20
  -12.3199997       2.31080465E-20
  -12.3100004       2.48980363E-20
  -12.3000002       2.68348457E-20
  -12.2900000       2.89293850E-20
  -12.2799997       3.11931101E-20
  -12.2700005       3.36382367E-20
  -12.2600002       3.62776117E-20
  -12.2500000       3.91247932E-20
  -12.2399998       4.21940565E-20
  -12.2299995       4.55004719E-20
  -12.2200003       4.90599658E-20
  -12.2100000       5.28890624E-20
  -12.1999998       5.70053005E-20
  -12.1899996       6.14270139E-20
  -12.1800003       6.61732793E-20
  -12.1700001       7.12644144E-20
  -12.1599998       7.67213896E-20
  -12.1499996       8.25662542E-20
  -12.1400003       8.88220338E-20
  -12.1300001       9.55126777E-20
  -12.1199999       1.02663318E-19
  -12.1099997       1.10300102E-19
  -12.1000004       1.18449873E-19
  -12.0900002       1.27140995E-19
  -12.0799999       1.36402665E-19
  -12.0699997       1.46265514E-19
  -12.0600004       1.56761441E-19
  -12.0500002       1.67922912E-19
  -12.0400000       1.79783893E-19
  -12.0299997       1.92379463E-19
  -12.0200005       2.05746017E-19
  -12.0100002       2.19920984E-19
  -12.0000000       2.34943282E-19
  -11.9899998       2.50852938E-19
  -11.9799995       2.67691001E-19
  -11.9700003       2.85500018E-19
  -11.9600000       3.04323470E-19
  -11.9499998       3.24206048E-19
  -11.9399996       3.45194541E-19
  -11.9300003       3.67335711E-19
  -11.9200001       3.90677869E-19
  -11.9099998       4.15271422E-19
  -11.8999996       4.41166595E-19
  -11.8900003       4.68415630E-19
  -11.8800001       4.97072165E-19
  -11.8699999       5.27188778E-19
  -11.8599997       5.58821922E-19
  -11.8500004       5.92027692E-19
  -11.8400002       6.26862232E-19
  -11.8299999       6.63383704E-19
  -11.8199997       7.01652853E-19
  -11.8100004       7.41728202E-19
  -11.8000002       7.83670240E-19
  -11.7900000       8.27541108E-19
  -11.7799997       8.73400880E-19
  -11.7700005       9.21312939E-19
  -11.7600002       9.71340409E-19
  -11.7500000       1.02354512E-18
  -11.7399998       1.07799325E-18
  -11.7299995       1.13474704E-18
  -11.7200003       1.19386947E-18
  -11.7100000       1.25542411E-18
  -11.6999998       1.31947478E-18
  -11.6899996       1.38608443E-18
  -11.6800003       1.45531820E-18
  -11.6700001       1.52723670E-18
  -11.6599998       1.60190164E-18
  -11.6499996       1.67937072E-18
  -11.6400003       1.75970226E-18
  -11.6300001       1.84295965E-18
  -11.6199999       1.92919612E-18
  -11.6099997       2.01847207E-18
  -11.6000004       2.11083547E-18
  -11.5900002       2.20634030E-18
  -11.5799999       2.30503349E-18
  -11.5699997       2.40696385E-18
  -11.5600004       2.51218123E-18
  -11.5500002       2.62071746E-18
  -11.5400000       2.73261431E-18
  -11.5299997       2.84790799E-18
  -11.5200005       2.96662350E-18
  -11.5100002       3.08878981E-18
  -11.5000000       3.21443896E-18
  -11.4899998       3.34358150E-18
  -11.4799995       3.47622611E-18
  -11.4700003       3.61237839E-18
  -11.4600000       3.75204742E-18
  -11.4499998       3.89523486E-18
  -11.4399996       4.04192335E-18
  -11.4300003       4.19210295E-18
  -11.4200001       4.34575093E-18
  -11.4099998       4.50283170E-18
  -11.3999996       4.66331797E-18
  -11.3900003       4.82715515E-18
  -11.3800001       4.99428534E-18
  -11.3699999       5.16465187E-18
  -11.3599997       5.33818279E-18
  -11.3500004       5.51478585E-18
  -11.3400002       5.69437462E-18
  -11.3299999       5.87685066E-18
  -11.3199997       6.06209362E-18
  -11.3100004       6.24999680E-18
  -11.3000002       6.44040095E-18
  -11.2900000       6.63317498E-18
  -11.2799997       6.82815096E-18
  -11.2700005       7.02514982E-18
  -11.2600002       7.22398501E-18
  -11.2500000       7.42445885E-18
  -11.2399998       7.62634799E-18
  -11.2299995       7.82941422E-18
  -11.2200003       8.03341764E-18
  -11.2100000       8.23808197E-18
  -11.1999998       8.44315328E-18
  -11.1899996       8.64830483E-18
  -11.1800003       8.85323386E-18
  -11.1700001       9.05760951E-18
  -11.1599998       9.26106947E-18
  -11.1499996       9.46324317E-18
  -11.1400003       9.66374596E-18
  -11.1300001       9.86215846E-18
  -11.1199999       1.00580514E-17
  -11.1099997       1.02509855E-17
  -11.1000004       1.04404644E-17
  -11.0900002       1.06259952E-17
  -11.0799999       1.08070709E-17
  -11.0699997       1.09831652E-17
  -11.0600004       1.11536844E-17
  -11.0500002       1.13180600E-17
  -11.0400000       1.14756578E-17
  -11.0299997       1.16258440E-17
  -11.0200005       1.17679826E-17
  -11.0100002       1.19013779E-17
  -11.0000000       1.20252953E-17
  -10.9899998       1.21390285E-17
  -10.9799995       1.22418107E-17
  -10.9700003       1.23328196E-17
  -10.9600000       1.24112553E-17
  -10.9499998       1.24762816E-17
  -10.9399996       1.25270134E-17
  -10.9300003       1.25625897E-17
  -10.9200001       1.25820739E-17
  -10.9099998       1.25845042E-17
  -10.8999996       1.25689019E-17
  -10.8900003       1.25342389E-17
  -10.8800001       1.24795316E-17
  -10.8699999       1.24036783E-17
  -10.8599997       1.23056144E-17
  -10.8500004       1.21842199E-17
  -10.8400002       1.20383027E-17
  -10.8299999       1.18667488E-17
  -10.8199997       1.16683785E-17
  -10.8100004       1.14419096E-17
  -10.8000002       1.11861107E-17
  -10.7900000       1.08997490E-17
  -10.7799997       1.05814929E-17
  -10.7700005       1.02300297E-17
  -10.7600002       9.84399688E-18
  -10.7500000       9.42204378E-18
  -10.7399998       8.96277160E-18
  -10.7299995       8.46477495E-18
  -10.7200003       7.92662945E-18
  -10.7100000       7.34685690E-18
  -10.6999998       6.72400024E-18
  -10.6899996       6.05656185E-18
  -10.6800003       5.34300773E-18
  -10.6700001       4.58185019E-18
  -10.6599998       3.77154117E-18
  -10.6499996       2.91053073E-18
  -10.6400003       1.99724806E-18
  -10.6300001       1.03013299E-18
  -10.6199999       7.60065165E-21
  -10.6099997      -1.07192867E-18
  -10.6000004      -2.21006571E-18
  -10.5900002      -3.40839110E-18
  -10.5799999      -4.66850894E-18
  -10.5699997      -5.99201695E-18
  -10.5600004      -7.38049751E-18
  -10.5500002      -8.83554378E-18
  -10.5400000      -1.03587324E-17
  -10.5299997      -1.19516448E-17
  -10.5200005      -1.36158313E-17
  -10.5100002      -1.53528345E-17
  -10.5000000      -1.71641830E-17
  -10.4899998      -1.90513641E-17
  -10.4799995      -2.10158999E-17
  -10.4700003      -2.30592229E-17
  -10.4600000      -2.51827643E-17
  -10.4499998      -2.73879170E-17
  -10.4399996      -2.96760144E-17
  -10.4300003      -3.20483948E-17
  -10.4200001      -3.45063289E-17
  -10.4099998      -3.70510839E-17
  -10.3999996      -3.96838311E-17
  -10.3900003      -4.24056854E-17
  -10.3800001      -4.52176694E-17
  -10.3699999      -4.81208549E-17
  -10.3599997      -5.11162083E-17
  -10.3500004      -5.42044540E-17
  -10.3400002      -5.73865417E-17
  -10.3299999      -6.06631497E-17
  -10.3199997      -6.40348239E-17
  -10.3100004      -6.75022658E-17
  -10.3000002      -7.10658525E-17
  -10.2900000      -7.47260208E-17
  -10.2799997      -7.84829296E-17
  -10.2700005      -8.23368633E-17
  -10.2600002      -8.62876169E-17
  -10.2500000      -9.03353624E-17
  -10.2399998      -9.44798350E-17
  -10.2299995      -9.87208099E-17
  -10.2200003      -1.03057619E-16
  -10.2100000      -1.07489857E-16
  -10.1999998      -1.12016587E-16
  -10.1899996      -1.16637072E-16
  -10.1800003      -1.21350308E-16
  -10.1700001      -1.26155234E-16
  -10.1599998      -1.31050079E-16
  -10.1499996      -1.36033571E-16
  -10.1400003      -1.41104214E-16
  -10.1300001      -1.46259813E-16
  -10.1199999      -1.51498367E-16
  -10.1099997      -1.56817655E-16
  -10.1000004      -1.62215068E-16
  -10.0900002      -1.67687920E-16
  -10.0799999      -1.73233749E-16
  -10.0699997      -1.78849141E-16
  -10.0600004      -1.84530866E-16
  -10.0500002      -1.90275417E-16
  -10.0400000      -1.96079101E-16
  -10.0299997      -2.01937591E-16
  -10.0200005      -2.07847036E-16
  -10.0100002      -2.13802935E-16
  -10.0000000      -2.19800418E-16
  -9.98999977      -2.25834627E-16
  -9.97999954      -2.31900045E-16
  -9.97000027      -2.37991191E-16
  -9.96000004      -2.44102163E-16
  -9.94999981      -2.50226953E-16
  -9.93999958      -2.56358915E-16
  -9.93000031      -2.62492096E-16
  -9.92000008      -2.68619162E-16
  -9.90999985      -2.74732489E-16
  -9.89999962      -2.80825171E-16
  -9.89000034      -2.86888868E-16
  -9.88000011      -2.92915163E-16
  -9.86999989      -2.98896513E-16
  -9.85999966      -3.04823308E-16
  -9.85000038      -3.10686576E-16
  -9.84000015      -3.16477661E-16
  -9.82999992      -3.22186187E-16
  -9.81999969      -3.27802386E-16
  -9.81000042      -3.33314665E-16
  -9.80000019      -3.38713441E-16
  -9.78999996      -3.43987094E-16
  -9.77999973      -3.49124402E-16
  -9.77000046      -3.54113400E-16
  -9.76000023      -3.58942070E-16
  -9.75000000      -3.63598925E-16
  -9.73999977      -3.68070385E-16
  -9.72999954      -3.72343216E-16
  -9.72000027      -3.76403919E-16
  -9.71000004      -3.80238860E-16
  -9.69999981      -3.83833827E-16
  -9.68999958      -3.87175478E-16
  -9.68000031      -3.90248222E-16
  -9.67000008      -3.93036761E-16
  -9.65999985      -3.95525740E-16
  -9.64999962      -3.97699836E-16
  -9.64000034      -3.99542715E-16
  -9.63000011      -4.01037357E-16
  -9.61999989      -4.02168729E-16
  -9.60999966      -4.02919544E-16
  -9.60000038      -4.03272413E-16
  -9.59000015      -4.03209785E-16
  -9.57999992      -4.02713503E-16
  -9.56999969      -4.01765250E-16
  -9.56000042      -4.00347158E-16
  -9.55000019      -3.98441148E-16
  -9.53999996      -3.96028190E-16
  -9.52999973      -3.93090044E-16
  -9.52000046      -3.89606939E-16
  -9.51000023      -3.85558677E-16
  -9.50000000      -3.80926519E-16
  -9.48999977      -3.75689711E-16
  -9.47999954      -3.69828746E-16
  -9.47000027      -3.63324433E-16
  -9.46000004      -3.56155649E-16
  -9.44999981      -3.48301774E-16
  -9.43999958      -3.39743353E-16
  -9.43000031      -3.30458893E-16
  -9.42000008      -3.20428091E-16
  -9.40999985      -3.09630009E-16
  -9.39999962      -2.98044689E-16
  -9.39000034      -2.85651644E-16
  -9.38000011      -2.72429275E-16
  -9.36999989      -2.58358072E-16
  -9.35999966      -2.43417311E-16
  -9.35000038      -2.27585153E-16
  -9.34000015      -2.10842396E-16
  -9.32999992      -1.93168736E-16
  -9.31999969      -1.74543778E-16
  -9.31000042      -1.54948094E-16
  -9.30000019      -1.34361382E-16
  -9.28999996      -1.12765060E-16
  -9.27999973      -9.01394132E-17
  -9.27000046      -6.64657555E-17
  -9.26000023      -4.17250018E-17
  -9.25000000      -1.58999135E-17
  -9.23999977       1.10277370E-17
  -9.22999954       3.90756217E-17
  -9.22000027       6.82600757E-17
  -9.21000004       9.85979239E-17
  -9.19999981       1.30105015E-16
  -9.18999958       1.62796291E-16
  -9.18000031       1.96686728E-16
  -9.17000008       2.31790487E-16
  -9.15999985       2.68120868E-16
  -9.14999962       3.05690564E-16
  -9.14000034       3.44511461E-16
  -9.13000011       3.84594860E-16
  -9.11999989       4.25950820E-16
  -9.10999966       4.68589056E-16
  -9.10000038       5.12517666E-16
  -9.09000015       5.57745150E-16
  -9.07999992       6.04277434E-16
  -9.06999969       6.52120078E-16
  -9.06000042       7.01278006E-16
  -9.05000019       7.51753917E-16
  -9.03999996       8.03551252E-16
  -9.02999973       8.56669694E-16
  -9.02000046       9.11109190E-16
  -9.01000023       9.66869369E-16
  -9.00000000       1.02394520E-15
  -8.98999977       1.08233542E-15
  -8.97999954       1.14203038E-15
  -8.97000027       1.20302597E-15
  -8.96000004       1.26531338E-15
  -8.94999981       1.32888214E-15
  -8.93999958       1.39371849E-15
  -8.93000031       1.45981004E-15
  -8.92000008       1.52714037E-15
  -8.90999985       1.59569477E-15
  -8.89999962       1.66545365E-15
  -8.89000034       1.73639531E-15
  -8.88000011       1.80849983E-15
  -8.86999989       1.88174044E-15
  -8.85999966       1.95609151E-15
  -8.85000038       2.03152403E-15
  -8.84000015       2.10800920E-15
  -8.82999992       2.18551250E-15
  -8.81999969       2.26399688E-15
  -8.81000042       2.34343057E-15
  -8.80000019       2.42376678E-15
  -8.78999996       2.50497183E-15
  -8.77999973       2.58700062E-15
  -8.77000046       2.66980550E-15
  -8.76000023       2.75334179E-15
  -8.75000000       2.83755296E-15
  -8.73999977       2.92238564E-15
  -8.72999954       3.00778583E-15
  -8.72000027       3.09369424E-15
  -8.71000004       3.18004989E-15
  -8.69999981       3.26679453E-15
  -8.68999958       3.35385851E-15
  -8.68000031       3.44116897E-15
  -8.67000008       3.52865667E-15
  -8.65999985       3.61624920E-15
  -8.64999962       3.70387137E-15
  -8.64000034       3.79143890E-15
  -8.63000011       3.87887430E-15
  -8.61999989       3.96608905E-15
  -8.60999966       4.05300014E-15
  -8.60000038       4.13951185E-15
  -8.59000015       4.22552465E-15
  -8.57999992       4.31095132E-15
  -8.56999969       4.39569146E-15
  -8.56000042       4.47964513E-15
  -8.55000019       4.56270729E-15
  -8.53999996       4.64476658E-15
  -8.52999973       4.72571201E-15
  -8.52000046       4.80543348E-15
  -8.51000023       4.88380647E-15
  -8.50000000       4.96071918E-15
  -8.48999977       5.03604667E-15
  -8.47999954       5.10966739E-15
  -8.47000027       5.18146317E-15
  -8.46000004       5.25128875E-15
  -8.44999981       5.31902259E-15
  -8.43999958       5.38451348E-15
  -8.43000031       5.44763523E-15
  -8.42000008       5.50824679E-15
  -8.40999985       5.56620417E-15
  -8.39999962       5.62136719E-15
  -8.39000034       5.67358169E-15
  -8.38000011       5.72269139E-15
  -8.36999989       5.76855526E-15
  -8.35999966       5.81100728E-15
  -8.35000038       5.84990303E-15
  -8.34000015       5.88508243E-15
  -8.32999992       5.91637098E-15
  -8.31999969       5.94360817E-15
  -8.31000042       5.96662798E-15
  -8.30000019       5.98526906E-15
  -8.28999996       5.99936115E-15
  -8.27999973       6.00872510E-15
  -8.27000046       6.01318938E-15
  -8.26000023       6.01259265E-15
  -8.25000000       6.00675829E-15
  -8.23999977       5.99549910E-15
  -8.22999954       5.97862790E-15
  -8.22000027       5.95599137E-15
  -8.21000004       5.92739172E-15
  -8.19999981       5.89265871E-15
  -8.18999958       5.85161404E-15
  -8.18000031       5.80406373E-15
  -8.17000008       5.74984006E-15
  -8.15999985       5.68875332E-15
  -8.14999962       5.62060909E-15
  -8.14000034       5.54521977E-15
  -8.13000011       5.46242484E-15
  -8.11999989       5.37204601E-15
  -8.10999966       5.27388632E-15
  -8.10000038       5.16777469E-15
  -8.09000015       5.05351376E-15
  -8.07999992       4.93094386E-15
  -8.06999969       4.79989304E-15
  -8.06000042       4.66016479E-15
  -8.05000019       4.51161046E-15
  -8.03999996       4.35403819E-15
  -8.02999973       4.18726714E-15
  -8.02000046       4.01114697E-15
  -8.01000023       3.82551419E-15
  -8.00000000       3.63019094E-15
  -7.98999977       3.42503511E-15
  -7.98000002       3.20988938E-15
  -7.96999979       2.98459471E-15
  -7.96000004       2.74898720E-15
  -7.94999981       2.50293874E-15
  -7.94000006       2.24630173E-15
  -7.92999983       1.97894531E-15
  -7.92000008       1.70073151E-15
  -7.90999985       1.41153530E-15
  -7.90000010       1.11122559E-15
  -7.88999987       7.99688782E-16
  -7.88000011       4.76811945E-16
  -7.86999989       1.42495545E-16
  -7.86000013      -2.03368878E-16
  -7.84999990      -5.60870013E-16
  -7.84000015      -9.30095539E-16
  -7.82999992      -1.31112675E-15
  -7.82000017      -1.70403907E-15
  -7.80999994      -2.10888842E-15
  -7.80000019      -2.52574383E-15
  -7.78999996      -2.95464891E-15
  -7.78000021      -3.39564179E-15
  -7.76999998      -3.84876398E-15
  -7.76000023      -4.31403155E-15
  -7.75000000      -4.79146125E-15
  -7.73999977      -5.28105815E-15
  -7.73000002      -5.78281844E-15
  -7.71999979      -6.29672731E-15
  -7.71000004      -6.82275595E-15
  -7.69999981      -7.36086962E-15
  -7.69000006      -7.91102515E-15
  -7.67999983      -8.47316619E-15
  -7.67000008      -9.04721651E-15
  -7.65999985      -9.63309395E-15
  -7.65000010      -1.02307096E-14
  -7.63999987      -1.08399609E-14
  -7.63000011      -1.14607234E-14
  -7.61999989      -1.20928709E-14
  -7.61000013      -1.27362517E-14
  -7.59999990      -1.33907269E-14
  -7.59000015      -1.40561052E-14
  -7.57999992      -1.47322103E-14
  -7.57000017      -1.54188389E-14
  -7.55999994      -1.61157759E-14
  -7.55000019      -1.68227841E-14
  -7.53999996      -1.75396434E-14
  -7.53000021      -1.82660724E-14
  -7.51999998      -1.90017950E-14
  -7.51000023      -1.97465454E-14
  -7.50000000      -2.04999947E-14
  -7.48999977      -2.12618467E-14
  -7.48000002      -2.20317471E-14
  -7.46999979      -2.28093047E-14
  -7.46000004      -2.35942213E-14
  -7.44999981      -2.43860735E-14
  -7.44000006      -2.51844427E-14