  -16.0000000       0.00000000    
  -15.9899998       0.00000000    
  -15.9799995       0.00000000    
  -15.9700003       0.00000000    
  -15.9600000       0.00000000    
  -15.9499998       0.00000000    
  -15.9399996       0.00000000    
  -15.9300003       0.00000000    
  -15.9200001       0.00000000    
  -15.9099998       0.00000000    
  -15.8999996       0.00000000    
  -15.8900003       0.00000000    
  -15.8800001       0.00000000    
  -15.8699999       2.80259693E-45
  -15.8599997       1.42932443E-43
  -15.8500004       7.00649232E-45
  -15.8400002      -5.84341460E-43
  -15.8299999       1.19110369E-42
  -15.8199997       4.34122264E-42
  -15.8100004       1.61849973E-41
  -15.8000002       4.19268501E-41
  -15.7900000       2.66930542E-40
  -15.7799997       7.91167508E-40
  -15.7700005       2.05850324E-39
  -15.7600002       6.13251929E-39
  -15.7500000       1.60834031E-38
  -15.7399998       3.48391048E-38
  -15.7299995       7.06264347E-38
  -15.7200003       1.28693614E-37
  -15.7100000       2.14934163E-37
  -15.6999998       3.28514358E-37
  -15.6899996       4.62623375E-37
  -15.6800003       6.17204577E-37
  -15.6700001       8.33008217E-37
  -15.6599998       1.26980142E-36
  -15.6499996       2.32814857E-36
  -15.6400003       4.79202139E-36
  -15.6300001       9.90561266E-36
  -15.6199999       1.92422513E-35
  -15.6099997       3.41295372E-35
  -15.6000004       5.44070730E-35
  -15.5900002       7.64172232E-35
  -15.5799999       9.04360552E-35
  -15.5699997       7.83252147E-35
  -15.5600004       1.28327507E-35
  -15.5500002      -1.39516497E-34
  -15.5400000      -4.10014817E-34
  -15.5299997      -8.13025892E-34
  -15.5200005      -1.32658973E-33
  -15.5100002      -1.87393618E-33
  -15.5000000      -2.31580909E-33
  -15.4899998      -2.46672714E-33
  -15.4799995      -2.14784307E-33
  -15.4700003      -1.28240262E-33
  -15.4600000      -2.55774054E-35
  -15.4499998       1.10045107E-33
  -15.4399996       1.11799872E-33
  -15.4300003      -1.38009199E-33
  -15.4200001      -8.02390093E-33
  -15.4099998      -2.02437686E-32
  -15.3999996      -3.86599932E-32
  -15.3900003      -6.24038624E-32
  -15.3800001      -8.85905146E-32
  -15.3699999      -1.12230229E-31
  -15.3599997      -1.26872010E-31
  -15.3500004      -1.26162553E-31
  -15.3400002      -1.06272389E-31
  -15.3299999      -6.88056693E-32
  -15.3199997      -2.34422491E-32
  -15.3100004       1.07301901E-32
  -15.3000002       6.30254227E-33
  -15.2900000      -6.81155953E-32
  -15.2799997      -2.40143598E-31
  -15.2700005      -5.23336480E-31
  -15.2600002      -9.06416923E-31
  -15.2500000      -1.34513192E-30
  -15.2399998      -1.76035263E-30
  -15.2299995      -2.04560336E-30
  -15.2200003      -2.08574602E-30
  -15.2100000      -1.78595509E-30
  -15.1999998      -1.10683316E-30
  -15.1899996      -9.84512019E-32
  -15.1800003       1.07632645E-30
  -15.1700001       2.13912512E-30
  -15.1599998       2.72179097E-30
  -15.1499996       2.42354266E-30
  -15.1400003       8.95620901E-31
  -15.1300001      -2.05849129E-30
  -15.1199999      -6.38625956E-30
  -15.1099997      -1.17161526E-29
  -15.1000004      -1.73378428E-29
  -15.0900002      -2.22510089E-29
  -15.0799999      -2.52898345E-29
  -15.0699997      -2.53164635E-29
  -15.0600004      -2.14609834E-29
  -15.0500002      -1.33700043E-29
  -15.0400000      -1.41793856E-30
  -15.0299997       1.31679818E-29
  -15.0200005       2.83106947E-29
  -15.0100002       4.12405006E-29
  -15.0000000       4.88099229E-29
  -14.9899998       4.79436065E-29
  -14.9799995       3.61734662E-29
  -14.9700003       1.21895973E-29
  -14.9600000      -2.36792741E-29
  -14.9499998      -6.91408850E-29
  -14.9399996      -1.19847936E-28
  -14.9300003      -1.69596055E-28
  -14.9200001      -2.10831671E-28
  -14.9099998      -2.35459356E-28
  -14.8999996      -2.35887659E-28
  -14.8900003      -2.06216325E-28
  -14.8800001      -1.43437400E-28
  -14.8699999      -4.84908144E-29
  -14.8599997       7.29891759E-29
  -14.8500004       2.10388756E-28
  -14.8400002       3.48423188E-28
  -14.8299999       4.68117351E-28
  -14.8199997       5.48469459E-28
  -14.8100004       5.68734624E-28
  -14.8000002       5.11168192E-28
  -14.7900000       3.63974182E-28
  -14.7799997       1.24137343E-28
  -14.7700005      -2.00250805E-28
  -14.7600002      -5.88577047E-28
  -14.7500000      -1.00757914E-27
  -14.7399998      -1.41279827E-27
  -14.7299995      -1.75177677E-27
  -14.7200003      -1.96891863E-27
  -14.7100000      -2.01180292E-27
  -14.6999998      -1.83836484E-27
  -14.6899996      -1.42425726E-27
  -14.6800003      -7.69427839E-28
  -14.6700001       9.70324372E-29
  -14.6599998       1.11481723E-27
  -14.6499996       2.19381736E-27
  -14.6400003       3.21959885E-27
  -14.6300001       4.06295914E-27
  -14.6199999       4.59317498E-27
  -14.6099997       4.69393308E-27
  -14.6000004       4.28053877E-27
  -14.5900002       3.31645290E-27
  -14.5799999       1.82714091E-27
  -14.5699997      -9.09325717E-29
  -14.5600004      -2.26806967E-27
  -14.5500002      -4.46723880E-27
  -14.5400000      -6.39892034E-27
  -14.5299997      -7.74464425E-27
  -14.5200005      -8.18828606E-27
  -14.5100002      -7.45288820E-27
  -14.5000000      -5.34014036E-27
  -14.4899998      -1.76863828E-27
  -14.4799995       3.19315179E-27
  -14.4700003       9.30373076E-27
  -14.4600000       1.61395965E-26
  -14.4499998       2.31043107E-26
  -14.4399996       2.94585807E-26
  -14.4300003       3.43738220E-26
  -14.4200001       3.70092337E-26
  -14.4099998       3.66125969E-26
  -14.3999996       3.26417269E-26
  -14.3900003       2.49035191E-26
  -14.3800001       1.37048358E-26
  -14.3699999       9.28559212E-30
  -14.3599997      -1.44082394E-26
  -14.3500004      -2.68166177E-26
  -14.3400002      -3.34012674E-26
  -14.3299999      -2.91643756E-26
  -14.3199997      -7.85641521E-27
  -14.3100004       3.80514176E-26
  -14.3000002       1.17351330E-25
  -14.2900000       2.40038935E-25
  -14.2799997       4.17206149E-25
  -14.2700005       6.60885726E-25
  -14.2600002       9.83863968E-25
  -14.2500000       1.39945226E-24
  -14.2399998       1.92123741E-24
  -14.2299995       2.56280555E-24
  -14.2200003       3.33746460E-24
  -14.2100000       4.25798560E-24
  -14.1999998       5.33633834E-24
  -14.1899996       6.58344342E-24
  -14.1800003       8.00906732E-24
  -14.1700001       9.62164180E-24
  -14.1599998       1.14283226E-23
  -14.1499996       1.34350822E-23
  -14.1400003       1.56469929E-23
  -14.1300001       1.80688070E-23
  -14.1199999       2.07056866E-23
  -14.1099997       2.35642771E-23
  -14.1000004       2.66546066E-23
  -14.0900002       2.99917911E-23
  -14.0799999       3.35991858E-23
  -14.0699997       3.75119422E-23
  -14.0600004       4.17813457E-23
  -14.0500002       4.64809846E-23
  -14.0400000       5.17134169E-23
  -14.0299997       5.76189559E-23
  -14.0200005       6.43860824E-23
  -14.0100002       7.22636663E-23
  -14.0000000       8.15754309E-23
  -13.9899998       9.27374909E-23
  -13.9799995       1.06278093E-22
  -13.9700003       1.22859419E-22
  -13.9600000       1.43305545E-22
  -13.9499998       1.68630365E-22
  -13.9399996       2.00072796E-22
  -13.9300003       2.39132215E-22
  -13.9200001       2.87611264E-22
  -13.9099998       3.47663951E-22
  -13.8999996       4.21842801E-22
  -13.8900003       5.13157225E-22
  -13.8800001       6.25134882E-22
  -13.8699999       7.61885245E-22
  -13.8599997       9.28175104E-22
  -13.8500004       1.12949675E-21
  -13.8400002       1.37216329E-21
  -13.8299999       1.66338307E-21
  -13.8199997       2.01135206E-21
  -13.8100004       2.42536989E-21
  -13.8000002       2.91591708E-21
  -13.7900000       3.49477387E-21
  -13.7799997       4.17514406E-21
  -13.7700005       4.97173838E-21
  -13.7600002       5.90092635E-21
  -13.7500000       6.98084699E-21
  -13.7399998       8.23152792E-21
  -13.7299995       9.67502675E-21
  -13.7200003       1.13355329E-20
  -13.7100000       1.32394966E-20
  -13.6999998       1.54158161E-20
  -13.6899996       1.78959104E-20
  -13.6800003       2.07138272E-20
  -13.6700001       2.39064406E-20
  -13.6599998       2.75134004E-20
  -13.6499996       3.15775359E-20
  -13.6400003       3.61445422E-20
  -13.6300001       4.12633879E-20
  -13.6199999       4.69864405E-20
  -13.6099997       5.33693409E-20
  -13.6000004       6.04707091E-20
  -13.5900002       6.83531264E-20
  -13.5799999       7.70821954E-20
  -13.5699997       8.67271730E-20
  -13.5600004       9.73604635E-20
  -13.5500002       1.09057754E-19
  -13.5400000       1.21898246E-19
  -13.5299997       1.35963664E-19
  -13.5200005       1.51339311E-19
  -13.5100002       1.68112091E-19
  -13.5000000       1.86373033E-19
  -13.4899998       2.06213542E-19
  -13.4799995       2.27728535E-19
  -13.4700003       2.51013514E-19
  -13.4600000       2.76165053E-19
  -13.4499998       3.03281300E-19
  -13.4399996       3.32459191E-19
  -13.4300003       3.63796463E-19
  -13.4200001       3.97389224E-19
  -13.4099998       4.33332135E-19
  -13.3999996       4.71717994E-19
  -13.3900003       5.12634845E-19
  -13.3800001       5.56168223E-19
  -13.3699999       6.02398572E-19
  -13.3599997       6.51400752E-19
  -13.3500004       7.03242280E-19
  -13.3400002       7.57983387E-19
  -13.3299999       8.15676650E-19
  -13.3199997       8.76360015E-19
  -13.3100004       9.40068019E-19
  -13.3000002       1.00681819E-18
  -13.2900000       1.07661579E-18
  -13.2799997       1.14944573E-18
  -13.2700005       1.22528827E-18
  -13.2600002       1.30409821E-18
  -13.2500000       1.38581239E-18
  -13.2399998       1.47035066E-18
  -13.2299995       1.55761098E-18
  -13.2200003       1.64746430E-18
  -13.2100000       1.73976411E-18
  -13.1999998       1.83433319E-18
  -13.1899996       1.93096711E-18
  -13.1800003       2.02944379E-18
  -13.1700001       2.12950142E-18
  -13.1599998       2.23085028E-18
  -13.1499996       2.33316942E-18
  -13.1400003       2.43610915E-18
  -13.1300001       2.53928670E-18
  -13.1199999       2.64227751E-18
  -13.1099997       2.74462001E-18
  -13.1000004       2.84583859E-18
  -13.0900002       2.94539371E-18
  -13.0799999       3.04273074E-18
  -13.0699997       3.13724501E-18
  -13.0600004       3.22829589E-18
  -13.0500002       3.31520961E-18
  -13.0400000       3.39727503E-18
  -13.0299997       3.47374209E-18
  -13.0200005       3.54383489E-18
  -13.0100002       3.60671551E-18
  -13.0000000       3.66154848E-18
  -12.9899998       3.70742475E-18
  -12.9799995       3.74344681E-18
  -12.9700003       3.76862991E-18
  -12.9600000       3.78202817E-18
  -12.9499998       3.78261670E-18
  -12.9399996       3.76936486E-18
  -12.9300003       3.74121549E-18
  -12.9200001       3.69710732E-18
  -12.9099998       3.63592119E-18
  -12.8999996       3.55656520E-18
  -12.8900003       3.45791667E-18
  -12.8800001       3.33884920E-18
  -12.8699999       3.19823035E-18
  -12.8599997       3.03492608E-18
  -12.8500004       2.84780232E-18
  -12.8400002       2.63574774E-18
  -12.8299999       2.39761733E-18
  -12.8199997       2.13233203E-18
  -12.8100004       1.83879293E-18
  -12.8000002       1.51593348E-18
  -12.7900000       1.16271650E-18
  -12.7799997       7.78121047E-19
  -12.7700005       3.61176162E-19
  -12.7600002      -8.90868738E-20
  -12.7500000      -5.73573241E-19
  -12.7399998      -1.09316850E-18
  -12.7299995      -1.64869990E-18
  -12.7200003      -2.24097021E-18
  -12.7100000      -2.87073011E-18
  -12.6999998      -3.53869603E-18
  -12.6899996      -4.24553262E-18
  -12.6800003      -4.99187618E-18
  -12.6700001      -5.77831980E-18
  -12.6599998      -6.60541935E-18
  -12.6499996      -7.47371332E-18
  -12.6400003      -8.38370133E-18
  -12.6300001      -9.33588134E-18
  -12.6199999      -1.03307306E-17
  -12.6099997      -1.13687488E-17
  -12.6000004      -1.24504016E-17
  -12.5900002      -1.35762631E-17
  -12.5799999      -1.47468701E-17
  -12.5699997      -1.59628636E-17
  -12.5600004      -1.72249477E-17
  -12.5500002      -1.85339494E-17
  -12.5400000      -1.98907721E-17
  -12.5299997      -2.12965259E-17
  -12.5200005      -2.27524812E-17
  -12.5100002      -2.42601320E-17
  -12.5000000      -2.58212353E-17
  -12.4899998      -2.74377447E-17
  -12.4799995      -2.91120095E-17
  -12.4700003      -3.08468621E-17
  -12.4600000      -3.26453049E-17
  -12.4499998      -3.45110770E-17
  -12.4399996      -3.64482347E-17
  -12.4300003      -3.84615824E-17
  -12.4200001      -4.05564735E-17
  -12.4099998      -4.27389863E-17
  -12.3999996      -4.50160888E-17
  -12.3900003      -4.73955565E-17
  -12.3800001      -4.98860518E-17
  -12.3699999      -5.24974146E-17
  -12.3599997      -5.52404018E-17
  -12.3500004      -5.81272853E-17
  -12.3400002      -6.11714621E-17
  -12.3299999      -6.43877323E-17
  -12.3199997      -6.77924672E-17
  -12.3100004      -7.14038915E-17
  -12.3000002      -7.52417977E-17
  -12.2900000      -7.93279575E-17
  -12.2799997      -8.36861604E-17
  -12.2700005      -8.83423402E-17
  -12.2600002      -9.33249453E-17
  -12.2500000      -9.86647270E-17
  -12.2399998      -1.04395143E-16
  -12.2299995      -1.10552212E-16
  -12.2200003      -1.17175454E-16
  -12.2100000      -1.24307313E-16
  -12.1999998      -1.31993118E-16
  -12.1899996      -1.40282487E-16
  -12.1800003      -1.49228028E-16
  -12.1700001      -1.58886784E-16
  -12.1599998      -1.69319133E-16
  -12.1499996      -1.80591249E-16
  -12.1400003      -1.92772284E-16
  -12.1300001      -2.05936990E-16
  -12.1199999      -2.20165330E-16
  -12.1099997      -2.35541572E-16
  -12.1000004      -2.52156362E-16
  -12.0900002      -2.70105254E-16
  -12.0799999      -2.89490821E-16
  -12.0699997      -3.10420793E-16
  -12.0600004      -3.33009256E-16
  -12.0500002      -3.57378685E-16
  -12.0400000      -3.83657882E-16
  -12.0299997      -4.11980520E-16
  -12.0200005      -4.42491573E-16
  -12.0100002      -4.75340490E-16
  -12.0000000      -5.10688922E-16
  -11.9899998      -5.48701167E-16
  -11.9799995      -5.89555154E-16
  -11.9700003      -6.33434637E-16
  -11.9600000      -6.80536763E-16
  -11.9499998      -7.31060214E-16
  -11.9399996      -7.85222677E-16
  -11.9300003      -8.43247345E-16
  -11.9200001      -9.05365353E-16
  -11.9099998      -9.71822394E-16
  -11.8999996      -1.04287184E-15
  -11.8900003      -1.11878420E-15
  -11.8800001      -1.19983392E-15
  -11.8699999      -1.28630921E-15
  -11.8599997      -1.37851203E-15
  -11.8500004      -1.47675282E-15
  -11.8400002      -1.58135810E-15
  -11.8299999      -1.69266691E-15
  -11.8199997      -1.81102420E-15
  -11.8100004      -1.93679610E-15
  -11.8000002      -2.07035478E-15
  -11.7900000      -2.21208922E-15
  -11.7799997      -2.36240327E-15
  -11.7700005      -2.52170687E-15
  -11.7600002      -2.69042715E-15
  -11.7500000      -2.86900626E-15
  -11.7399998      -3.05789800E-15
  -11.7299995      -3.25756526E-15
  -11.7200003      -3.46848388E-15
  -11.7100000      -3.69115952E-15
  -11.6999998      -3.92608326E-15
  -11.6899996      -4.17378407E-15
  -11.6800003      -4.43478330E-15
  -11.6700001      -4.70962050E-15
  -11.6599998      -4.99885388E-15
  -11.6499996      -5.30303611E-15
  -11.6400003      -5.62276691E-15
  -11.6300001      -5.95859345E-15
  -11.6199999      -6.31115652E-15
  -11.6099997      -6.68102150E-15
  -11.6000004      -7.06882198E-15
  -11.5900002      -7.47515978E-15
  -11.5799999      -7.90068203E-15
  -11.5699997      -8.34600791E-15
  -11.5600004      -8.81177608E-15
  -11.5500002      -9.29863029E-15
  -11.5400000      -9.80722105E-15
  -11.5299997      -1.03381964E-14
  -11.5200005      -1.08921483E-14
  -11.5100002      -1.14698087E-14
  -11.5000000      -1.20717738E-14
  -11.4899998      -1.26986468E-14
  -11.4799995      -1.33511239E-14
  -11.4700003      -1.40297938E-14
  -11.4600000      -1.47352714E-14
  -11.4499998      -1.54681565E-14
  -11.4399996      -1.62290767E-14
  -11.4300003      -1.70185470E-14
  -11.4200001      -1.78371485E-14
  -11.4099998      -1.86853808E-14
  -11.3999996      -1.95637743E-14
  -11.3900003      -2.04728897E-14
  -11.3800001      -2.14130674E-14
  -11.3699999      -2.23847650E-14
  -11.3599997      -2.33883652E-14
  -11.3500004      -2.44242154E-14
  -11.3400002      -2.54926559E-14
  -11.3299999      -2.65939004E-14
  -11.3199997      -2.77281927E-14
  -11.3100004      -2.88956650E-14
  -11.3000002      -3.00964867E-14
  -11.2900000      -3.13306713E-14
  -11.2799997      -3.25980935E-14
  -11.2700005      -3.38987431E-14
  -11.2600002      -3.52324032E-14
  -11.2500000      -3.65989418E-14
  -11.2399998      -3.79979827E-14
  -11.2299995      -3.94290550E-14
  -11.2200003      -4.08917590E-14
  -11.2100000      -4.23853694E-14
  -11.1999998      -4.39091953E-14
  -11.1899996      -4.54625453E-14
  -11.1800003      -4.70443217E-14
  -11.1700001      -4.86536707E-14
  -11.1599998      -5.02891796E-14
  -11.1499996      -5.19496691E-14
  -11.1400003      -5.36337739E-14
  -11.1300001      -5.53397694E-14
  -11.1199999      -5.70660394E-14
  -11.1099997      -5.88106224E-14
  -11.1000004      -6.05715768E-14
  -11.0900002      -6.23464361E-14
  -11.0799999      -6.41330996E-14
  -11.0699997      -6.59289518E-14
  -11.0600004      -6.77310381E-14
  -11.0500002      -6.95366345E-14
  -11.0400000      -7.13424139E-14
  -11.0299997      -7.31453201E-14
  -11.0200005      -7.49414907E-14
  -11.0100002      -7.67272462E-14
  -11.0000000      -7.84986225E-14
  -10.9899998      -8.02514048E-14
  -10.9799995      -8.19809918E-14
  -10.9700003      -8.36827759E-14
  -10.9600000      -8.53518848E-14
  -10.9499998      -8.69830263E-14
  -10.9399996      -8.85704812E-14
  -10.9300003      -9.01088557E-14
  -10.9200001      -9.15920511E-14
  -10.9099998      -9.30138670E-14
  -10.8999996      -9.43673443E-14
  -10.8900003      -9.56458152E-14
  -10.8800001      -9.68423475E-14
  -10.8699999      -9.79493450E-14
  -10.8599997      -9.89592387E-14
  -10.8500004      -9.98634362E-14
  -10.8400002      -1.00654260E-13
  -10.8299999      -1.01322488E-13
  -10.8199997      -1.01859588E-13
  -10.8100004      -1.02255735E-13
  -10.8000002      -1.02501903E-13
  -10.7900000      -1.02587636E-13
  -10.7799997      -1.02503374E-13
  -10.7700005      -1.02237520E-13
  -10.7600002      -1.01780021E-13
  -10.7500000      -1.01119600E-13
  -10.7399998      -1.00244303E-13
  -10.7299995      -9.91425841E-14
  -10.7200003      -9.78022730E-14
  -10.7100000      -9.62110437E-14
  -10.6999998      -9.43555062E-14
  -10.6899996      -9.22233617E-14
  -10.6800003      -8.98008203E-14
  -10.6700001      -8.70743974E-14
  -10.6599998      -8.40298561E-14
  -10.6499996      -8.06533930E-14
  -10.6400003      -7.69300598E-14
  -10.6300001      -7.28457686E-14
  -10.6199999      -6.83845884E-14
  -10.6099997      -6.35318621E-14
  -10.6000004      -5.82719636E-14
  -10.5900002      -5.25894398E-14
  -10.5799999      -4.64688475E-14
  -10.5699997      -3.98928361E-14
  -10.5600004      -3.28462741E-14
  -10.5500002      -2.53126902E-14
  -10.5400000      -1.72753623E-14
  -10.5299997      -8.71713709E-15
  -10.5200005       3.77645113E-16
  -10.5100002       1.00260800E-14
  -10.5000000       2.02451649E-14
  -10.4899998       3.10516756E-14
  -10.4799995       4.24620937E-14
  -10.4700003       5.44933022E-14
  -10.4600000       6.71621978E-14
  -10.4499998       8.04856399E-14
  -10.4399996       9.44796338E-14
  -10.4300003       1.09160531E-13
  -10.4200001       1.24544567E-13
  -10.4099998       1.40647951E-13
  -10.3999996       1.57485529E-13
  -10.3900003       1.75073565E-13
  -10.3800001       1.93426804E-13
  -10.3699999       2.12559787E-13
  -10.3599997       2.32486908E-13
  -10.3500004       2.53221543E-13
  -10.3400002       2.74777840E-13
  -10.3299999       2.97167645E-13
  -10.3199997       3.20403290E-13
  -10.3100004       3.44496512E-13
  -10.3000002       3.69458126E-13
  -10.2900000       3.95298188E-13
  -10.2799997       4.22025397E-13
  -10.2700005       4.49649026E-13
  -10.2600002       4.78175984E-13
  -10.2500000       5.07613211E-13
  -10.2399998       5.37965777E-13
  -10.2299995       5.69238721E-13
  -10.2200003       6.01435243E-13
  -10.2100000       6.34557240E-13
  -10.1999998       6.68605579E-13
  -10.1899996       7.03580423E-13
  -10.1800003       7.39479550E-13
  -10.1700001       7.76299760E-13
  -10.1599998       8.14037206E-13
  -10.1499996       8.52685056E-13
  -10.1400003       8.92234366E-13
  -10.1300001       9.32677655E-13
  -10.1199999       9.74001912E-13
  -10.1099997       1.01619418E-12
  -10.1000004       1.05924124E-12
  -10.0900002       1.10312345E-12
  -10.0799999       1.14782424E-12
  -10.0699997       1.19332127E-12
  -10.0600004       1.23959274E-12
  -10.0500002       1.28660841E-12
  -10.0400000       1.33434648E-12
  -10.0299997       1.38277551E-12
  -10.0200005       1.43186060E-12
  -10.0100002       1.48156639E-12
  -10.0000000       1.53185852E-12
  -9.98999977       1.58269437E-12
  -9.97999954       1.63403492E-12
  -9.97000027       1.68582574E-12
  -9.96000004       1.73802943E-12
  -9.94999981       1.79058949E-12
  -9.93999958       1.84344749E-12
  -9.93000031       1.89655236E-12
  -9.92000008       1.94984458E-12
  -9.90999985       2.00325672E-12
  -9.89999962       2.05672415E-12
  -9.89000034       2.11017662E-12
  -9.88000011       2.16354300E-12
  -9.86999989       2.21674740E-12
  -9.85999966       2.26970743E-12
  -9.85000038       2.32234110E-12
  -9.84000015       2.37456344E-12
  -9.82999992       2.42628378E-12
  -9.81999969       2.47740760E-12
  -9.81000042       2.52784339E-12
  -9.80000019       2.57749096E-12
  -9.78999996       2.62623712E-12
  -9.77999973       2.67398690E-12
  -9.77000046       2.72062212E-12
  -9.76000023       2.76602851E-12
  -9.75000000       2.81009612E-12
  -9.73999977       2.85269009E-12
  -9.72999954       2.89369570E-12
  -9.72000027       2.93297873E-12
  -9.71000004       2.97041601E-12
  -9.69999981       3.00587029E-12
  -9.68999958       3.03918826E-12
  -9.68000031       3.07023482E-12
  -9.67000008       3.09887988E-12
  -9.65999985       3.12495082E-12
  -9.64999962       3.14830800E-12
  -9.64000034       3.16878988E-12
  -9.63000011       3.18623882E-12
  -9.61999989       3.20049412E-12
  -9.60999966       3.21139079E-12
  -9.60000038       3.21876120E-12
  -9.59000015       3.22243642E-12
  -9.57999992       3.22222457E-12
  -9.56999969       3.21797406E-12
  -9.56000042       3.20949582E-12
  -9.55000019       3.19659837E-12
  -9.53999996       3.17910412E-12
  -9.52999973       3.15683677E-12
  -9.52000046       3.12958361E-12
  -9.51000023       3.09718614E-12
  -9.50000000       3.05942793E-12
  -9.48999977       3.01611752E-12
  -9.47999954       2.96706821E-12
  -9.47000027       2.91209136E-12
  -9.46000004       2.85096491E-12
  -9.44999981       2.78350693E-12
  -9.43999958       2.70952488E-12
  -9.43000031       2.62880863E-12
  -9.42000008       2.54115218E-12
  -9.40999985       2.44636451E-12
  -9.39999962       2.34424177E-12
  -9.39000034       2.23459185E-12
  -9.38000011       2.11722046E-12
  -9.36999989       1.99191336E-12
  -9.35999966       1.85850228E-12
  -9.35000038       1.71675922E-12
  -9.34000015       1.56651612E-12
  -9.32999992       1.40757599E-12
  -9.31999969       1.23975526E-12
  -9.31000042       1.06286811E-12
  -9.30000019       8.76714716E-13
  -9.28999996       6.81137167E-13
  -9.27999973       4.75971205E-13
  -9.27000046       2.61033030E-13
  -9.26000023       3.61474495E-14
  -9.25000000      -1.98830508E-13
  -9.23999977      -4.44065439E-13
  -9.22999954      -6.99701473E-13
  -9.22000027      -9.65873323E-13
  -9.21000004      -1.24273226E-12
  -9.19999981      -1.53039018E-12
  -9.18999958      -1.82899420E-12
  -9.18000031      -2.13863931E-12
  -9.17000008      -2.45943500E-12
  -9.15999985      -2.79148536E-12
  -9.14999962      -3.13487322E-12
  -9.14000034      -3.48967947E-12
  -9.13000011      -3.85597630E-12
  -9.11999989      -4.23382510E-12
  -9.10999966      -4.62325707E-12
  -9.10000038      -5.02432687E-12
  -9.09000015      -5.43705619E-12
  -9.07999992      -5.86144718E-12
  -9.06999969      -6.29751069E-12
  -9.06000042      -6.74523284E-12
  -9.05000019      -7.20458025E-12
  -9.03999996      -7.67550520E-12
  -9.02999973      -8.15797690E-12
  -9.02000046      -8.65190298E-12
  -9.01000023      -9.15720191E-12
  -9.00000000      -9.67377567E-12
  -8.98999977      -1.02014968E-11
  -8.97999954      -1.07402351E-11
  -8.97000027      -1.12898337E-11
  -8.96000004      -1.18501320E-11
  -8.94999981      -1.24209263E-11
  -8.93999958      -1.30020118E-11
  -8.93000031      -1.35931622E-11
  -8.92000008      -1.41941268E-11
  -8.90999985      -1.48046419E-11
  -8.89999962      -1.54244100E-11
  -8.89000034      -1.60531310E-11
  -8.88000011      -1.66904685E-11
  -8.86999989      -1.73360683E-11
  -8.85999966      -1.79895578E-11
  -8.85000038      -1.86505308E-11
  -8.84000015      -1.93185780E-11
  -8.82999992      -1.99932518E-11
  -8.81999969      -2.06740666E-11
  -8.81000042      -2.13605418E-11
  -8.80000019      -2.20521587E-11
  -8.78999996      -2.27483865E-11
  -8.77999973      -2.34486285E-11
  -8.77000046      -2.41523190E-11
  -8.76000023      -2.48588337E-11
  -8.75000000      -2.55675203E-11
  -8.73999977      -2.62777022E-11
  -8.72999954      -2.69886925E-11
  -8.72000027      -2.76997661E-11
  -8.71000004      -2.84101700E-11
  -8.69999981      -2.91191238E-11
  -8.68999958      -2.98258501E-11
  -8.68000031      -3.05294644E-11
  -8.67000008      -3.12291720E-11
  -8.65999985      -3.19240225E-11
  -8.64999962      -3.26131518E-11
  -8.64000034      -3.32955989E-11
  -8.63000011      -3.39704098E-11
  -8.61999989      -3.46365783E-11
  -8.60999966      -3.52930740E-11
  -8.60000038      -3.59388561E-11
  -8.59000015      -3.65728489E-11
  -8.57999992      -3.71939701E-11
  -8.56999969      -3.78011025E-11
  -8.56000042      -3.83930422E-11
  -8.55000019      -3.89686478E-11
  -8.53999996      -3.95266771E-11
  -8.52999973      -4.00660165E-11
  -8.52000046      -4.05852539E-11
  -8.51000023      -4.10831716E-11
  -8.50000000      -4.15585448E-11
  -8.48999977      -4.20099164E-11
  -8.47999954      -4.24360477E-11
  -8.47000027      -4.28355199E-11
  -8.46000004      -4.32069380E-11
  -8.44999981      -4.35489110E-11
  -8.43999958      -4.38600475E-11
  -8.43000031      -4.41388801E-11
  -8.42000008      -4.43837883E-11
  -8.40999985      -4.45935858E-11
  -8.39999962      -4.47664336E-11
  -8.39000034      -4.49011210E-11
  -8.38000011      -4.49959514E-11
  -8.36999989      -4.50493705E-11
  -8.35999966      -4.50598656E-11
  -8.35000038      -4.50259829E-11
  -8.34000015      -4.49459810E-11
  -8.32999992      -4.48182533E-11
  -8.31999969      -4.46413566E-11
  -8.31000042      -4.44136082E-11
  -8.30000019      -4.41333393E-11
  -8.28999996      -4.37990547E-11
  -8.27999973      -4.34091582E-11
  -8.27000046      -4.29619083E-11
  -8.26000023      -4.24557924E-11
  -8.25000000      -4.18892837E-11
  -8.23999977      -4.12605991E-11
  -8.22999954      -4.05682467E-11
  -8.22000027      -3.98106270E-11
  -8.21000004      -3.89862483E-11
  -8.19999981      -3.80933375E-11
  -8.18999958      -3.71306076E-11
  -8.18000031      -3.60962683E-11
  -8.17000008      -3.49889943E-11
  -8.15999985      -3.38071723E-11
  -8.14999962      -3.25494041E-11
  -8.14000034      -3.12143297E-11
  -8.13000011      -2.98001658E-11
  -8.11999989      -2.83059392E-11
  -8.10999966      -2.67299412E-11
  -8.10000038      -2.50710321E-11
  -8.09000015      -2.33279559E-11
  -8.07999992      -2.14994238E-11
  -8.06999969      -1.95839265E-11
  -8.06000042      -1.75807181E-11
  -8.05000019      -1.54883797E-11
  -8.03999996      -1.33058842E-11
  -8.02999973      -1.10322055E-11
  -8.02000046      -8.66626822E-12
  -8.01000023      -6.20738660E-12
  -8.00000000      -3.65448947E-12
  -7.98999977      -1.00675772E-12
  -7.98000002       1.73633330E-12
  -7.96999979       4.57585402E-12
  -7.96000004       7.51239522E-12
  -7.94999981       1.05461143E-11
  -7.94000006       1.36776424E-11
  -7.92999983       1.69074876E-11
  -7.92000008       2.02360195E-11
  -7.90999985       2.36632190E-11
  -7.90000010       2.71895059E-11
  -7.88999987       3.08149166E-11
  -7.88000011       3.45392777E-11
  -7.86999989       3.83626950E-11
  -7.86000013       4.22847313E-11
  -7.84999990       4.63051403E-11
  -7.84000015       5.04236340E-11
  -7.82999992       5.46395776E-11
  -7.82000017       5.89524055E-11
  -7.80999994       6.33613648E-11
  -7.80000019       6.78657477E-11
  -7.78999996       7.24642568E-11
  -7.78000021       7.71563577E-11
  -7.76999998       8.19404405E-11
  -7.76000023       8.68153466E-11
  -7.75000000       9.17795007E-11
  -7.73999977       9.68316816E-11
  -7.73000002       1.01969821E-10
  -7.71999979       1.07192435E-10
  -7.71000004       1.12497449E-10
  -7.69999981       1.17882634E-10
  -7.69000006       1.23345889E-10
  -7.67999983       1.28884889E-10
  -7.67000008       1.34497163E-10
  -7.65999985       1.40179812E-10
  -7.65000010       1.45930282E-10
  -7.63999987       1.51745574E-10
  -7.63000011       1.57622596E-10
  -7.61999989       1.63558125E-10
  -7.61000013       1.69548625E-10
  -7.59999990       1.75590681E-10
  -7.59000015       1.81680643E-10
  -7.57999992       1.87814458E-10
  -7.57000017       1.93988145E-10
  -7.55999994       2.00197692E-10
  -7.55000019       2.06438616E-10
  -7.53999996       2.12706464E-10
  -7.53000021       2.18996543E-10
  -7.51999998       2.25304039E-10
  -7.51000023       2.31623942E-10
  -7.50000000       2.37951076E-10
  -7.48999977       2.44280263E-10
  -7.48000002       2.50605814E-10
  -7.46999979       2.56922289E-10
  -7.46000004       2.63223721E-10
  -7.44999981       2.69504169E-10
  -7.44000006       2.75757500E-10