  -16.0000000       0.00000000    
  -15.9899998       0.00000000    
  -15.9799995       0.00000000    
  -15.9700003       0.00000000    
  -15.9600000       0.00000000    
  -15.9499998       0.00000000    
  -15.9399996       0.00000000    
  -15.9300003       0.00000000    
  -15.9200001       0.00000000    
  -15.9099998       0.00000000    
  -15.8999996       0.00000000    
  -15.8900003       0.00000000    
  -15.8800001       0.00000000    
  -15.8699999       0.00000000    
  -15.8599997       0.00000000    
  -15.8500004       0.00000000    
  -15.8400002       0.00000000    
  -15.8299999       0.00000000    
  -15.8199997       0.00000000    
  -15.8100004       0.00000000    
  -15.8000002       0.00000000    
  -15.7900000       0.00000000    
  -15.7799997       0.00000000    
  -15.7700005       0.00000000    
  -15.7600002       0.00000000    
  -15.7500000       0.00000000    
  -15.7399998       0.00000000    
  -15.7299995       0.00000000    
  -15.7200003       0.00000000    
  -15.7100000       0.00000000    
  -15.6999998       0.00000000    
  -15.6899996       0.00000000    
  -15.6800003       0.00000000    
  -15.6700001       0.00000000    
  -15.6599998       0.00000000    
  -15.6499996       0.00000000    
  -15.6400003       0.00000000    
  -15.6300001       0.00000000    
  -15.6199999       0.00000000    
  -15.6099997       0.00000000    
  -15.6000004       0.00000000    
  -15.5900002       0.00000000    
  -15.5799999       0.00000000    
  -15.5699997      -0.00000000    
  -15.5600004      -0.00000000    
  -15.5500002      -0.00000000    
  -15.5400000      -0.00000000    
  -15.5299997      -0.00000000    
  -15.5200005      -0.00000000    
  -15.5100002      -0.00000000    
  -15.5000000      -0.00000000    
  -15.4899998      -0.00000000    
  -15.4799995      -0.00000000    
  -15.4700003      -0.00000000    
  -15.4600000      -0.00000000    
  -15.4499998      -0.00000000    
  -15.4399996      -0.00000000    
  -15.4300003       0.00000000    
  -15.4200001      -0.00000000    
  -15.4099998      -0.00000000    
  -15.3999996      -0.00000000    
  -15.3900003      -0.00000000    
  -15.3800001      -0.00000000    
  -15.3699999      -1.40129846E-45
  -15.3599997      -1.40129846E-45
  -15.3500004      -1.40129846E-45
  -15.3400002      -0.00000000    
  -15.3299999      -1.40129846E-45
  -15.3199997      -4.20389539E-45
  -15.3100004      -5.60519386E-45
  -15.3000002      -8.40779079E-45
  -15.2900000      -9.80908925E-45
  -15.2799997      -1.26116862E-44
  -15.2700005      -1.68155816E-44
  -15.2600002      -1.82168800E-44
  -15.2500000      -1.82168800E-44
  -15.2399998      -1.82168800E-44
  -15.2299995      -1.68155816E-44
  -15.2200003      -1.54142831E-44
  -15.2100000      -1.54142831E-44
  -15.1999998      -2.94272678E-44
  -15.1899996      -5.60519386E-44
  -15.1800003      -7.98740125E-44
  -15.1700001      -1.06498683E-43
  -15.1599998      -1.19110369E-43
  -15.1499996      -1.23314265E-43
  -15.1400003      -1.16307773E-43
  -15.1300001      -7.84727140E-44
  -15.1199999      -2.24207754E-44
  -15.1099997       2.94272678E-44
  -15.1000004       4.76441478E-44
  -15.0900002      -1.26116862E-44
  -15.0799999      -1.79366203E-43
  -15.0699997      -4.51218106E-43
  -15.0600004      -7.73516752E-43
  -15.0500002      -9.89316716E-43
  -15.0400000      -9.12245300E-43
  -15.0299997      -3.57331108E-43
  -15.0200005       7.49694678E-43
  -15.0100002       2.25749183E-42
  -15.0000000       3.68121107E-42
  -14.9899998       4.19688890E-42
  -14.9799995       2.79559044E-42
  -14.9700003      -1.33964133E-42
  -14.9600000      -8.26906224E-42
  -14.9499998      -1.67665361E-41
  -14.9399996      -2.39622037E-41
  -14.9300003      -2.54812113E-41
  -14.9200001      -1.64540466E-41
  -14.9099998       6.62253654E-42
  -14.8999996       4.33771940E-41
  -14.8900003       8.70738840E-41
  -14.8800001       1.23447388E-40
  -14.8699999       1.31898619E-40
  -14.8599997       9.01903718E-41
  -14.8500004      -1.71673075E-41
  -14.8400002      -1.88282666E-40
  -14.8299999      -3.93972261E-40
  -14.8199997      -5.73156295E-40
  -14.8100004      -6.38371325E-40
  -14.8000002      -4.94983459E-40
  -14.7900000      -7.41833394E-41
  -14.7799997       6.25511609E-40
  -14.7700005       1.49984057E-39
  -14.7600002       2.31985661E-39
  -14.7500000       2.74986467E-39
  -14.7399998       2.41490669E-39
  -14.7299995       1.01809098E-39
  -14.7200003      -1.51019897E-39
  -14.7100000      -4.86975599E-39
  -14.6999998      -8.30953314E-39
  -14.6899996      -1.06670973E-38
  -14.6800003      -1.05724508E-38
  -14.6700001      -6.82235049E-39
  -14.6599998       1.12543745E-39
  -14.6499996       1.26530399E-38
  -14.6400003       2.56467523E-38
  -14.6300001       3.65112687E-38
  -14.6199999       4.06835424E-38
  -14.6099997       3.36930165E-38
  -14.6000004       1.26543543E-38
  -14.5900002      -2.21107101E-38
  -14.5799999      -6.57916411E-38
  -14.5699997      -1.08696536E-37
  -14.5600004      -1.37233878E-37
  -14.5500002      -1.36508768E-37
  -14.5400000      -9.43627548E-38
  -14.5299997      -6.17312751E-39
  -14.5200005       1.20762276E-37
  -14.5100002       2.64736310E-37
  -14.5000000       3.90488565E-37
  -14.4899998       4.54376430E-37
  -14.4799995       4.13894599E-37
  -14.4700003       2.40312799E-37
  -14.4600000      -6.81271180E-38
  -14.4499998      -4.76040325E-37
  -14.4399996      -9.07662583E-37
  -14.4300003      -1.25377685E-36
  -14.4200001      -1.39021632E-36
  -14.4099998      -1.20658425E-36
  -14.3999996      -6.40589715E-37
  -14.3900003       2.89546535E-37
  -14.3800001       1.46392032E-36
  -14.3699999       2.66005999E-36
  -14.3599997       3.57862122E-36
  -14.3500004       3.89675875E-36
  -14.3400002       3.34331751E-36
  -14.3299999       1.78271836E-36
  -14.3199997      -7.11408648E-37
  -14.3100004      -3.81426070E-36
  -14.3000002      -6.95861805E-36
  -14.2900000      -9.40555691E-36
  -14.2799997      -1.03758018E-35
  -14.2700005      -9.22518410E-36
  -14.2600002      -5.63275527E-36
  -14.2500000       2.40385398E-37
  -14.2399998       7.66630740E-36
  -14.2299995       1.53768695E-35
  -14.2200003       2.17211310E-35
  -14.2100000       2.49465644E-35
  -14.1999998       2.35667648E-35
  -14.1899996       1.67507543E-35
  -14.1800003       4.65061948E-36
  -14.1700001      -1.14179941E-35
  -14.1599998      -2.90117344E-35
  -14.1499996      -4.48456031E-35
  -14.1400003      -5.53140691E-35
  -14.1300001      -5.71780541E-35
  -14.1199999      -4.83009136E-35
  -14.1099997      -2.82870633E-35
  -14.1000004       1.12570983E-36
  -14.0900002       3.60397069E-35
  -14.0799999       7.07968277E-35
  -14.0699997       9.87850325E-35
  -14.0600004       1.13546865E-34
  -14.0500002       1.10011359E-34
  -14.0400000       8.56248280E-35
  -14.0299997       4.11525104E-35
  -14.0200005      -1.90360089E-35
  -14.0100002      -8.73018877E-35
  -14.0000000      -1.53687449E-34
  -13.9899998      -2.07360487E-34
  -13.9799995      -2.38333064E-34
  -13.9700003      -2.39172899E-34
  -13.9600000      -2.06416831E-34
  -13.9499998      -1.41439900E-34
  -13.9399996      -5.06233759E-35
  -13.9300003       5.52151737E-35
  -13.9200001       1.62046683E-34
  -13.9099998       2.54323208E-34
  -13.8999996       3.16893739E-34
  -13.8900003       3.36881344E-34
  -13.8800001       3.05295398E-34
  -13.8699999       2.18217486E-34
  -13.8599997       7.74792204E-35
  -13.8500004      -1.09184484E-34
  -13.8400002      -3.28473070E-34
  -13.8299999      -5.62307825E-34
  -13.8199997      -7.89037910E-34
  -13.8100004      -9.85059766E-34
  -13.8000002      -1.12685405E-33
  -13.7900000      -1.19342440E-33
  -13.7799997      -1.16905797E-33
  -13.7700005      -1.04621550E-33
  -13.7600002      -8.28236514E-34
  -13.7500000      -5.31416660E-34
  -13.7399998      -1.85951325E-34
  -13.7299995       1.64743513E-34
  -13.7200003       4.66684757E-34
  -13.7100000       6.60057022E-34
  -13.6999998       6.85787766E-34
  -13.6899996       4.93365770E-34
  -13.6800003       4.89424248E-35
  -13.6700001      -6.57449353E-34
  -13.6599998      -1.60680233E-33
  -13.6499996      -2.74924913E-33
  -13.6400003      -4.00610165E-33
  -13.6300001      -5.27603374E-33
  -13.6199999      -6.44500337E-33
  -13.6099997      -7.39893099E-33
  -13.6000004      -8.03771886E-33
  -13.5900002      -8.28887719E-33
  -13.5799999      -8.11909981E-33
  -13.5699997      -7.54229061E-33
  -13.5600004      -6.62304594E-33
  -13.5500002      -5.47509343E-33
  -13.5400000      -4.25480099E-33
  -13.5299997      -3.15027380E-33
  -13.5200005      -2.36694732E-33
  -13.5100002      -2.11070957E-33
  -13.5000000      -2.56962330E-33
  -13.4899998      -3.89530983E-33
  -13.4799995      -6.18500018E-33
  -13.4700003      -9.46538614E-33
  -13.4600000      -1.36795540E-32
  -13.4499998      -1.86785861E-32
  -13.4399996      -2.42196270E-32
  -13.4300003      -2.99723729E-32
  -13.4200001      -3.55356938E-32
  -13.4099998      -4.04652939E-32
  -13.3999996      -4.43125224E-32
  -13.3900003      -4.66723508E-32
  -13.3800001      -4.72369525E-32
  -13.3699999      -4.58496576E-32
  -13.3599997      -4.25520727E-32
  -13.3500004      -3.76170623E-32
  -13.3400002      -3.15602160E-32
  -13.3299999      -2.51243785E-32
  -13.3199997      -1.92341248E-32
  -13.3100004      -1.49210920E-32
  -13.3000002      -1.32248331E-32
  -13.2900000      -1.50778500E-32
  -13.2799997      -2.11866841E-32
  -13.2700005      -3.19225856E-32
  -13.2600002      -4.72354243E-32
  -13.2500000      -6.66029398E-32
  -13.2399998      -8.90237254E-32
  -13.2299995      -1.13057883E-31
  -13.2200003      -1.36913835E-31
  -13.2100000      -1.58574059E-31
  -13.1999998      -1.75948570E-31
  -13.1899996      -1.87040523E-31
  -13.1800003      -1.90107341E-31
  -13.1700001      -1.83799486E-31
  -13.1599998      -1.67260974E-31
  -13.1499996      -1.40178430E-31
  -13.1400003      -1.02767053E-31
  -13.1300001      -5.56874344E-32
  -13.1199999       1.08597081E-34
  -13.1099997       6.36047709E-32
  -13.1000004       1.34014443E-31
  -13.0900002       2.11137100E-31
  -13.0799999       2.95761667E-31
  -13.0699997       3.90115824E-31
  -13.0600004       4.98338746E-31
  -13.0500002       6.26984613E-31
  -13.0400000       7.85516530E-31
  -13.0299997       9.86842272E-31
  -13.0200005       1.24784847E-30
  -13.0100002       1.58999773E-30
  -13.0000000       2.03998675E-30
  -12.9899998       2.63059273E-30
  -12.9799995       3.40170762E-30
  -12.9700003       4.40164969E-30
  -12.9600000       5.68897136E-30
  -12.9499998       7.33474621E-30
  -12.9399996       9.42537476E-30
  -12.9300003       1.20662911E-29
  -12.9200001       1.53860693E-29
  -12.9099998       1.95415595E-29
  -12.8999996       2.47232921E-29
  -12.8900003       3.11612305E-29
  -12.8800001       3.91304849E-29
  -12.8699999       4.89569646E-29
  -12.8599997       6.10203819E-29
  -12.8500004       7.57561534E-29
  -12.8400002       9.36534172E-29
  -12.8299999       1.15246733E-28
  -12.8199997       1.41101981E-28
  -12.8100004       1.71791507E-28
  -12.8000002       2.07856687E-28
  -12.7900000       2.49753921E-28
  -12.7799997       2.97782738E-28
  -12.7700005       3.51983486E-28
  -12.7600002       4.12009908E-28
  -12.7500000       4.76959680E-28
  -12.7399998       5.45165575E-28
  -12.7299995       6.13928592E-28
  -12.7200003       6.79194265E-28
  -12.7100000       7.35157119E-28
  -12.6999998       7.73782415E-28
  -12.6899996       7.84230392E-28
  -12.6800003       7.52180414E-28
  -12.6700001       6.59039794E-28
  -12.6599998       4.81007600E-28
  -12.6499996       1.88003913E-28
  -12.6400003      -2.57562821E-28
  -12.6300001      -9.02239920E-28
  -12.6199999      -1.80311628E-27
  -12.6099997      -3.02960143E-27
  -12.6000004      -4.66554064E-27
  -12.5900002      -6.81139252E-27
  -12.5799999      -9.58687328E-27
  -12.5699997      -1.31336220E-26
  -12.5600004      -1.76182731E-26
  -12.5500002      -2.32358579E-26
  -12.5400000      -3.02132432E-26
  -12.5299997      -3.88134018E-26
  -12.5200005      -4.93391297E-26
  -12.5100002      -6.21379757E-26
  -12.5000000      -7.76065705E-26
  -12.4899998      -9.61960161E-26
  -12.4799995      -1.18417069E-25
  -12.4700003      -1.44845697E-25
  -12.4600000      -1.76128518E-25
  -12.4499998      -2.12989141E-25
  -12.4399996      -2.56233880E-25
  -12.4300003      -3.06758473E-25
  -12.4200001      -3.65553164E-25
  -12.4099998      -4.33710401E-25
  -12.3999996      -5.12429351E-25
  -12.3900003      -6.03023716E-25
  -12.3800001      -7.06926410E-25
  -12.3699999      -8.25694793E-25
  -12.3599997      -9.61017176E-25
  -12.3500004      -1.11471706E-24
  -12.3400002      -1.28875378E-24
  -12.3299999      -1.48523260E-24
  -12.3199997      -1.70640258E-24
  -12.3100004      -1.95465888E-24
  -12.3000002      -2.23254499E-24
  -12.2900000      -2.54275054E-24
  -12.2799997      -2.88811385E-24
  -12.2700005      -3.27160931E-24
  -12.2600002      -3.69635687E-24
  -12.2500000      -4.16560052E-24
  -12.2399998      -4.68270910E-24
  -12.2299995      -5.25116937E-24
  -12.2200003      -5.87456788E-24
  -12.2100000      -6.55656614E-24
  -12.1999998      -7.30091083E-24
  -12.1899996      -8.11139442E-24
  -12.1800003      -8.99183734E-24
  -12.1700001      -9.94606716E-24
  -12.1599998      -1.09778854E-23
  -12.1499996      -1.20910312E-23
  -12.1400003      -1.32891918E-23
  -12.1300001      -1.45759218E-23
  -12.1199999      -1.59545998E-23
  -12.1099997      -1.74284160E-23
  -12.1000004      -1.90003302E-23
  -12.0900002      -2.06730025E-23
  -12.0799999      -2.24487284E-23
  -12.0699997      -2.43294737E-23
  -12.0600004      -2.63167106E-23
  -12.0500002      -2.84114345E-23
  -12.0400000      -3.06140572E-23
  -12.0299997      -3.29243626E-23
  -12.0200005      -3.53414608E-23
  -12.0100002      -3.78637236E-23
  -12.0000000      -4.04886867E-23
  -11.9899998      -4.32129926E-23
  -11.9799995      -4.60323562E-23
  -11.9700003      -4.89415080E-23
  -11.9600000      -5.19340140E-23
  -11.9499998      -5.50023926E-23
  -11.9399996      -5.81378370E-23
  -11.9300003      -6.13302877E-23
  -11.9200001      -6.45683661E-23
  -11.9099998      -6.78393810E-23
  -11.8999996      -7.11289562E-23
  -11.8900003      -7.44214912E-23
  -11.8800001      -7.76996563E-23
  -11.8699999      -8.09446073E-23
  -11.8599997      -8.41358399E-23
  -11.8500004      -8.72512852E-23
  -11.8400002      -9.02670625E-23
  -11.8299999      -9.31577203E-23
  -11.8199997      -9.58961468E-23
  -11.8100004      -9.84534319E-23
  -11.8000002      -1.00799044E-22
  -11.7900000      -1.02900828E-22
  -11.7799997      -1.04725204E-22
  -11.7700005      -1.06236794E-22
  -11.7600002      -1.07398793E-22
  -11.7500000      -1.08172899E-22
  -11.7399998      -1.08519594E-22
  -11.7299995      -1.08398248E-22
  -11.7200003      -1.07766881E-22
  -11.7100000      -1.06582618E-22
  -11.6999998      -1.04801951E-22
  -11.6899996      -1.02380495E-22
  -11.6800003      -9.92732098E-23
  -11.6700001      -9.54349156E-23
  -11.6599998      -9.08201676E-23
  -11.6499996      -8.53836980E-23
  -11.6400003      -7.90806930E-23
  -11.6300001      -7.18664591E-23
  -11.6199999      -6.36976530E-23
  -11.6099997      -5.45314426E-23
  -11.6000004      -4.43267758E-23
  -11.5900002      -3.30436541E-23
  -11.5799999      -2.06442627E-23
  -11.5699997      -7.09305466E-24
  -11.5600004       7.64327094E-24
  -11.5500002       2.35951973E-23
  -11.5400000       4.07901294E-23
  -11.5299997       5.92523839E-23
  -11.5200005       7.90023623E-23
  -11.5100002       1.00056902E-22
  -11.5000000       1.22428600E-22
  -11.4899998       1.46125805E-22
  -11.4799995       1.71151994E-22
  -11.4700003       1.97505944E-22
  -11.4600000       2.25181696E-22
  -11.4499998       2.54168005E-22
  -11.4399996       2.84448551E-22
  -11.4300003       3.16001472E-22
  -11.4200001       3.48799633E-22
  -11.4099998       3.82810847E-22
  -11.3999996       4.17997527E-22
  -11.3900003       4.54316784E-22
  -11.3800001       4.91721160E-22
  -11.3699999       5.30158402E-22
  -11.3599997       5.69572164E-22
  -11.3500004       6.09902116E-22
  -11.3400002       6.51084594E-22
  -11.3299999       6.93052953E-22
  -11.3199997       7.35739340E-22
  -11.3100004       7.79074032E-22
  -11.3000002       8.22987104E-22
  -11.2900000       8.67409742E-22
  -11.2799997       9.12274900E-22
  -11.2700005       9.57519720E-22
  -11.2600002       1.00308544E-21
  -11.2500000       1.04891944E-21
  -11.2399998       1.09497801E-21
  -11.2299995       1.14122692E-21
  -11.2200003       1.18764415E-21
  -11.2100000       1.23422395E-21
  -11.1999998       1.28097622E-21
  -11.1899996       1.32793134E-21
  -11.1800003       1.37513960E-21
  -11.1700001       1.42268007E-21
  -11.1599998       1.47065907E-21
  -11.1499996       1.51921464E-21
  -11.1400003       1.56852488E-21
  -11.1300001       1.61880195E-21
  -11.1199999       1.67030677E-21
  -11.1099997       1.72334619E-21
  -11.1000004       1.77828423E-21
  -11.0900002       1.83553620E-21
  -11.0799999       1.89558313E-21
  -11.0699997       1.95897917E-21
  -11.0600004       2.02634511E-21
  -11.0500002       2.09838475E-21
  -11.0400000       2.17588992E-21
  -11.0299997       2.25974414E-21
  -11.0200005       2.35092263E-21
  -11.0100002       2.45051752E-21
  -11.0000000       2.55971949E-21
  -10.9899998       2.67984849E-21
  -10.9799995       2.81235309E-21
  -10.9700003       2.95880809E-21
  -10.9600000       3.12093993E-21
  -10.9499998       3.30062270E-21
  -10.9399996       3.49988559E-21
  -10.9300003       3.72092577E-21
  -10.9200001       3.96611576E-21
  -10.9099998       4.23801827E-21
  -10.8999996       4.53938828E-21
  -10.8900003       4.87318150E-21
  -10.8800001       5.24256248E-21
  -10.8699999       5.65091747E-21
  -10.8599997       6.10187227E-21
  -10.8500004       6.59927924E-21
  -10.8400002       7.14724116E-21
  -10.8299999       7.75013304E-21
  -10.8199997       8.41257950E-21
  -10.8100004       9.13949759E-21
  -10.8000002       9.93606525E-21
  -10.7900000       1.08077827E-20
  -10.7799997       1.17604347E-20
  -10.7700005       1.28001361E-20
  -10.7600002       1.39332968E-20
  -10.7500000       1.51666910E-20
  -10.7399998       1.65073924E-20
  -10.7299995       1.79628312E-20
  -10.7200003       1.95407978E-20
  -10.7100000       2.12494331E-20
  -10.6999998       2.30972463E-20
  -10.6899996       2.50931216E-20
  -10.6800003       2.72463116E-20
  -10.6700001       2.95664272E-20
  -10.6599998       3.20635013E-20
  -10.6499996       3.47479350E-20
  -10.6400003       3.76305205E-20
  -10.6300001       4.07224247E-20
  -10.6199999       4.40352313E-20
  -10.6099997       4.75809539E-20
  -10.6000004       5.13718516E-20
  -10.5900002       5.54207456E-20
  -10.5799999       5.97407351E-20
  -10.5699997       6.43453071E-20
  -10.5600004       6.92482909E-20
  -10.5500002       7.44640847E-20
  -10.5400000       8.00072094E-20
  -10.5299997       8.58925995E-20
  -10.5200005       9.21355578E-20
  -10.5100002       9.87516908E-20
  -10.5000000       1.05756980E-19
  -10.4899998       1.13167665E-19
  -10.4799995       1.21000135E-19
  -10.4700003       1.29271114E-19
  -10.4600000       1.37997805E-19
  -10.4499998       1.47197204E-19
  -10.4399996       1.56886849E-19
  -10.4300003       1.67084164E-19
  -10.4200001       1.77806828E-19
  -10.4099998       1.89072847E-19
  -10.3999996       2.00899604E-19
  -10.3900003       2.13305271E-19
  -10.3800001       2.26307723E-19
  -10.3699999       2.39924590E-19
  -10.3599997       2.54173810E-19
  -10.3500004       2.69072677E-19
  -10.3400002       2.84638846E-19
  -10.3299999       3.00889145E-19
  -10.3199997       3.17840635E-19
  -10.3100004       3.35509885E-19
  -10.3000002       3.53912560E-19
  -10.2900000       3.73064583E-19
  -10.2799997       3.92981101E-19
  -10.2700005       4.13676359E-19
  -10.2600002       4.35164728E-19
  -10.2500000       4.57458589E-19
  -10.2399998       4.80570584E-19
  -10.2299995       5.04512345E-19
  -10.2200003       5.29294056E-19
  -10.2100000       5.54924867E-19
  -10.1999998       5.81413258E-19
  -10.1899996       6.08766467E-19
  -10.1800003       6.36990025E-19
  -10.1700001       6.66088377E-19
  -10.1599998       6.96063490E-19
  -10.1499996       7.26916861E-19
  -10.1400003       7.58647458E-19
  -10.1300001       7.91253212E-19
  -10.1199999       8.24730193E-19
  -10.1099997       8.59072458E-19
  -10.1000004       8.94271681E-19
  -10.0900002       9.30316800E-19
  -10.0799999       9.67195200E-19
  -10.0699997       1.00489023E-18
  -10.0600004       1.04338463E-18
  -10.0500002       1.08265803E-18
  -10.0400000       1.12268644E-18
  -10.0299997       1.16344225E-18
  -10.0200005       1.20489651E-18
  -10.0100002       1.24701727E-18
  -10.0000000       1.28976741E-18
  -9.98999977       1.33310806E-18
  -9.97999954       1.37699547E-18
  -9.97000027       1.42138291E-18
  -9.96000004       1.46621920E-18
  -9.94999981       1.51144871E-18
  -9.93999958       1.55701520E-18
  -9.93000031       1.60285796E-18
  -9.92000008       1.64890421E-18
  -9.90999985       1.69508674E-18
  -9.89999962       1.74132624E-18
  -9.89000034       1.78754227E-18
  -9.88000011       1.83365035E-18
  -9.86999989       1.87955825E-18
  -9.85999966       1.92516940E-18
  -9.85000038       1.97038578E-18
  -9.84000015       2.01510234E-18
  -9.82999992       2.05920451E-18
  -9.81999969       2.10257545E-18
  -9.81000042       2.14509357E-18
  -9.80000019       2.18662941E-18
  -9.78999996       2.22705042E-18
  -9.77999973       2.26621783E-18
  -9.77000046       2.30398318E-18
  -9.76000023       2.34019694E-18
  -9.75000000       2.37470257E-18
  -9.73999977       2.40733050E-18
  -9.72999954       2.43791737E-18
  -9.72000027       2.46628532E-18
  -9.71000004       2.49225362E-18
  -9.69999981       2.51563305E-18
  -9.68999958       2.53622861E-18
  -9.68000031       2.55383928E-18
  -9.67000008       2.56825291E-18
  -9.65999985       2.57926599E-18
  -9.64999962       2.58665623E-18
  -9.64000034       2.59019449E-18
  -9.63000011       2.58964669E-18
  -9.61999989       2.58478163E-18
  -9.60999966       2.57535032E-18
  -9.60000038       2.56110400E-18
  -9.59000015       2.54178892E-18
  -9.57999992       2.51714328E-18
  -9.56999969       2.48689597E-18
  -9.56000042       2.45077610E-18
  -9.55000019       2.40850675E-18
  -9.53999996       2.35980815E-18
  -9.52999973       2.30438395E-18
  -9.52000046       2.24194835E-18
  -9.51000023       2.17219552E-18
  -9.50000000       2.09482973E-18
  -9.48999977       2.00955299E-18
  -9.47999954       1.91605491E-18
  -9.47000027       1.81401081E-18
  -9.46000004       1.70310388E-18
  -9.44999981       1.58301979E-18
  -9.43999958       1.45344360E-18
  -9.43000031       1.31404092E-18
  -9.42000008       1.16448584E-18
  -9.40999985       1.00445255E-18
  -9.39999962       8.33613958E-19
  -9.39000034       6.51643064E-19
  -9.38000011       4.58206878E-19
  -9.36999989       2.52977913E-19
  -9.35999966       3.56266819E-20
  -9.35000038      -1.94169779E-19
  -9.34000015      -4.36740610E-19
  -9.32999992      -6.92405749E-19
  -9.31999969      -9.61489825E-19
  -9.31000042      -1.24429988E-18
  -9.30000019      -1.54115360E-18
  -9.28999996      -1.85236076E-18
  -9.27999973      -2.17821719E-18
  -9.27000046      -2.51902118E-18
  -9.26000023      -2.87505668E-18
  -9.25000000      -3.24661049E-18
  -9.23999977      -3.63395539E-18
  -9.22999954      -4.03735111E-18
  -9.22000027      -4.45705180E-18
  -9.21000004      -4.89329858E-18
  -9.19999981      -5.34632183E-18
  -9.18999958      -5.81634322E-18
  -9.18000031      -6.30356377E-18
  -9.17000008      -6.80817827E-18
  -9.15999985      -7.33036375E-18
  -9.14999962      -7.87027859E-18
  -9.14000034      -8.42806468E-18
  -9.13000011      -9.00384773E-18
  -9.11999989      -9.59774108E-18
  -9.10999966      -1.02098208E-17
  -9.10000038      -1.08401688E-17
  -9.09000015      -1.14888182E-17
  -9.07999992      -1.21557872E-17
  -9.06999969      -1.28410790E-17
  -9.06000042      -1.35446731E-17
  -9.05000019      -1.42665164E-17
  -9.03999996      -1.50065138E-17
  -9.02999973      -1.57645719E-17
  -9.02000046      -1.65405517E-17
  -9.01000023      -1.73342877E-17
  -9.00000000      -1.81455732E-17
  -8.98999977      -1.89741948E-17
  -8.97999954      -1.98198695E-17
  -8.97000027      -2.06823046E-17
  -8.96000004      -2.15611889E-17
  -8.94999981      -2.24561338E-17
  -8.93999958      -2.33667075E-17
  -8.93000031      -2.42924897E-17
  -8.92000008      -2.52330106E-17
  -8.90999985      -2.61877160E-17
  -8.89999962      -2.71560500E-17
  -8.89000034      -2.81373890E-17
  -8.88000011      -2.91310876E-17
  -8.86999989      -3.01364099E-17
  -8.85999966      -3.11526807E-17
  -8.85000038      -3.21790397E-17
  -8.84000015      -3.32146434E-17
  -8.82999992      -3.42586281E-17
  -8.81999969      -3.53100706E-17
  -8.81000042      -3.63679651E-17
  -8.80000019      -3.74312363E-17
  -8.78999996      -3.84988022E-17
  -8.77999973      -3.95695147E-17
  -8.77000046      -4.06422191E-17
  -8.76000023      -4.17155885E-17
  -8.75000000      -4.27883822E-17
  -8.73999977      -4.38591476E-17
  -8.72999954      -4.49265382E-17
  -8.72000027      -4.59890418E-17
  -8.71000004      -4.70450966E-17
  -8.69999981      -4.80931179E-17
  -8.68999958      -4.91314480E-17
  -8.68000031      -5.01583530E-17
  -8.67000008      -5.11721257E-17
  -8.65999985      -5.21708536E-17
  -8.64999962      -5.31527501E-17
  -8.64000034      -5.41157836E-17
  -8.63000011      -5.50579721E-17
  -8.61999989      -5.59772510E-17
  -8.60999966      -5.68715060E-17
  -8.60000038      -5.77385038E-17
  -8.59000015      -5.85759613E-17
  -8.57999992      -5.93816617E-17
  -8.56999969      -6.01531829E-17
  -8.56000042      -6.08881230E-17
  -8.55000019      -6.15840400E-17
  -8.53999996      -6.22383597E-17
  -8.52999973      -6.28484815E-17
  -8.52000046      -6.34117518E-17
  -8.51000023      -6.39256295E-17
  -8.50000000      -6.43871830E-17
  -8.48999977      -6.47936662E-17
  -8.47999954      -6.51421541E-17
  -8.47000027      -6.54298343E-17
  -8.46000004      -6.56537554E-17
  -8.44999981      -6.58109461E-17
  -8.43999958      -6.58984089E-17
  -8.43000031      -6.59130401E-17
  -8.42000008      -6.58516765E-17
  -8.40999985      -6.57109963E-17
  -8.39999962      -6.54881009E-17
  -8.39000034      -6.51796948E-17
  -8.38000011      -6.47824761E-17
  -8.36999989      -6.42929638E-17
  -8.35999966      -6.37081008E-17
  -8.35000038      -6.30244791E-17
  -8.34000015      -6.22387832E-17
  -8.32999992      -6.13476384E-17
  -8.31999969      -6.03476366E-17
  -8.31000042      -5.92353830E-17
  -8.30000019      -5.80075228E-17
  -8.28999996      -5.66604889E-17
  -8.27999973      -5.51910820E-17
  -8.27000046      -5.35958443E-17
  -8.26000023      -5.18712554E-17
  -8.25000000      -5.00141092E-17
  -8.23999977      -4.80209216E-17
  -8.22999954      -4.58883474E-17
  -8.22000027      -4.36130018E-17
  -8.21000004      -4.11917019E-17
  -8.19999981      -3.86211621E-17
  -8.18999958      -3.58982059E-17
  -8.18000031      -3.30195280E-17
  -8.17000008      -2.99821407E-17
  -8.15999985      -2.67829055E-17
  -8.14999962      -2.34187223E-17
  -8.14000034      -1.98868232E-17
  -8.13000011      -1.61841758E-17
  -8.11999989      -1.23080397E-17
  -8.10999966      -8.25566949E-18
  -8.10000038      -4.02432467E-18
  -8.09000015       3.88412583E-19
  -8.07999992       4.98506476E-18
  -8.06999969       9.76783423E-18
  -8.06000042       1.47390979E-17
  -8.05000019       1.99007893E-17
  -8.03999996       2.52549424E-17
  -8.02999973       3.08035410E-17
  -8.02000046       3.65480853E-17
  -8.01000023       4.24903093E-17
  -8.00000000       4.86316754E-17
  -7.98999977       5.49733382E-17
  -7.98000002       6.15162178E-17
  -7.96999979       6.82614786E-17
  -7.96000004       7.52096502E-17
  -7.94999981       8.23614538E-17
  -7.94000006       8.97170614E-17
  -7.92999983       9.72767246E-17
  -7.92000008       1.05040503E-16
  -7.90999985       1.13007907E-16
  -7.90000010       1.21178505E-16
  -7.88999987       1.29551638E-16
  -7.88000011       1.38126298E-16
  -7.86999989       1.46901189E-16
  -7.86000013       1.55874907E-16
  -7.84999990       1.65045720E-16
  -7.84000015       1.74411654E-16
  -7.82999992       1.83970381E-16
  -7.82000017       1.93719413E-16
  -7.80999994       2.03655877E-16
  -7.80000019       2.13776597E-16
  -7.78999996       2.24078225E-16
  -7.78000021       2.34556949E-16
  -7.76999998       2.45208838E-16
  -7.76000023       2.56029181E-16
  -7.75000000       2.67013611E-16
  -7.73999977       2.78156964E-16
  -7.73000002       2.89453790E-16
  -7.71999979       3.00898422E-16
  -7.71000004       3.12484642E-16
  -7.69999981       3.24206069E-16
  -7.69000006       3.36055822E-16
  -7.67999983       3.48026833E-16
  -7.67000008       3.60111478E-16
  -7.65999985       3.72301712E-16
  -7.65000010       3.84589592E-16
  -7.63999987       3.96965935E-16
  -7.63000011       4.09421660E-16
  -7.61999989       4.21947213E-16
  -7.61000013       4.34532931E-16
  -7.59999990       4.47168439E-16
  -7.59000015       4.59842593E-16
  -7.57999992       4.72544276E-16
  -7.57000017       4.85262952E-16
  -7.55999994       4.97985652E-16
  -7.55000019       5.10699775E-16
  -7.53999996       5.23393464E-16
  -7.53000021       5.36052689E-16
  -7.51999998       5.48664427E-16
  -7.51000023       5.61213696E-16
  -7.50000000       5.73686257E-16
  -7.48999977       5.86067496E-16
  -7.48000002       5.98342327E-16
  -7.46999979       6.10494020E-16
  -7.46000004       6.22506906E-16
  -7.44999981       6.34364626E-16
  -7.44000006       6.46050346E-16