  -16.0000000       0.00000000    
  -15.9899998       0.00000000    
  -15.9799995       0.00000000    
  -15.9700003       0.00000000    
  -15.9600000       0.00000000    
  -15.9499998       0.00000000    
  -15.9399996       0.00000000    
  -15.9300003       0.00000000    
  -15.9200001       0.00000000    
  -15.9099998       0.00000000    
  -15.8999996       0.00000000    
  -15.8900003       0.00000000    
  -15.8800001       0.00000000    
  -15.8699999       0.00000000    
  -15.8599997       0.00000000    
  -15.8500004       0.00000000    
  -15.8400002       0.00000000    
  -15.8299999      -0.00000000    
  -15.8199997      -0.00000000    
  -15.8100004      -0.00000000    
  -15.8000002      -1.40129846E-45
  -15.7900000      -8.40779079E-45
  -15.7799997      -2.80259693E-44
  -15.7700005      -5.88545355E-44
  -15.7600002      -1.20511668E-43
  -15.7500000      -2.67648007E-43
  -15.7399998      -6.06762235E-43
  -15.7299995      -1.32282575E-42
  -15.7200003      -2.77597226E-42
  -15.7100000      -5.62200944E-42
  -15.6999998      -1.10086007E-41
  -15.6899996      -2.08891562E-41
  -15.6800003      -3.84698467E-41
  -15.6700001      -6.89999364E-41
  -15.6599998      -1.20852183E-40
  -15.6499996      -2.06803627E-40
  -15.6400003      -3.45606444E-40
  -15.6300001      -5.63529375E-40
  -15.6199999      -8.95257359E-40
  -15.6099997      -1.38371777E-39
  -15.6000004      -2.07833301E-39
  -15.5900002      -3.03186337E-39
  -15.5799999      -4.29703550E-39
  -15.5699997      -5.92509488E-39
  -15.5600004      -7.97021012E-39
  -15.5500002      -1.05031650E-38
  -15.5400000      -1.36358504E-38
  -15.5299997      -1.75534633E-38
  -15.5200005      -2.25438473E-38
  -15.5100002      -2.90054181E-38
  -15.5000000      -3.74101092E-38
  -15.4899998      -4.82009790E-38
  -15.4799995      -6.16199924E-38
  -15.4700003      -7.74917995E-38
  -15.4600000      -9.50302885E-38
  -15.4499998      -1.12773440E-37
  -15.4399996      -1.28767861E-37
  -15.4300003      -1.41096305E-37
  -15.4200001      -1.48750848E-37
  -15.4099998      -1.52701624E-37
  -15.3999996      -1.56827708E-37
  -15.3900003      -1.68220085E-37
  -15.3800001      -1.96327386E-37
  -15.3699999      -2.50572299E-37
  -15.3599997      -3.36477971E-37
  -15.3500004      -4.50968473E-37
  -15.3400002      -5.78226686E-37
  -15.3299999      -6.88040102E-37
  -15.3199997      -7.38653388E-37
  -15.3100004      -6.85483326E-37
  -15.3000002      -4.95510392E-37
  -15.2900000      -1.64915935E-37
  -15.2799997       2.64929824E-37
  -15.2700005       6.99876971E-37
  -15.2600002       1.00078127E-36
  -15.2500000       1.01146925E-36
  -15.2399998       6.06739097E-37
  -15.2299995      -2.46854464E-37
  -15.2200003      -1.43250531E-36
  -15.2100000      -2.64793160E-36
  -15.1999998      -3.41579724E-36
  -15.1899996      -3.15642941E-36
  -15.1800003      -1.32591237E-36
  -15.1700001       2.39749872E-36
  -15.1599998       7.91828320E-36
  -15.1499996       1.45781819E-35
  -15.1400003       2.11260341E-35
  -15.1300001       2.58578825E-35
  -15.1199999       2.69510492E-35
  -15.1099997       2.29658578E-35
  -15.1000004       1.34288205E-35
  -15.0900002      -6.43395944E-37
  -15.0799999      -1.64516676E-35
  -15.0699997      -2.95194354E-35
  -15.0600004      -3.43027619E-35
  -15.0500002      -2.53080117E-35
  -15.0400000       1.41851215E-36
  -15.0299997       4.67095107E-35
  -15.0200005       1.06993392E-34
  -15.0100002       1.73737066E-34
  -15.0000000       2.33978913E-34
  -14.9899998       2.72142577E-34
  -14.9799995       2.73050670E-34
  -14.9700003       2.25739869E-34
  -14.9600000       1.27379036E-34
  -14.9499998      -1.36114827E-35
  -14.9399996      -1.76174886E-34
  -14.9300003      -3.27725139E-34
  -14.9200001      -4.28110359E-34
  -14.9099998      -4.36236469E-34
  -14.8999996      -3.18527056E-34
  -14.8900003      -5.78311595E-35
  -14.8800001       3.38986512E-34
  -14.8699999       8.36590972E-34
  -14.8599997       1.37136716E-33
  -14.8500004       1.85709024E-33
  -14.8400002       2.19597883E-33
  -14.8299999       2.29398182E-33
  -14.8199997       2.07818952E-33
  -14.8100004       1.51361006E-33
  -14.8000002       6.16318438E-34
  -14.7900000      -5.39716430E-34
  -14.7799997      -1.82401201E-33
  -14.7700005      -3.05990620E-33
  -14.7600002      -4.04322449E-33
  -14.7500000      -4.56738918E-33
  -14.7399998      -4.45204600E-33
  -14.7299995      -3.57172820E-33
  -14.7200003      -1.88093992E-33
  -14.7100000       5.67613620E-34
  -14.6999998       3.61415032E-33
  -14.6899996       6.99396731E-33
  -14.6800003       1.03513011E-32
  -14.6700001       1.32646985E-32
  -14.6599998       1.52828930E-32
  -14.6499996       1.59693347E-32
  -14.6400003       1.49529156E-32
  -14.6300001       1.19813614E-32
  -14.6199999       6.97290686E-33
  -14.6099997       6.07314335E-35
  -14.6000004      -8.37602834E-33
  -14.5900002      -1.77013639E-32
  -14.5799999      -2.70379158E-32
  -14.5699997      -3.53136988E-32
  -14.5600004      -4.13420746E-32
  -14.5500002      -4.39334460E-32
  -14.5400000      -4.20322926E-32
  -14.5299997      -3.48684803E-32
  -14.5200005      -2.21071432E-32
  -14.5100002      -3.97833280E-33
  -14.5000000       1.86332855E-32
  -14.4899998       4.41576921E-32
  -14.4799995       7.03815429E-32
  -14.4700003       9.45712007E-32
  -14.4600000       1.13675582E-31
  -14.4499998       1.24597405E-31
  -14.4399996       1.24512499E-31
  -14.4300003       1.11207819E-31
  -14.4200001       8.34036340E-32
  -14.4099998       4.10220110E-32
  -14.3999996      -1.46318396E-32
  -14.3900003      -8.08044985E-32
  -14.3800001      -1.53362375E-31
  -14.3699999      -2.26996893E-31
  -14.3599997      -2.95556708E-31
  -14.3500004      -3.52479504E-31
  -14.3400002      -3.91287933E-31
  -14.3299999      -4.06100525E-31
  -14.3199997      -3.92109063E-31
  -14.3100004      -3.45975588E-31
  -14.3000002      -2.66108693E-31
  -14.2900000      -1.52795563E-31
  -14.2799997      -8.18323772E-33
  -14.2700005       1.63878406E-31
  -14.2600002       3.58100483E-31
  -14.2500000       5.68071704E-31
  -14.2399998       7.86561215E-31
  -14.2299995       1.00574751E-30
  -14.2200003       1.21728929E-30
  -14.2100000       1.41216697E-30
  -14.1999998       1.58025937E-30
  -14.1899996       1.70964105E-30
  -14.1800003       1.78553623E-30
  -14.1700001       1.78908717E-30
  -14.1599998       1.69588495E-30
  -14.1499996       1.47441184E-30
  -14.1400003       1.08465920E-30
  -14.1300001       4.76792781E-31
  -14.1199999      -4.09600818E-31
  -14.1099997      -1.64557623E-30
  -14.1000004      -3.31256678E-30
  -14.0900002      -5.50084336E-30
  -14.0799999      -8.30785692E-30
  -14.0699997      -1.18354880E-29
  -14.0600004      -1.61873900E-29
  -14.0500002      -2.14672547E-29
  -14.0400000      -2.77782533E-29
  -14.0299997      -3.52263210E-29
  -14.0200005      -4.39274949E-29
  -14.0100002      -5.40238095E-29
  -14.0000000      -6.57089501E-29
  -13.9899998      -7.92694529E-29
  -13.9799995      -9.51432082E-29
  -13.9700003      -1.14003040E-28
  -13.9600000      -1.36872170E-28
  -13.9499998      -1.65274617E-28
  -13.9399996      -2.01432315E-28
  -13.9300003      -2.48519376E-28
  -13.9200001      -3.10975623E-28
  -13.9099998      -3.94900813E-28
  -13.8999996      -5.08535880E-28
  -13.8900003      -6.62839268E-28
  -13.8800001      -8.72182701E-28
  -13.8699999      -1.15517644E-27
  -13.8599997      -1.53563523E-27
  -13.8500004      -2.04370422E-27
  -13.8400002      -2.71715339E-27
  -13.8299999      -3.60288029E-27
  -13.8199997      -4.75860465E-27
  -13.8100004      -6.25479800E-27
  -13.8000002      -8.17685605E-27
  -13.7900000      -1.06275464E-26
  -13.7799997      -1.37296757E-26
  -13.7700005      -1.76291076E-26
  -13.7600002      -2.24980557E-26
  -13.7500000      -2.85386764E-26
  -13.7399998      -3.59870333E-26
  -13.7299995      -4.51173618E-26
  -13.7200003      -5.62467501E-26
  -13.7100000      -6.97398276E-26
  -13.6999998      -8.60144102E-26
  -13.6899996      -1.05546951E-25
  -13.6800003      -1.28878511E-25
  -13.6700001      -1.56621430E-25
  -13.6599998      -1.89465555E-25
  -13.6499996      -2.28185215E-25
  -13.6400003      -2.73646456E-25
  -13.6300001      -3.26813807E-25
  -13.6199999      -3.88758839E-25
  -13.6099997      -4.60667997E-25
  -13.6000004      -5.43849386E-25
  -13.5900002      -6.39740655E-25
  -13.5799999      -7.49919625E-25
  -13.5699997      -8.76106062E-25
  -13.5600004      -1.02017721E-24
  -13.5500002      -1.18416847E-24
  -13.5400000      -1.37027999E-24
  -13.5299997      -1.58088761E-24
  -13.5200005      -1.81855138E-24
  -13.5100002      -2.08601092E-24
  -13.5000000      -2.38619478E-24
  -13.4899998      -2.72221936E-24
  -13.4799995      -3.09740417E-24
  -13.4700003      -3.51526043E-24
  -13.4600000      -3.97949877E-24
  -13.4499998      -4.49401239E-24
  -13.4399996      -5.06289667E-24
  -13.4300003      -5.69043355E-24
  -13.4200001      -6.38106628E-24
  -13.4099998      -7.13942391E-24
  -13.3999996      -7.97028929E-24
  -13.3900003      -8.87858137E-24
  -13.3800001      -9.86935359E-24
  -13.3699999      -1.09477501E-23
  -13.3599997      -1.21190461E-23
  -13.3500004      -1.33885504E-23
  -13.3400002      -1.47616149E-23
  -13.3299999      -1.62435564E-23
  -13.3199997      -1.78397691E-23
  -13.3100004      -1.95554927E-23
  -13.3000002      -2.13959178E-23
  -13.2900000      -2.33660695E-23
  -13.2799997      -2.54707567E-23
  -13.2700005      -2.77146274E-23
  -13.2600002      -3.01019476E-23
  -13.2500000      -3.26367124E-23
  -13.2399998      -3.53224777E-23
  -13.2299995      -3.81623864E-23
  -13.2200003      -4.11589692E-23
  -13.2100000      -4.43142677E-23
  -13.1999998      -4.76296418E-23
  -13.1899996      -5.11056343E-23
  -13.1800003      -5.47420938E-23
  -13.1700001      -5.85379725E-23
  -13.1599998      -6.24912070E-23
  -13.1499996      -6.65988625E-23
  -13.1400003      -7.08566035E-23
  -13.1300001      -7.52591984E-23
  -13.1199999      -7.98002541E-23
  -13.1099997      -8.44716296E-23
  -13.1000004      -8.92643635E-23
  -13.0900002      -9.41676074E-23
  -13.0799999      -9.91691433E-23
  -13.0699997      -1.04254847E-22
  -13.0600004      -1.09409063E-22
  -13.0500002      -1.14615052E-22
  -13.0400000      -1.19853329E-22
  -13.0299997      -1.25102990E-22
  -13.0200005      -1.30341796E-22
  -13.0100002      -1.35544744E-22
  -13.0000000      -1.40685416E-22
  -12.9899998      -1.45735830E-22
  -12.9799995      -1.50664696E-22
  -12.9700003      -1.55440283E-22
  -12.9600000      -1.60028197E-22
  -12.9499998      -1.64392466E-22
  -12.9399996      -1.68494492E-22
  -12.9300003      -1.72294492E-22
  -12.9200001      -1.75750851E-22
  -12.9099998      -1.78820542E-22
  -12.8999996      -1.81458455E-22
  -12.8900003      -1.83618142E-22
  -12.8800001      -1.85250806E-22
  -12.8699999      -1.86308334E-22
  -12.8599997      -1.86739987E-22
  -12.8500004      -1.86494051E-22
  -12.8400002      -1.85518489E-22
  -12.8299999      -1.83760099E-22
  -12.8199997      -1.81166072E-22
  -12.8100004      -1.77681162E-22
  -12.8000002      -1.73252737E-22
  -12.7900000      -1.67827204E-22
  -12.7799997      -1.61350101E-22
  -12.7700005      -1.53770195E-22
  -12.7600002      -1.45034652E-22
  -12.7500000      -1.35092114E-22
  -12.7399998      -1.23893597E-22
  -12.7299995      -1.11390000E-22
  -12.7200003      -9.75363905E-23
  -12.7100000      -8.22881952E-23
  -12.6999998      -6.56033390E-23
  -12.6899996      -4.74432434E-23
  -12.6800003      -2.77710120E-23
  -12.6700001      -6.55371441E-24
  -12.6599998       1.62395269E-23
  -12.6499996       4.06344335E-23
  -12.6400003       6.66562411E-23
  -12.6300001       9.43226280E-23
  -12.6199999       1.23650249E-22
  -12.6099997       1.54650968E-22
  -12.6000004       1.87332920E-22
  -12.5900002       2.21701014E-22
  -12.5799999       2.57756249E-22
  -12.5699997       2.95494825E-22
  -12.5600004       3.34910607E-22
  -12.5500002       3.75994836E-22
  -12.5400000       4.18735043E-22
  -12.5299997       4.63117039E-22
  -12.5200005       5.09124012E-22
  -12.5100002       5.56738849E-22
  -12.5000000       6.05943474E-22
  -12.4899998       6.56719711E-22
  -12.4799995       7.09051810E-22
  -12.4700003       7.62925229E-22
  -12.4600000       8.18329215E-22
  -12.4499998       8.75257557E-22
  -12.4399996       9.33710611E-22
  -12.4300003       9.93697058E-22
  -12.4200001       1.05523346E-21
  -12.4099998       1.11834738E-21
  -12.3999996       1.18308466E-21
  -12.3900003       1.24950559E-21
  -12.3800001       1.31768357E-21
  -12.3699999       1.38772028E-21
  -12.3599997       1.45973811E-21
  -12.3500004       1.53388467E-21
  -12.3400002       1.61034486E-21
  -12.3299999       1.68932748E-21
  -12.3199997       1.77108881E-21
  -12.3100004       1.85592632E-21
  -12.3000002       1.94417575E-21
  -12.2900000       2.03622766E-21
  -12.2799997       2.13254048E-21
  -12.2700005       2.23361444E-21
  -12.2600002       2.34002145E-21
  -12.2500000       2.45241401E-21
  -12.2399998       2.57151611E-21
  -12.2299995       2.69812422E-21
  -12.2200003       2.83314449E-21
  -12.2100000       2.97757697E-21
  -12.1999998       3.13251016E-21
  -12.1899996       3.29915838E-21
  -12.1800003       3.47885307E-21
  -12.1700001       3.67304260E-21
  -12.1599998       3.88332257E-21
  -12.1499996       4.11142692E-21
  -12.1400003       4.35922123E-21
  -12.1300001       4.62876256E-21
  -12.1199999       4.92228404E-21
  -12.1099997       5.24215293E-21
  -12.1000004       5.59097556E-21
  -12.0900002       5.97149803E-21
  -12.0799999       6.38675481E-21
  -12.0699997       6.83993306E-21
  -12.0600004       7.33447721E-21
  -12.0500002       7.87405423E-21
  -12.0400000       8.46260939E-21
  -12.0299997       9.10433352E-21
  -12.0200005       9.80367030E-21
  -12.0100002       1.05653922E-20
  -12.0000000       1.13945503E-20
  -11.9899998       1.22964841E-20
  -11.9799995       1.32768474E-20
  -11.9700003       1.43416639E-20
  -11.9600000       1.54972950E-20
  -11.9499998       1.67504123E-20
  -11.9399996       1.81080580E-20
  -11.9300003       1.95776703E-20
  -11.9200001       2.11670882E-20
  -11.9099998       2.28845074E-20
  -11.8999996       2.47386085E-20
  -11.8900003       2.67383742E-20
  -11.8800001       2.88933606E-20
  -11.8699999       3.12133858E-20
  -11.8599997       3.37089089E-20
  -11.8500004       3.63907157E-20
  -11.8400002       3.92700571E-20
  -11.8299999       4.23588044E-20
  -11.8199997       4.56691457E-20
  -11.8100004       4.92138085E-20
  -11.8000002       5.30060794E-20
  -11.7900000       5.70597329E-20
  -11.7799997       6.13890282E-20
  -11.7700005       6.60086187E-20
  -11.7600002       7.09338588E-20
  -11.7500000       7.61806784E-20
  -11.7399998       8.17654077E-20
  -11.7299995       8.77050944E-20
  -11.7200003       9.40168767E-20
  -11.7100000       1.00719043E-19
  -11.6999998       1.07829688E-19
  -11.6899996       1.15368353E-19
  -11.6800003       1.23354058E-19
  -11.6700001       1.31807392E-19
  -11.6599998       1.40748891E-19
  -11.6499996       1.50199378E-19
  -11.6400003       1.60180773E-19
  -11.6300001       1.70714995E-19
  -11.6199999       1.81824781E-19
  -11.6099997       1.93533199E-19
  -11.6000004       2.05864032E-19
  -11.5900002       2.18840738E-19
  -11.5799999       2.32488288E-19
  -11.5699997       2.46831755E-19
  -11.5600004       2.61895541E-19
  -11.5500002       2.77705883E-19
  -11.5400000       2.94288295E-19
  -11.5299997       3.11668834E-19
  -11.5200005       3.29874407E-19
  -11.5100002       3.48932648E-19
  -11.5000000       3.68869588E-19
  -11.4899998       3.89712730E-19
  -11.4799995       4.11488957E-19
  -11.4700003       4.34226963E-19
  -11.4600000       4.57953553E-19
  -11.4499998       4.82694888E-19
  -11.4399996       5.08479658E-19
  -11.4300003       5.35335835E-19
  -11.4200001       5.63290765E-19
  -11.4099998       5.92372678E-19
  -11.3999996       6.22604216E-19
  -11.3900003       6.54016297E-19
  -11.3800001       6.86633527E-19
  -11.3699999       7.20481706E-19
  -11.3599997       7.55585649E-19
  -11.3500004       7.91970222E-19
  -11.3400002       8.29658070E-19
  -11.3299999       8.68672819E-19
  -11.3199997       9.09037475E-19
  -11.3100004       9.50773804E-19
  -11.3000002       9.93900209E-19
  -11.2900000       1.03843696E-18
  -11.2799997       1.08440039E-18
  -11.2700005       1.13181024E-18
  -11.2600002       1.18067883E-18
  -11.2500000       1.23101939E-18
  -11.2399998       1.28284112E-18
  -11.2299995       1.33616066E-18
  -11.2200003       1.39098092E-18
  -11.2100000       1.44730716E-18
  -11.1999998       1.50514363E-18
  -11.1899996       1.56448909E-18
  -11.1800003       1.62534600E-18
  -11.1700001       1.68770860E-18
  -11.1599998       1.75156591E-18
  -11.1499996       1.81690676E-18
  -11.1400003       1.88371339E-18
  -11.1300001       1.95197998E-18
  -11.1199999       2.02168360E-18
  -11.1099997       2.09279239E-18
  -11.1000004       2.16528091E-18
  -11.0900002       2.23911753E-18
  -11.0799999       2.31426855E-18
  -11.0699997       2.39067977E-18
  -11.0600004       2.46830984E-18
  -11.0500002       2.54711327E-18
  -11.0400000       2.62702347E-18
  -11.0299997       2.70797488E-18
  -11.0200005       2.78991291E-18
  -11.0100002       2.87274988E-18
  -11.0000000       2.95641692E-18
  -10.9899998       3.04080940E-18
  -10.9799995       3.12585184E-18
  -10.9700003       3.21142347E-18
  -10.9600000       3.29741799E-18
  -10.9499998       3.38372354E-18
  -10.9399996       3.47021127E-18
  -10.9300003       3.55673767E-18
  -10.9200001       3.64318094E-18
  -10.9099998       3.72938598E-18
  -10.8999996       3.81518156E-18
  -10.8900003       3.90040598E-18
  -10.8800001       3.98488594E-18
  -10.8699999       4.06839727E-18
  -10.8599997       4.15078321E-18
  -10.8500004       4.23180307E-18
  -10.8400002       4.31124095E-18
  -10.8299999       4.38888178E-18
  -10.8199997       4.46447864E-18
  -10.8100004       4.53776602E-18
  -10.8000002       4.60848458E-18
  -10.7900000       4.67632952E-18
  -10.7799997       4.74101050E-18
  -10.7700005       4.80224254E-18
  -10.7600002       4.85967493E-18
  -10.7500000       4.91300244E-18
  -10.7399998       4.96189088E-18
  -10.7299995       5.00593204E-18
  -10.7200003       5.04473178E-18
  -10.7100000       5.07795259E-18
  -10.6999998       5.10518048E-18
  -10.6899996       5.12597208E-18
  -10.6800003       5.13987202E-18
  -10.6700001       5.14642784E-18
  -10.6599998       5.14518583E-18
  -10.6499996       5.13566457E-18
  -10.6400003       5.11736113E-18
  -10.6300001       5.08974364E-18
  -10.6199999       5.05227608E-18
  -10.6099997       5.00442947E-18
  -10.6000004       4.94561528E-18
  -10.5900002       4.87523627E-18
  -10.5799999       4.79270598E-18
  -10.5699997       4.69735232E-18
  -10.5600004       4.58854622E-18
  -10.5500002       4.46570494E-18
  -10.5400000       4.32810510E-18
  -10.5299997       4.17507089E-18
  -10.5200005       4.00583884E-18
  -10.5100002       3.81971079E-18
  -10.5000000       3.61597124E-18
  -10.4899998       3.39384761E-18
  -10.4799995       3.15257019E-18
  -10.4700003       2.89138646E-18
  -10.4600000       2.60940452E-18
  -10.4499998       2.30584640E-18
  -10.4399996       1.97990663E-18
  -10.4300003       1.63071803E-18
  -10.4200001       1.25738329E-18
  -10.4099998       8.59135685E-19
  -10.3999996       4.35010355E-19
  -10.3900003      -1.59310285E-20
  -10.3800001      -4.94545491E-19
  -10.3699999      -1.00179110E-18
  -10.3599997      -1.53858572E-18
  -10.3500004      -2.10584054E-18
  -10.3400002      -2.70448645E-18
  -10.3299999      -3.33553985E-18
  -10.3199997      -3.99991581E-18
  -10.3100004      -4.69854883E-18
  -10.3000002      -5.43244788E-18
  -10.2900000      -6.20257412E-18
  -10.2799997      -7.00987345E-18
  -10.2700005      -7.85532896E-18
  -10.2600002      -8.73988695E-18
  -10.2500000      -9.66448132E-18
  -10.2399998      -1.06300848E-17
  -10.2299995      -1.16376520E-17
  -10.2200003      -1.26880953E-17
  -10.2100000      -1.37823461E-17
  -10.1999998      -1.49212580E-17
  -10.1899996      -1.61057740E-17
  -10.1800003      -1.73367279E-17
  -10.1700001      -1.86150032E-17
  -10.1599998      -1.99414022E-17
  -10.1499996      -2.13167223E-17
  -10.1400003      -2.27417361E-17
  -10.1300001      -2.42171815E-17
  -10.1199999      -2.57437714E-17
  -10.1099997      -2.73221661E-17
  -10.1000004      -2.89529890E-17
  -10.0900002      -3.06368541E-17
  -10.0799999      -3.23742709E-17
  -10.0699997      -3.41657390E-17
  -10.0600004      -3.60117050E-17
  -10.0500002      -3.79125628E-17
  -10.0400000      -3.98685967E-17
  -10.0299997      -4.18801279E-17
  -10.0200005      -4.39473085E-17
  -10.0100002      -4.60702974E-17
  -10.0000000      -4.82490712E-17
  -9.98999977      -5.04837261E-17
  -9.97999954      -5.27740304E-17
  -9.97000027      -5.51198816E-17
  -9.96000004      -5.75210148E-17
  -9.94999981      -5.99769604E-17
  -9.93999958      -6.24873278E-17
  -9.93000031      -6.50515282E-17
  -9.92000008      -6.76688203E-17
  -9.90999985      -7.03385424E-17
  -9.89999962      -7.30596026E-17
  -9.89000034      -7.58310812E-17
  -9.88000011      -7.86518399E-17
  -9.86999989      -8.15206743E-17
  -9.85999966      -8.44357448E-17
  -9.85000038      -8.73960654E-17
  -9.84000015      -9.03999023E-17
  -9.82999992      -9.34452174E-17
  -9.81999969      -9.65301312E-17
  -9.81000042      -9.96524932E-17
  -9.80000019      -1.02809974E-16
  -9.78999996      -1.05999708E-16
  -9.77999973      -1.09219538E-16
  -9.77000046      -1.12466719E-16
  -9.76000023      -1.15737920E-16
  -9.75000000      -1.19030139E-16
  -9.73999977      -1.22340013E-16
  -9.72999954      -1.25663743E-16
  -9.72000027      -1.28997864E-16
  -9.71000004      -1.32338337E-16
  -9.69999981      -1.35680874E-16
  -9.68999958      -1.39020765E-16
  -9.68000031      -1.42354276E-16
  -9.67000008      -1.45676366E-16
  -9.65999985      -1.48981290E-16
  -9.64999962      -1.52264747E-16
  -9.64000034      -1.55520834E-16
  -9.63000011      -1.58743834E-16
  -9.61999989      -1.61927487E-16
  -9.60999966      -1.65067160E-16
  -9.60000038      -1.68154873E-16
  -9.59000015      -1.71184406E-16
  -9.57999992      -1.74148558E-16
  -9.56999969      -1.77040778E-16
  -9.56000042      -1.79852729E-16
  -9.55000019      -1.82577581E-16
  -9.53999996      -1.85207777E-16
  -9.52999973      -1.87734318E-16
  -9.52000046      -1.90149394E-16
  -9.51000023      -1.92444125E-16
  -9.50000000      -1.94609592E-16
  -9.48999977      -1.96636263E-16
  -9.47999954      -1.98515274E-16
  -9.47000027      -2.00237159E-16
  -9.46000004      -2.01792338E-16
  -9.44999981      -2.03168621E-16
  -9.43999958      -2.04357167E-16
  -9.43000031      -2.05347839E-16
  -9.42000008      -2.06128247E-16
  -9.40999985      -2.06688480E-16
  -9.39999962      -2.07016904E-16
  -9.39000034      -2.07100892E-16
  -9.38000011      -2.06928865E-16
  -9.36999989      -2.06490407E-16
  -9.35999966      -2.05772043E-16
  -9.35000038      -2.04762115E-16
  -9.34000015      -2.03446832E-16
  -9.32999992      -2.01813924E-16
  -9.31999969      -1.99850648E-16
  -9.31000042      -1.97543568E-16
  -9.30000019      -1.94879610E-16
  -9.28999996      -1.91843764E-16
  -9.27999973      -1.88423392E-16
  -9.27000046      -1.84605444E-16
  -9.26000023      -1.80374859E-16
  -9.25000000      -1.75718083E-16
  -9.23999977      -1.70621261E-16
  -9.22999954      -1.65069278E-16
  -9.22000027      -1.59046437E-16
  -9.21000004      -1.52540284E-16
  -9.19999981      -1.45534633E-16
  -9.18999958      -1.38018540E-16
  -9.18000031      -1.29974453E-16
  -9.17000008      -1.21388795E-16
  -9.15999985      -1.12246662E-16
  -9.14999962      -1.02535218E-16
  -9.14000034      -9.22385329E-17
  -9.13000011      -8.13427709E-17
  -9.11999989      -6.98337438E-17
  -9.10999966      -5.76988785E-17
  -9.10000038      -4.49214990E-17
  -9.09000015      -3.14879072E-17
  -9.07999992      -1.73861023E-17
  -9.06999969      -2.60439036E-18
  -9.06000042       1.28725516E-17
  -9.05000019       2.90589244E-17
  -9.03999996       4.59638988E-17
  -9.02999973       6.36008982E-17
  -9.02000046       8.19831874E-17
  -9.01000023       1.01122023E-16
  -9.00000000       1.21028911E-16
  -8.98999977       1.41711974E-16
  -8.97999954       1.63182988E-16
  -8.97000027       1.85452980E-16
  -8.96000004       2.08528765E-16
  -8.94999981       2.32420785E-16
  -8.93999958       2.57135089E-16
  -8.93000031       2.82680597E-16
  -8.92000008       3.09064085E-16
  -8.90999985       3.36292409E-16
  -8.89999962       3.64368613E-16
  -8.89000034       3.93297700E-16
  -8.88000011       4.23085069E-16
  -8.86999989       4.53732892E-16
  -8.85999966       4.85243100E-16
  -8.85000038       5.17617440E-16
  -8.84000015       5.50854695E-16
  -8.82999992       5.84954865E-16
  -8.81999969       6.19916521E-16
  -8.81000042       6.55736697E-16
  -8.80000019       6.92411794E-16
  -8.78999996       7.29935619E-16
  -8.77999973       7.68303088E-16
  -8.77000046       8.07505996E-16
  -8.76000023       8.47536561E-16
  -8.75000000       8.88383825E-16
  -8.73999977       9.30037094E-16
  -8.72999954       9.72483080E-16
  -8.72000027       1.01570865E-15
  -8.71000004       1.05969814E-15
  -8.69999981       1.10443355E-15
  -8.68999958       1.14989688E-15
  -8.68000031       1.19606865E-15
  -8.67000008       1.24292609E-15
  -8.65999985       1.29044675E-15
  -8.64999962       1.33860449E-15
  -8.64000034       1.38737422E-15
  -8.63000011       1.43672754E-15
  -8.61999989       1.48663271E-15
  -8.60999966       1.53705881E-15
  -8.60000038       1.58797322E-15
  -8.59000015       1.63933857E-15
  -8.57999992       1.69111822E-15
  -8.56999969       1.74327279E-15
  -8.56000042       1.79575813E-15
  -8.55000019       1.84853421E-15
  -8.53999996       1.90155318E-15
  -8.52999973       1.95477078E-15
  -8.52000046       2.00813512E-15
  -8.51000023       2.06159561E-15
  -8.50000000       2.11509336E-15
  -8.48999977       2.16858137E-15
  -8.47999954       2.22199443E-15
  -8.47000027       2.27527555E-15
  -8.46000004       2.32836546E-15
  -8.44999981       2.38119448E-15
  -8.43999958       2.43369866E-15
  -8.43000031       2.48581025E-15
  -8.42000008       2.53745618E-15
  -8.40999985       2.58855725E-15
  -8.39999962       2.63904147E-15
  -8.39000034       2.68882689E-15
  -8.38000011       2.73785104E-15
  -8.36999989       2.78601651E-15
  -8.35999966       2.83324008E-15
  -8.35000038       2.87943980E-15
  -8.34000015       2.92452016E-15
  -8.32999992       2.96839647E-15
  -8.31999969       3.01096983E-15
  -8.31000042       3.05214368E-15
  -8.30000019       3.09183246E-15
  -8.28999996       3.12993137E-15
  -8.27999973       3.16633473E-15
  -8.27000046       3.20093179E-15
  -8.26000023       3.23362176E-15
  -8.25000000       3.26430680E-15
  -8.23999977       3.29287065E-15
  -8.22999954       3.31920385E-15
  -8.22000027       3.34318144E-15
  -8.21000004       3.36470773E-15
  -8.19999981       3.38364887E-15
  -8.18999958       3.39990131E-15
  -8.18000031       3.41334203E-15
  -8.17000008       3.42384503E-15
  -8.15999985       3.43128558E-15
  -8.14999962       3.43554488E-15
  -8.14000034       3.43648403E-15
  -8.13000011       3.43399418E-15
  -8.11999989       3.42794488E-15
  -8.10999966       3.41819447E-15
  -8.10000038       3.40463241E-15
  -8.09000015       3.38709439E-15
  -8.07999992       3.36548128E-15
  -8.06999969       3.33964911E-15
  -8.06000042       3.30946000E-15
  -8.05000019       3.27478565E-15
  -8.03999996       3.23548502E-15
  -8.02999973       3.19144481E-15
  -8.02000046       3.14251362E-15
  -8.01000023       3.08856525E-15
  -8.00000000       3.02947792E-15
  -7.98999977       2.96510151E-15
  -7.98000002       2.89530346E-15
  -7.96999979       2.81996242E-15
  -7.96000004       2.73893673E-15
  -7.94999981       2.65209785E-15
  -7.94000006       2.55930709E-15
  -7.92999983       2.46044796E-15
  -7.92000008       2.35538877E-15
  -7.90999985       2.24402152E-15
  -7.90000010       2.12622697E-15
  -7.88999987       2.00187216E-15
  -7.88000011       1.87082261E-15
  -7.86999989       1.73297319E-15
  -7.86000013       1.58822786E-15
  -7.84999990       1.43645988E-15
  -7.84000015       1.27755756E-15
  -7.82999992       1.11142433E-15
  -7.82000017       9.37956746E-16
  -7.80999994       7.57055072E-16
  -7.80000019       5.68638576E-16
  -7.78999996       3.72613923E-16
  -7.78000021       1.68877842E-16
  -7.76999998      -4.26546635E-17
  -7.76000023      -2.62020907E-16
  -7.75000000      -4.89337022E-16
  -7.73999977      -7.24636528E-16
  -7.73000002      -9.67986817E-16
  -7.71999979      -1.21946762E-15
  -7.71000004      -1.47910196E-15
  -7.69999981      -1.74694447E-15
  -7.69000006      -2.02304057E-15
  -7.67999983      -2.30742278E-15
  -7.67000008      -2.60011756E-15
  -7.65999985      -2.90113718E-15
  -7.65000010      -3.21045773E-15
  -7.63999987      -3.52812156E-15
  -7.63000011      -3.85409605E-15
  -7.61999989      -4.18838946E-15
  -7.61000013      -4.53097744E-15
  -7.59999990      -4.88181637E-15
  -7.59000015      -5.24089185E-15
  -7.57999992      -5.60813653E-15
  -7.57000017      -5.98349791E-15
  -7.55999994      -6.36690738E-15
  -7.55000019      -6.75827260E-15
  -7.53999996      -7.15755207E-15
  -7.53000021      -7.56460477E-15
  -7.51999998      -7.97936122E-15
  -7.51000023      -8.40167745E-15
  -7.50000000      -8.83142385E-15
  -7.48999977      -9.26847930E-15
  -7.48000002      -9.71269303E-15
  -7.46999979      -1.01638846E-14
  -7.46000004      -1.06218889E-14
  -7.44999981      -1.10865263E-14
  -7.44000006      -1.15575892E-14