  -16.0000000       0.00000000    
  -15.9899998       0.00000000    
  -15.9799995       0.00000000    
  -15.9700003       0.00000000    
  -15.9600000       0.00000000    
  -15.9499998       0.00000000    
  -15.9399996       0.00000000    
  -15.9300003       0.00000000    
  -15.9200001       0.00000000    
  -15.9099998       0.00000000    
  -15.8999996       0.00000000    
  -15.8900003       0.00000000    
  -15.8800001       0.00000000    
  -15.8699999       0.00000000    
  -15.8599997       0.00000000    
  -15.8500004       0.00000000    
  -15.8400002       0.00000000    
  -15.8299999       0.00000000    
  -15.8199997       0.00000000    
  -15.8100004       0.00000000    
  -15.8000002       0.00000000    
  -15.7900000       0.00000000    
  -15.7799997       0.00000000    
  -15.7700005       0.00000000    
  -15.7600002       0.00000000    
  -15.7500000       0.00000000    
  -15.7399998       0.00000000    
  -15.7299995       0.00000000    
  -15.7200003       0.00000000    
  -15.7100000       0.00000000    
  -15.6999998       0.00000000    
  -15.6899996       0.00000000    
  -15.6800003       0.00000000    
  -15.6700001       0.00000000    
  -15.6599998       0.00000000    
  -15.6499996       0.00000000    
  -15.6400003      -0.00000000    
  -15.6300001       0.00000000    
  -15.6199999      -0.00000000    
  -15.6099997       0.00000000    
  -15.6000004       0.00000000    
  -15.5900002       0.00000000    
  -15.5799999       0.00000000    
  -15.5699997      -1.40129846E-45
  -15.5600004      -0.00000000    
  -15.5500002      -1.40129846E-45
  -15.5400000      -1.40129846E-45
  -15.5299997      -0.00000000    
  -15.5200005       1.40129846E-45
  -15.5100002       1.40129846E-45
  -15.5000000       2.80259693E-45
  -15.4899998       4.20389539E-45
  -15.4799995       4.20389539E-45
  -15.4700003       2.80259693E-45
  -15.4600000       2.80259693E-45
  -15.4499998       1.12103877E-44
  -15.4399996       2.24207754E-44
  -15.4300003       2.52233724E-44
  -15.4200001       1.96181785E-44
  -15.4099998       1.40129846E-44
  -15.3999996       1.26116862E-44
  -15.3900003       1.12103877E-44
  -15.3800001       7.00649232E-45
  -15.3699999       7.00649232E-45
  -15.3599997       8.40779079E-45
  -15.3500004       5.60519386E-45
  -15.3400002       1.40129846E-45
  -15.3299999       1.40129846E-45
  -15.3199997       4.20389539E-45
  -15.3100004       9.80908925E-45
  -15.3000002       1.54142831E-44
  -15.2900000       2.52233724E-44
  -15.2799997       3.92363570E-44
  -15.2700005       5.18480432E-44
  -15.2600002       6.58610278E-44
  -15.2500000       8.40779079E-44
  -15.2399998       1.03696086E-43
  -15.2299995       1.16307773E-43
  -15.2200003       1.12103877E-43
  -15.2100000       9.10844002E-44
  -15.1999998       6.86636248E-44
  -15.1899996       6.02558340E-44
  -15.1800003       8.40779079E-44
  -15.1700001       1.56945428E-43
  -15.1599998       2.85864887E-43
  -15.1499996       4.47014210E-43
  -15.1400003       6.12367429E-43
  -15.1300001       7.51095977E-43
  -15.1199999       8.36575183E-43
  -15.1099997       8.95429719E-43
  -15.1000004       1.04256606E-42
  -15.0900002       1.50219195E-42
  -15.0799999       2.48169958E-42
  -15.0699997       4.02593049E-42
  -15.0600004       5.85042109E-42
  -15.0500002       7.12420139E-42
  -15.0400000       6.40533528E-42
  -15.0299997       1.94360097E-42
  -15.0200005      -7.66790520E-42
  -15.0100002      -2.24193741E-41
  -15.0000000      -3.95642608E-41
  -14.9899998      -5.27056378E-41
  -14.9799995      -5.18424380E-41
  -14.9700003      -2.52219711E-41
  -14.9600000       3.65556730E-41
  -14.9499998       1.34549876E-40
  -14.9399996       2.54791093E-40
  -14.9300003       3.63498223E-40
  -14.9200001       4.07532626E-40
  -14.9099998       3.23310384E-40
  -14.8999996       5.59398347E-41
  -14.8900003      -4.12808515E-40
  -14.8800001      -1.03367061E-39
  -14.8699999      -1.66677586E-39
  -14.8599997      -2.07997954E-39
  -14.8500004      -1.98193209E-39
  -14.8400002      -1.09697007E-39
  -14.8299999       7.22876628E-40
  -14.8199997       3.37039326E-39
  -14.8100004       6.37909877E-39
  -14.8000002       8.89313331E-39
  -14.7900000       9.76101070E-39
  -14.7799997       7.78369449E-39
  -14.7700005       2.10727263E-39
  -14.7600002      -7.30495628E-39
  -14.7500000      -1.92457484E-38
  -14.7399998      -3.10508122E-38
  -14.7299995      -3.87730961E-38
  -14.7200003      -3.78673304E-38
  -14.7100000      -2.43923323E-38
  -14.6999998       3.42978309E-39
  -14.6899996       4.36458537E-38
  -14.6800003       8.94965609E-38
  -14.6700001       1.29390306E-37
  -14.6599998       1.48380568E-37
  -14.6499996       1.31315690E-37
  -14.6400003       6.73756465E-38
  -14.6300001      -4.48302031E-38
  -14.6199999      -1.92927409E-37
  -14.6099997      -3.48806707E-37
  -14.6000004      -4.70525846E-37
  -14.5900002      -5.09003170E-37
  -14.5799999      -4.19352444E-37
  -14.5699997      -1.75306911E-37
  -14.5600004       2.16276338E-37
  -14.5500002       7.04915547E-37
  -14.5400000       1.19438206E-36
  -14.5299997       1.55247763E-36
  -14.5200005       1.63410288E-36
  -14.5100002       1.31582598E-36
  -14.5000000       5.36409384E-37
  -14.4899998      -6.65615022E-37
  -14.4799995      -2.12828135E-36
  -14.4700003      -3.56711201E-36
  -14.4600000      -4.60810861E-36
  -14.4499998      -4.85416640E-36
  -14.4399996      -3.97805254E-36
  -14.4300003      -1.82621485E-36
  -14.4200001       1.48952063E-36
  -14.4099998       5.53882693E-36
  -14.3999996       9.58245144E-36
  -14.3900003       1.26596968E-35
  -14.3800001       1.37539311E-35
  -14.3699999       1.20173003E-35
  -14.3599997       7.01663082E-36
  -14.3500004      -1.05229972E-36
  -14.3400002      -1.12404818E-35
  -14.3299999      -2.18629322E-35
  -14.3199997      -3.06881741E-35
  -14.3100004      -3.52981295E-35
  -14.3000002      -3.35769716E-35
  -14.2900000      -2.42489389E-35
  -14.2799997      -7.35644655E-36
  -14.2700005       1.54396376E-35
  -14.2600002       4.08412598E-35
  -14.2500000       6.42386541E-35
  -14.2399998       8.03802693E-35
  -14.2299995       8.43132908E-35
  -14.2200003       7.24497059E-35
  -14.2100000       4.35602448E-35
  -14.1999998      -5.19812226E-37
  -14.1899996      -5.46662729E-35
  -14.1800003      -1.10847900E-34
  -14.1700001      -1.59136233E-34
  -14.1599998      -1.89242767E-34
  -14.1499996      -1.92364932E-34
  -14.1400003      -1.63032732E-34
  -14.1300001      -1.00610343E-34
  -14.1199999      -1.01317970E-35
  -14.1099997       9.77604124E-35
  -14.1000004       2.07862551E-34
  -14.0900002       3.02360290E-34
  -14.0799999       3.63432593E-34
  -14.0699997       3.76126739E-34
  -14.0600004       3.31048620E-34
  -14.0500002       2.26423883E-34
  -14.0400000       6.91642853E-35
  -14.0299997      -1.25272146E-34
  -14.0200005      -3.34259625E-34
  -14.0100002      -5.30464371E-34
  -14.0000000      -6.85071679E-34
  -13.9899998      -7.71368852E-34
  -13.9799995      -7.68233772E-34
  -13.9700003      -6.63116843E-34
  -13.9600000      -4.54184201E-34
  -13.9499998      -1.51403592E-34
  -13.9399996       2.23533865E-34
  -13.9300003       6.38463144E-34
  -13.9200001       1.05310032E-33
  -13.9099998       1.42238563E-33
  -13.8999996       1.70065637E-33
  -13.8900003       1.84643971E-33
  -13.8800001       1.82758092E-33
  -13.8699999       1.62632821E-33
  -13.8599997       1.24386827E-33
  -13.8500004       7.03716351E-34
  -13.8400002       5.33040598E-35
  -13.8299999      -6.36857263E-34
  -13.8199997      -1.27689800E-33
  -13.8100004      -1.76435751E-33
  -13.8000002      -1.99377452E-33
  -13.7900000      -1.86838160E-33
  -13.7799997      -1.31273635E-33
  -13.7700005      -2.84763782E-34
  -13.7600002       1.21452205E-33
  -13.7500000       3.13522784E-33
  -13.7399998       5.37805820E-33
  -13.7299995       7.79979220E-33
  -13.7200003       1.02247217E-32
  -13.7100000       1.24612496E-32
  -13.6999998       1.43220806E-32
  -13.6899996       1.56459047E-32
  -13.6800003       1.63182023E-32
  -13.6700001       1.62888561E-32
  -13.6599998       1.55845880E-32
  -13.6499996       1.43148249E-32
  -13.6400003       1.26702730E-32
  -13.6300001       1.09141778E-32
  -13.6199999       9.36686429E-33
  -13.6099997       8.38447941E-33
  -13.6000004       8.33332484E-33
  -13.5900002       9.56112428E-33
  -13.5799999       1.23667986E-32
  -13.5699997       1.69705267E-32
  -13.5600004       2.34859451E-32
  -13.5500002       3.18970833E-32
  -13.5400000       4.20423930E-32
  -13.5299997       5.36094073E-32
  -13.5200005       6.61427514E-32
  -13.5100002       7.90684109E-32
  -13.5000000       9.17359200E-32
  -13.4899998       1.03478650E-31
  -13.4799995       1.13690463E-31
  -13.4700003       1.21914198E-31
  -13.4600000       1.27935915E-31
  -13.4499998       1.31876160E-31
  -13.4399996       1.34269244E-31
  -13.4300003       1.36121470E-31
  -13.4200001       1.38940705E-31
  -13.4099998       1.44733001E-31
  -13.3999996       1.55965825E-31
  -13.3900003       1.75501483E-31
  -13.3800001       2.06511811E-31
  -13.3699999       2.52384703E-31
  -13.3599997       3.16644112E-31
  -13.3500004       4.02898620E-31
  -13.3400002       5.14843909E-31
  -13.3299999       6.56335390E-31
  -13.3199997       8.31561161E-31
  -13.3100004       1.04531945E-30
  -13.3000002       1.30344400E-30
  -13.2900000       1.61337013E-30
  -13.2799997       1.98490741E-30
  -13.2700005       2.43120312E-30
  -13.2600002       2.96996378E-30
  -13.2500000       3.62498497E-30
  -13.2399998       4.42800033E-30
  -13.2299995       5.42092028E-30
  -13.2200003       6.65851308E-30
  -13.2100000       8.21159127E-30
  -13.1999998       1.01706374E-29
  -13.1899996       1.26498524E-29
  -13.1800003       1.57916897E-29
  -13.1700001       1.97714704E-29
  -13.1599998       2.48019979E-29
  -13.1499996       3.11377372E-29
  -13.1400003       3.90779040E-29
  -13.1300001       4.89676686E-29
  -13.1199999       6.11963217E-29
  -13.1099997       7.61912812E-29
  -13.1000004       9.44057636E-29
  -13.0900002       1.16297870E-28
  -13.0799999       1.42298297E-28
  -13.0699997       1.72764535E-28
  -13.0600004       2.07914080E-28
  -13.0500002       2.47736413E-28
  -13.0400000       2.91873792E-28
  -13.0299997       3.39468673E-28
  -13.0200005       3.88964375E-28
  -13.0100002       4.37859740E-28
  -13.0000000       4.82396532E-28
  -12.9899998       5.17180561E-28
  -12.9799995       5.34718560E-28
  -12.9700003       5.24859003E-28
  -12.9600000       4.74122689E-28
  -12.9499998       3.64920174E-28
  -12.9399996       1.74613825E-28
  -12.9300003      -1.25560305E-28
  -12.9200001      -5.71743071E-28
  -12.9099998      -1.20891393E-27
  -12.8999996      -2.09248552E-27
  -12.8900003      -3.29026180E-27
  -12.8800001      -4.88446880E-27
  -12.8699999      -6.97418060E-27
  -12.8599997      -9.67792816E-27
  -12.8500004      -1.31366387E-26
  -12.8400002      -1.75169507E-26
  -12.8299999      -2.30146456E-26
  -12.8199997      -2.98585948E-26
  -12.8100004      -3.83151098E-26
  -12.8000002      -4.86921528E-26
  -12.7900000      -6.13446158E-26
  -12.7799997      -7.66794309E-26
  -12.7700005      -9.51609011E-26
  -12.7600002      -1.17317114E-25
  -12.7500000      -1.43745815E-25
  -12.7399998      -1.75120674E-25
  -12.7299995      -2.12198727E-25
  -12.7200003      -2.55826285E-25
  -12.7100000      -3.06947430E-25
  -12.6999998      -3.66610089E-25
  -12.6899996      -4.35974037E-25
  -12.6800003      -5.16319077E-25
  -12.6700001      -6.09049972E-25
  -12.6599998      -7.15706234E-25
  -12.6499996      -8.37967398E-25
  -12.6400003      -9.77662141E-25
  -12.6300001      -1.13677065E-24
  -12.6199999      -1.31743400E-24
  -12.6099997      -1.52195911E-24
  -12.6000004      -1.75282073E-24
  -12.5900002      -2.01266579E-24
  -12.5799999      -2.30431930E-24
  -12.5699997      -2.63078071E-24
  -12.5600004      -2.99522676E-24
  -12.5500002      -3.40101089E-24
  -12.5400000      -3.85165597E-24
  -12.5299997      -4.35085780E-24
  -12.5200005      -4.90246721E-24
  -12.5100002      -5.51049280E-24
  -12.5000000      -6.17908121E-24
  -12.4899998      -6.91250964E-24
  -12.4799995      -7.71517009E-24
  -12.4700003      -8.59153934E-24
  -12.4600000      -9.54618331E-24
  -12.4499998      -1.05837003E-23
  -12.4399996      -1.17087090E-23
  -12.4300003      -1.29258464E-23
  -12.4200001      -1.42396572E-23
  -12.4099998      -1.56546670E-23
  -12.3999996      -1.71752185E-23
  -12.3900003      -1.88055478E-23
  -12.3800001      -2.05496373E-23
  -12.3699999      -2.24112307E-23
  -12.3599997      -2.43937596E-23
  -12.3500004      -2.65002770E-23
  -12.3400002      -2.87333876E-23
  -12.3299999      -3.10952213E-23
  -12.3199997      -3.35873497E-23
  -12.3100004      -3.62107003E-23
  -12.3000002      -3.89654941E-23
  -12.2900000      -4.18511820E-23
  -12.2799997      -4.48663725E-23
  -12.2700005      -4.80087652E-23
  -12.2600002      -5.12750217E-23
  -12.2500000      -5.46607149E-23
  -12.2399998      -5.81602470E-23
  -12.2299995      -6.17668370E-23
  -12.2200003      -6.54722997E-23
  -12.2100000      -6.92670804E-23
  -12.1999998      -7.31401728E-23
  -12.1899996      -7.70789995E-23
  -12.1800003      -8.10693357E-23
  -12.1700001      -8.50952904E-23
  -12.1599998      -8.91392565E-23
  -12.1499996      -9.31817584E-23
  -12.1400003      -9.72014149E-23
  -12.1300001      -1.01175097E-22
  -12.1199999      -1.05077598E-22
  -12.1099997      -1.08881763E-22
  -12.1000004      -1.12558574E-22
  -12.0900002      -1.16076818E-22
  -12.0799999      -1.19403362E-22
  -12.0699997      -1.22502955E-22
  -12.0600004      -1.25338663E-22
  -12.0500002      -1.27871336E-22
  -12.0400000      -1.30059977E-22
  -12.0299997      -1.31861824E-22
  -12.0200005      -1.33232447E-22
  -12.0100002      -1.34125716E-22
  -12.0000000      -1.34493855E-22
  -11.9899998      -1.34287678E-22
  -11.9799995      -1.33456711E-22
  -11.9700003      -1.31949532E-22
  -11.9600000      -1.29713371E-22
  -11.9499998      -1.26695037E-22
  -11.9399996      -1.22840650E-22
  -11.9300003      -1.18095873E-22
  -11.9200001      -1.12406557E-22
  -11.9099998      -1.05718077E-22
  -11.8999996      -9.79769914E-23
  -11.8900003      -8.91300868E-23
  -11.8800001      -7.91253173E-23
  -11.8699999      -6.79116217E-23
  -11.8599997      -5.54400274E-23
  -11.8500004      -4.16627200E-23
  -11.8400002      -2.65348732E-23
  -11.8299999      -1.00137696E-23
  -11.8199997       7.94024946E-24
  -11.8100004       2.73634170E-23
  -11.8000002       4.82887098E-23
  -11.7900000       7.07449450E-23
  -11.7799997       9.47568044E-23
  -11.7700005       1.20344492E-22
  -11.7600002       1.47523527E-22
  -11.7500000       1.76304076E-22
  -11.7399998       2.06691074E-22
  -11.7299995       2.38683991E-22
  -11.7200003       2.72276541E-22
  -11.7100000       3.07456455E-22
  -11.6999998       3.44205888E-22
  -11.6899996       3.82500301E-22
  -11.6800003       4.22309882E-22
  -11.6700001       4.63598383E-22
  -11.6599998       5.06323746E-22
  -11.6499996       5.50438564E-22
  -11.6400003       5.95889877E-22
  -11.6300001       6.42619876E-22
  -11.6199999       6.90566211E-22
  -11.6099997       7.39662692E-22
  -11.6000004       7.89840002E-22
  -11.5900002       8.41025891E-22
  -11.5799999       8.93147156E-22
  -11.5699997       9.46129932E-22
  -11.5600004       9.99900711E-22
  -11.5500002       1.05438831E-21
  -11.5400000       1.10952607E-21
  -11.5299997       1.16525101E-21
  -11.5200005       1.22150807E-21
  -11.5100002       1.27825092E-21
  -11.5000000       1.33544463E-21
  -11.4899998       1.39306919E-21
  -11.4799995       1.45111915E-21
  -11.4700003       1.50960876E-21
  -11.4600000       1.56857557E-21
  -11.4499998       1.62808108E-21
  -11.4399996       1.68821707E-21
  -11.4300003       1.74910794E-21
  -11.4200001       1.81091384E-21
  -11.4099998       1.87384015E-21
  -11.3999996       1.93813103E-21
  -11.3900003       2.00408757E-21
  -11.3800001       2.07206118E-21
  -11.3699999       2.14247049E-21
  -11.3599997       2.21579775E-21
  -11.3500004       2.29259509E-21
  -11.3400002       2.37349521E-21
  -11.3299999       2.45922250E-21
  -11.3199997       2.55058355E-21
  -11.3100004       2.64849096E-21
  -11.3000002       2.75396275E-21
  -11.2900000       2.86812942E-21
  -11.2799997       2.99224731E-21
  -11.2700005       3.12770116E-21
  -11.2600002       3.27601933E-21
  -11.2500000       3.43886971E-21
  -11.2399998       3.61808881E-21
  -11.2299995       3.81567431E-21
  -11.2200003       4.03380280E-21
  -11.2100000       4.27483104E-21
  -11.1999998       4.54131890E-21
  -11.1899996       4.83602986E-21
  -11.1800003       5.16195316E-21
  -11.1700001       5.52229735E-21
  -11.1599998       5.92051494E-21
  -11.1499996       6.36030401E-21
  -11.1400003       6.84563043E-21
  -11.1300001       7.38073631E-21
  -11.1199999       7.97013804E-21
  -11.1099997       8.61865814E-21
  -11.1000004       9.33141157E-21
  -11.0900002       1.01138550E-20
  -11.0799999       1.09717624E-20
  -11.0699997       1.19112603E-20
  -11.0600004       1.29388108E-20
  -11.0500002       1.40612497E-20
  -11.0400000       1.52858034E-20
  -11.0299997       1.66200554E-20
  -11.0200005       1.80720207E-20
  -11.0100002       1.96501149E-20
  -11.0000000       2.13631559E-20
  -10.9899998       2.32204009E-20
  -10.9799995       2.52315242E-20
  -10.9700003       2.74066780E-20
  -10.9600000       2.97564364E-20
  -10.9499998       3.22918903E-20
  -10.9399996       3.50245558E-20
  -10.9300003       3.79663817E-20
  -10.9200001       4.11299178E-20
  -10.9099998       4.45280985E-20
  -10.8999996       4.81743656E-20
  -10.8900003       5.20826647E-20
  -10.8800001       5.62673908E-20
  -10.8699999       6.07435495E-20
  -10.8599997       6.55265663E-20
  -10.8500004       7.06323386E-20
  -10.8400002       7.60772744E-20
  -10.8299999       8.18783049E-20
  -10.8199997       8.80527300E-20
  -10.8100004       9.46183985E-20
  -10.8000002       1.01593651E-19
  -10.7900000       1.08997318E-19
  -10.7799997       1.16848593E-19
  -10.7700005       1.25167006E-19
  -10.7600002       1.33972537E-19
  -10.7500000       1.43285764E-19
  -10.7399998       1.53127429E-19
  -10.7299995       1.63518679E-19
  -10.7200003       1.74481097E-19
  -10.7100000       1.86036293E-19
  -10.6999998       1.98206304E-19
  -10.6899996       2.11013503E-19
  -10.6800003       2.24480326E-19
  -10.6700001       2.38629561E-19
  -10.6599998       2.53483915E-19
  -10.6499996       2.69066137E-19
  -10.6400003       2.85399180E-19
  -10.6300001       3.02506180E-19
  -10.6199999       3.20409754E-19
  -10.6099997       3.39132600E-19
  -10.6000004       3.58697541E-19
  -10.5900002       3.79126653E-19
  -10.5799999       4.00442115E-19
  -10.5699997       4.22665641E-19
  -10.5600004       4.45818504E-19
  -10.5500002       4.69921668E-19
  -10.5400000       4.94995477E-19
  -10.5299997       5.21059059E-19
  -10.5200005       5.48131181E-19
  -10.5100002       5.76229938E-19
  -10.5000000       6.05373372E-19
  -10.4899998       6.35576321E-19
  -10.4799995       6.66854967E-19
  -10.4700003       6.99221976E-19
  -10.4600000       7.32690841E-19
  -10.4499998       7.67272780E-19
  -10.4399996       8.02977515E-19
  -10.4300003       8.39812643E-19
  -10.4200001       8.77784317E-19
  -10.4099998       9.16897552E-19
  -10.3999996       9.57155192E-19
  -10.3900003       9.98556305E-19
  -10.3800001       1.04110048E-18
  -10.3699999       1.08478275E-18
  -10.3599997       1.12959774E-18
  -10.3500004       1.17553480E-18
  -10.3400002       1.22258215E-18
  -10.3299999       1.27072571E-18
  -10.3199997       1.31994679E-18
  -10.3100004       1.37022282E-18
  -10.3000002       1.42153315E-18
  -10.2900000       1.47384839E-18
  -10.2799997       1.52713526E-18
  -10.2700005       1.58135840E-18
  -10.2600002       1.63647923E-18
  -10.2500000       1.69245620E-18
  -10.2399998       1.74924029E-18
  -10.2299995       1.80677959E-18
  -10.2200003       1.86501952E-18
  -10.2100000       1.92389451E-18
  -10.1999998       1.98334109E-18
  -10.1899996       2.04328749E-18
  -10.1800003       2.10365616E-18
  -10.1700001       2.16436936E-18
  -10.1599998       2.22533691E-18
  -10.1499996       2.28646618E-18
  -10.1400003       2.34766017E-18
  -10.1300001       2.40881260E-18
  -10.1199999       2.46981242E-18
  -10.1099997       2.53054154E-18
  -10.1000004       2.59087961E-18
  -10.0900002       2.65069841E-18
  -10.0799999       2.70985713E-18
  -10.0699997       2.76821741E-18
  -10.0600004       2.82562312E-18
  -10.0500002       2.88192434E-18
  -10.0400000       2.93695398E-18
  -10.0299997       2.99054060E-18
  -10.0200005       3.04250512E-18
  -10.0100002       3.09265998E-18
  -10.0000000       3.14081430E-18
  -9.98999977       3.18676625E-18
  -9.97999954       3.23031007E-18
  -9.97000027       3.27122263E-18
  -9.96000004       3.30928162E-18
  -9.94999981       3.34425647E-18
  -9.93999958       3.37591102E-18
  -9.93000031       3.40399194E-18
  -9.92000008       3.42824633E-18
  -9.90999985       3.44841154E-18
  -9.89999962       3.46421503E-18
  -9.89000034       3.47537949E-18
  -9.88000011       3.48161602E-18
  -9.86999989       3.48262808E-18
  -9.85999966       3.47812573E-18
  -9.85000038       3.46778763E-18
  -9.84000015       3.45130150E-18
  -9.82999992       3.42834393E-18
  -9.81999969       3.39857598E-18
  -9.81000042       3.36166904E-18
  -9.80000019       3.31727033E-18
  -9.78999996       3.26503201E-18
  -9.77999973       3.20459737E-18
  -9.77000046       3.13559603E-18
  -9.76000023       3.05766714E-18
  -9.75000000       2.97042750E-18
  -9.73999977       2.87349289E-18
  -9.72999954       2.76648364E-18
  -9.72000027       2.64900311E-18
  -9.71000004       2.52065218E-18
  -9.69999981       2.38103278E-18
  -9.68999958       2.22974144E-18
  -9.68000031       2.06637079E-18
  -9.67000008       1.89051922E-18
  -9.65999985       1.70176322E-18
  -9.64999962       1.49969231E-18
  -9.64000034       1.28388709E-18
  -9.63000011       1.05393574E-18
  -9.61999989       8.09421355E-19
  -9.60999966       5.49926008E-19
  -9.60000038       2.75030161E-19
  -9.59000015      -1.56765589E-20
  -9.57999992      -3.22612407E-19
  -9.56999969      -6.46179691E-19
  -9.56000042      -9.86789248E-19
  -9.55000019      -1.34483893E-18
  -9.53999996      -1.72073141E-18
  -9.52999973      -2.11485122E-18
  -9.52000046      -2.52758933E-18
  -9.51000023      -2.95931805E-18
  -9.50000000      -3.41040507E-18
  -9.48999977      -3.88121002E-18
  -9.47999954      -4.37208298E-18
  -9.47000027      -4.88336497E-18
  -9.46000004      -5.41538273E-18
  -9.44999981      -5.96845140E-18
  -9.43999958      -6.54286630E-18
  -9.43000031      -7.13891114E-18
  -9.42000008      -7.75685890E-18
  -9.40999985      -8.39696186E-18
  -9.39999962      -9.05945247E-18
  -9.39000034      -9.74454413E-18
  -9.38000011      -1.04524354E-17
  -9.36999989      -1.11832941E-17
  -9.35999966      -1.19372750E-17
  -9.35000038      -1.27145047E-17
  -9.34000015      -1.35150848E-17
  -9.32999992      -1.43390800E-17
  -9.31999969      -1.51865530E-17
  -9.31000042      -1.60575129E-17
  -9.30000019      -1.69519599E-17
  -9.28999996      -1.78698425E-17
  -9.27999973      -1.88110897E-17
  -9.27000046      -1.97755938E-17
  -9.26000023      -2.07632094E-17
  -9.25000000      -2.17737661E-17
  -9.23999977      -2.28070338E-17
  -9.22999954      -2.38627793E-17
  -9.22000027      -2.49406767E-17
  -9.21000004      -2.60404216E-17
  -9.19999981      -2.71616186E-17
  -9.18999958      -2.83038342E-17
  -9.18000031      -2.94666186E-17
  -9.17000008      -3.06494207E-17
  -9.15999985      -3.18517343E-17
  -9.14999962      -3.30729044E-17
  -9.14000034      -3.43122691E-17
  -9.13000011      -3.55691336E-17
  -9.11999989      -3.68427204E-17
  -9.10999966      -3.81321957E-17
  -9.10000038      -3.94367291E-17
  -9.09000015      -4.07553013E-17
  -9.07999992      -4.20870124E-17
  -9.06999969      -4.34307740E-17
  -9.06000042      -4.47854940E-17
  -9.05000019      -4.61499416E-17
  -9.03999996      -4.75229489E-17
  -9.02999973      -4.89032288E-17
  -9.02000046      -5.02893817E-17
  -9.01000023      -5.16799782E-17
  -9.00000000      -5.30735360E-17
  -8.98999977      -5.44685463E-17
  -8.97999954      -5.58633449E-17
  -8.97000027      -5.72563038E-17
  -8.96000004      -5.86456165E-17
  -8.94999981      -6.00293904E-17
  -8.93999958      -6.14058322E-17
  -8.93000031      -6.27729037E-17
  -8.92000008      -6.41286394E-17
  -8.90999985      -6.54709153E-17
  -8.89999962      -6.67975278E-17
  -8.89000034      -6.81062466E-17
  -8.88000011      -6.93947293E-17
  -8.86999989      -7.06605936E-17
  -8.85999966      -7.19014373E-17
  -8.85000038      -7.31146862E-17
  -8.84000015      -7.42977266E-17
  -8.82999992      -7.54478319E-17
  -8.81999969      -7.65623023E-17
  -8.81000042      -7.76383716E-17
  -8.80000019      -7.86731216E-17
  -8.78999996      -7.96636406E-17
  -8.77999973      -8.06067390E-17
  -8.77000046      -8.14995051E-17
  -8.76000023      -8.23387361E-17
  -8.75000000      -8.31211894E-17
  -8.73999977      -8.38436688E-17
  -8.72999954      -8.45027597E-17
  -8.72000027      -8.50950739E-17
  -8.71000004      -8.56171440E-17
  -8.69999981      -8.60654163E-17
  -8.68999958      -8.64364432E-17
  -8.68000031      -8.67264197E-17
  -8.67000008      -8.69318384E-17
  -8.65999985      -8.70487554E-17
  -8.64999962      -8.70736503E-17
  -8.64000034      -8.70025260E-17
  -8.63000011      -8.68314518E-17
  -8.61999989      -8.65566028E-17
  -8.60999966      -8.61742799E-17
  -8.60000038      -8.56801950E-17
  -8.59000015      -8.50705232E-17
  -8.57999992      -8.43410492E-17
  -8.56999969      -8.34878024E-17
  -8.56000042      -8.25068456E-17
  -8.55000019      -8.13938377E-17
  -8.53999996      -8.01449340E-17
  -8.52999973      -7.87559919E-17
  -8.52000046      -7.72228027E-17
  -8.51000023      -7.55411445E-17
  -8.50000000      -7.37069211E-17
  -8.48999977      -7.17162812E-17
  -8.47999954      -6.95649962E-17
  -8.47000027      -6.72489831E-17
  -8.46000004      -6.47643046E-17
  -8.44999981      -6.21067056E-17
  -8.43999958      -5.92723150E-17
  -8.43000031      -5.62574799E-17
  -8.42000008      -5.30576508E-17
  -8.40999985      -4.96694661E-17
  -8.39999962      -4.60888064E-17
  -8.39000034      -4.23122471E-17
  -8.38000011      -3.83360131E-17
  -8.36999989      -3.41564547E-17
  -8.35999966      -2.97702964E-17
  -8.35000038      -2.51738275E-17
  -8.34000015      -2.03637573E-17
  -8.32999992      -1.53369410E-17
  -8.31999969      -1.00900641E-17
  -8.31000042      -4.62043031E-18
  -8.30000019       1.07490094E-18
  -8.28999996       6.99888021E-18
  -8.27999973       1.31541338E-17
  -8.27000046       1.95430039E-17
  -8.26000023       2.61679331E-17
  -8.25000000       3.30311847E-17
  -8.23999977       4.01345750E-17
  -8.22999954       4.74800811E-17
  -8.22000027       5.50691622E-17
  -8.21000004       6.29035585E-17
  -8.19999981       7.09845572E-17
  -8.18999958       7.93130616E-17
  -8.18000031       8.78900246E-17
  -8.17000008       9.67161476E-17
  -8.15999985       1.05791762E-16
  -8.14999962       1.15116979E-16
  -8.14000034       1.24691972E-16
  -8.13000011       1.34516297E-16
  -8.11999989       1.44589398E-16
  -8.10999966       1.54910468E-16
  -8.10000038       1.65478421E-16
  -8.09000015       1.76291882E-16
  -8.07999992       1.87349130E-16
  -8.06999969       1.98648258E-16
  -8.06000042       2.10186872E-16
  -8.05000019       2.21962575E-16
  -8.03999996       2.33972364E-16
  -8.02999973       2.46213022E-16
  -8.02000046       2.58680897E-16
  -8.01000023       2.71372072E-16
  -8.00000000       2.84282442E-16
  -7.98999977       2.97407191E-16
  -7.98000002       3.10741581E-16
  -7.96999979       3.24279946E-16
  -7.96000004       3.38016809E-16
  -7.94999981       3.51945869E-16
  -7.94000006       3.66060667E-16
  -7.92999983       3.80354348E-16
  -7.92000008       3.94819659E-16
  -7.90999985       4.09448818E-16
  -7.90000010       4.24233725E-16
  -7.88999987       4.39165778E-16
  -7.88000011       4.54236029E-16
  -7.86999989       4.69434871E-16
  -7.86000013       4.84752932E-16
  -7.84999990       5.00179414E-16
  -7.84000015       5.15703887E-16
  -7.82999992       5.31315180E-16
  -7.82000017       5.47001913E-16
  -7.80999994       5.62751538E-16
  -7.80000019       5.78551667E-16
  -7.78999996       5.94389595E-16
  -7.78000021       6.10251610E-16
  -7.76999998       6.26124161E-16
  -7.76000023       6.41992741E-16
  -7.75000000       6.57842474E-16
  -7.73999977       6.73658326E-16
  -7.73000002       6.89423780E-16
  -7.71999979       7.05123430E-16
  -7.71000004       7.20740229E-16
  -7.69999981       7.36256973E-16
  -7.69000006       7.51657249E-16
  -7.67999983       7.66921365E-16
  -7.67000008       7.82032062E-16
  -7.65999985       7.96969700E-16
  -7.65000010       8.11714426E-16
  -7.63999987       8.26246918E-16
  -7.63000011       8.40547375E-16
  -7.61999989       8.54594728E-16
  -7.61000013       8.68367431E-16
  -7.59999990       8.81844360E-16
  -7.59000015       8.95002858E-16
  -7.57999992       9.07821431E-16
  -7.57000017       9.20277263E-16
  -7.55999994       9.32347164E-16
  -7.55000019       9.44007102E-16
  -7.53999996       9.55233042E-16
  -7.53000021       9.66001266E-16
  -7.51999998       9.76286893E-16
  -7.51000023       9.86064618E-16
  -7.50000000       9.95311570E-16
  -7.48999977       1.00399906E-15
  -7.48000002       1.01210167E-15
  -7.46999979       1.01959357E-15
  -7.46000004       1.02644776E-15
  -7.44999981       1.03263904E-15
  -7.44000006       1.03813967E-15