  -16.0000000       0.00000000    
  -15.9899998       0.00000000    
  -15.9799995       0.00000000    
  -15.9700003       0.00000000    
  -15.9600000       0.00000000    
  -15.9499998       0.00000000    
  -15.9399996       0.00000000    
  -15.9300003       0.00000000    
  -15.9200001       0.00000000    
  -15.9099998       0.00000000    
  -15.8999996       1.04676995E-42
  -15.8900003       2.01492706E-41
  -15.8800001       1.96497077E-40
  -15.8699999       1.28821648E-39
  -15.8599997       6.33906788E-39
  -15.8500004       2.46832166E-38
  -15.8400002       7.76481956E-38
  -15.8299999       1.94926805E-37
  -15.8199997       3.57745646E-37
  -15.8100004       2.66907471E-37
  -15.8000002      -1.33549717E-36
  -15.7900000      -8.29251284E-36
  -15.7799997      -3.03774258E-35
  -15.7700005      -8.92889151E-35
  -15.7600002      -2.27991974E-34
  -15.7500000      -5.23051869E-34
  -15.7399998      -1.09732508E-33
  -15.7299995      -2.12669299E-33
  -15.7200003      -3.82997035E-33
  -15.7100000      -6.42727103E-33
  -15.6999998      -1.00518946E-32
  -15.6899996      -1.46080578E-32
  -15.6800003      -1.95851964E-32
  -15.6700001      -2.38707814E-32
  -15.6599998      -2.56439617E-32
  -15.6499996      -2.24719784E-32
  -15.6400003      -1.17511151E-32
  -15.6300001       8.38970522E-33
  -15.6199999       3.76955413E-32
  -15.6099997       7.20466424E-32
  -15.6000004       1.01761077E-31
  -15.5900002       1.10597103E-31
  -15.5799999       7.63357215E-32
  -15.5699997      -2.61092547E-32
  -15.5600004      -2.18306534E-31
  -15.5500002      -5.08446305E-31
  -15.5400000      -8.78694534E-31
  -15.5299997      -1.27161001E-30
  -15.5200005      -1.57863625E-30
  -15.5100002      -1.63454859E-30
  -15.5000000      -1.22191331E-30
  -15.4899998      -8.88193892E-32
  -15.4799995       2.01889142E-30
  -15.4700003       5.31265368E-30
  -15.4600000       9.90896223E-30
  -15.4499998       1.57789710E-29
  -15.4399996       2.27115800E-29
  -15.4300003       3.03024824E-29
  -15.4200001       3.79798079E-29
  -15.4099998       4.50725746E-29
  -15.3999996       5.09214312E-29
  -15.3900003       5.50229940E-29
  -15.3800001       5.71914045E-29
  -15.3699999       5.77141982E-29
  -15.3599997       5.74769959E-29
  -15.3500004       5.80318322E-29
  -15.3400002       6.15894642E-29
  -15.3299999       7.09236281E-29
  -15.3199997       8.91857171E-29
  -15.3100004       1.19638660E-28
  -15.3000002       1.65328026E-28
  -15.2900000       2.28715953E-28
  -15.2799997       3.11307822E-28
  -15.2700005       4.13306011E-28
  -15.2600002       5.33326016E-28
  -15.2500000       6.68213142E-28
  -15.2399998       8.12998874E-28
  -15.2299995       9.61037790E-28
  -15.2200003       1.10436030E-27
  -15.2100000       1.23427120E-27
  -15.1999998       1.34220157E-27
  -15.1899996       1.42079858E-27
  -15.1800003       1.46519560E-27
  -15.1700001       1.47436100E-27
  -15.1599998       1.45238133E-27
  -15.1499996       1.40949067E-27
  -15.1400003       1.36264147E-27
  -15.1300001       1.33541498E-27
  -15.1199999       1.35710615E-27
  -15.1099997       1.46088816E-27
  -15.1000004       1.68106875E-27
  -15.0900002       2.04957060E-27
  -15.0799999       2.59190188E-27
  -15.0699997       3.32300800E-27
  -15.0600004       4.24347733E-27
  -15.0500002       5.33663170E-27
  -15.0400000       6.56699972E-27
  -15.0299997       7.88060258E-27
  -15.0200005       9.20732564E-27
  -15.0100002       1.04654617E-26
  -15.0000000       1.15682723E-26
  -14.9899998       1.24321929E-26
  -14.9799995       1.29860649E-26
  -14.9700003       1.31806347E-26
  -14.9600000       1.29974140E-26
  -14.9499998       1.24560082E-26
  -14.9399996       1.16190275E-26
  -14.9300003       1.05938658E-26
  -14.9200001       9.53080483E-27
  -14.9099998       8.61719682E-27
  -14.8999996       8.06773440E-27
  -14.8900003       8.11117799E-27
  -14.8800001       8.97416794E-27
  -14.8699999       1.08630630E-26
  -14.8599997       1.39449977E-26
  -14.8500004       1.83295221E-26
  -14.8400002       2.40522997E-26
  -14.8299999       3.10624027E-26
  -14.8199997       3.92146669E-26
  -14.8100004       4.82683804E-26
  -14.8000002       5.78934295E-26
  -14.7900000       6.76846231E-26
  -14.7799997       7.71845299E-26
  -14.7700005       8.59147919E-26
  -14.7600002       9.34155710E-26
  -14.7500000       9.92922520E-26
  -14.7399998       1.03268678E-25
  -14.7299995       1.05245742E-25
  -14.7200003       1.05364478E-25
  -14.7100000       1.04073396E-25
  -14.6999998       1.02199266E-25
  -14.6899996       1.01022316E-25
  -14.6800003       1.02356145E-25
  -14.6700001       1.08634146E-25
  -14.6599998       1.23003445E-25
  -14.6499996       1.49428658E-25
  -14.6400003       1.92806480E-25
  -14.6300001       2.59092613E-25
  -14.6199999       3.55441200E-25
  -14.6099997       4.90356284E-25
  -14.6000004       6.73853959E-25
  -14.5900002       9.17632193E-25
  -14.5799999       1.23524347E-24
  -14.5699997       1.64226631E-24
  -14.5600004       2.15646666E-24
  -14.5500002       2.79794271E-24
  -14.5400000       3.58924178E-24
  -14.5299997       4.55544335E-24
  -14.5200005       5.72417549E-24
  -14.5100002       7.12557940E-24
  -14.5000000       8.79218138E-24
  -14.4899998       1.07586641E-23
  -14.4799995       1.30614856E-23
  -14.4700003       1.57383777E-23
  -14.4600000       1.88276296E-23
  -14.4499998       2.23671460E-23
  -14.4399996       2.63932727E-23
  -14.4300003       3.09392951E-23
  -14.4200001       3.60335758E-23
  -14.4099998       4.16973257E-23
  -14.3999996       4.79418982E-23
  -14.3900003       5.47655892E-23
  -14.3800001       6.21498195E-23
  -14.3699999       7.00546791E-23
  -14.3599997       7.84138468E-23
  -14.3500004       8.71286457E-23
  -14.3400002       9.60612711E-23
  -14.3299999       1.05027086E-22
  -14.3199997       1.13785979E-22
  -14.3100004       1.22032554E-22
  -14.3000002       1.29385356E-22
  -14.2900000       1.35374691E-22
  -14.2799997       1.39429398E-22
  -14.2700005       1.40862234E-22
  -14.2600002       1.38853795E-22
  -14.2500000       1.32435357E-22
  -14.2399998       1.20470104E-22
  -14.2299995       1.01632945E-22
  -14.2200003       7.43890974E-23
  -14.2100000       3.69711812E-23
  -14.1999998      -1.26447879E-23
  -14.1899996      -7.67648372E-23
  -14.1800003      -1.58003551E-22
  -14.1700001      -2.59311479E-22
  -14.1599998      -3.84003529E-22
  -14.1499996      -5.35788066E-22
  -14.1400003      -7.18796223E-22
  -14.1300001      -9.37611951E-22
  -14.1199999      -1.19730062E-21
  -14.1099997      -1.50344055E-21
  -14.1000004      -1.86214855E-21
  -14.0900002      -2.28010942E-21
  -14.0799999      -2.76460199E-21
  -14.0699997      -3.32352204E-21
  -14.0600004      -3.96540490E-21
  -14.0500002      -4.69944490E-21
  -14.0400000      -5.53551003E-21
  -14.0299997      -6.48415088E-21
  -14.0200005      -7.55661397E-21
  -14.0100002      -8.76483647E-21
  -14.0000000      -1.01214458E-20
  -13.9899998      -1.16397495E-20
  -13.9799995      -1.33337169E-20
  -13.9700003      -1.52179535E-20
  -13.9600000      -1.73076735E-20
  -13.9499998      -1.96186465E-20
  -13.9399996      -2.21671609E-20
  -13.9300003      -2.49699428E-20
  -13.9200001      -2.80441046E-20
  -13.9099998      -3.14070559E-20
  -13.8999996      -3.50763838E-20
  -13.8900003      -3.90698018E-20
  -13.8800001      -4.34049714E-20
  -13.8699999      -4.80994023E-20
  -13.8599997      -5.31703006E-20
  -13.8500004      -5.86344198E-20
  -13.8400002      -6.45078804E-20
  -13.8299999      -7.08060013E-20
  -13.8199997      -7.75430578E-20
  -13.8100004      -8.47321556E-20
  -13.8000002      -9.23849398E-20
  -13.7900000      -1.00511362E-19
  -13.7799997      -1.09119560E-19
  -13.7700005      -1.18215393E-19
  -13.7600002      -1.27802351E-19
  -13.7500000      -1.37881224E-19
  -13.7399998      -1.48449839E-19
  -13.7299995      -1.59502782E-19
  -13.7200003      -1.71031056E-19
  -13.7100000      -1.83021866E-19
  -13.6999998      -1.95458294E-19
  -13.6899996      -2.08319052E-19
  -13.6800003      -2.21578086E-19
  -13.6700001      -2.35204464E-19
  -13.6599998      -2.49161948E-19
  -13.6499996      -2.63408868E-19
  -13.6400003      -2.77897712E-19
  -13.6300001      -2.92574972E-19
  -13.6199999      -3.07381039E-19
  -13.6099997      -3.22249844E-19
  -13.6000004      -3.37108773E-19
  -13.5900002      -3.51878471E-19
  -13.5799999      -3.66472703E-19
  -13.5699997      -3.80798359E-19
  -13.5600004      -3.94755223E-19
  -13.5500002      -4.08236406E-19
  -13.5400000      -4.21127602E-19
  -13.5299997      -4.33307991E-19
  -13.5200005      -4.44649646E-19
  -13.5100002      -4.55018355E-19
  -13.5000000      -4.64273213E-19
  -13.4899998      -4.72267242E-19
  -13.4799995      -4.78847567E-19
  -13.4700003      -4.83856094E-19
  -13.4600000      -4.87129299E-19
  -13.4499998      -4.88499472E-19
  -13.4399996      -4.87794663E-19
  -13.4300003      -4.84839767E-19
  -13.4200001      -4.79456786E-19
  -13.4099998      -4.71465756E-19
  -13.3999996      -4.60685628E-19
  -13.3900003      -4.46934887E-19
  -13.3800001      -4.30032770E-19
  -13.3699999      -4.09799880E-19
  -13.3599997      -3.86059487E-19
  -13.3500004      -3.58638320E-19
  -13.3400002      -3.27368024E-19
  -13.3299999      -2.92086056E-19
  -13.3199997      -2.52636856E-19
  -13.3100004      -2.08873432E-19
  -13.3000002      -1.60658133E-19
  -13.2900000      -1.07864236E-19
  -13.2799997      -5.03771637E-20
  -13.2700005       1.19043561E-20
  -13.2600002       7.90667762E-20
  -13.2500000       1.51180699E-19
  -13.2399998       2.28299471E-19
  -13.2299995       3.10458125E-19
  -13.2200003       3.97672068E-19
  -13.2100000       4.89936027E-19
  -13.1999998       5.87223272E-19
  -13.1899996       6.89484199E-19
  -13.1800003       7.96645912E-19
  -13.1700001       9.08611994E-19
  -13.1599998       1.02526038E-18
  -13.1499996       1.14644452E-18
  -13.1400003       1.27199275E-18
  -13.1300001       1.40170780E-18
  -13.1199999       1.53536736E-18
  -13.1099997       1.67272443E-18
  -13.1000004       1.81350788E-18
  -13.0900002       1.95742386E-18
  -13.0799999       2.10415599E-18
  -13.0699997       2.25336862E-18
  -13.0600004       2.40470710E-18
  -13.0500002       2.55780024E-18
  -13.0400000       2.71226484E-18
  -13.0299997       2.86770614E-18
  -13.0200005       3.02372275E-18
  -13.0100002       3.17991140E-18
  -13.0000000       3.33586928E-18
  -12.9899998       3.49120097E-18
  -12.9799995       3.64552310E-18
  -12.9700003       3.79847086E-18
  -12.9600000       3.94970471E-18
  -12.9499998       4.09891651E-18
  -12.9399996       4.24583826E-18
  -12.9300003       4.39025200E-18
  -12.9200001       4.53199643E-18
  -12.9099998       4.67098014E-18
  -12.8999996       4.80718825E-18
  -12.8900003       4.94069727E-18
  -12.8800001       5.07168546E-18
  -12.8699999       5.20044646E-18
  -12.8599997       5.32740255E-18
  -12.8500004       5.45311912E-18
  -12.8400002       5.57832242E-18
  -12.8299999       5.70391035E-18
  -12.8199997       5.83097605E-18
  -12.8100004       5.96081776E-18
  -12.8000002       6.09496867E-18
  -12.7900000       6.23520515E-18
  -12.7799997       6.38357323E-18
  -12.7700005       6.54240556E-18
  -12.7600002       6.71435200E-18
  -12.7500000       6.90239208E-18
  -12.7399998       7.10986552E-18
  -12.7299995       7.34049423E-18
  -12.7200003       7.59840749E-18
  -12.7100000       7.88816968E-18
  -12.6999998       8.21480263E-18
  -12.6899996       8.58381948E-18
  -12.6800003       9.00124956E-18
  -12.6700001       9.47366564E-18
  -12.6599998       1.00082162E-17
  -12.6499996       1.06126561E-17
  -12.6400003       1.12953696E-17
  -12.6300001       1.20654169E-17
  -12.6199999       1.29325445E-17
  -12.6099997       1.39072354E-17
  -12.6000004       1.50007384E-17
  -12.5900002       1.62250848E-17
  -12.5799999       1.75931423E-17
  -12.5699997       1.91186354E-17
  -12.5600004       2.08161804E-17
  -12.5500002       2.27013217E-17
  -12.5400000       2.47905533E-17
  -12.5299997       2.71013667E-17
  -12.5200005       2.96522743E-17
  -12.5100002       3.24628388E-17
  -12.5000000       3.55537117E-17
  -12.4899998       3.89466411E-17
  -12.4799995       4.26645632E-17
  -12.4700003       4.67315257E-17
  -12.4600000       5.11728338E-17
  -12.4499998       5.60149969E-17
  -12.4399996       6.12857785E-17
  -12.4300003       6.70142160E-17
  -12.4200001       7.32306702E-17
  -12.4099998       7.99667924E-17
  -12.3999996       8.72555837E-17
  -12.3900003       9.51314284E-17
  -12.3800001       1.03630047E-16
  -12.3699999       1.12788591E-16
  -12.3599997       1.22645580E-16
  -12.3500004       1.33240969E-16
  -12.3400002       1.44616066E-16
  -12.3299999       1.56813671E-16
  -12.3199997       1.69877950E-16
  -12.3100004       1.83854523E-16
  -12.3000002       1.98790361E-16
  -12.2900000       2.14733864E-16
  -12.2799997       2.31734900E-16
  -12.2700005       2.49844517E-16
  -12.2600002       2.69115258E-16
  -12.2500000       2.89600988E-16
  -12.2399998       3.11356791E-16
  -12.2299995       3.34439074E-16
  -12.2200003       3.58905409E-16
  -12.2100000       3.84814638E-16
  -12.1999998       4.12226636E-16
  -12.1899996       4.41202310E-16
  -12.1800003       4.71803810E-16
  -12.1700001       5.04094030E-16
  -12.1599998       5.38136813E-16
  -12.1499996       5.73996906E-16
  -12.1400003       6.11739741E-16
  -12.1300001       6.51431282E-16
  -12.1199999       6.93138125E-16
  -12.1099997       7.36927505E-16
  -12.1000004       7.82866549E-16
  -12.0900002       8.31023178E-16
  -12.0799999       8.81465207E-16
  -12.0699997       9.34259977E-16
  -12.0600004       9.89475725E-16
  -12.0500002       1.04717963E-15
  -12.0400000       1.10743840E-15
  -12.0299997       1.17031895E-15
  -12.0200005       1.23588661E-15
  -12.0100002       1.30420617E-15
  -12.0000000       1.37534127E-15
  -11.9899998       1.44935490E-15
  -11.9799995       1.52630721E-15
  -11.9700003       1.60625854E-15
  -11.9600000       1.68926629E-15
  -11.9499998       1.77538550E-15
  -11.9399996       1.86466977E-15
  -11.9300003       1.95717021E-15
  -11.9200001       2.05293406E-15
  -11.9099998       2.15200706E-15
  -11.8999996       2.25443134E-15
  -11.8900003       2.36024460E-15
  -11.8800001       2.46948221E-15
  -11.8699999       2.58217465E-15
  -11.8599997       2.69834860E-15
  -11.8500004       2.81802610E-15
  -11.8400002       2.94122429E-15
  -11.8299999       3.06795461E-15
  -11.8199997       3.19822467E-15
  -11.8100004       3.33203470E-15
  -11.8000002       3.46937877E-15
  -11.7900000       3.61024627E-15
  -11.7799997       3.75461838E-15
  -11.7700005       3.90246968E-15
  -11.7600002       4.05376797E-15
  -11.7500000       4.20847261E-15
  -11.7399998       4.36653573E-15
  -11.7299995       4.52790102E-15
  -11.7200003       4.69250154E-15
  -11.7100000       4.86026235E-15
  -11.6999998       5.03110127E-15
  -11.6899996       5.20492217E-15
  -11.6800003       5.38162256E-15
  -11.6700001       5.56108767E-15
  -11.6599998       5.74319170E-15
  -11.6499996       5.92779660E-15
  -11.6400003       6.11475583E-15
  -11.6300001       6.30390676E-15
  -11.6199999       6.49507829E-15
  -11.6099997       6.68808406E-15
  -11.6000004       6.88272503E-15
  -11.5900002       7.07878817E-15
  -11.5799999       7.27604775E-15
  -11.5699997       7.47426447E-15
  -11.5600004       7.67318168E-15
  -11.5500002       7.87252919E-15
  -11.5400000       8.07202409E-15
  -11.5299997       8.27136397E-15
  -11.5200005       8.47023037E-15
  -11.5100002       8.66829293E-15
  -11.5000000       8.86520014E-15
  -11.4899998       9.06058692E-15
  -11.4799995       9.25406873E-15
  -11.4700003       9.44524407E-15
  -11.4600000       9.63369365E-15
  -11.4499998       9.81898126E-15
  -11.4399996       1.00006529E-14
  -11.4300003       1.01782317E-14
  -11.4200001       1.03512271E-14
  -11.4099998       1.05191251E-14
  -11.3999996       1.06813963E-14
  -11.3900003       1.08374901E-14
  -11.3800001       1.09868364E-14
  -11.3699999       1.11288466E-14
  -11.3599997       1.12629124E-14
  -11.3500004       1.13884029E-14
  -11.3400002       1.15046708E-14
  -11.3299999       1.16110446E-14
  -11.3199997       1.17068398E-14
  -11.3100004       1.17913432E-14
  -11.3000002       1.18638272E-14
  -11.2900000       1.19235413E-14
  -11.2799997       1.19697182E-14
  -11.2700005       1.20015675E-14
  -11.2600002       1.20182828E-14
  -11.2500000       1.20190333E-14
  -11.2399998       1.20029736E-14
  -11.2299995       1.19692328E-14
  -11.2200003       1.19169303E-14
  -11.2100000       1.18451595E-14
  -11.1999998       1.17529989E-14
  -11.1899996       1.16395058E-14
  -11.1800003       1.15037222E-14
  -11.1700001       1.13446790E-14
  -11.1599998       1.11613794E-14
  -11.1499996       1.09528187E-14
  -11.1400003       1.07179721E-14
  -11.1300001       1.04558010E-14
  -11.1199999       1.01652543E-14
  -11.1099997       9.84526639E-15
  -11.1000004       9.49475653E-15
  -11.0900002       9.11263794E-15
  -11.0799999       8.69780441E-15
  -11.0699997       8.24914545E-15
  -11.0600004       7.76553792E-15
  -11.0500002       7.24585441E-15
  -11.0400000       6.68895608E-15
  -11.0299997       6.09369775E-15
  -11.0200005       5.45892999E-15
  -11.0100002       4.78350083E-15
  -11.0000000       4.06625578E-15
  -10.9899998       3.30603270E-15
  -10.9799995       2.50167581E-15
  -10.9700003       1.65202807E-15
  -10.9600000       7.55935771E-16
  -10.9499998      -1.87753098E-16
  -10.9399996      -1.18018212E-15
  -10.9300003      -2.22248782E-15
  -10.9200001      -3.31580047E-15
  -10.9099998      -4.46123571E-15
  -10.8999996      -5.65989999E-15
  -10.8900003      -6.91288364E-15
  -10.8800001      -8.22126198E-15
  -10.8699999      -9.58609125E-15
  -10.8599997      -1.10084103E-14
  -10.8500004      -1.24892306E-14
  -10.8400002      -1.40295448E-14
  -10.8299999      -1.56303125E-14
  -10.8199997      -1.72924741E-14
  -10.8100004      -1.90169332E-14
  -10.8000002      -2.08045590E-14
  -10.7900000      -2.26561866E-14
  -10.7799997      -2.45726121E-14
  -10.7700005      -2.65545930E-14
  -10.7600002      -2.86028423E-14
  -10.7500000      -3.07180327E-14
  -10.7399998      -3.29007790E-14
  -10.7299995      -3.51516437E-14
  -10.7200003      -3.74711486E-14
  -10.7100000      -3.98597408E-14
  -10.6999998      -4.23178372E-14
  -10.6899996      -4.48457494E-14
  -10.6800003      -4.74437689E-14
  -10.6700001      -5.01120887E-14
  -10.6599998      -5.28508308E-14
  -10.6499996      -5.56600596E-14
  -10.6400003      -5.85397616E-14
  -10.6300001      -6.14898283E-14
  -10.6199999      -6.45100699E-14
  -10.6099997      -6.76002087E-14
  -10.6000004      -7.07598991E-14
  -10.5900002      -7.39886735E-14
  -10.5799999      -7.72859966E-14
  -10.5699997      -8.06512043E-14
  -10.5600004      -8.40835512E-14
  -10.5500002      -8.75821496E-14
  -10.5400000      -9.11460645E-14
  -10.5299997      -9.47741844E-14
  -10.5200005      -9.84653372E-14
  -10.5100002      -1.02218174E-13
  -10.5000000      -1.06031300E-13
  -10.4899998      -1.09903094E-13
  -10.4799995      -1.13831890E-13
  -10.4700003      -1.17815846E-13
  -10.4600000      -1.21853021E-13
  -10.4499998      -1.25941277E-13
  -10.4399996      -1.30078389E-13
  -10.4300003      -1.34261986E-13
  -10.4200001      -1.38489494E-13
  -10.4099998      -1.42758242E-13
  -10.3999996      -1.47065357E-13
  -10.3900003      -1.51407898E-13
  -10.3800001      -1.55782654E-13
  -10.3699999      -1.60186304E-13
  -10.3599997      -1.64615351E-13
  -10.3500004      -1.69066150E-13
  -10.3400002      -1.73534852E-13
  -10.3299999      -1.78017472E-13
  -10.3199997      -1.82509810E-13
  -10.3100004      -1.87007514E-13
  -10.3000002      -1.91506031E-13
  -10.2900000      -1.96000632E-13
  -10.2799997      -2.00486424E-13
  -10.2700005      -2.04958297E-13
  -10.2600002      -2.09410980E-13
  -10.2500000      -2.13838983E-13
  -10.2399998      -2.18236629E-13
  -10.2299995      -2.22598063E-13
  -10.2200003      -2.26917267E-13
  -10.2100000      -2.31187899E-13
  -10.1999998      -2.35403575E-13
  -10.1899996      -2.39557641E-13
  -10.1800003      -2.43643186E-13
  -10.1700001      -2.47653243E-13
  -10.1599998      -2.51580522E-13
  -10.1499996      -2.55417595E-13
  -10.1400003      -2.59156818E-13
  -10.1300001      -2.62790359E-13
  -10.1199999      -2.66310113E-13
  -10.1099997      -2.69707948E-13
  -10.1000004      -2.72975327E-13
  -10.0900002      -2.76103684E-13
  -10.0799999      -2.79084156E-13
  -10.0699997      -2.81907771E-13
  -10.0600004      -2.84565313E-13
  -10.0500002      -2.87047377E-13
  -10.0400000      -2.89344395E-13
  -10.0299997      -2.91446581E-13
  -10.0200005      -2.93344071E-13
  -10.0100002      -2.95026671E-13
  -10.0000000      -2.96484083E-13
  -9.98999977      -2.97705952E-13
  -9.97999954      -2.98681571E-13
  -9.97000027      -2.99400207E-13
  -9.96000004      -2.99850937E-13
  -9.94999981      -3.00022594E-13
  -9.93999958      -2.99904036E-13
  -9.93000031      -2.99483908E-13
  -9.92000008      -2.98750689E-13
  -9.90999985      -2.97692779E-13
  -9.89999962      -2.96298386E-13
  -9.89000034      -2.94555694E-13
  -9.88000011      -2.92452721E-13
  -9.86999989      -2.89977379E-13
  -9.85999966      -2.87117633E-13
  -9.85000038      -2.83861205E-13
  -9.84000015      -2.80195816E-13
  -9.82999992      -2.76109159E-13
  -9.81999969      -2.71588795E-13
  -9.81000042      -2.66622282E-13
  -9.80000019      -2.61197151E-13
  -9.78999996      -2.55300934E-13
  -9.77999973      -2.48921137E-13
  -9.77000046      -2.42045235E-13
  -9.76000023      -2.34660815E-13
  -9.75000000      -2.26755341E-13
  -9.73999977      -2.18316535E-13
  -9.72999954      -2.09331914E-13
  -9.72000027      -1.99789282E-13
  -9.71000004      -1.89676427E-13
  -9.69999981      -1.78981219E-13
  -9.68999958      -1.67691653E-13
  -9.68000031      -1.55795963E-13
  -9.67000008      -1.43282250E-13
  -9.65999985      -1.30139118E-13
  -9.64999962      -1.16355086E-13
  -9.64000034      -1.01918975E-13
  -9.63000011      -8.68197997E-14
  -9.61999989      -7.10468332E-14
  -9.60999966      -5.45894981E-14
  -9.60000038      -3.74375586E-14
  -9.59000015      -1.95810351E-14
  -9.57999992      -1.01026064E-15
  -9.56999969       1.82841447E-14
  -9.56000042       3.83112019E-14
  -9.55000019       5.90796062E-14
  -9.53999996       8.05976041E-14
  -9.52999973       1.02873093E-13
  -9.52000046       1.25913575E-13
  -9.51000023       1.49726016E-13
  -9.50000000       1.74317050E-13
  -9.48999977       1.99692734E-13
  -9.47999954       2.25858666E-13
  -9.47000027       2.52819900E-13
  -9.46000004       2.80580924E-13
  -9.44999981       3.09145694E-13
  -9.43999958       3.38517517E-13
  -9.43000031       3.68699212E-13
  -9.42000008       3.99692676E-13
  -9.40999985       4.31499508E-13
  -9.39999962       4.64120333E-13
  -9.39000034       4.97555231E-13
  -9.38000011       5.31803442E-13
  -9.36999989       5.66863668E-13
  -9.35999966       6.02733412E-13
  -9.35000038       6.39409858E-13
  -9.34000015       6.76888883E-13
  -9.32999992       7.15165936E-13
  -9.31999969       7.54235379E-13
  -9.31000042       7.94090650E-13
  -9.30000019       8.34724379E-13
  -9.28999996       8.76127946E-13
  -9.27999973       9.18292352E-13
  -9.27000046       9.61207134E-13
  -9.26000023       1.00486080E-12
  -9.25000000       1.04924121E-12
  -9.23999977       1.09433469E-12
  -9.22999954       1.14012673E-12
  -9.22000027       1.18660171E-12
  -9.21000004       1.23374293E-12
  -9.19999981       1.28153228E-12
  -9.18999958       1.32995058E-12
  -9.18000031       1.37897799E-12
  -9.17000008       1.42859260E-12
  -9.15999985       1.47877164E-12
  -9.14999962       1.52949149E-12
  -9.14000034       1.58072633E-12
  -9.13000011       1.63245014E-12
  -9.11999989       1.68463442E-12
  -9.10999966       1.73725108E-12
  -9.10000038       1.79026813E-12
  -9.09000015       1.84365457E-12
  -9.07999992       1.89737722E-12
  -9.06999969       1.95140106E-12
  -9.06000042       2.00568989E-12
  -9.05000019       2.06020682E-12
  -9.03999996       2.11491220E-12
  -9.02999973       2.16976610E-12
  -9.02000046       2.22472648E-12
  -9.01000023       2.27975061E-12
  -9.00000000       2.33479317E-12
  -8.98999977       2.38980819E-12
  -8.97999954       2.44474775E-12
  -8.97000027       2.49956262E-12
  -8.96000004       2.55420273E-12
  -8.94999981       2.60861515E-12
  -8.93999958       2.66274698E-12
  -8.93000031       2.71654205E-12
  -8.92000008       2.76994465E-12
  -8.90999985       2.82289556E-12
  -8.89999962       2.87533582E-12
  -8.89000034       2.92720427E-12
  -8.88000011       2.97843824E-12
  -8.86999989       3.02897291E-12
  -8.85999966       3.07874342E-12
  -8.85000038       3.12768214E-12
  -8.84000015       3.17572097E-12
  -8.82999992       3.22278966E-12
  -8.81999969       3.26881686E-12
  -8.81000042       3.31372993E-12
  -8.80000019       3.35745407E-12
  -8.78999996       3.39991468E-12
  -8.77999973       3.44103392E-12
  -8.77000046       3.48073458E-12
  -8.76000023       3.51893623E-12
  -8.75000000       3.55555863E-12
  -8.73999977       3.59051851E-12
  -8.72999954       3.62373369E-12
  -8.72000027       3.65512004E-12
  -8.71000004       3.68459126E-12
  -8.69999981       3.71206104E-12
  -8.68999958       3.73744091E-12
  -8.68000031       3.76064284E-12
  -8.67000008       3.78157575E-12
  -8.65999985       3.80014986E-12
  -8.64999962       3.81627369E-12
  -8.64000034       3.82985354E-12
  -8.63000011       3.84079747E-12
  -8.61999989       3.84901009E-12
  -8.60999966       3.85439684E-12
  -8.60000038       3.85686318E-12
  -8.59000015       3.85631110E-12
  -8.57999992       3.85264563E-12
  -8.56999969       3.84576919E-12
  -8.56000042       3.83558463E-12
  -8.55000019       3.82199350E-12
  -8.53999996       3.80489867E-12
  -8.52999973       3.78420125E-12
  -8.52000046       3.75980280E-12
  -8.51000023       3.73160530E-12
  -8.50000000       3.69950988E-12
  -8.48999977       3.66341853E-12
  -8.47999954       3.62323322E-12
  -8.47000027       3.57885509E-12
  -8.46000004       3.53018851E-12
  -8.44999981       3.47713546E-12
  -8.43999958       3.41959902E-12
  -8.43000031       3.35748443E-12
  -8.42000008       3.29069541E-12
  -8.40999985       3.21913871E-12
  -8.39999962       3.14272046E-12
  -8.39000034       3.06134762E-12
  -8.38000011       2.97493041E-12
  -8.36999989       2.88337843E-12
  -8.35999966       2.78660211E-12
  -8.35000038       2.68451515E-12
  -8.34000015       2.57703169E-12
  -8.32999992       2.46406801E-12
  -8.31999969       2.34554151E-12
  -8.31000042       2.22137174E-12
  -8.30000019       2.09147998E-12
  -8.28999996       1.95579100E-12
  -8.27999973       1.81423041E-12
  -8.27000046       1.66672730E-12
  -8.26000023       1.51321165E-12
  -8.25000000       1.35361741E-12
  -8.23999977       1.18788096E-12
  -8.22999954       1.01594080E-12
  -8.22000027       8.37739708E-13
  -8.21000004       6.53222918E-13
  -8.19999981       4.62338609E-13
  -8.18999958       2.65038967E-13
  -8.18000031       6.12792626E-14
  -8.17000008      -1.48981264E-13
  -8.15999985      -3.65779916E-13
  -8.14999962      -5.89149931E-13
  -8.14000034      -8.19120433E-13
  -8.13000011      -1.05571606E-12
  -8.11999989      -1.29895812E-12
  -8.10999966      -1.54886314E-12
  -8.10000038      -1.80544165E-12
  -8.09000015      -2.06870111E-12
  -8.07999992      -2.33864360E-12
  -8.06999969      -2.61526608E-12
  -8.06000042      -2.89856030E-12
  -8.05000019      -3.18851304E-12
  -8.03999996      -3.48510543E-12
  -8.02999973      -3.78831385E-12
  -8.02000046      -4.09810684E-12
  -8.01000023      -4.41444884E-12
  -8.00000000      -4.73729866E-12
  -7.98999977      -5.06660859E-12
  -7.98000002      -5.40232485E-12
  -7.96999979      -5.74438587E-12
  -7.96000004      -6.09272615E-12
  -7.94999981      -6.44727197E-12
  -7.94000006      -6.80794266E-12
  -7.92999983      -7.17465106E-12
  -7.92000008      -7.54730306E-12
  -7.90999985      -7.92579891E-12
  -7.90000010      -8.31002975E-12
  -7.88999987      -8.69988196E-12
  -7.88000011      -9.09522891E-12
  -7.86999989      -9.49594309E-12
  -7.86000013      -9.90188487E-12
  -7.84999990      -1.03129111E-11
  -7.84000015      -1.07288648E-11
  -7.82999992      -1.11495873E-11
  -7.82000017      -1.15749068E-11
  -7.80999994      -1.20046473E-11
  -7.80000019      -1.24386239E-11
  -7.78999996      -1.28766407E-11
  -7.78000021      -1.33184939E-11
  -7.76999998      -1.37639761E-11
  -7.76000023      -1.42128670E-11
  -7.75000000      -1.46649394E-11
  -7.73999977      -1.51199539E-11
  -7.73000002      -1.55776676E-11
  -7.71999979      -1.60378273E-11
  -7.71000004      -1.65001676E-11
  -7.69999981      -1.69644212E-11
  -7.69000006      -1.74303037E-11
  -7.67999983      -1.78975272E-11
  -7.67000008      -1.83657933E-11
  -7.65999985      -1.88347966E-11
  -7.65000010      -1.93042197E-11
  -7.63999987      -1.97737417E-11
  -7.63000011      -2.02430225E-11
  -7.61999989      -2.07117257E-11
  -7.61000013      -2.11794922E-11
  -7.59999990      -2.16459680E-11
  -7.59000015      -2.21107837E-11
  -7.57999992      -2.25735559E-11
  -7.57000017      -2.30339046E-11
  -7.55999994      -2.34914276E-11
  -7.55000019      -2.39457256E-11
  -7.53999996      -2.43963877E-11
  -7.53000021      -2.48429801E-11
  -7.51999998      -2.52850813E-11
  -7.51000023      -2.57222559E-11
  -7.50000000      -2.61540564E-11
  -7.48999977      -2.65800264E-11
  -7.48000002      -2.69997011E-11
  -7.46999979      -2.74126104E-11
  -7.46000004      -2.78182789E-11
  -7.44999981      -2.82162158E-11
  -7.44000006      -2.86059371E-11