  -16.0000000       0.00000000    
  -15.9899998       0.00000000    
  -15.9799995       0.00000000    
  -15.9700003       0.00000000    
  -15.9600000       0.00000000    
  -15.9499998       0.00000000    
  -15.9399996       0.00000000    
  -15.9300003       0.00000000    
  -15.9200001       0.00000000    
  -15.9099998       0.00000000    
  -15.8999996       0.00000000    
  -15.8900003       0.00000000    
  -15.8800001       0.00000000    
  -15.8699999       0.00000000    
  -15.8599997       0.00000000    
  -15.8500004       0.00000000    
  -15.8400002       0.00000000    
  -15.8299999       0.00000000    
  -15.8199997       0.00000000    
  -15.8100004       0.00000000    
  -15.8000002       0.00000000    
  -15.7900000       0.00000000    
  -15.7799997       0.00000000    
  -15.7700005       0.00000000    
  -15.7600002       0.00000000    
  -15.7500000       0.00000000    
  -15.7399998       0.00000000    
  -15.7299995       0.00000000    
  -15.7200003       0.00000000    
  -15.7100000       0.00000000    
  -15.6999998       0.00000000    
  -15.6899996       0.00000000    
  -15.6800003       0.00000000    
  -15.6700001       0.00000000    
  -15.6599998       0.00000000    
  -15.6499996       0.00000000    
  -15.6400003       0.00000000    
  -15.6300001       0.00000000    
  -15.6199999       0.00000000    
  -15.6099997       0.00000000    
  -15.6000004       0.00000000    
  -15.5900002       0.00000000    
  -15.5799999       0.00000000    
  -15.5699997       0.00000000    
  -15.5600004       0.00000000    
  -15.5500002       0.00000000    
  -15.5400000       0.00000000    
  -15.5299997       0.00000000    
  -15.5200005       0.00000000    
  -15.5100002       0.00000000    
  -15.5000000       0.00000000    
  -15.4899998       0.00000000    
  -15.4799995       0.00000000    
  -15.4700003       0.00000000    
  -15.4600000       0.00000000    
  -15.4499998       0.00000000    
  -15.4399996       0.00000000    
  -15.4300003       0.00000000    
  -15.4200001       0.00000000    
  -15.4099998       0.00000000    
  -15.3999996       0.00000000    
  -15.3900003       0.00000000    
  -15.3800001       0.00000000    
  -15.3699999       0.00000000    
  -15.3599997       0.00000000    
  -15.3500004       0.00000000    
  -15.3400002       0.00000000    
  -15.3299999       0.00000000    
  -15.3199997       0.00000000    
  -15.3100004       0.00000000    
  -15.3000002       0.00000000    
  -15.2900000       0.00000000    
  -15.2799997       0.00000000    
  -15.2700005       0.00000000    
  -15.2600002       0.00000000    
  -15.2500000       0.00000000    
  -15.2399998       0.00000000    
  -15.2299995       0.00000000    
  -15.2200003       0.00000000    
  -15.2100000       0.00000000    
  -15.1999998       0.00000000    
  -15.1899996       0.00000000    
  -15.1800003       0.00000000    
  -15.1700001       0.00000000    
  -15.1599998       0.00000000    
  -15.1499996       0.00000000    
  -15.1400003       0.00000000    
  -15.1300001       0.00000000    
  -15.1199999       0.00000000    
  -15.1099997       0.00000000    
  -15.1000004       0.00000000    
  -15.0900002       0.00000000    
  -15.0799999       0.00000000    
  -15.0699997       0.00000000    
  -15.0600004       0.00000000    
  -15.0500002       0.00000000    
  -15.0400000       0.00000000    
  -15.0299997       0.00000000    
  -15.0200005       0.00000000    
  -15.0100002       0.00000000    
  -15.0000000       0.00000000    
  -14.9899998       0.00000000    
  -14.9799995       0.00000000    
  -14.9700003       0.00000000    
  -14.9600000       0.00000000    
  -14.9499998       0.00000000    
  -14.9399996       0.00000000    
  -14.9300003       0.00000000    
  -14.9200001       0.00000000    
  -14.9099998       0.00000000    
  -14.8999996       0.00000000    
  -14.8900003       0.00000000    
  -14.8800001       0.00000000    
  -14.8699999       0.00000000    
  -14.8599997       0.00000000    
  -14.8500004       0.00000000    
  -14.8400002       0.00000000    
  -14.8299999       0.00000000    
  -14.8199997       0.00000000    
  -14.8100004       0.00000000    
  -14.8000002       0.00000000    
  -14.7900000       0.00000000    
  -14.7799997       0.00000000    
  -14.7700005       0.00000000    
  -14.7600002       0.00000000    
  -14.7500000       0.00000000    
  -14.7399998       0.00000000    
  -14.7299995       0.00000000    
  -14.7200003       0.00000000    
  -14.7100000       0.00000000    
  -14.6999998       0.00000000    
  -14.6899996       0.00000000    
  -14.6800003       0.00000000    
  -14.6700001       0.00000000    
  -14.6599998       0.00000000    
  -14.6499996       0.00000000    
  -14.6400003       0.00000000    
  -14.6300001       0.00000000    
  -14.6199999       0.00000000    
  -14.6099997       0.00000000    
  -14.6000004       0.00000000    
  -14.5900002       0.00000000    
  -14.5799999       0.00000000    
  -14.5699997       0.00000000    
  -14.5600004       0.00000000    
  -14.5500002       0.00000000    
  -14.5400000       0.00000000    
  -14.5299997       0.00000000    
  -14.5200005       0.00000000    
  -14.5100002       0.00000000    
  -14.5000000       0.00000000    
  -14.4899998       0.00000000    
  -14.4799995       0.00000000    
  -14.4700003       0.00000000    
  -14.4600000       0.00000000    
  -14.4499998       0.00000000    
  -14.4399996       0.00000000    
  -14.4300003       0.00000000    
  -14.4200001       0.00000000    
  -14.4099998       0.00000000    
  -14.3999996       0.00000000    
  -14.3900003       0.00000000    
  -14.3800001       0.00000000    
  -14.3699999       0.00000000    
  -14.3599997       0.00000000    
  -14.3500004       0.00000000    
  -14.3400002       0.00000000    
  -14.3299999       0.00000000    
  -14.3199997       0.00000000    
  -14.3100004       0.00000000    
  -14.3000002       0.00000000    
  -14.2900000       0.00000000    
  -14.2799997       0.00000000    
  -14.2700005       0.00000000    
  -14.2600002       0.00000000    
  -14.2500000       0.00000000    
  -14.2399998       0.00000000    
  -14.2299995       0.00000000    
  -14.2200003       0.00000000    
  -14.2100000       0.00000000    
  -14.1999998       0.00000000    
  -14.1899996       0.00000000    
  -14.1800003       0.00000000    
  -14.1700001       0.00000000    
  -14.1599998       0.00000000    
  -14.1499996       0.00000000    
  -14.1400003       0.00000000    
  -14.1300001       0.00000000    
  -14.1199999       0.00000000    
  -14.1099997       0.00000000    
  -14.1000004       0.00000000    
  -14.0900002       0.00000000    
  -14.0799999       0.00000000    
  -14.0699997       0.00000000    
  -14.0600004       0.00000000    
  -14.0500002       0.00000000    
  -14.0400000       0.00000000    
  -14.0299997       0.00000000    
  -14.0200005       0.00000000    
  -14.0100002       0.00000000    
  -14.0000000       0.00000000    
  -13.9899998       0.00000000    
  -13.9799995       0.00000000    
  -13.9700003       0.00000000    
  -13.9600000       0.00000000    
  -13.9499998       0.00000000    
  -13.9399996       0.00000000    
  -13.9300003       0.00000000    
  -13.9200001       0.00000000    
  -13.9099998       0.00000000    
  -13.8999996       0.00000000    
  -13.8900003       0.00000000    
  -13.8800001       0.00000000    
  -13.8699999       0.00000000    
  -13.8599997       0.00000000    
  -13.8500004       0.00000000    
  -13.8400002       0.00000000    
  -13.8299999       0.00000000    
  -13.8199997       0.00000000    
  -13.8100004       0.00000000    
  -13.8000002       0.00000000    
  -13.7900000       0.00000000    
  -13.7799997       0.00000000    
  -13.7700005       0.00000000    
  -13.7600002       0.00000000    
  -13.7500000       0.00000000    
  -13.7399998       0.00000000    
  -13.7299995       0.00000000    
  -13.7200003       0.00000000    
  -13.7100000       0.00000000    
  -13.6999998       0.00000000    
  -13.6899996       0.00000000    
  -13.6800003       0.00000000    
  -13.6700001       0.00000000    
  -13.6599998       0.00000000    
  -13.6499996       0.00000000    
  -13.6400003       0.00000000    
  -13.6300001       0.00000000    
  -13.6199999       0.00000000    
  -13.6099997       0.00000000    
  -13.6000004       0.00000000    
  -13.5900002       0.00000000    
  -13.5799999       0.00000000    
  -13.5699997       0.00000000    
  -13.5600004       0.00000000    
  -13.5500002       0.00000000    
  -13.5400000       0.00000000    
  -13.5299997       0.00000000    
  -13.5200005       0.00000000    
  -13.5100002       0.00000000    
  -13.5000000       0.00000000    
  -13.4899998       0.00000000    
  -13.4799995       0.00000000    
  -13.4700003       0.00000000    
  -13.4600000       0.00000000    
  -13.4499998       0.00000000    
  -13.4399996       0.00000000    
  -13.4300003       0.00000000    
  -13.4200001       0.00000000    
  -13.4099998       0.00000000    
  -13.3999996       0.00000000    
  -13.3900003       0.00000000    
  -13.3800001       0.00000000    
  -13.3699999       0.00000000    
  -13.3599997       0.00000000    
  -13.3500004       0.00000000    
  -13.3400002       0.00000000    
  -13.3299999       0.00000000    
  -13.3199997       0.00000000    
  -13.3100004       0.00000000    
  -13.3000002       0.00000000    
  -13.2900000       0.00000000    
  -13.2799997       0.00000000    
  -13.2700005       0.00000000    
  -13.2600002       0.00000000    
  -13.2500000       0.00000000    
  -13.2399998       0.00000000    
  -13.2299995       0.00000000    
  -13.2200003       0.00000000    
  -13.2100000       0.00000000    
  -13.1999998       0.00000000    
  -13.1899996       0.00000000    
  -13.1800003       0.00000000    
  -13.1700001       0.00000000    
  -13.1599998       0.00000000    
  -13.1499996       0.00000000    
  -13.1400003       0.00000000    
  -13.1300001       0.00000000    
  -13.1199999       0.00000000    
  -13.1099997       0.00000000    
  -13.1000004       0.00000000    
  -13.0900002       0.00000000    
  -13.0799999       0.00000000    
  -13.0699997       0.00000000    
  -13.0600004       0.00000000    
  -13.0500002       0.00000000    
  -13.0400000       0.00000000    
  -13.0299997       0.00000000    
  -13.0200005       0.00000000    
  -13.0100002       0.00000000    
  -13.0000000       0.00000000    
  -12.9899998       0.00000000    
  -12.9799995       0.00000000    
  -12.9700003       0.00000000    
  -12.9600000       0.00000000    
  -12.9499998       0.00000000    
  -12.9399996       0.00000000    
  -12.9300003       0.00000000    
  -12.9200001       0.00000000    
  -12.9099998       0.00000000    
  -12.8999996       0.00000000    
  -12.8900003       0.00000000    
  -12.8800001       0.00000000    
  -12.8699999       0.00000000    
  -12.8599997       0.00000000    
  -12.8500004       0.00000000    
  -12.8400002       0.00000000    
  -12.8299999       0.00000000    
  -12.8199997       0.00000000    
  -12.8100004       0.00000000    
  -12.8000002       0.00000000    
  -12.7900000       0.00000000    
  -12.7799997       0.00000000    
  -12.7700005       0.00000000    
  -12.7600002       0.00000000    
  -12.7500000       0.00000000    
  -12.7399998       0.00000000    
  -12.7299995       0.00000000    
  -12.7200003       0.00000000    
  -12.7100000       0.00000000    
  -12.6999998       0.00000000    
  -12.6899996       0.00000000    
  -12.6800003       0.00000000    
  -12.6700001       0.00000000    
  -12.6599998       0.00000000    
  -12.6499996       0.00000000    
  -12.6400003       0.00000000    
  -12.6300001       0.00000000    
  -12.6199999       0.00000000    
  -12.6099997       0.00000000    
  -12.6000004       0.00000000    
  -12.5900002       0.00000000    
  -12.5799999       0.00000000    
  -12.5699997       0.00000000    
  -12.5600004       0.00000000    
  -12.5500002       0.00000000    
  -12.5400000       0.00000000    
  -12.5299997       0.00000000    
  -12.5200005       0.00000000    
  -12.5100002       0.00000000    
  -12.5000000       0.00000000    
  -12.4899998       0.00000000    
  -12.4799995       0.00000000    
  -12.4700003       0.00000000    
  -12.4600000       0.00000000    
  -12.4499998       0.00000000    
  -12.4399996       0.00000000    
  -12.4300003       0.00000000    
  -12.4200001       0.00000000    
  -12.4099998       0.00000000    
  -12.3999996       0.00000000    
  -12.3900003       0.00000000    
  -12.3800001       0.00000000    
  -12.3699999       0.00000000    
  -12.3599997       0.00000000    
  -12.3500004       0.00000000    
  -12.3400002       0.00000000    
  -12.3299999       0.00000000    
  -12.3199997       0.00000000    
  -12.3100004       0.00000000    
  -12.3000002       0.00000000    
  -12.2900000       0.00000000    
  -12.2799997       0.00000000    
  -12.2700005       0.00000000    
  -12.2600002       0.00000000    
  -12.2500000       0.00000000    
  -12.2399998       0.00000000    
  -12.2299995       0.00000000    
  -12.2200003       0.00000000    
  -12.2100000       0.00000000    
  -12.1999998       0.00000000    
  -12.1899996       0.00000000    
  -12.1800003       0.00000000    
  -12.1700001       0.00000000    
  -12.1599998       0.00000000    
  -12.1499996       0.00000000    
  -12.1400003       0.00000000    
  -12.1300001       0.00000000    
  -12.1199999      -0.00000000    
  -12.1099997       0.00000000    
  -12.1000004       0.00000000    
  -12.0900002       0.00000000    
  -12.0799999      -0.00000000    
  -12.0699997       0.00000000    
  -12.0600004       0.00000000    
  -12.0500002      -0.00000000    
  -12.0400000      -0.00000000    
  -12.0299997       0.00000000    
  -12.0200005      -0.00000000    
  -12.0100002      -0.00000000    
  -12.0000000       0.00000000    
  -11.9899998      -0.00000000    
  -11.9799995      -1.40129846E-45
  -11.9700003      -0.00000000    
  -11.9600000      -0.00000000    
  -11.9499998      -1.40129846E-45
  -11.9399996      -0.00000000    
  -11.9300003       1.40129846E-45
  -11.9200001       1.40129846E-45
  -11.9099998       0.00000000    
  -11.8999996       0.00000000    
  -11.8900003       0.00000000    
  -11.8800001      -1.40129846E-45
  -11.8699999      -0.00000000    
  -11.8599997      -0.00000000    
  -11.8500004      -1.40129846E-45
  -11.8400002      -2.80259693E-45
  -11.8299999      -2.80259693E-45
  -11.8199997      -7.00649232E-45
  -11.8100004      -9.80908925E-45
  -11.8000002      -7.00649232E-45
  -11.7900000      -2.80259693E-45
  -11.7799997      -0.00000000    
  -11.7700005       0.00000000    
  -11.7600002      -4.20389539E-45
  -11.7500000      -7.00649232E-45
  -11.7399998      -4.20389539E-45
  -11.7299995       4.20389539E-45
  -11.7200003       9.80908925E-45
  -11.7100000       9.80908925E-45
  -11.6999998       4.20389539E-45
  -11.6899996       1.40129846E-45
  -11.6800003       1.40129846E-45
  -11.6700001       1.40129846E-45
  -11.6599998       4.20389539E-45
  -11.6499996       7.00649232E-45
  -11.6400003       1.40129846E-45
  -11.6300001      -4.20389539E-45
  -11.6199999      -4.20389539E-45
  -11.6099997      -5.60519386E-45
  -11.6000004      -2.80259693E-45
  -11.5900002       1.40129846E-45
  -11.5799999       1.96181785E-44
  -11.5699997       3.64337601E-44
  -11.5600004       5.32493416E-44
  -11.5500002       7.70714155E-44
  -11.5400000       1.05097385E-43
  -11.5299997       1.42932443E-43
  -11.5200005       1.91977890E-43
  -11.5100002       2.55036321E-43
  -11.5000000       3.27903841E-43
  -11.4899998       4.14784345E-43
  -11.4799995       5.25486924E-43
  -11.4700003       6.65616771E-43
  -11.4600000       8.44982974E-43
  -11.4499998       1.06778943E-42
  -11.4399996       1.33683873E-42
  -11.4300003       1.66754517E-42
  -11.4200001       2.07392173E-42
  -11.4099998       2.57418528E-42
  -11.3999996       3.17674362E-42
  -11.3900003       3.90401752E-42
  -11.3800001       4.77282257E-42
  -11.3699999       5.80838213E-42
  -11.3599997       7.04432738E-42
  -11.3500004       8.51288817E-42
  -11.3400002       1.02533009E-41
  -11.3299999       1.23174135E-41
  -11.3199997       1.47598767E-41
  -11.3100004       1.76395451E-41
  -11.3000002       2.10362925E-41
  -11.2900000       2.50285919E-41
  -11.2799997       2.96963171E-41
  -11.2700005       3.51529733E-41
  -11.2600002       4.15358878E-41
  -11.2500000       4.89753813E-41
  -11.2399998       5.76354058E-41
  -11.2299995       6.76925249E-41
  -11.2200003       7.93499268E-41
  -11.2100000       9.28472336E-41
  -11.1999998       1.08442284E-40
  -11.1899996       1.26436358E-40
  -11.1800003       1.47164365E-40
  -11.1700001       1.70999050E-40
  -11.1599998       1.98366409E-40
  -11.1499996       2.29748488E-40
  -11.1400003       2.65667972E-40
  -11.1300001       3.06731622E-40
  -11.1199999       3.53617667E-40
  -11.1099997       4.07063191E-40
  -11.1000004       4.67911774E-40
  -11.0900002       5.37078465E-40
  -11.0799999       6.15593218E-40
  -11.0699997       7.04634525E-40
  -11.0600004       8.05469160E-40
  -11.0500002       9.19515237E-40
  -11.0400000       1.04834641E-39
  -11.0299997       1.19367508E-39
  -11.0200005       1.35741961E-39
  -11.0100002       1.54170857E-39
  -11.0000000       1.74885411E-39
  -10.9899998       1.98142622E-39
  -10.9799995       2.24224990E-39
  -10.9700003       2.53441503E-39
  -10.9600000       2.86132675E-39
  -10.9499998       3.22670832E-39
  -10.9399996       3.63462490E-39
  -10.9300003       4.08953402E-39
  -10.9200001       4.59630661E-39
  -10.9099998       5.16024796E-39
  -10.8999996       5.78714406E-39
  -10.8900003       6.48329232E-39
  -10.8800001       7.25555070E-39
  -10.8699999       8.11136431E-39
  -10.8599997       9.05880042E-39
  -10.8500004       1.01066143E-38
  -10.8400002       1.12642887E-38
  -10.8299999       1.25420865E-38
  -10.8199997       1.39510753E-38
  -10.8100004       1.55032263E-38
  -10.8000002       1.72114428E-38
  -10.7900000       1.90896255E-38
  -10.7799997       2.11527222E-38
  -10.7700005       2.34167974E-38
  -10.7600002       2.58991429E-38
  -10.7500000       2.86182645E-38
  -10.7399998       3.15940059E-38
  -10.7299995       3.48476051E-38
  -10.7200003       3.84018333E-38
  -10.7100000       4.22808881E-38
  -10.6999998       4.65107187E-38
  -10.6899996       5.11189700E-38
  -10.6800003       5.61349627E-38
  -10.6700001       6.15900327E-38
  -10.6599998       6.75174018E-38
  -10.6499996       7.39523550E-38
  -10.6400003       8.09322619E-38
  -10.6300001       8.84968073E-38
  -10.6199999       9.66879013E-38
  -10.6099997       1.05549836E-37
  -10.6000004       1.15129337E-37
  -10.5900002       1.25475717E-37
  -10.5799999       1.36640916E-37
  -10.5699997       1.48679493E-37
  -10.5600004       1.61649071E-37
  -10.5500002       1.75609659E-37
  -10.5400000       1.90624460E-37
  -10.5299997       2.06759503E-37
  -10.5200005       2.24083835E-37
  -10.5100002       2.42669693E-37
  -10.5000000       2.62592368E-37
  -10.4899998       2.83929907E-37
  -10.4799995       3.06763964E-37
  -10.4700003       3.31179000E-37
  -10.4600000       3.57262591E-37
  -10.4499998       3.85105651E-37
  -10.4399996       4.14801968E-37
  -10.4300003       4.46448399E-37
  -10.4200001       4.80144090E-37
  -10.4099998       5.15992309E-37
  -10.3999996       5.54097582E-37
  -10.3900003       5.94567844E-37
  -10.3800001       6.37513136E-37
  -10.3699999       6.83045874E-37
  -10.3599997       7.31280316E-37
  -10.3500004       7.82332153E-37
  -10.3400002       8.36319138E-37
  -10.3299999       8.93359653E-37
  -10.3199997       9.53573067E-37
  -10.3100004       1.01707929E-36
  -10.3000002       1.08399714E-36
  -10.2900000       1.15444564E-36
  -10.2799997       1.22854343E-36
  -10.2700005       1.30640513E-36
  -10.2600002       1.38814742E-36
  -10.2500000       1.47387927E-36
  -10.2399998       1.56370882E-36
  -10.2299995       1.65773922E-36
  -10.2200003       1.75606616E-36
  -10.2100000       1.85878416E-36
  -10.1999998       1.96597610E-36
  -10.1899996       2.07771747E-36
  -10.1800003       2.19407484E-36
  -10.1700001       2.31510434E-36
  -10.1599998       2.44085099E-36
  -10.1499996       2.57134636E-36
  -10.1400003       2.70660462E-36
  -10.1300001       2.84662649E-36
  -10.1199999       2.99139672E-36
  -10.1099997       3.14087908E-36
  -10.1000004       3.29501061E-36
  -10.0900002       3.45371526E-36
  -10.0799999       3.61688505E-36
  -10.0699997       3.78438618E-36
  -10.0600004       3.95605758E-36
  -10.0500002       4.13170552E-36
  -10.0400000       4.31109683E-36
  -10.0299997       4.49397000E-36
  -10.0200005       4.68002011E-36
  -10.0100002       4.86890133E-36
  -10.0000000       5.06021942E-36
  -9.98999977       5.25353601E-36
  -9.97999954       5.44836251E-36
  -9.97000027       5.64414717E-36
  -9.96000004       5.84028555E-36
  -9.94999981       6.03611542E-36
  -9.93999958       6.23090210E-36
  -9.93000031       6.42384489E-36
  -9.92000008       6.61405701E-36
  -9.90999985       6.80059355E-36
  -9.89999962       6.98240272E-36
  -9.89000034       7.15836743E-36
  -9.88000011       7.32727156E-36
  -9.86999989       7.48778494E-36
  -9.85999966       7.63848842E-36
  -9.85000038       7.77785022E-36
  -9.84000015       7.90422017E-36
  -9.82999992       8.01583330E-36
  -9.81999969       8.11077398E-36
  -9.81000042       8.18700462E-36
  -9.80000019       8.24234986E-36
  -9.78999996       8.27446717E-36
  -9.77999973       8.28087126E-36
  -9.77000046       8.25889890E-36
  -9.76000023       8.20570032E-36
  -9.75000000       8.11824997E-36
  -9.73999977       7.99331495E-36
  -9.72999954       7.82746004E-36
  -9.72000027       7.61701757E-36
  -9.71000004       7.35810748E-36
  -9.69999981       7.04657349E-36
  -9.68999958       6.67804410E-36
  -9.68000031       6.24782566E-36
  -9.67000008       5.75095867E-36
  -9.65999985       5.18216548E-36
  -9.64999962       4.53584304E-36
  -9.64000034       3.80606115E-36
  -9.63000011       2.98649715E-36
  -9.61999989       2.07046624E-36
  -9.60999966       1.05085269E-36
  -9.60000038      -7.98676506E-38
  -9.59000015      -1.32969009E-36
  -9.57999992      -2.70711187E-36
  -9.56999969      -4.22112782E-36
  -9.56000042      -5.88130230E-36
  -9.55000019      -7.69777397E-36
  -9.53999996      -9.68131164E-36
  -9.52999973      -1.18433409E-35
  -9.52000046      -1.41959927E-35
  -9.51000023      -1.67521362E-35
  -9.50000000      -1.95254462E-35
  -9.48999977      -2.25304571E-35
  -9.47999954      -2.57826003E-35
  -9.47000027      -2.92982812E-35
  -9.46000004      -3.30949099E-35
  -9.44999981      -3.71909767E-35
  -9.43999958      -4.16062122E-35
  -9.43000031      -4.63615115E-35
  -9.42000008      -5.14791278E-35
  -9.40999985      -5.69827315E-35
  -9.39999962      -6.28974770E-35
  -9.39000034      -6.92501860E-35
  -9.38000011      -7.60692930E-35
  -9.36999989      -8.33851439E-35
  -9.35999966      -9.12300190E-35
  -9.35000038      -9.96382417E-35
  -9.34000015      -1.08646420E-34
  -9.32999992      -1.18293371E-34
  -9.31999969      -1.28620594E-34
  -9.31000042      -1.39672158E-34
  -9.30000019      -1.51495003E-34
  -9.28999996      -1.64139166E-34
  -9.27999973      -1.77657845E-34
  -9.27000046      -1.92107759E-34
  -9.26000023      -2.07549140E-34
  -9.25000000      -2.24045963E-34
  -9.23999977      -2.41667037E-34
  -9.22999954      -2.60484819E-34
  -9.22000027      -2.80576910E-34
  -9.21000004      -3.02025343E-34
  -9.19999981      -3.24917774E-34
  -9.18999958      -3.49347944E-34
  -9.18000031      -3.75414417E-34
  -9.17000008      -4.03222526E-34
  -9.15999985      -4.32884611E-34
  -9.14999962      -4.64520011E-34
  -9.14000034      -4.98254632E-34
  -9.13000011      -5.34223382E-34
  -9.11999989      -5.72568696E-34
  -9.10999966      -6.13442839E-34
  -9.10000038      -6.57005879E-34
  -9.09000015      -7.03429228E-34
  -9.07999992      -7.52893938E-34
  -9.06999969      -8.05591809E-34
  -9.06000042      -8.61726715E-34
  -9.05000019      -9.21514378E-34
  -9.03999996      -9.85184203E-34
  -9.02999973      -1.05297717E-33
  -9.02000046      -1.12514986E-33
  -9.01000023      -1.20197401E-33
  -9.00000000      -1.28373644E-33
  -8.98999977      -1.37074029E-33
  -8.97999954      -1.46330597E-33
  -8.97000027      -1.56177226E-33
  -8.96000004      -1.66649742E-33
  -8.94999981      -1.77785935E-33
  -8.93999958      -1.89625551E-33
  -8.93000031      -2.02210669E-33
  -8.92000008      -2.15585590E-33
  -8.90999985      -2.29797005E-33
  -8.89999962      -2.44894044E-33
  -8.89000034      -2.60928448E-33
  -8.88000011      -2.77954584E-33
  -8.86999989      -2.96029738E-33
  -8.85999966      -3.15214173E-33
  -8.85000038      -3.35571201E-33
  -8.84000015      -3.57167236E-33
  -8.82999992      -3.80071707E-33
  -8.81999969      -4.04358192E-33
  -8.81000042      -4.30103061E-33
  -8.80000019      -4.57386725E-33
  -8.78999996      -4.86293638E-33
  -8.77999973      -5.16911482E-33
  -8.77000046      -5.49332387E-33
  -8.76000023      -5.83653149E-33
  -8.75000000      -6.19974749E-33
  -8.73999977      -6.58401806E-33
  -8.72999954      -6.99044817E-33
  -8.72000027      -7.42017879E-33
  -8.71000004      -7.87440670E-33
  -8.69999981      -8.35437500E-33
  -8.68999958      -8.86138702E-33
  -8.68000031      -9.39679164E-33
  -8.67000008      -9.96198475E-33
  -8.65999985      -1.05584416E-32
  -8.64999962      -1.11876661E-32
  -8.64000034      -1.18512547E-32
  -8.63000011      -1.25508178E-32
  -8.61999989      -1.32880703E-32
  -8.60999966      -1.40647591E-32
  -8.60000038      -1.48827003E-32
  -8.59000015      -1.57437749E-32
  -8.57999992      -1.66499327E-32
  -8.56999969      -1.76031778E-32
  -8.56000042      -1.86055923E-32
  -8.55000019      -1.96593202E-32
  -8.53999996      -2.07665815E-32
  -8.52999973      -2.19296141E-32
  -8.52000046      -2.31507852E-32
  -8.51000023      -2.44325046E-32
  -8.50000000      -2.57772422E-32
  -8.48999977      -2.71875357E-32
  -8.47999954      -2.86659755E-32
  -8.47000027      -3.02152624E-32
  -8.46000004      -3.18381117E-32
  -8.44999981      -3.35373270E-32
  -8.43999958      -3.53157500E-32
  -8.43000031      -3.71763048E-32
  -8.42000008      -3.91219537E-32
  -8.40999985      -4.11557059E-32
  -8.39999962      -4.32806529E-32
  -8.39000034      -4.54999362E-32
  -8.38000011      -4.78167034E-32
  -8.36999989      -5.02341516E-32
  -8.35999966      -5.27555517E-32
  -8.35000038      -5.53841863E-32
  -8.34000015      -5.81233467E-32
  -8.32999992      -6.09763244E-32
  -8.31999969      -6.39465459E-32
  -8.31000042      -6.70373085E-32
  -8.30000019      -7.02519211E-32
  -8.28999996      -7.35936929E-32
  -8.27999973      -7.70661091E-32
  -8.27000046      -8.06724434E-32
  -8.26000023      -8.44158699E-32
  -8.25000000      -8.82996973E-32
  -8.23999977      -9.23270761E-32
  -8.22999954      -9.65010920E-32
  -8.22000027      -1.00824854E-31
  -8.21000004      -1.05301160E-31
  -8.19999981      -1.09932960E-31
  -8.18999958      -1.14722935E-31
  -8.18000031      -1.19673683E-31
  -8.17000008      -1.24787553E-31
  -8.15999985      -1.30066875E-31
  -8.14999962      -1.35513692E-31
  -8.14000034      -1.41129911E-31
  -8.13000011      -1.46917128E-31
  -8.11999989      -1.52876661E-31
  -8.10999966      -1.59009697E-31
  -8.10000038      -1.65317012E-31
  -8.09000015      -1.71799181E-31
  -8.07999992      -1.78456135E-31
  -8.06999969      -1.85287955E-31
  -8.06000042      -1.92293866E-31
  -8.05000019      -1.99472928E-31
  -8.03999996      -2.06823553E-31
  -8.02999973      -2.14343707E-31
  -8.02000046      -2.22030852E-31
  -8.01000023      -2.29881979E-31
  -8.00000000      -2.37893467E-31
  -7.98999977      -2.46060849E-31
  -7.98000002      -2.54379376E-31
  -7.96999979      -2.62843264E-31
  -7.96000004      -2.71446025E-31
  -7.94999981      -2.80180536E-31
  -7.94000006      -2.89038662E-31
  -7.92999983      -2.98011375E-31
  -7.92000008      -3.07088942E-31
  -7.90999985      -3.16260807E-31
  -7.90000010      -3.25514698E-31
  -7.88999987      -3.34838014E-31
  -7.88000011      -3.44216437E-31
  -7.86999989      -3.53634827E-31
  -7.86000013      -3.63076891E-31
  -7.84999990      -3.72524786E-31
  -7.84000015      -3.81959186E-31
  -7.82999992      -3.91359779E-31
  -7.82000017      -4.00704818E-31
  -7.80999994      -4.09970488E-31
  -7.80000019      -4.19131868E-31
  -7.78999996      -4.28162580E-31
  -7.78000021      -4.37033706E-31
  -7.76999998      -4.45715390E-31
  -7.76000023      -4.54175000E-31
  -7.75000000      -4.62379339E-31
  -7.73999977      -4.70292015E-31
  -7.73000002      -4.77875223E-31
  -7.71999979      -4.85088809E-31
  -7.71000004      -4.91890924E-31
  -7.69999981      -4.98235820E-31
  -7.69000006      -5.04078497E-31
  -7.67999983      -5.09368645E-31
  -7.67000008      -5.14054635E-31
  -7.65999985      -5.18081785E-31
  -7.65000010      -5.21394281E-31
  -7.63999987      -5.23932267E-31
  -7.63000011      -5.25633114E-31
  -7.61999989      -5.26431885E-31
  -7.61000013      -5.26260780E-31
  -7.59999990      -5.25049457E-31
  -7.59000015      -5.22723107E-31
  -7.57999992      -5.19205369E-31
  -7.57000017      -5.14415559E-31
  -7.55999994      -5.08270686E-31
  -7.55000019      -5.00683857E-31
  -7.53999996      -4.91566159E-31
  -7.53000021      -4.80823833E-31
  -7.51999998      -4.68359549E-31
  -7.51000023      -4.54073907E-31
  -7.50000000      -4.37862665E-31
  -7.48999977      -4.19618663E-31
  -7.48000002      -3.99231407E-31
  -7.46999979      -3.76586542E-31
  -7.46000004      -3.51565416E-31
  -7.44999981      -3.24046177E-31
  -7.44000006      -2.93904009E-31