  -16.0000000       0.00000000    
  -15.9899998       0.00000000    
  -15.9799995       0.00000000    
  -15.9700003       0.00000000    
  -15.9600000       0.00000000    
  -15.9499998       0.00000000    
  -15.9399996       0.00000000    
  -15.9300003       0.00000000    
  -15.9200001       0.00000000    
  -15.9099998       0.00000000    
  -15.8999996       0.00000000    
  -15.8900003       0.00000000    
  -15.8800001       0.00000000    
  -15.8699999       0.00000000    
  -15.8599997       0.00000000    
  -15.8500004       0.00000000    
  -15.8400002       0.00000000    
  -15.8299999       0.00000000    
  -15.8199997       0.00000000    
  -15.8100004       0.00000000    
  -15.8000002       0.00000000    
  -15.7900000       0.00000000    
  -15.7799997       0.00000000    
  -15.7700005       0.00000000    
  -15.7600002       0.00000000    
  -15.7500000       0.00000000    
  -15.7399998       0.00000000    
  -15.7299995       0.00000000    
  -15.7200003       0.00000000    
  -15.7100000       0.00000000    
  -15.6999998       0.00000000    
  -15.6899996       0.00000000    
  -15.6800003       0.00000000    
  -15.6700001       0.00000000    
  -15.6599998       0.00000000    
  -15.6499996       0.00000000    
  -15.6400003       0.00000000    
  -15.6300001       0.00000000    
  -15.6199999       0.00000000    
  -15.6099997       0.00000000    
  -15.6000004       0.00000000    
  -15.5900002       0.00000000    
  -15.5799999       0.00000000    
  -15.5699997       0.00000000    
  -15.5600004       0.00000000    
  -15.5500002       0.00000000    
  -15.5400000       0.00000000    
  -15.5299997       0.00000000    
  -15.5200005       0.00000000    
  -15.5100002       0.00000000    
  -15.5000000       0.00000000    
  -15.4899998       0.00000000    
  -15.4799995       0.00000000    
  -15.4700003       0.00000000    
  -15.4600000       0.00000000    
  -15.4499998       0.00000000    
  -15.4399996       0.00000000    
  -15.4300003       0.00000000    
  -15.4200001       0.00000000    
  -15.4099998       0.00000000    
  -15.3999996       0.00000000    
  -15.3900003       0.00000000    
  -15.3800001       0.00000000    
  -15.3699999       0.00000000    
  -15.3599997       0.00000000    
  -15.3500004       0.00000000    
  -15.3400002       0.00000000    
  -15.3299999       0.00000000    
  -15.3199997       0.00000000    
  -15.3100004       0.00000000    
  -15.3000002       0.00000000    
  -15.2900000       0.00000000    
  -15.2799997       0.00000000    
  -15.2700005       0.00000000    
  -15.2600002       0.00000000    
  -15.2500000       0.00000000    
  -15.2399998       0.00000000    
  -15.2299995       0.00000000    
  -15.2200003       0.00000000    
  -15.2100000       0.00000000    
  -15.1999998       0.00000000    
  -15.1899996       0.00000000    
  -15.1800003       0.00000000    
  -15.1700001       0.00000000    
  -15.1599998       0.00000000    
  -15.1499996       0.00000000    
  -15.1400003       0.00000000    
  -15.1300001       0.00000000    
  -15.1199999       0.00000000    
  -15.1099997       0.00000000    
  -15.1000004       0.00000000    
  -15.0900002       0.00000000    
  -15.0799999       0.00000000    
  -15.0699997       0.00000000    
  -15.0600004       0.00000000    
  -15.0500002       0.00000000    
  -15.0400000       0.00000000    
  -15.0299997       0.00000000    
  -15.0200005       0.00000000    
  -15.0100002       0.00000000    
  -15.0000000       0.00000000    
  -14.9899998       0.00000000    
  -14.9799995       0.00000000    
  -14.9700003       0.00000000    
  -14.9600000       0.00000000    
  -14.9499998       0.00000000    
  -14.9399996       0.00000000    
  -14.9300003       0.00000000    
  -14.9200001       0.00000000    
  -14.9099998       0.00000000    
  -14.8999996       0.00000000    
  -14.8900003       0.00000000    
  -14.8800001       0.00000000    
  -14.8699999       0.00000000    
  -14.8599997       0.00000000    
  -14.8500004       0.00000000    
  -14.8400002       0.00000000    
  -14.8299999       0.00000000    
  -14.8199997       0.00000000    
  -14.8100004       0.00000000    
  -14.8000002       0.00000000    
  -14.7900000       0.00000000    
  -14.7799997       0.00000000    
  -14.7700005       0.00000000    
  -14.7600002       0.00000000    
  -14.7500000       0.00000000    
  -14.7399998       0.00000000    
  -14.7299995       0.00000000    
  -14.7200003       0.00000000    
  -14.7100000       0.00000000    
  -14.6999998       0.00000000    
  -14.6899996       0.00000000    
  -14.6800003       0.00000000    
  -14.6700001       0.00000000    
  -14.6599998       0.00000000    
  -14.6499996       0.00000000    
  -14.6400003       0.00000000    
  -14.6300001       0.00000000    
  -14.6199999       0.00000000    
  -14.6099997       0.00000000    
  -14.6000004       0.00000000    
  -14.5900002       0.00000000    
  -14.5799999       0.00000000    
  -14.5699997       0.00000000    
  -14.5600004       0.00000000    
  -14.5500002       0.00000000    
  -14.5400000       0.00000000    
  -14.5299997       0.00000000    
  -14.5200005       0.00000000    
  -14.5100002       0.00000000    
  -14.5000000       0.00000000    
  -14.4899998       0.00000000    
  -14.4799995       0.00000000    
  -14.4700003       0.00000000    
  -14.4600000       0.00000000    
  -14.4499998       0.00000000    
  -14.4399996       0.00000000    
  -14.4300003       0.00000000    
  -14.4200001       0.00000000    
  -14.4099998       0.00000000    
  -14.3999996       0.00000000    
  -14.3900003       0.00000000    
  -14.3800001       0.00000000    
  -14.3699999       0.00000000    
  -14.3599997       0.00000000    
  -14.3500004       0.00000000    
  -14.3400002       0.00000000    
  -14.3299999       0.00000000    
  -14.3199997       0.00000000    
  -14.3100004       0.00000000    
  -14.3000002       0.00000000    
  -14.2900000       0.00000000    
  -14.2799997       0.00000000    
  -14.2700005       0.00000000    
  -14.2600002       0.00000000    
  -14.2500000       0.00000000    
  -14.2399998       0.00000000    
  -14.2299995       0.00000000    
  -14.2200003       0.00000000    
  -14.2100000       0.00000000    
  -14.1999998       0.00000000    
  -14.1899996       0.00000000    
  -14.1800003       0.00000000    
  -14.1700001       0.00000000    
  -14.1599998       0.00000000    
  -14.1499996       0.00000000    
  -14.1400003       0.00000000    
  -14.1300001       0.00000000    
  -14.1199999       0.00000000    
  -14.1099997       0.00000000    
  -14.1000004       0.00000000    
  -14.0900002       0.00000000    
  -14.0799999       0.00000000    
  -14.0699997       0.00000000    
  -14.0600004       0.00000000    
  -14.0500002       0.00000000    
  -14.0400000       0.00000000    
  -14.0299997       0.00000000    
  -14.0200005       0.00000000    
  -14.0100002       0.00000000    
  -14.0000000       0.00000000    
  -13.9899998       0.00000000    
  -13.9799995       0.00000000    
  -13.9700003       0.00000000    
  -13.9600000       0.00000000    
  -13.9499998       0.00000000    
  -13.9399996       0.00000000    
  -13.9300003       0.00000000    
  -13.9200001       0.00000000    
  -13.9099998       0.00000000    
  -13.8999996       0.00000000    
  -13.8900003       0.00000000    
  -13.8800001       0.00000000    
  -13.8699999       0.00000000    
  -13.8599997       0.00000000    
  -13.8500004       0.00000000    
  -13.8400002       0.00000000    
  -13.8299999       0.00000000    
  -13.8199997       0.00000000    
  -13.8100004       0.00000000    
  -13.8000002       0.00000000    
  -13.7900000       0.00000000    
  -13.7799997       0.00000000    
  -13.7700005       0.00000000    
  -13.7600002       0.00000000    
  -13.7500000       0.00000000    
  -13.7399998       0.00000000    
  -13.7299995       0.00000000    
  -13.7200003       0.00000000    
  -13.7100000       0.00000000    
  -13.6999998       0.00000000    
  -13.6899996       0.00000000    
  -13.6800003       0.00000000    
  -13.6700001       0.00000000    
  -13.6599998       0.00000000    
  -13.6499996       0.00000000    
  -13.6400003       0.00000000    
  -13.6300001       0.00000000    
  -13.6199999       0.00000000    
  -13.6099997       0.00000000    
  -13.6000004       0.00000000    
  -13.5900002       0.00000000    
  -13.5799999       0.00000000    
  -13.5699997       0.00000000    
  -13.5600004       0.00000000    
  -13.5500002      -0.00000000    
  -13.5400000       0.00000000    
  -13.5299997      -0.00000000    
  -13.5200005       0.00000000    
  -13.5100002       0.00000000    
  -13.5000000      -0.00000000    
  -13.4899998       0.00000000    
  -13.4799995       0.00000000    
  -13.4700003      -0.00000000    
  -13.4600000      -0.00000000    
  -13.4499998      -0.00000000    
  -13.4399996       0.00000000    
  -13.4300003       1.40129846E-45
  -13.4200001       1.40129846E-45
  -13.4099998       1.40129846E-45
  -13.3999996       0.00000000    
  -13.3900003       1.40129846E-45
  -13.3800001       2.80259693E-45
  -13.3699999       2.80259693E-45
  -13.3599997       1.40129846E-45
  -13.3500004       1.40129846E-45
  -13.3400002       7.00649232E-45
  -13.3299999       8.40779079E-45
  -13.3199997       7.00649232E-45
  -13.3100004       7.00649232E-45
  -13.3000002       7.00649232E-45
  -13.2900000       7.00649232E-45
  -13.2799997       5.60519386E-45
  -13.2700005      -2.80259693E-45
  -13.2600002      -9.80908925E-45
  -13.2500000      -4.20389539E-45
  -13.2399998      -2.80259693E-45
  -13.2299995      -9.80908925E-45
  -13.2200003      -9.80908925E-45
  -13.2100000      -9.80908925E-45
  -13.1999998      -2.10194770E-44
  -13.1899996      -2.80259693E-44
  -13.1800003      -2.52233724E-44
  -13.1700001      -2.94272678E-44
  -13.1599998      -4.34402524E-44
  -13.1499996      -5.04467447E-44
  -13.1400003      -5.46506401E-44
  -13.1300001      -6.16571324E-44
  -13.1199999      -7.56701171E-44
  -13.1099997      -9.24856986E-44
  -13.1000004      -1.07899982E-43
  -13.0900002      -1.30320757E-43
  -13.0799999      -1.61149323E-43
  -13.0699997      -1.98984382E-43
  -13.0600004      -2.41023336E-43
  -13.0500002      -2.97075274E-43
  -13.0400000      -3.67140198E-43
  -13.0299997      -4.51218106E-43
  -13.0200005      -5.50710296E-43
  -13.0100002      -6.79629755E-43
  -13.0000000      -8.30969989E-43
  -12.9899998      -1.00192840E-42
  -12.9799995      -1.22053096E-42
  -12.9700003      -1.48117248E-42
  -12.9600000      -1.79926723E-42
  -12.9499998      -2.18602560E-42
  -12.9399996      -2.66526968E-42
  -12.9300003      -3.25381503E-42
  -12.9200001      -3.95026037E-42
  -12.9099998      -4.76161218E-42
  -12.8999996      -5.74252111E-42
  -12.8900003      -6.90559883E-42
  -12.8800001      -8.27326613E-42
  -12.8699999      -9.90157495E-42
  -12.8599997      -1.18311629E-41
  -12.8500004      -1.41194833E-41
  -12.8400002      -1.68169829E-41
  -12.8299999      -1.99839174E-41
  -12.8199997      -2.37071674E-41
  -12.8100004      -2.80834225E-41
  -12.8000002      -3.32107736E-41
  -12.7900000      -3.91789038E-41
  -12.7799997      -4.61489623E-41
  -12.7700005      -5.42877038E-41
  -12.7600002      -6.37422645E-41
  -12.7500000      -7.47172341E-41
  -12.7399998      -8.74129982E-41
  -12.7299995      -1.02114020E-40
  -12.7200003      -1.19135593E-40
  -12.7100000      -1.38767784E-40
  -12.6999998      -1.61379136E-40
  -12.6899996      -1.87411058E-40
  -12.6800003      -2.17330181E-40
  -12.6700001      -2.51640974E-40
  -12.6599998      -2.90965613E-40
  -12.6499996      -3.35979524E-40
  -12.6400003      -3.87422592E-40
  -12.6300001      -4.46138399E-40
  -12.6199999      -5.13068617E-40
  -12.6099997      -5.89271228E-40
  -12.6000004      -6.75926123E-40
  -12.5900002      -7.74330907E-40
  -12.5799999      -8.85956941E-40
  -12.5699997      -1.01243534E-39
  -12.5600004      -1.15555415E-39
  -12.5500002      -1.31730463E-39
  -12.5400000      -1.49991064E-39
  -12.5299997      -1.70586088E-39
  -12.5200005      -1.93785565E-39
  -12.5100002      -2.19889653E-39
  -12.5000000      -2.49232282E-39
  -12.4899998      -2.82178070E-39
  -12.4799995      -3.19127508E-39
  -12.4700003      -3.60522846E-39
  -12.4600000      -4.06852155E-39
  -12.4499998      -4.58651854E-39
  -12.4399996      -5.16507824E-39
  -12.4300003      -5.81062281E-39
  -12.4200001      -6.53018257E-39
  -12.4099998      -7.33145344E-39
  -12.3999996      -8.22283761E-39
  -12.3900003      -9.21349677E-39
  -12.3800001      -1.03134362E-38
  -12.3699999      -1.15335720E-38
  -12.3599997      -1.28857199E-38
  -12.3500004      -1.43827817E-38
  -12.3400002      -1.60387269E-38
  -12.3299999      -1.78687793E-38
  -12.3199997      -1.98894194E-38
  -12.3100004      -2.21184201E-38
  -12.3000002      -2.45750476E-38
  -12.2900000      -2.72802823E-38
  -12.2799997      -3.02565590E-38
  -12.2700005      -3.35281985E-38
  -12.2600002      -3.71214781E-38
  -12.2500000      -4.10644433E-38
  -12.2399998      -4.53876285E-38
  -12.2299995      -5.01236221E-38
  -12.2200003      -5.53076025E-38
  -12.2100000      -6.09770655E-38
  -12.1999998      -6.71724750E-38
  -12.1899996      -7.39368958E-38
  -12.1800003      -8.13166380E-38
  -12.1700001      -8.93612066E-38
  -12.1599998      -9.81234363E-38
  -12.1499996      -1.07659620E-37
  -12.1400003      -1.18029744E-37
  -12.1300001      -1.29298213E-37
  -12.1199999      -1.41532939E-37
  -12.1099997      -1.54806340E-37
  -12.1000004      -1.69195299E-37
  -12.0900002      -1.84781841E-37
  -12.0799999      -2.01652365E-37
  -12.0699997      -2.19898481E-37
  -12.0600004      -2.39618047E-37
  -12.0500002      -2.60913344E-37
  -12.0400000      -2.83892486E-37
  -12.0299997      -3.08669887E-37
  -12.0200005      -3.35367022E-37
  -12.0100002      -3.64111039E-37
  -12.0000000      -3.95034826E-37
  -11.9899998      -4.28279231E-37
  -11.9799995      -4.63991984E-37
  -11.9700003      -5.02328909E-37
  -11.9600000      -5.43451839E-37
  -11.9499998      -5.87529649E-37
  -11.9399996      -6.34742018E-37
  -11.9300003      -6.85272885E-37
  -11.9200001      -7.39316909E-37
  -11.9099998      -7.97074530E-37
  -11.8999996      -8.58757850E-37
  -11.8900003      -9.24582915E-37
  -11.8800001      -9.94776623E-37
  -11.8699999      -1.06957852E-36
  -11.8599997      -1.14922563E-36
  -11.8500004      -1.23397114E-36
  -11.8400002      -1.32408122E-36
  -11.8299999      -1.41981937E-36
  -11.8199997      -1.52146485E-36
  -11.8100004      -1.62930035E-36
  -11.8000002      -1.74361707E-36
  -11.7900000      -1.86471527E-36
  -11.7799997      -1.99289950E-36
  -11.7700005      -2.12849300E-36
  -11.7600002      -2.27180157E-36
  -11.7500000      -2.42315275E-36
  -11.7399998      -2.58288248E-36
  -11.7299995      -2.75131721E-36
  -11.7200003      -2.92879917E-36
  -11.7100000      -3.11566736E-36
  -11.6999998      -3.31226097E-36
  -11.6899996      -3.51892635E-36
  -11.6800003      -3.73600036E-36
  -11.6700001      -3.96383346E-36
  -11.6599998      -4.20275211E-36
  -11.6499996      -4.45308707E-36
  -11.6400003      -4.71516835E-36
  -11.6300001      -4.98931202E-36
  -11.6199999      -5.27582549E-36
  -11.6099997      -5.57499612E-36
  -11.6000004      -5.88710659E-36
  -11.5900002      -6.21244244E-36
  -11.5799999      -6.55122933E-36
  -11.5699997      -6.90369038E-36
  -11.5600004      -7.27001787E-36
  -11.5500002      -7.65039619E-36
  -11.5400000      -8.04496739E-36
  -11.5299997      -8.45382333E-36
  -11.5200005      -8.87702282E-36
  -11.5100002      -9.31459385E-36
  -11.5000000      -9.76649767E-36
  -11.4899998      -1.02326604E-35
  -11.4799995      -1.07129579E-35
  -11.4700003      -1.12071713E-35
  -11.4600000      -1.17150654E-35
  -11.4499998      -1.22362907E-35
  -11.4399996      -1.27703987E-35
  -11.4300003      -1.33168859E-35
  -11.4200001      -1.38752170E-35
  -11.4099998      -1.44446631E-35
  -11.3999996      -1.50243934E-35
  -11.3900003      -1.56135295E-35
  -11.3800001      -1.62109955E-35
  -11.3699999      -1.68156476E-35
  -11.3599997      -1.74261283E-35
  -11.3500004      -1.80409512E-35
  -11.3400002      -1.86585033E-35
  -11.3299999      -1.92769809E-35
  -11.3199997      -1.98943709E-35
  -11.3100004      -2.05085251E-35
  -11.3000002      -2.11169768E-35
  -11.2900000      -2.17170343E-35
  -11.2799997      -2.23059552E-35
  -11.2700005      -2.28805585E-35
  -11.2600002      -2.34375278E-35
  -11.2500000      -2.39729560E-35
  -11.2399998      -2.44829042E-35
  -11.2299995      -2.49630862E-35
  -11.2200003      -2.54089073E-35
  -11.2100000      -2.58151302E-35
  -11.1999998      -2.61764569E-35
  -11.1899996      -2.64869413E-35
  -11.1800003      -2.67403441E-35
  -11.1700001      -2.69298495E-35
  -11.1599998      -2.70481336E-35
  -11.1499996      -2.70873617E-35
  -11.1400003      -2.70392256E-35
  -11.1300001      -2.68947253E-35
  -11.1199999      -2.66442555E-35
  -11.1099997      -2.62774214E-35
  -11.1000004      -2.57833579E-35
  -11.0900002      -2.51502785E-35
  -11.0799999      -2.43655011E-35
  -11.0699997      -2.34155103E-35
  -11.0600004      -2.22861503E-35
  -11.0500002      -2.09619743E-35
  -11.0400000      -1.94265623E-35
  -11.0299997      -1.76625115E-35
  -11.0200005      -1.56511319E-35
  -11.0100002      -1.33726688E-35
  -11.0000000      -1.08057777E-35
  -10.9899998      -7.92792879E-36
  -10.9799995      -4.71507795E-36
  -10.9700003      -1.14140697E-36
  -10.9600000       2.82032279E-36
  -10.9499998       7.19931243E-36
  -10.9399996       1.20267199E-35
  -10.9300003       1.73356661E-35
  -10.9200001       2.31613584E-35
  -10.9099998       2.95414272E-35
  -10.8999996       3.65159084E-35
  -10.8900003       4.41273663E-35
  -10.8800001       5.24213198E-35
  -10.8699999       6.14461375E-35
  -10.8599997       7.12532731E-35
  -10.8500004       8.18975868E-35
  -10.8400002       9.34375836E-35
  -10.8299999       1.05935436E-34
  -10.8199997       1.19457180E-34
  -10.8100004       1.34073935E-34
  -10.8000002       1.49860515E-34
  -10.7900000       1.66896504E-34
  -10.7799997       1.85267174E-34
  -10.7700005       2.05063268E-34
  -10.7600002       2.26381248E-34
  -10.7500000       2.49323500E-34
  -10.7399998       2.73999284E-34
  -10.7299995       3.00524819E-34
  -10.7200003       3.29024588E-34
  -10.7100000       3.59629295E-34
  -10.6999998       3.92478600E-34
  -10.6899996       4.27721573E-34
  -10.6800003       4.65517528E-34
  -10.6700001       5.06034385E-34
  -10.6599998       5.49451223E-34
  -10.6499996       5.95957085E-34
  -10.6400003       6.45753643E-34
  -10.6300001       6.99057628E-34
  -10.6199999       7.56097206E-34
  -10.6099997       8.17113398E-34
  -10.6000004       8.82365182E-34
  -10.5900002       9.52126363E-34
  -10.5799999       1.02668779E-33
  -10.5699997       1.10635269E-33
  -10.5600004       1.19145352E-33
  -10.5500002       1.28233264E-33
  -10.5400000       1.37936511E-33
  -10.5299997       1.48293581E-33
  -10.5200005       1.59345808E-33
  -10.5100002       1.71136567E-33
  -10.5000000       1.83713108E-33
  -10.4899998       1.97123956E-33
  -10.4799995       2.11421365E-33
  -10.4700003       2.26660400E-33
  -10.4600000       2.42899304E-33
  -10.4499998       2.60200266E-33
  -10.4399996       2.78627793E-33
  -10.4300003       2.98250835E-33
  -10.4200001       3.19141978E-33
  -10.4099998       3.41379135E-33
  -10.3999996       3.65043710E-33
  -10.3900003       3.90219786E-33
  -10.3800001       4.16999237E-33
  -10.3699999       4.45477021E-33
  -10.3599997       4.75754339E-33
  -10.3500004       5.07938676E-33
  -10.3400002       5.42139905E-33
  -10.3299999       5.78475978E-33
  -10.3199997       6.17072086E-33
  -10.3100004       6.58057680E-33
  -10.3000002       7.01572130E-33
  -10.2900000       7.47759654E-33
  -10.2799997       7.96771377E-33
  -10.2700005       8.48766578E-33
  -10.2600002       9.03913940E-33
  -10.2500000       9.62388025E-33
  -10.2399998       1.02437493E-32
  -10.2299995       1.09006993E-32
  -10.2200003       1.15967411E-32
  -10.2100000       1.23340332E-32
  -10.1999998       1.31148215E-32
  -10.1899996       1.39413953E-32
  -10.1800003       1.48162511E-32
  -10.1700001       1.57419309E-32
  -10.1599998       1.67211662E-32
  -10.1499996       1.77567223E-32
  -10.1400003       1.88515381E-32
  -10.1300001       2.00086624E-32
  -10.1199999       2.12312603E-32
  -10.1099997       2.25227436E-32
  -10.1000004       2.38865316E-32
  -10.0900002       2.53263373E-32
  -10.0799999       2.68459018E-32
  -10.0699997       2.84491291E-32
  -10.0600004       3.01400425E-32
  -10.0500002       3.19230206E-32
  -10.0400000       3.38025214E-32
  -10.0299997       3.57831853E-32
  -10.0200005       3.78697319E-32
  -10.0100002       4.00670717E-32
  -10.0000000       4.23805122E-32
  -9.98999977       4.48152754E-32
  -9.97999954       4.73769686E-32
  -9.97000027       5.00713868E-32
  -9.96000004       5.29043869E-32
  -9.94999981       5.58822256E-32
  -9.93999958       5.90113152E-32
  -9.93000031       6.22980561E-32
  -9.92000008       6.57492488E-32
  -9.90999985       6.93720930E-32
  -9.89999962       7.31739062E-32
  -9.89000034       7.71619471E-32
  -9.88000011       8.13438917E-32
  -9.86999989       8.57278273E-32
  -9.85999966       9.03219179E-32
  -9.85000038       9.51344094E-32
  -9.84000015       1.00173983E-31
  -9.82999992       1.05449566E-31
  -9.81999969       1.10969911E-31
  -9.81000042       1.16744680E-31
  -9.80000019       1.22783359E-31
  -9.78999996       1.29095611E-31
  -9.77999973       1.35691380E-31
  -9.77000046       1.42581000E-31
  -9.76000023       1.49774449E-31
  -9.75000000       1.57282743E-31
  -9.73999977       1.65116319E-31
  -9.72999954       1.73286816E-31
  -9.72000027       1.81805036E-31
  -9.71000004       1.90682029E-31
  -9.69999981       1.99929466E-31
  -9.68999958       2.09559257E-31
  -9.68000031       2.19582721E-31
  -9.67000008       2.30012247E-31
  -9.65999985       2.40860227E-31
  -9.64999962       2.52137473E-31
  -9.64000034       2.63857457E-31
  -9.63000011       2.76031206E-31
  -9.61999989       2.88671531E-31
  -9.60999966       3.01790589E-31
  -9.60000038       3.15401991E-31
  -9.59000015       3.29515141E-31
  -9.57999992       3.44144262E-31
  -9.56999969       3.59300686E-31
  -9.56000042       3.74996498E-31
  -9.55000019       3.91243006E-31
  -9.53999996       4.08051423E-31
  -9.52999973       4.25432941E-31
  -9.52000046       4.43399055E-31
  -9.51000023       4.61959594E-31
  -9.50000000       4.81126029E-31
  -9.48999977       5.00906167E-31
  -9.47999954       5.21311244E-31
  -9.47000027       5.42347562E-31
  -9.46000004       5.64023631E-31
  -9.44999981       5.86348008E-31
  -9.43999958       6.09326666E-31
  -9.43000031       6.32965763E-31
  -9.42000008       6.57269156E-31
  -9.40999985       6.82241969E-31
  -9.39999962       7.07885895E-31
  -9.39000034       7.34202252E-31
  -9.38000011       7.61195175E-31
  -9.36999989       7.88856438E-31
  -9.35999966       8.17189661E-31
  -9.35000038       8.46191551E-31
  -9.34000015       8.75852283E-31
  -9.32999992       9.06169787E-31
  -9.31999969       9.37129863E-31
  -9.31000042       9.68724706E-31
  -9.30000019       1.00094237E-30
  -9.28999996       1.03376406E-30
  -9.27999973       1.06717772E-30
  -9.27000046       1.10115844E-30
  -9.26000023       1.13568929E-30
  -9.25000000       1.17074206E-30
  -9.23999977       1.20628929E-30
  -9.22999954       1.24229403E-30
  -9.22000027       1.27872843E-30
  -9.21000004       1.31555488E-30
  -9.19999981       1.35272533E-30
  -9.18999958       1.39020122E-30
  -9.18000031       1.42793242E-30
  -9.17000008       1.46586732E-30
  -9.15999985       1.50394280E-30
  -9.14999962       1.54210254E-30
  -9.14000034       1.58027969E-30
  -9.13000011       1.61840558E-30
  -9.11999989       1.65639737E-30
  -9.10999966       1.69417963E-30
  -9.10000038       1.73166248E-30
  -9.09000015       1.76875563E-30
  -9.07999992       1.80535939E-30
  -9.06999969       1.84136526E-30
  -9.06000042       1.87666432E-30
  -9.05000019       1.91113602E-30
  -9.03999996       1.94466638E-30
  -9.02999973       1.97711341E-30
  -9.02000046       2.00833360E-30
  -9.01000023       2.03819342E-30
  -9.00000000       2.06652923E-30
  -8.98999977       2.09317872E-30
  -8.97999954       2.11798296E-30
  -8.97000027       2.14073790E-30
  -8.96000004       2.16126561E-30
  -8.94999981       2.17938082E-30
  -8.93999958       2.19486895E-30
  -8.93000031       2.20750071E-30
  -8.92000008       2.21706284E-30
  -8.90999985       2.22330124E-30
  -8.89999962       2.22598043E-30
  -8.89000034       2.22484311E-30
  -8.88000011       2.21962091E-30
  -8.86999989       2.21001796E-30
  -8.85999966       2.19574822E-30
  -8.85000038       2.17651355E-30
  -8.84000015       2.15198052E-30
  -8.82999992       2.12183219E-30
  -8.81999969       2.08573285E-30
  -8.81000042       2.04331048E-30
  -8.80000019       1.99420980E-30
  -8.78999996       1.93803415E-30
  -8.77999973       1.87440060E-30
  -8.77000046       1.80289932E-30
  -8.76000023       1.72309943E-30
  -8.75000000       1.63457549E-30
  -8.73999977       1.53687771E-30
  -8.72999954       1.42952366E-30
  -8.72000027       1.31205933E-30
  -8.71000004       1.18396205E-30
  -8.69999981       1.04473048E-30
  -8.68999958       8.93846657E-31
  -8.68000031       7.30773476E-31
  -8.67000008       5.54946416E-31
  -8.65999985       3.65804720E-31
  -8.64999962       1.62745065E-31
  -8.64000034      -5.48170808E-32
  -8.63000011      -2.87501915E-31
  -8.61999989      -5.35937591E-31
  -8.60999966      -8.00762644E-31
  -8.60000038      -1.08264967E-30
  -8.59000015      -1.38226691E-30
  -8.57999992      -1.70030180E-30
  -8.56999969      -2.03746423E-30
  -8.56000042      -2.39446318E-30
  -8.55000019      -2.77203385E-30
  -8.53999996      -3.17092027E-30
  -8.52999973      -3.59187552E-30
  -8.52000046      -4.03566997E-30
  -8.51000023      -4.50308978E-30
  -8.50000000      -4.99492301E-30
  -8.48999977      -5.51196824E-30
  -8.47999954      -6.05503535E-30
  -8.47000027      -6.62497256E-30
  -8.46000004      -7.22259088E-30
  -8.44999981      -7.84871748E-30
  -8.43999958      -8.50421902E-30
  -8.43000031      -9.18995014E-30
  -8.42000008      -9.90679104E-30
  -8.40999985      -1.06555467E-29
  -8.39999962      -1.14371199E-29
  -8.39000034      -1.22523540E-29
  -8.38000011      -1.31021300E-29
  -8.36999989      -1.39873356E-29
  -8.35999966      -1.49087907E-29
  -8.35000038      -1.58674299E-29
  -8.34000015      -1.68640414E-29
  -8.32999992      -1.78994560E-29
  -8.31999969      -1.89745492E-29
  -8.31000042      -2.00901862E-29
  -8.30000019      -2.12471721E-29
  -8.28999996      -2.24462275E-29
  -8.27999973      -2.36882176E-29
  -8.27000046      -2.49739383E-29
  -8.26000023      -2.63040472E-29
  -8.25000000      -2.76792816E-29
  -8.23999977      -2.91003892E-29
  -8.22999954      -3.05679448E-29
  -8.22000027      -3.20826255E-29
  -8.21000004      -3.36450542E-29
  -8.19999981      -3.52558027E-29
  -8.18999958      -3.69153164E-29
  -8.18000031      -3.86240917E-29
  -8.17000008      -4.03825861E-29
  -8.15999985      -4.21911366E-29
  -8.14999962      -4.40501917E-29
  -8.14000034      -4.59598836E-29
  -8.13000011      -4.79204261E-29
  -8.11999989      -4.99320148E-29
  -8.10999966      -5.19946256E-29
  -8.10000038      -5.41083157E-29
  -8.09000015      -5.62729105E-29
  -8.07999992      -5.84883318E-29
  -8.06999969      -6.07543147E-29
  -8.06000042      -6.30705103E-29
  -8.05000019      -6.54365152E-29
  -8.03999996      -6.78516314E-29
  -8.02999973      -7.03152268E-29
  -8.02000046      -7.28269223E-29
  -8.01000023      -7.53853277E-29
  -8.00000000      -7.79895099E-29
  -7.98999977      -8.06384701E-29
  -7.98000002      -8.33308359E-29
  -7.96999979      -8.60654699E-29
  -7.96000004      -8.88404039E-29
  -7.94999981      -9.16540070E-29
  -7.94000006      -9.45046782E-29
  -7.92999983      -9.73904074E-29
  -7.92000008      -1.00308757E-28
  -7.90999985      -1.03257446E-28
  -7.90000010      -1.06233899E-28
  -7.88999987      -1.09235099E-28
  -7.88000011      -1.12258243E-28
  -7.86999989      -1.15299901E-28
  -7.86000013      -1.18357411E-28
  -7.84999990      -1.21426404E-28
  -7.84000015      -1.24503270E-28
  -7.82999992      -1.27584120E-28
  -7.82000017      -1.30664464E-28
  -7.80999994      -1.33740126E-28
  -7.80000019      -1.36805846E-28
  -7.78999996      -1.39856615E-28
  -7.78000021      -1.42887174E-28
  -7.76999998      -1.45892070E-28
  -7.76000023      -1.48864912E-28
  -7.75000000      -1.51799824E-28
  -7.73999977      -1.54690597E-28
  -7.73000002      -1.57529839E-28
  -7.71999979      -1.60310593E-28
  -7.71000004      -1.63026214E-28
  -7.69999981      -1.65667651E-28
  -7.69000006      -1.68227778E-28
  -7.67999983      -1.70698156E-28
  -7.67000008      -1.73068555E-28
  -7.65999985      -1.75331799E-28
  -7.65000010      -1.77476912E-28
  -7.63999987      -1.79494757E-28
  -7.63000011      -1.81374356E-28
  -7.61999989      -1.83106201E-28
  -7.61000013      -1.84677759E-28
  -7.59999990      -1.86078645E-28
  -7.59000015      -1.87296832E-28
  -7.57999992      -1.88319765E-28
  -7.57000017      -1.89135300E-28
  -7.55999994      -1.89729991E-28
  -7.55000019      -1.90090188E-28
  -7.53999996      -1.90201844E-28
  -7.53000021      -1.90050960E-28
  -7.51999998      -1.89622332E-28
  -7.51000023      -1.88901974E-28
  -7.50000000      -1.87873178E-28
  -7.48999977      -1.86520092E-28
  -7.48000002      -1.84825924E-28
  -7.46999979      -1.82774760E-28
  -7.46000004      -1.80347595E-28
  -7.44999981      -1.77527191E-28
  -7.44000006      -1.74295613E-28