  -16.0000000       0.00000000    
  -15.9899998       0.00000000    
  -15.9799995       0.00000000    
  -15.9700003       0.00000000    
  -15.9600000       0.00000000    
  -15.9499998       0.00000000    
  -15.9399996       0.00000000    
  -15.9300003       0.00000000    
  -15.9200001       0.00000000    
  -15.9099998       0.00000000    
  -15.8999996       0.00000000    
  -15.8900003       0.00000000    
  -15.8800001       0.00000000    
  -15.8699999       0.00000000    
  -15.8599997       0.00000000    
  -15.8500004       0.00000000    
  -15.8400002       0.00000000    
  -15.8299999       0.00000000    
  -15.8199997       0.00000000    
  -15.8100004       0.00000000    
  -15.8000002       0.00000000    
  -15.7900000       0.00000000    
  -15.7799997       0.00000000    
  -15.7700005       0.00000000    
  -15.7600002       0.00000000    
  -15.7500000       0.00000000    
  -15.7399998       0.00000000    
  -15.7299995       0.00000000    
  -15.7200003       0.00000000    
  -15.7100000       0.00000000    
  -15.6999998       0.00000000    
  -15.6899996       0.00000000    
  -15.6800003       0.00000000    
  -15.6700001       0.00000000    
  -15.6599998       0.00000000    
  -15.6499996       0.00000000    
  -15.6400003       0.00000000    
  -15.6300001       0.00000000    
  -15.6199999       0.00000000    
  -15.6099997       0.00000000    
  -15.6000004       0.00000000    
  -15.5900002       0.00000000    
  -15.5799999       0.00000000    
  -15.5699997       0.00000000    
  -15.5600004       0.00000000    
  -15.5500002       0.00000000    
  -15.5400000       0.00000000    
  -15.5299997       0.00000000    
  -15.5200005       0.00000000    
  -15.5100002       0.00000000    
  -15.5000000       0.00000000    
  -15.4899998       0.00000000    
  -15.4799995       0.00000000    
  -15.4700003       0.00000000    
  -15.4600000       0.00000000    
  -15.4499998       0.00000000    
  -15.4399996       0.00000000    
  -15.4300003       0.00000000    
  -15.4200001       0.00000000    
  -15.4099998       0.00000000    
  -15.3999996       0.00000000    
  -15.3900003       0.00000000    
  -15.3800001       0.00000000    
  -15.3699999       0.00000000    
  -15.3599997       0.00000000    
  -15.3500004       0.00000000    
  -15.3400002       0.00000000    
  -15.3299999       0.00000000    
  -15.3199997       0.00000000    
  -15.3100004       0.00000000    
  -15.3000002       0.00000000    
  -15.2900000       0.00000000    
  -15.2799997       0.00000000    
  -15.2700005       0.00000000    
  -15.2600002       0.00000000    
  -15.2500000       0.00000000    
  -15.2399998       0.00000000    
  -15.2299995       0.00000000    
  -15.2200003       0.00000000    
  -15.2100000       0.00000000    
  -15.1999998       0.00000000    
  -15.1899996       0.00000000    
  -15.1800003       0.00000000    
  -15.1700001       0.00000000    
  -15.1599998       0.00000000    
  -15.1499996       0.00000000    
  -15.1400003       0.00000000    
  -15.1300001       0.00000000    
  -15.1199999       0.00000000    
  -15.1099997       0.00000000    
  -15.1000004       0.00000000    
  -15.0900002       0.00000000    
  -15.0799999       0.00000000    
  -15.0699997       0.00000000    
  -15.0600004       0.00000000    
  -15.0500002       0.00000000    
  -15.0400000       0.00000000    
  -15.0299997       0.00000000    
  -15.0200005       0.00000000    
  -15.0100002       0.00000000    
  -15.0000000       0.00000000    
  -14.9899998       0.00000000    
  -14.9799995       0.00000000    
  -14.9700003       0.00000000    
  -14.9600000       0.00000000    
  -14.9499998       0.00000000    
  -14.9399996       0.00000000    
  -14.9300003       0.00000000    
  -14.9200001       0.00000000    
  -14.9099998       0.00000000    
  -14.8999996       0.00000000    
  -14.8900003       0.00000000    
  -14.8800001       0.00000000    
  -14.8699999       0.00000000    
  -14.8599997       0.00000000    
  -14.8500004       0.00000000    
  -14.8400002       0.00000000    
  -14.8299999       0.00000000    
  -14.8199997       0.00000000    
  -14.8100004       0.00000000    
  -14.8000002       0.00000000    
  -14.7900000       0.00000000    
  -14.7799997       0.00000000    
  -14.7700005       0.00000000    
  -14.7600002       0.00000000    
  -14.7500000       0.00000000    
  -14.7399998       0.00000000    
  -14.7299995       0.00000000    
  -14.7200003       0.00000000    
  -14.7100000       0.00000000    
  -14.6999998       0.00000000    
  -14.6899996       0.00000000    
  -14.6800003       0.00000000    
  -14.6700001       0.00000000    
  -14.6599998       0.00000000    
  -14.6499996       0.00000000    
  -14.6400003       0.00000000    
  -14.6300001       0.00000000    
  -14.6199999       0.00000000    
  -14.6099997       0.00000000    
  -14.6000004       0.00000000    
  -14.5900002       0.00000000    
  -14.5799999       0.00000000    
  -14.5699997       0.00000000    
  -14.5600004       0.00000000    
  -14.5500002       0.00000000    
  -14.5400000       0.00000000    
  -14.5299997       0.00000000    
  -14.5200005       0.00000000    
  -14.5100002       0.00000000    
  -14.5000000       0.00000000    
  -14.4899998       0.00000000    
  -14.4799995       0.00000000    
  -14.4700003       0.00000000    
  -14.4600000       0.00000000    
  -14.4499998       0.00000000    
  -14.4399996       0.00000000    
  -14.4300003       0.00000000    
  -14.4200001       0.00000000    
  -14.4099998       0.00000000    
  -14.3999996       0.00000000    
  -14.3900003       0.00000000    
  -14.3800001       0.00000000    
  -14.3699999       0.00000000    
  -14.3599997       0.00000000    
  -14.3500004       0.00000000    
  -14.3400002       0.00000000    
  -14.3299999       0.00000000    
  -14.3199997       0.00000000    
  -14.3100004       0.00000000    
  -14.3000002       0.00000000    
  -14.2900000       0.00000000    
  -14.2799997       0.00000000    
  -14.2700005       0.00000000    
  -14.2600002       0.00000000    
  -14.2500000       0.00000000    
  -14.2399998       0.00000000    
  -14.2299995       0.00000000    
  -14.2200003       0.00000000    
  -14.2100000       0.00000000    
  -14.1999998       0.00000000    
  -14.1899996       0.00000000    
  -14.1800003       0.00000000    
  -14.1700001       0.00000000    
  -14.1599998       0.00000000    
  -14.1499996       0.00000000    
  -14.1400003       0.00000000    
  -14.1300001       0.00000000    
  -14.1199999       0.00000000    
  -14.1099997       0.00000000    
  -14.1000004       0.00000000    
  -14.0900002       0.00000000    
  -14.0799999       0.00000000    
  -14.0699997       0.00000000    
  -14.0600004       0.00000000    
  -14.0500002       0.00000000    
  -14.0400000       0.00000000    
  -14.0299997       0.00000000    
  -14.0200005       0.00000000    
  -14.0100002       0.00000000    
  -14.0000000       0.00000000    
  -13.9899998       0.00000000    
  -13.9799995       0.00000000    
  -13.9700003       0.00000000    
  -13.9600000       0.00000000    
  -13.9499998       0.00000000    
  -13.9399996       0.00000000    
  -13.9300003       0.00000000    
  -13.9200001       0.00000000    
  -13.9099998       0.00000000    
  -13.8999996       0.00000000    
  -13.8900003       0.00000000    
  -13.8800001       0.00000000    
  -13.8699999       0.00000000    
  -13.8599997       0.00000000    
  -13.8500004       0.00000000    
  -13.8400002       0.00000000    
  -13.8299999       0.00000000    
  -13.8199997       0.00000000    
  -13.8100004       0.00000000    
  -13.8000002       0.00000000    
  -13.7900000       0.00000000    
  -13.7799997       0.00000000    
  -13.7700005       0.00000000    
  -13.7600002       0.00000000    
  -13.7500000       0.00000000    
  -13.7399998       0.00000000    
  -13.7299995       0.00000000    
  -13.7200003       0.00000000    
  -13.7100000       0.00000000    
  -13.6999998       0.00000000    
  -13.6899996       0.00000000    
  -13.6800003       0.00000000    
  -13.6700001       0.00000000    
  -13.6599998       0.00000000    
  -13.6499996       0.00000000    
  -13.6400003       0.00000000    
  -13.6300001       0.00000000    
  -13.6199999       0.00000000    
  -13.6099997       0.00000000    
  -13.6000004       0.00000000    
  -13.5900002       0.00000000    
  -13.5799999       0.00000000    
  -13.5699997       0.00000000    
  -13.5600004       0.00000000    
  -13.5500002       0.00000000    
  -13.5400000       0.00000000    
  -13.5299997       0.00000000    
  -13.5200005       0.00000000    
  -13.5100002       0.00000000    
  -13.5000000       0.00000000    
  -13.4899998       0.00000000    
  -13.4799995       0.00000000    
  -13.4700003       0.00000000    
  -13.4600000       0.00000000    
  -13.4499998       0.00000000    
  -13.4399996       0.00000000    
  -13.4300003       0.00000000    
  -13.4200001       0.00000000    
  -13.4099998       0.00000000    
  -13.3999996       0.00000000    
  -13.3900003       0.00000000    
  -13.3800001       0.00000000    
  -13.3699999       0.00000000    
  -13.3599997       0.00000000    
  -13.3500004       0.00000000    
  -13.3400002       0.00000000    
  -13.3299999       0.00000000    
  -13.3199997       0.00000000    
  -13.3100004       0.00000000    
  -13.3000002       0.00000000    
  -13.2900000       0.00000000    
  -13.2799997       0.00000000    
  -13.2700005       0.00000000    
  -13.2600002       0.00000000    
  -13.2500000       0.00000000    
  -13.2399998       0.00000000    
  -13.2299995       0.00000000    
  -13.2200003       0.00000000    
  -13.2100000       0.00000000    
  -13.1999998       0.00000000    
  -13.1899996       0.00000000    
  -13.1800003       0.00000000    
  -13.1700001       0.00000000    
  -13.1599998       0.00000000    
  -13.1499996       0.00000000    
  -13.1400003       0.00000000    
  -13.1300001       0.00000000    
  -13.1199999       0.00000000    
  -13.1099997       0.00000000    
  -13.1000004       0.00000000    
  -13.0900002       0.00000000    
  -13.0799999       0.00000000    
  -13.0699997       0.00000000    
  -13.0600004       0.00000000    
  -13.0500002       0.00000000    
  -13.0400000       0.00000000    
  -13.0299997       0.00000000    
  -13.0200005       0.00000000    
  -13.0100002       0.00000000    
  -13.0000000       0.00000000    
  -12.9899998       0.00000000    
  -12.9799995       0.00000000    
  -12.9700003       0.00000000    
  -12.9600000       0.00000000    
  -12.9499998       0.00000000    
  -12.9399996       0.00000000    
  -12.9300003       0.00000000    
  -12.9200001       0.00000000    
  -12.9099998       0.00000000    
  -12.8999996       0.00000000    
  -12.8900003       0.00000000    
  -12.8800001       0.00000000    
  -12.8699999       0.00000000    
  -12.8599997       0.00000000    
  -12.8500004       0.00000000    
  -12.8400002       0.00000000    
  -12.8299999       0.00000000    
  -12.8199997       0.00000000    
  -12.8100004       0.00000000    
  -12.8000002       0.00000000    
  -12.7900000       0.00000000    
  -12.7799997       0.00000000    
  -12.7700005       0.00000000    
  -12.7600002       0.00000000    
  -12.7500000       0.00000000    
  -12.7399998       0.00000000    
  -12.7299995       0.00000000    
  -12.7200003       0.00000000    
  -12.7100000       0.00000000    
  -12.6999998       0.00000000    
  -12.6899996       0.00000000    
  -12.6800003       0.00000000    
  -12.6700001       0.00000000    
  -12.6599998       0.00000000    
  -12.6499996       0.00000000    
  -12.6400003       0.00000000    
  -12.6300001       0.00000000    
  -12.6199999       0.00000000    
  -12.6099997       0.00000000    
  -12.6000004       0.00000000    
  -12.5900002       0.00000000    
  -12.5799999       0.00000000    
  -12.5699997       0.00000000    
  -12.5600004       0.00000000    
  -12.5500002       0.00000000    
  -12.5400000       0.00000000    
  -12.5299997       0.00000000    
  -12.5200005       0.00000000    
  -12.5100002       0.00000000    
  -12.5000000       0.00000000    
  -12.4899998       0.00000000    
  -12.4799995       0.00000000    
  -12.4700003       0.00000000    
  -12.4600000       0.00000000    
  -12.4499998       0.00000000    
  -12.4399996       0.00000000    
  -12.4300003       0.00000000    
  -12.4200001       0.00000000    
  -12.4099998       0.00000000    
  -12.3999996       0.00000000    
  -12.3900003       0.00000000    
  -12.3800001       0.00000000    
  -12.3699999       0.00000000    
  -12.3599997       0.00000000    
  -12.3500004       0.00000000    
  -12.3400002       0.00000000    
  -12.3299999       0.00000000    
  -12.3199997       0.00000000    
  -12.3100004       0.00000000    
  -12.3000002       0.00000000    
  -12.2900000       0.00000000    
  -12.2799997       0.00000000    
  -12.2700005       0.00000000    
  -12.2600002       0.00000000    
  -12.2500000       0.00000000    
  -12.2399998       0.00000000    
  -12.2299995       0.00000000    
  -12.2200003       0.00000000    
  -12.2100000       0.00000000    
  -12.1999998       0.00000000    
  -12.1899996       0.00000000    
  -12.1800003       0.00000000    
  -12.1700001       0.00000000    
  -12.1599998       0.00000000    
  -12.1499996       0.00000000    
  -12.1400003       0.00000000    
  -12.1300001       0.00000000    
  -12.1199999       0.00000000    
  -12.1099997       0.00000000    
  -12.1000004       0.00000000    
  -12.0900002       0.00000000    
  -12.0799999      -0.00000000    
  -12.0699997      -0.00000000    
  -12.0600004       0.00000000    
  -12.0500002      -0.00000000    
  -12.0400000      -0.00000000    
  -12.0299997       0.00000000    
  -12.0200005       0.00000000    
  -12.0100002      -0.00000000    
  -12.0000000      -0.00000000    
  -11.9899998      -0.00000000    
  -11.9799995      -0.00000000    
  -11.9700003      -0.00000000    
  -11.9600000      -0.00000000    
  -11.9499998      -0.00000000    
  -11.9399996      -0.00000000    
  -11.9300003      -0.00000000    
  -11.9200001       0.00000000    
  -11.9099998      -0.00000000    
  -11.8999996      -0.00000000    
  -11.8900003       0.00000000    
  -11.8800001      -0.00000000    
  -11.8699999       0.00000000    
  -11.8599997       0.00000000    
  -11.8500004       0.00000000    
  -11.8400002       0.00000000    
  -11.8299999       0.00000000    
  -11.8199997       0.00000000    
  -11.8100004       0.00000000    
  -11.8000002       1.40129846E-45
  -11.7900000       1.40129846E-45
  -11.7799997       0.00000000    
  -11.7700005       1.40129846E-45
  -11.7600002       1.40129846E-45
  -11.7500000       1.40129846E-45
  -11.7399998       1.40129846E-45
  -11.7299995       1.40129846E-45
  -11.7200003       0.00000000    
  -11.7100000       1.40129846E-45
  -11.6999998       1.40129846E-45
  -11.6899996       2.80259693E-45
  -11.6800003       2.80259693E-45
  -11.6700001       2.80259693E-45
  -11.6599998       0.00000000    
  -11.6499996       0.00000000    
  -11.6400003      -0.00000000    
  -11.6300001      -1.40129846E-45
  -11.6199999      -0.00000000    
  -11.6099997       1.40129846E-45
  -11.6000004       1.40129846E-45
  -11.5900002       2.80259693E-45
  -11.5799999       1.40129846E-45
  -11.5699997      -1.40129846E-45
  -11.5600004      -2.80259693E-45
  -11.5500002      -1.40129846E-45
  -11.5400000       2.80259693E-45
  -11.5299997       8.40779079E-45
  -11.5200005       1.12103877E-44
  -11.5100002       8.40779079E-45
  -11.5000000       2.80259693E-45
  -11.4899998      -2.80259693E-45
  -11.4799995      -4.20389539E-45
  -11.4700003      -1.40129846E-45
  -11.4600000       1.40129846E-45
  -11.4499998       1.40129846E-45
  -11.4399996       2.80259693E-45
  -11.4300003       2.80259693E-45
  -11.4200001       1.40129846E-45
  -11.4099998       0.00000000    
  -11.3999996       4.20389539E-45
  -11.3900003       8.40779079E-45
  -11.3800001       8.40779079E-45
  -11.3699999       9.80908925E-45
  -11.3599997       8.40779079E-45
  -11.3500004       9.80908925E-45
  -11.3400002       1.54142831E-44
  -11.3299999       1.40129846E-44
  -11.3199997       9.80908925E-45
  -11.3100004       5.60519386E-45
  -11.3000002       4.20389539E-45
  -11.2900000       4.20389539E-45
  -11.2799997       2.80259693E-45
  -11.2700005       1.40129846E-45
  -11.2600002      -5.60519386E-45
  -11.2500000      -1.40129846E-44
  -11.2399998      -2.10194770E-44
  -11.2299995      -2.94272678E-44
  -11.2200003      -4.48415509E-44
  -11.2100000      -7.14662217E-44
  -11.1999998      -1.02294788E-43
  -11.1899996      -1.41531145E-43
  -11.1800003      -1.93379188E-43
  -11.1700001      -2.55036321E-43
  -11.1599998      -3.32107736E-43
  -11.1499996      -4.24593435E-43
  -11.1400003      -5.39499909E-43
  -11.1300001      -6.82432352E-43
  -11.1199999      -8.54792063E-43
  -11.1099997      -1.07339462E-42
  -11.1000004      -1.33683873E-42
  -11.0900002      -1.65353219E-42
  -11.0799999      -2.03188277E-42
  -11.0699997      -2.48870607E-42
  -11.0600004      -3.04362026E-42
  -11.0500002      -3.70363184E-42
  -11.0400000      -4.47574730E-42
  -11.0299997      -5.39359779E-42
  -11.0200005      -6.48380799E-42
  -11.0100002      -7.77019998E-42
  -11.0000000      -9.28500362E-42
  -10.9899998      -1.10562449E-41
  -10.9799995      -1.31259627E-41
  -10.9700003      -1.55474065E-41
  -10.9600000      -1.83724242E-41
  -10.9499998      -2.16640743E-41
  -10.9399996      -2.54882178E-41
  -10.9300003      -2.99205248E-41
  -10.9200001      -3.50478759E-41
  -10.9099998      -4.09683619E-41
  -10.8999996      -4.77898828E-41
  -10.8900003      -5.56469633E-41
  -10.8800001      -6.46769306E-41
  -10.8699999      -7.50367302E-41
  -10.8599997      -8.69099321E-41
  -10.8500004      -1.00488514E-40
  -10.8400002      -1.15984073E-40
  -10.8299999      -1.33655848E-40
  -10.8199997      -1.53779895E-40
  -10.8100004      -1.76657494E-40
  -10.8000002      -2.02637567E-40
  -10.7900000      -2.32095663E-40
  -10.7799997      -2.65457777E-40
  -10.7700005      -3.03187738E-40
  -10.7600002      -3.45802626E-40
  -10.7500000      -3.93868565E-40
  -10.7399998      -4.48017540E-40
  -10.7299995      -5.08940392E-40
  -10.7200003      -5.77403631E-40
  -10.7100000      -6.54248036E-40
  -10.6999998      -7.40399866E-40
  -10.6899996      -8.36879265E-40
  -10.6800003      -9.44797464E-40
  -10.6700001      -1.06536378E-39
  -10.6599998      -1.19991506E-39
  -10.6499996      -1.34990444E-39
  -10.6400003      -1.51692941E-39
  -10.6300001      -1.70272197E-39
  -10.6199999      -1.90916686E-39
  -10.6099997      -2.13831840E-39
  -10.6000004      -2.39240884E-39
  -10.5900002      -2.67386244E-39
  -10.5799999      -2.98530103E-39
  -10.5699997      -3.32958464E-39
  -10.5600004      -3.70979615E-39
  -10.5500002      -4.12926644E-39
  -10.5400000      -4.59159544E-39
  -10.5299997      -5.10066195E-39
  -10.5200005      -5.66066566E-39
  -10.5100002      -6.27612015E-39
  -10.5000000      -6.95188512E-39
  -10.4899998      -7.69315940E-39
  -10.4799995      -8.50554537E-39
  -10.4700003      -9.39505320E-39
  -10.4600000      -1.03681233E-38
  -10.4499998      -1.14316275E-38
  -10.4399996      -1.25929438E-38
  -10.4300003      -1.38599474E-38
  -10.4200001      -1.52410154E-38
  -10.4099998      -1.67450893E-38
  -10.3999996      -1.83817232E-38
  -10.3900003      -2.01610682E-38
  -10.3800001      -2.20938553E-38
  -10.3699999      -2.41915543E-38
  -10.3599997      -2.64662933E-38
  -10.3500004      -2.89309503E-38
  -10.3400002      -3.15991430E-38
  -10.3299999      -3.44851985E-38
  -10.3199997      -3.76043291E-38
  -10.3100004      -4.09726275E-38
  -10.3000002      -4.46069987E-38
  -10.2900000      -4.85251441E-38
  -10.2799997      -5.27458271E-38
  -10.2700005      -5.72886629E-38
  -10.2600002      -6.21743125E-38
  -10.2500000      -6.74243332E-38
  -10.2399998      -7.30612917E-38
  -10.2299995      -7.91090380E-38
  -10.2200003      -8.55922182E-38
  -10.2100000      -9.25365602E-38
  -10.1999998      -9.99689239E-38
  -10.1899996      -1.07917055E-37
  -10.1800003      -1.16410079E-37
  -10.1700001      -1.25478105E-37
  -10.1599998      -1.35152524E-37
  -10.1499996      -1.45465139E-37
  -10.1400003      -1.56449514E-37
  -10.1300001      -1.68139942E-37
  -10.1199999      -1.80571881E-37
  -10.1099997      -1.93781776E-37
  -10.1000004      -2.07806912E-37
  -10.0900002      -2.22685832E-37
  -10.0799999      -2.38457301E-37
  -10.0699997      -2.55161182E-37
  -10.0600004      -2.72838439E-37
  -10.0500002      -2.91530617E-37
  -10.0400000      -3.11279531E-37
  -10.0299997      -3.32127377E-37
  -10.0200005      -3.54116238E-37
  -10.0100002      -3.77289679E-37
  -10.0000000      -4.01690478E-37
  -9.98999977      -4.27362087E-37
  -9.97999954      -4.54347283E-37
  -9.97000027      -4.82688309E-37
  -9.96000004      -5.12426778E-37
  -9.94999981      -5.43604346E-37
  -9.93999958      -5.76260474E-37
  -9.93000031      -6.10433816E-37
  -9.92000008      -6.46162264E-37
  -9.90999985      -6.83480658E-37
  -9.89999962      -7.22421599E-37
  -9.89000034      -7.63017283E-37
  -9.88000011      -8.05294524E-37
  -9.86999989      -8.49278436E-37
  -9.85999966      -8.94990361E-37
  -9.85000038      -9.42447430E-37
  -9.84000015      -9.91663723E-37
  -9.82999992      -1.04264597E-36
  -9.81999969      -1.09539667E-36
  -9.81000042      -1.14991252E-36
  -9.80000019      -1.20618301E-36
  -9.78999996      -1.26419237E-36
  -9.77999973      -1.32391459E-36
  -9.77000046      -1.38531900E-36
  -9.76000023      -1.44836156E-36
  -9.75000000      -1.51298818E-36
  -9.73999977      -1.57913970E-36
  -9.72999954      -1.64674138E-36
  -9.72000027      -1.71570733E-36
  -9.71000004      -1.78593655E-36
  -9.69999981      -1.85731659E-36
  -9.68999958      -1.92971812E-36
  -9.68000031      -2.00299585E-36
  -9.67000008      -2.07699050E-36
  -9.65999985      -2.15152057E-36
  -9.64999962      -2.22638569E-36
  -9.64000034      -2.30136507E-36
  -9.63000011      -2.37622050E-36
  -9.61999989      -2.45068385E-36
  -9.60999966      -2.52446362E-36
  -9.60000038      -2.59724433E-36
  -9.59000015      -2.66868320E-36
  -9.57999992      -2.73840697E-36
  -9.56999969      -2.80600758E-36
  -9.56000042      -2.87104325E-36
  -9.55000019      -2.93304261E-36
  -9.53999996      -2.99150147E-36
  -9.52999973      -3.04586198E-36
  -9.52000046      -3.09553602E-36
  -9.51000023      -3.13988969E-36
  -9.50000000      -3.17824249E-36
  -9.48999977      -3.20986978E-36
  -9.47999954      -3.23398592E-36
  -9.47000027      -3.24975221E-36
  -9.46000004      -3.25627935E-36
  -9.44999981      -3.25261776E-36
  -9.43999958      -3.23775261E-36
  -9.43000031      -3.21059657E-36
  -9.42000008      -3.17000097E-36
  -9.40999985      -3.11472820E-36
  -9.39999962      -3.04347103E-36
  -9.39000034      -2.95483973E-36
  -9.38000011      -2.84735687E-36
  -9.36999989      -2.71945011E-36
  -9.35999966      -2.56944024E-36
  -9.35000038      -2.39554685E-36
  -9.34000015      -2.19589756E-36
  -9.32999992      -1.96847180E-36
  -9.31999969      -1.71115322E-36
  -9.31000042      -1.42167608E-36
  -9.30000019      -1.09764996E-36
  -9.28999996      -7.36524849E-37
  -9.27999973      -3.35608583E-37
  -9.27000046       1.07963163E-37
  -9.26000023       5.97232554E-37
  -9.25000000       1.13541228E-36
  -9.23999977       1.72592600E-36
  -9.22999954       2.37239965E-36
  -9.22000027       3.07867811E-36
  -9.21000004       3.84883533E-36
  -9.19999981       4.68720731E-36
  -9.18999958       5.59837364E-36
  -9.18000031       6.58721449E-36
  -9.17000008       7.65889958E-36
  -9.15999985       8.81890243E-36
  -9.14999962       1.00730575E-35
  -9.14000034       1.14275277E-35
  -9.13000011       1.28888694E-35
  -9.11999989       1.44640232E-35
  -9.10999966       1.61603784E-35
  -9.10000038       1.79857452E-35
  -9.09000015       1.99484735E-35
  -9.07999992       2.20573451E-35
  -9.06999969       2.43217616E-35
  -9.06000042       2.67516513E-35
  -9.05000019       2.93575553E-35
  -9.03999996       3.21506774E-35
  -9.02999973       3.51429074E-35
  -9.02000046       3.83468843E-35
  -9.01000023       4.17760074E-35
  -9.00000000       4.54444624E-35
  -8.98999977       4.93674222E-35
  -8.97999954       5.35607802E-35
  -8.97000027       5.80416522E-35
  -8.96000004       6.28280608E-35
  -8.94999981       6.79390334E-35
  -8.93999958       7.33950318E-35
  -8.93000031       7.92175114E-35
  -8.92000008       8.54294537E-35
  -8.90999985       9.20548280E-35
  -8.89999962       9.91194400E-35
  -8.89000034       1.06650605E-34
  -8.88000011       1.14677085E-34
  -8.86999989       1.23229449E-34
  -8.85999966       1.32340345E-34
  -8.85000038       1.42044017E-34
  -8.84000015       1.52376761E-34
  -8.82999992       1.63377024E-34
  -8.81999969       1.75085659E-34
  -8.81000042       1.87545532E-34
  -8.80000019       2.00802560E-34
  -8.78999996       2.14905002E-34
  -8.77999973       2.29903759E-34
  -8.77000046       2.45852967E-34
  -8.76000023       2.62809037E-34
  -8.75000000       2.80832373E-34
  -8.73999977       2.99986640E-34
  -8.72999954       3.20338856E-34
  -8.72000027       3.41959893E-34
  -8.71000004       3.64924392E-34
  -8.69999981       3.89310826E-34
  -8.68999958       4.15202008E-34
  -8.68000031       4.42685754E-34
  -8.67000008       4.71853810E-34
  -8.65999985       5.02802969E-34
  -8.64999962       5.35635077E-34
  -8.64000034       5.70457398E-34
  -8.63000011       6.07382707E-34
  -8.61999989       6.46530112E-34
  -8.60999966       6.88022767E-34
  -8.60000038       7.31993235E-34
  -8.59000015       7.78576469E-34
  -8.57999992       8.27916651E-34
  -8.56999969       8.80166273E-34
  -8.56000042       9.35482833E-34
  -8.55000019       9.94030900E-34
  -8.53999996       1.05598441E-33
  -8.52999973       1.12152428E-33
  -8.52000046       1.19083942E-33
  -8.51000023       1.26412828E-33
  -8.50000000       1.34160144E-33
  -8.48999977       1.42346975E-33
  -8.47999954       1.50996061E-33
  -8.47000027       1.60131424E-33
  -8.46000004       1.69777329E-33
  -8.44999981       1.79959406E-33
  -8.43999958       1.90704324E-33
  -8.43000031       2.02039634E-33
  -8.42000008       2.13994522E-33
  -8.40999985       2.26598668E-33
  -8.39999962       2.39883077E-33
  -8.39000034       2.53880313E-33
  -8.38000011       2.68624685E-33
  -8.36999989       2.84150100E-33
  -8.35999966       3.00493513E-33
  -8.35000038       3.17691491E-33
  -8.34000015       3.35782753E-33
  -8.32999992       3.54807174E-33
  -8.31999969       3.74806815E-33
  -8.31000042       3.95824139E-33
  -8.30000019       4.17903597E-33
  -8.28999996       4.41090002E-33
  -8.27999973       4.65430266E-33
  -8.27000046       4.90972215E-33
  -8.26000023       5.17766397E-33
  -8.25000000       5.45862071E-33
  -8.23999977       5.75314412E-33
  -8.22999954       6.06174702E-33
  -8.22000027       6.38499438E-33
  -8.21000004       6.72344859E-33
  -8.19999981       7.07769410E-33
  -8.18999958       7.44831057E-33
  -8.18000031       7.83589824E-33
  -8.17000008       8.24108453E-33
  -8.15999985       8.66448511E-33
  -8.14999962       9.10675090E-33
  -8.14000034       9.56852842E-33
  -8.13000011       1.00504649E-32
  -8.11999989       1.05532481E-32
  -8.10999966       1.10775414E-32
  -8.10000038       1.16240353E-32
  -8.09000015       1.21934110E-32
  -8.07999992       1.27863796E-32
  -8.06999969       1.34036287E-32
  -8.06000042       1.40458453E-32
  -8.05000019       1.47137789E-32
  -8.03999996       1.54080978E-32
  -8.02999973       1.61295075E-32
  -8.02000046       1.68787221E-32
  -8.01000023       1.76564159E-32
  -8.00000000       1.84632782E-32
  -7.98999977       1.93000303E-32
  -7.98000002       2.01673247E-32
  -7.96999979       2.10657228E-32
  -7.96000004       2.19959752E-32
  -7.94999981       2.29586536E-32
  -7.94000006       2.39543385E-32
  -7.92999983       2.49836425E-32
  -7.92000008       2.60470476E-32
  -7.90999985       2.71451297E-32
  -7.90000010       2.82782416E-32
  -7.88999987       2.94469299E-32
  -7.88000011       3.06515471E-32
  -7.86999989       3.18924313E-32
  -7.86000013       3.31697793E-32
  -7.84999990       3.44839055E-32
  -7.84000015       3.58349453E-32
  -7.82999992       3.72230631E-32
  -7.82000017       3.86482030E-32
  -7.80999994       4.01104122E-32
  -7.80000019       4.16094908E-32
  -7.78999996       4.31452242E-32
  -7.78000021       4.47172510E-32
  -7.76999998       4.63251803E-32
  -7.76000023       4.79685332E-32
  -7.75000000       4.96465396E-32
  -7.73999977       5.13584179E-32
  -7.73000002       5.31032806E-32
  -7.71999979       5.48800814E-32
  -7.71000004       5.66877037E-32
  -7.69999981       5.85245312E-32
  -7.69000006       6.03892296E-32
  -7.67999983       6.22800711E-32
  -7.67000008       6.41952159E-32
  -7.65999985       6.61325246E-32
  -7.65000010       6.80895758E-32
  -7.63999987       7.00639890E-32
  -7.63000011       7.20531840E-32
  -7.61999989       7.40539577E-32
  -7.61000013       7.60631185E-32
  -7.59999990       7.80773457E-32
  -7.59000015       8.00928483E-32
  -7.57999992       8.21055768E-32
  -7.57000017       8.41111171E-32
  -7.55999994       8.61049259E-32
  -7.55000019       8.80821251E-32
  -7.53999996       9.00372131E-32
  -7.53000021       9.19647418E-32
  -7.51999998       9.38587453E-32
  -7.51000023       9.57128349E-32
  -7.50000000       9.75201633E-32
  -7.48999977       9.92737188E-32
  -7.48000002       1.00965855E-31
  -7.46999979       1.02588683E-31
  -7.46000004       1.04133542E-31
  -7.44999981       1.05591778E-31
  -7.44000006       1.06954152E-31