  -16.0000000       0.00000000    
  -15.9899998       0.00000000    
  -15.9799995       0.00000000    
  -15.9700003       0.00000000    
  -15.9600000       0.00000000    
  -15.9499998       0.00000000    
  -15.9399996       0.00000000    
  -15.9300003       0.00000000    
  -15.9200001       0.00000000    
  -15.9099998       0.00000000    
  -15.8999996       0.00000000    
  -15.8900003       0.00000000    
  -15.8800001       0.00000000    
  -15.8699999       0.00000000    
  -15.8599997       0.00000000    
  -15.8500004       0.00000000    
  -15.8400002       0.00000000    
  -15.8299999       0.00000000    
  -15.8199997       0.00000000    
  -15.8100004       0.00000000    
  -15.8000002       0.00000000    
  -15.7900000       0.00000000    
  -15.7799997       0.00000000    
  -15.7700005       0.00000000    
  -15.7600002       0.00000000    
  -15.7500000       0.00000000    
  -15.7399998       0.00000000    
  -15.7299995       0.00000000    
  -15.7200003       0.00000000    
  -15.7100000       0.00000000    
  -15.6999998       0.00000000    
  -15.6899996       0.00000000    
  -15.6800003       0.00000000    
  -15.6700001       0.00000000    
  -15.6599998       0.00000000    
  -15.6499996       0.00000000    
  -15.6400003       0.00000000    
  -15.6300001       0.00000000    
  -15.6199999       0.00000000    
  -15.6099997       0.00000000    
  -15.6000004       0.00000000    
  -15.5900002       0.00000000    
  -15.5799999       0.00000000    
  -15.5699997       0.00000000    
  -15.5600004       0.00000000    
  -15.5500002       0.00000000    
  -15.5400000       0.00000000    
  -15.5299997       0.00000000    
  -15.5200005       0.00000000    
  -15.5100002       0.00000000    
  -15.5000000       0.00000000    
  -15.4899998       0.00000000    
  -15.4799995       0.00000000    
  -15.4700003       0.00000000    
  -15.4600000       0.00000000    
  -15.4499998       0.00000000    
  -15.4399996       0.00000000    
  -15.4300003       0.00000000    
  -15.4200001       0.00000000    
  -15.4099998       0.00000000    
  -15.3999996       0.00000000    
  -15.3900003       0.00000000    
  -15.3800001       0.00000000    
  -15.3699999       0.00000000    
  -15.3599997       0.00000000    
  -15.3500004       0.00000000    
  -15.3400002       0.00000000    
  -15.3299999       0.00000000    
  -15.3199997       0.00000000    
  -15.3100004       0.00000000    
  -15.3000002       0.00000000    
  -15.2900000       0.00000000    
  -15.2799997       0.00000000    
  -15.2700005       0.00000000    
  -15.2600002       0.00000000    
  -15.2500000       0.00000000    
  -15.2399998       0.00000000    
  -15.2299995       0.00000000    
  -15.2200003       0.00000000    
  -15.2100000       0.00000000    
  -15.1999998       0.00000000    
  -15.1899996       0.00000000    
  -15.1800003       0.00000000    
  -15.1700001       0.00000000    
  -15.1599998       0.00000000    
  -15.1499996       0.00000000    
  -15.1400003       0.00000000    
  -15.1300001       0.00000000    
  -15.1199999       0.00000000    
  -15.1099997       0.00000000    
  -15.1000004       0.00000000    
  -15.0900002       0.00000000    
  -15.0799999       0.00000000    
  -15.0699997       0.00000000    
  -15.0600004       0.00000000    
  -15.0500002       0.00000000    
  -15.0400000       0.00000000    
  -15.0299997       0.00000000    
  -15.0200005       0.00000000    
  -15.0100002       0.00000000    
  -15.0000000       0.00000000    
  -14.9899998       0.00000000    
  -14.9799995       0.00000000    
  -14.9700003       0.00000000    
  -14.9600000       0.00000000    
  -14.9499998       0.00000000    
  -14.9399996       0.00000000    
  -14.9300003       0.00000000    
  -14.9200001       0.00000000    
  -14.9099998       0.00000000    
  -14.8999996       0.00000000    
  -14.8900003       0.00000000    
  -14.8800001       0.00000000    
  -14.8699999       0.00000000    
  -14.8599997       0.00000000    
  -14.8500004       0.00000000    
  -14.8400002       0.00000000    
  -14.8299999       0.00000000    
  -14.8199997       0.00000000    
  -14.8100004       0.00000000    
  -14.8000002       0.00000000    
  -14.7900000       0.00000000    
  -14.7799997       0.00000000    
  -14.7700005       0.00000000    
  -14.7600002       0.00000000    
  -14.7500000       0.00000000    
  -14.7399998       0.00000000    
  -14.7299995       0.00000000    
  -14.7200003       0.00000000    
  -14.7100000       0.00000000    
  -14.6999998       0.00000000    
  -14.6899996       0.00000000    
  -14.6800003       0.00000000    
  -14.6700001       0.00000000    
  -14.6599998       0.00000000    
  -14.6499996       0.00000000    
  -14.6400003       0.00000000    
  -14.6300001       0.00000000    
  -14.6199999       0.00000000    
  -14.6099997       0.00000000    
  -14.6000004       0.00000000    
  -14.5900002       0.00000000    
  -14.5799999       0.00000000    
  -14.5699997       0.00000000    
  -14.5600004       0.00000000    
  -14.5500002       0.00000000    
  -14.5400000       0.00000000    
  -14.5299997       0.00000000    
  -14.5200005       0.00000000    
  -14.5100002       0.00000000    
  -14.5000000       0.00000000    
  -14.4899998       0.00000000    
  -14.4799995       0.00000000    
  -14.4700003       0.00000000    
  -14.4600000       0.00000000    
  -14.4499998       0.00000000    
  -14.4399996       0.00000000    
  -14.4300003       0.00000000    
  -14.4200001       0.00000000    
  -14.4099998       0.00000000    
  -14.3999996       0.00000000    
  -14.3900003       0.00000000    
  -14.3800001       0.00000000    
  -14.3699999       0.00000000    
  -14.3599997       0.00000000    
  -14.3500004       0.00000000    
  -14.3400002       0.00000000    
  -14.3299999       0.00000000    
  -14.3199997       0.00000000    
  -14.3100004       0.00000000    
  -14.3000002       0.00000000    
  -14.2900000       0.00000000    
  -14.2799997       0.00000000    
  -14.2700005       0.00000000    
  -14.2600002       0.00000000    
  -14.2500000       0.00000000    
  -14.2399998       0.00000000    
  -14.2299995       0.00000000    
  -14.2200003       0.00000000    
  -14.2100000       0.00000000    
  -14.1999998       0.00000000    
  -14.1899996       0.00000000    
  -14.1800003       0.00000000    
  -14.1700001       0.00000000    
  -14.1599998       0.00000000    
  -14.1499996       0.00000000    
  -14.1400003       0.00000000    
  -14.1300001       0.00000000    
  -14.1199999       0.00000000    
  -14.1099997       0.00000000    
  -14.1000004       0.00000000    
  -14.0900002       0.00000000    
  -14.0799999       0.00000000    
  -14.0699997       0.00000000    
  -14.0600004       0.00000000    
  -14.0500002      -0.00000000    
  -14.0400000      -0.00000000    
  -14.0299997      -0.00000000    
  -14.0200005      -0.00000000    
  -14.0100002      -0.00000000    
  -14.0000000      -0.00000000    
  -13.9899998      -0.00000000    
  -13.9799995      -0.00000000    
  -13.9700003      -0.00000000    
  -13.9600000      -0.00000000    
  -13.9499998      -0.00000000    
  -13.9399996      -0.00000000    
  -13.9300003      -0.00000000    
  -13.9200001       0.00000000    
  -13.9099998      -0.00000000    
  -13.8999996      -0.00000000    
  -13.8900003      -0.00000000    
  -13.8800001      -0.00000000    
  -13.8699999      -0.00000000    
  -13.8599997      -0.00000000    
  -13.8500004      -0.00000000    
  -13.8400002      -0.00000000    
  -13.8299999      -1.40129846E-45
  -13.8199997      -2.80259693E-45
  -13.8100004      -2.80259693E-45
  -13.8000002      -5.60519386E-45
  -13.7900000      -7.00649232E-45
  -13.7799997      -8.40779079E-45
  -13.7700005      -9.80908925E-45
  -13.7600002      -9.80908925E-45
  -13.7500000      -1.12103877E-44
  -13.7399998      -1.26116862E-44
  -13.7299995      -2.24207754E-44
  -13.7200003      -3.64337601E-44
  -13.7100000      -4.76441478E-44
  -13.6999998      -4.90454463E-44
  -13.6899996      -4.20389539E-44
  -13.6800003      -4.48415509E-44
  -13.6700001      -5.32493416E-44
  -13.6599998      -5.74532370E-44
  -13.6499996      -6.86636248E-44
  -13.6400003      -7.70714155E-44
  -13.6300001      -8.26766094E-44
  -13.6199999      -9.38869971E-44
  -13.6099997      -1.07899982E-43
  -13.6000004      -1.24715563E-43
  -13.5900002      -1.47136339E-43
  -13.5799999      -1.76563607E-43
  -13.5699997      -2.12997367E-43
  -13.5600004      -2.52233724E-43
  -13.5500002      -2.95673976E-43
  -13.5400000      -3.40515527E-43
  -13.5299997      -3.92363570E-43
  -13.5200005      -4.65231090E-43
  -13.5100002      -5.53512893E-43
  -13.5000000      -6.51603786E-43
  -13.4899998      -7.74918051E-43
  -13.4799995      -9.22054390E-43
  -13.4700003      -1.09861800E-42
  -13.4600000      -1.30460887E-42
  -13.4499998      -1.55263870E-42
  -13.4399996      -1.85111527E-42
  -13.4300003      -2.20564378E-42
  -13.4200001      -2.62042813E-42
  -13.4099998      -3.10527740E-42
  -13.3999996      -3.67280327E-42
  -13.3900003      -4.34682784E-42
  -13.3800001      -5.14136407E-42
  -13.3699999      -6.08163534E-42
  -13.3599997      -7.18866112E-42
  -13.3500004      -8.49747389E-42
  -13.3400002      -1.00318957E-41
  -13.3299999      -1.18227551E-41
  -13.3199997      -1.39457223E-41
  -13.3100004      -1.64568492E-41
  -13.3000002      -1.94233980E-41
  -13.2900000      -2.29140325E-41
  -13.2799997      -2.70184357E-41
  -13.2700005      -3.18459089E-41
  -13.2600002      -3.75197664E-41
  -13.2500000      -4.41829406E-41
  -13.2399998      -5.20176003E-41
  -13.2299995      -6.12409468E-41
  -13.2200003      -7.20617735E-41
  -13.2100000      -8.47309129E-41
  -13.1999998      -9.95762689E-41
  -13.1899996      -1.16928548E-40
  -13.1800003      -1.37216547E-40
  -13.1700001      -1.60940530E-40
  -13.1599998      -1.88631589E-40
  -13.1499996      -2.20914703E-40
  -13.1400003      -2.58542369E-40
  -13.1300001      -3.02359571E-40
  -13.1199999      -3.53310783E-40
  -13.1099997      -4.12512841E-40
  -13.1000004      -4.81211498E-40
  -13.0900002      -5.60858500E-40
  -13.0799999      -6.53115787E-40
  -13.0699997      -7.59866704E-40
  -13.0600004      -8.83245429E-40
  -13.0500002      -1.02569723E-39
  -13.0400000      -1.19001909E-39
  -13.0299997      -1.37935133E-39
  -13.0200005      -1.59726865E-39
  -13.0100002      -1.84781381E-39
  -13.0000000      -2.13559147E-39
  -12.9899998      -2.46575561E-39
  -12.9799995      -2.84413562E-39
  -12.9700003      -3.27735405E-39
  -12.9600000      -3.77282656E-39
  -12.9499998      -4.33890069E-39
  -12.9399996      -4.98493011E-39
  -12.9300003      -5.72142876E-39
  -12.9200001      -6.56022080E-39
  -12.9099998      -7.51451206E-39
  -12.8999996      -8.59908484E-39
  -12.8900003      -9.83048007E-39
  -12.8800001      -1.12271402E-38
  -12.8699999      -1.28096196E-38
  -12.8599997      -1.46008462E-38
  -12.8500004      -1.66263152E-38
  -12.8400002      -1.89143721E-38
  -12.8299999      -2.14965462E-38
  -12.8199997      -2.44077914E-38
  -12.8100004      -2.76867934E-38
  -12.8000002      -3.13764711E-38
  -12.7900000      -3.55242921E-38
  -12.7799997      -4.01826342E-38
  -12.7700005      -4.54094271E-38
  -12.7600002      -5.12685446E-38
  -12.7500000      -5.78303489E-38
  -12.7399998      -6.51722952E-38
  -12.7299995      -7.33797059E-38
  -12.7200003      -8.25461933E-38
  -12.7100000      -9.27745175E-38
  -12.6999998      -1.04177573E-37
  -12.6899996      -1.16878964E-37
  -12.6800003      -1.31014030E-37
  -12.6700001      -1.46730859E-37
  -12.6599998      -1.64191285E-37
  -12.6499996      -1.83572061E-37
  -12.6400003      -2.05065995E-37
  -12.6300001      -2.28883293E-37
  -12.6199999      -2.55252928E-37
  -12.6099997      -2.84423948E-37
  -12.6000004      -3.16667333E-37
  -12.5900002      -3.52277286E-37
  -12.5799999      -3.91573283E-37
  -12.5699997      -4.34901745E-37
  -12.5600004      -4.82638087E-37
  -12.5500002      -5.35188797E-37
  -12.5400000      -5.92993368E-37
  -12.5299997      -6.56527119E-37
  -12.5200005      -7.26303263E-37
  -12.5100002      -8.02875951E-37
  -12.5000000      -8.86841934E-37
  -12.4899998      -9.78845227E-37
  -12.4799995      -1.07957791E-36
  -12.4700003      -1.18978535E-36
  -12.4600000      -1.31026769E-36
  -12.4499998      -1.44188545E-36
  -12.4399996      -1.58556065E-36
  -12.4300003      -1.74228259E-36
  -12.4200001      -1.91311042E-36
  -12.4099998      -2.09917882E-36
  -12.3999996      -2.30170048E-36
  -12.3900003      -2.52197223E-36
  -12.3800001      -2.76137768E-36
  -12.3699999      -3.02139428E-36
  -12.3599997      -3.30359615E-36
  -12.3500004      -3.60965982E-36
  -12.3400002      -3.94137215E-36
  -12.3299999      -4.30063046E-36
  -12.3199997      -4.68945262E-36
  -12.3100004      -5.10998135E-36
  -12.3000002      -5.56448741E-36
  -12.2900000      -6.05538294E-36
  -12.2799997      -6.58521707E-36
  -12.2700005      -7.15669215E-36
  -12.2600002      -7.77266223E-36
  -12.2500000      -8.43614284E-36
  -12.2399998      -9.15032239E-36
  -12.2299995      -9.91855931E-36
  -12.2200003      -1.07443914E-35
  -12.2100000      -1.16315453E-35
  -12.1999998      -1.25839425E-35
  -12.1899996      -1.36057043E-35
  -12.1800003      -1.47011611E-35
  -12.1700001      -1.58748503E-35
  -12.1599998      -1.71315344E-35
  -12.1499996      -1.84761926E-35
  -12.1400003      -1.99140481E-35
  -12.1300001      -2.14505492E-35
  -12.1199999      -2.30913912E-35
  -12.1099997      -2.48425033E-35
  -12.1000004      -2.67100814E-35
  -12.0900002      -2.87005785E-35
  -12.0799999      -3.08206813E-35
  -12.0699997      -3.30773521E-35
  -12.0600004      -3.54778315E-35
  -12.0500002      -3.80295898E-35
  -12.0400000      -4.07404072E-35
  -12.0299997      -4.36182647E-35
  -12.0200005      -4.66714736E-35
  -12.0100002      -4.99085801E-35
  -12.0000000      -5.33383661E-35
  -11.9899998      -5.69698918E-35
  -11.9799995      -6.08124611E-35
  -11.9700003      -6.48756078E-35
  -11.9600000      -6.91691354E-35
  -11.9499998      -7.37029907E-35
  -11.9399996      -7.84873962E-35
  -11.9300003      -8.35327408E-35
  -11.9200001      -8.88495970E-35
  -11.9099998      -9.44486522E-35
  -11.8999996      -1.00340795E-34
  -11.8900003      -1.06537016E-34
  -11.8800001      -1.13048313E-34
  -11.8699999      -1.19885845E-34
  -11.8599997      -1.27060734E-34
  -11.8500004      -1.34584082E-34
  -11.8400002      -1.42466977E-34
  -11.8299999      -1.50720370E-34
  -11.8199997      -1.59355088E-34
  -11.8100004      -1.68381794E-34
  -11.8000002      -1.77810809E-34
  -11.7900000      -1.87652291E-34
  -11.7799997      -1.97915849E-34
  -11.7700005      -2.08610735E-34
  -11.7600002      -2.19745766E-34
  -11.7500000      -2.31329000E-34
  -11.7399998      -2.43367853E-34
  -11.7299995      -2.55869029E-34
  -11.7200003      -2.68838198E-34
  -11.7100000      -2.82280275E-34
  -11.6999998      -2.96198748E-34
  -11.6899996      -3.10596166E-34
  -11.6800003      -3.25473539E-34
  -11.6700001      -3.40830386E-34
  -11.6599998      -3.56664662E-34
  -11.6499996      -3.72972488E-34
  -11.6400003      -3.89747963E-34
  -11.6300001      -4.06982960E-34
  -11.6199999      -4.24667125E-34
  -11.6099997      -4.42787600E-34
  -11.6000004      -4.61328498E-34
  -11.5900002      -4.80271176E-34
  -11.5799999      -4.99593594E-34
  -11.5699997      -5.19270267E-34
  -11.5600004      -5.39272084E-34
  -11.5500002      -5.59565754E-34
  -11.5400000      -5.80113625E-34
  -11.5299997      -6.00873177E-34
  -11.5200005      -6.21797252E-34
  -11.5100002      -6.42833091E-34
  -11.5000000      -6.63922056E-34
  -11.4899998      -6.84999451E-34
  -11.4799995      -7.05994193E-34
  -11.4700003      -7.26827626E-34
  -11.4600000      -7.47414160E-34
  -11.4499998      -7.67659754E-34
  -11.4399996      -7.87461829E-34
  -11.4300003      -8.06708896E-34
  -11.4200001      -8.25279594E-34
  -11.4099998      -8.43042049E-34
  -11.3999996      -8.59853730E-34
  -11.3900003      -8.75559712E-34
  -11.3800001      -8.89993130E-34
  -11.3699999      -9.02973618E-34
  -11.3599997      -9.14306669E-34
  -11.3500004      -9.23782807E-34
  -11.3400002      -9.31176574E-34
  -11.3299999      -9.36245526E-34
  -11.3199997      -9.38729309E-34
  -11.3100004      -9.38348192E-34
  -11.3000002      -9.34802056E-34
  -11.2900000      -9.27769937E-34
  -11.2799997      -9.16906991E-34
  -11.2700005      -9.01844776E-34
  -11.2600002      -8.82188766E-34
  -11.2500000      -8.57517251E-34
  -11.2399998      -8.27379229E-34
  -11.2299995      -7.91292930E-34
  -11.2200003      -7.48744305E-34
  -11.2100000      -6.99184132E-34
  -11.1999998      -6.42026362E-34
  -11.1899996      -5.76646238E-34
  -11.1800003      -5.02377633E-34
  -11.1700001      -4.18510244E-34
  -11.1599998      -3.24287438E-34
  -11.1499996      -2.18902923E-34
  -11.1400003      -1.01498347E-34
  -11.1300001       2.88404727E-35
  -11.1199999       1.73086596E-34
  -11.1099997       3.32275450E-34
  -11.1000004       5.07509079E-34
  -11.0900002       6.99959361E-34
  -11.0799999       9.10872940E-34
  -11.0699997       1.14157574E-33
  -11.0600004       1.39347674E-33
  -11.0500002       1.66807479E-33
  -11.0400000       1.96696204E-33
  -11.0299997       2.29183085E-33
  -11.0200005       2.64447934E-33
  -11.0100002       3.02681769E-33
  -11.0000000       3.44087437E-33
  -10.9899998       3.88880604E-33
  -10.9799995       4.37290107E-33
  -10.9700003       4.89558830E-33
  -10.9600000       5.45944870E-33
  -10.9499998       6.06722152E-33
  -10.9399996       6.72181245E-33
  -10.9300003       7.42630752E-33
  -10.9200001       8.18397828E-33
  -10.9099998       8.99829905E-33
  -10.8999996       9.87295354E-33
  -10.8900003       1.08118503E-32
  -10.8800001       1.18191299E-32
  -10.8699999       1.28991873E-32
  -10.8599997       1.40566863E-32
  -10.8500004       1.52965537E-32
  -10.8400002       1.66240336E-32
  -10.8299999       1.80446670E-32
  -10.8199997       1.95643314E-32
  -10.8100004       2.11892584E-32
  -10.8000002       2.29260293E-32
  -10.7900000       2.47816308E-32
  -10.7799997       2.67634614E-32
  -10.7700005       2.88793424E-32
  -10.7600002       3.11375611E-32
  -10.7500000       3.35468779E-32
  -10.7399998       3.61165732E-32
  -10.7299995       3.88564448E-32
  -10.7200003       4.17768782E-32
  -10.7100000       4.48888320E-32
  -10.6999998       4.82039024E-32
  -10.6899996       5.17343527E-32
  -10.6800003       5.54931135E-32
  -10.6700001       5.94938674E-32
  -10.6599998       6.37510494E-32
  -10.6499996       6.82799177E-32
  -10.6400003       7.30965704E-32
  -10.6300001       7.82179701E-32
  -10.6199999       8.36620782E-32
  -10.6099997       8.94477262E-32
  -10.6000004       9.55949152E-32
  -10.5900002       1.02124610E-31
  -10.5799999       1.09058957E-31
  -10.5699997       1.16421278E-31
  -10.5600004       1.24236152E-31
  -10.5500002       1.32529383E-31
  -10.5400000       1.41328287E-31
  -10.5299997       1.50661442E-31
  -10.5200005       1.60559010E-31
  -10.5100002       1.71052636E-31
  -10.5000000       1.82175693E-31
  -10.4899998       1.93963139E-31
  -10.4799995       2.06451767E-31
  -10.4700003       2.19680240E-31
  -10.4600000       2.33689076E-31
  -10.4499998       2.48520806E-31
  -10.4399996       2.64220144E-31
  -10.4300003       2.80833829E-31
  -10.4200001       2.98410996E-31
  -10.4099998       3.17003085E-31
  -10.3999996       3.36663910E-31
  -10.3900003       3.57449988E-31
  -10.3800001       3.79420424E-31
  -10.3699999       4.02636955E-31
  -10.3599997       4.27164256E-31
  -10.3500004       4.53069894E-31
  -10.3400002       4.80424635E-31
  -10.3299999       5.09302159E-31
  -10.3199997       5.39779483E-31
  -10.3100004       5.71937294E-31
  -10.3000002       6.05859474E-31
  -10.2900000       6.41633435E-31
  -10.2799997       6.79350770E-31
  -10.2700005       7.19106506E-31
  -10.2600002       7.60999338E-31
  -10.2500000       8.05132850E-31
  -10.2399998       8.51614248E-31
  -10.2299995       9.00555156E-31
  -10.2200003       9.52071901E-31
  -10.2100000       1.00628485E-30
  -10.1999998       1.06331937E-30
  -10.1899996       1.12330560E-30
  -10.1800003       1.18637849E-30
  -10.1700001       1.25267797E-30
  -10.1599998       1.32234914E-30
  -10.1499996       1.39554229E-30
  -10.1400003       1.47241350E-30
  -10.1300001       1.55312342E-30
  -10.1199999       1.63783847E-30
  -10.1099997       1.72673142E-30
  -10.1000004       1.81997972E-30
  -10.0900002       1.91776694E-30
  -10.0799999       2.02028302E-30
  -10.0699997       2.12772320E-30
  -10.0600004       2.24028911E-30
  -10.0500002       2.35818799E-30
  -10.0400000       2.48163277E-30
  -10.0299997       2.61084461E-30
  -10.0200005       2.74604771E-30
  -10.0100002       2.88747436E-30
  -10.0000000       3.03536132E-30
  -9.98999977       3.18995463E-30
  -9.97999954       3.35150254E-30
  -9.97000027       3.52026027E-30
  -9.96000004       3.69649076E-30
  -9.94999981       3.88046070E-30
  -9.93999958       4.07244470E-30
  -9.93000031       4.27271922E-30
  -9.92000008       4.48156789E-30
  -9.90999985       4.69928223E-30
  -9.89999962       4.92615302E-30
  -9.89000034       5.16248004E-30
  -9.88000011       5.40856762E-30
  -9.86999989       5.66472119E-30
  -9.85999966       5.93125034E-30
  -9.85000038       6.20846952E-30
  -9.84000015       6.49669810E-30
  -9.82999992       6.79625319E-30
  -9.81999969       7.10745488E-30
  -9.81000042       7.43062667E-30
  -9.80000019       7.76609132E-30
  -9.78999996       8.11417156E-30
  -9.77999973       8.47519164E-30
  -9.77000046       8.84947280E-30
  -9.76000023       9.23733478E-30
  -9.75000000       9.63909204E-30
  -9.73999977       1.00550576E-29
  -9.72999954       1.04855413E-29
  -9.72000027       1.09308426E-29
  -9.71000004       1.13912550E-29
  -9.69999981       1.18670672E-29
  -9.68999958       1.23585518E-29
  -9.68000031       1.28659794E-29
  -9.67000008       1.33896021E-29
  -9.65999985       1.39296570E-29
  -9.64999962       1.44863681E-29
  -9.64000034       1.50599461E-29
  -9.63000011       1.56505747E-29
  -9.61999989       1.62584283E-29
  -9.60999966       1.68836453E-29
  -9.60000038       1.75263477E-29
  -9.59000015       1.81866272E-29
  -9.57999992       1.88645500E-29
  -9.56999969       1.95601508E-29
  -9.56000042       2.02734219E-29
  -9.55000019       2.10043274E-29
  -9.53999996       2.17527889E-29
  -9.52999973       2.25186861E-29
  -9.52000046       2.33018535E-29
  -9.51000023       2.41020759E-29
  -9.50000000       2.49190869E-29
  -9.48999977       2.57525662E-29
  -9.47999954       2.66021361E-29
  -9.47000027       2.74673601E-29
  -9.46000004       2.83477207E-29
  -9.44999981       2.92426462E-29
  -9.43999958       3.01514865E-29
  -9.43000031       3.10735104E-29
  -9.42000008       3.20079024E-29
  -9.40999985       3.29537718E-29
  -9.39999962       3.39101194E-29
  -9.39000034       3.48758619E-29
  -9.38000011       3.58498167E-29
  -9.36999989       3.68306778E-29
  -9.35999966       3.78170398E-29
  -9.35000038       3.88073891E-29
  -9.34000015       3.98000525E-29
  -9.32999992       4.07932696E-29
  -9.31999969       4.17851265E-29
  -9.31000042       4.27735830E-29
  -9.30000019       4.37564212E-29
  -9.28999996       4.47312848E-29
  -9.27999973       4.56956671E-29
  -9.27000046       4.66468959E-29
  -9.26000023       4.75821095E-29
  -9.25000000       4.84982623E-29
  -9.23999977       4.93921496E-29
  -9.22999954       5.02603407E-29
  -9.22000027       5.10992187E-29
  -9.21000004       5.19049736E-29
  -9.19999981       5.26735280E-29
  -9.18999958       5.34006267E-29
  -9.18000031       5.40817559E-29
  -9.17000008       5.47121730E-29
  -9.15999985       5.52868765E-29
  -9.14999962       5.58006183E-29
  -9.14000034       5.62478794E-29
  -9.13000011       5.66228640E-29
  -9.11999989       5.69194813E-29
  -9.10999966       5.71313937E-29
  -9.10000038       5.72519148E-29
  -9.09000015       5.72740751E-29
  -9.07999992       5.71906041E-29
  -9.06999969       5.69938763E-29
  -9.06000042       5.66759474E-29
  -9.05000019       5.62285238E-29
  -9.03999996       5.56429930E-29
  -9.02999973       5.49103572E-29
  -9.02000046       5.40212396E-29
  -9.01000023       5.29659443E-29
  -9.00000000       5.17343241E-29
  -8.98999977       5.03159249E-29
  -8.97999954       4.86998109E-29
  -8.97000027       4.68747244E-29
  -8.96000004       4.48289445E-29
  -8.94999981       4.25503497E-29
  -8.93999958       4.00264004E-29
  -8.93000031       3.72441358E-29
  -8.92000008       3.41901406E-29
  -8.90999985       3.08505901E-29
  -8.89999962       2.72111813E-29
  -8.89000034       2.32572035E-29
  -8.88000011       1.89734734E-29
  -8.86999989       1.43443563E-29
  -8.85999966       9.35376026E-30
  -8.85000038       3.98514590E-30
  -8.84000015      -1.77849060E-30
  -8.82999992      -7.95461127E-30
  -8.81999969      -1.45611318E-29
  -8.81000042      -2.16164316E-29
  -8.80000019      -2.91393261E-29
  -8.78999996      -3.71491122E-29
  -8.77999973      -4.56655022E-29
  -8.77000046      -5.47086581E-29
  -8.76000023      -6.42991934E-29
  -8.75000000      -7.44581248E-29
  -8.73999977      -8.52068782E-29
  -8.72999954      -9.65673251E-29
  -8.72000027      -1.08561710E-28
  -8.71000004      -1.21212650E-28
  -8.69999981      -1.34543155E-28
  -8.68999958      -1.48576600E-28
  -8.68000031      -1.63336590E-28
  -8.67000008      -1.78847199E-28
  -8.65999985      -1.95132682E-28
  -8.64999962      -2.12217619E-28
  -8.64000034      -2.30126793E-28
  -8.63000011      -2.48885254E-28
  -8.61999989      -2.68518232E-28
  -8.60999966      -2.89051101E-28
  -8.60000038      -3.10509428E-28
  -8.59000015      -3.32918730E-28
  -8.57999992      -3.56304599E-28
  -8.56999969      -3.80692867E-28
  -8.56000042      -4.06109003E-28
  -8.55000019      -4.32578743E-28
  -8.53999996      -4.60127390E-28
  -8.52999973      -4.88780220E-28
  -8.52000046      -5.18562367E-28
  -8.51000023      -5.49498484E-28
  -8.50000000      -5.81612932E-28
  -8.48999977      -6.14929883E-28
  -8.47999954      -6.49472833E-28
  -8.47000027      -6.85264604E-28
  -8.46000004      -7.22327729E-28
  -8.44999981      -7.60684069E-28
  -8.43999958      -8.00354374E-28
  -8.43000031      -8.41358770E-28
  -8.42000008      -8.83716133E-28
  -8.40999985      -9.27444854E-28
  -8.39999962      -9.72562170E-28
  -8.39000034      -1.01908339E-27
  -8.38000011      -1.06702335E-27
  -8.36999989      -1.11639486E-27
  -8.35999966      -1.16720975E-27
  -8.35000038      -1.21947756E-27
  -8.34000015      -1.27320658E-27
  -8.32999992      -1.32840334E-27
  -8.31999969      -1.38507171E-27
  -8.31000042      -1.44321409E-27
  -8.30000019      -1.50283019E-27
  -8.28999996      -1.56391723E-27
  -8.27999973      -1.62647018E-27
  -8.27000046      -1.69048193E-27
  -8.26000023      -1.75594140E-27
  -8.25000000      -1.82283511E-27
  -8.23999977      -1.89114572E-27
  -8.22999954      -1.96085360E-27
  -8.22000027      -2.03193544E-27
  -8.21000004      -2.10436369E-27
  -8.19999981      -2.17810736E-27
  -8.18999958      -2.25313119E-27
  -8.18000031      -2.32939648E-27
  -8.17000008      -2.40685892E-27
  -8.15999985      -2.48547056E-27
  -8.14999962      -2.56517806E-27
  -8.14000034      -2.64592441E-27
  -8.13000011      -2.72764585E-27
  -8.11999989      -2.81027422E-27
  -8.10999966      -2.89373516E-27
  -8.10000038      -2.97794876E-27
  -8.09000015      -3.06282950E-27
  -8.07999992      -3.14828475E-27
  -8.06999969      -3.23421570E-27
  -8.06000042      -3.32051777E-27
  -8.05000019      -3.40707831E-27
  -8.03999996      -3.49377828E-27
  -8.02999973      -3.58049058E-27
  -8.02000046      -3.66708193E-27
  -8.01000023      -3.75340943E-27
  -8.00000000      -3.83932324E-27
  -7.98999977      -3.92466466E-27
  -7.98000002      -4.00926614E-27
  -7.96999979      -4.09295242E-27
  -7.96000004      -4.17553822E-27
  -7.94999981      -4.25682903E-27
  -7.94000006      -4.33662339E-27
  -7.92999983      -4.41470521E-27
  -7.92000008      -4.49085301E-27
  -7.90999985      -4.56483184E-27
  -7.90000010      -4.63639901E-27
  -7.88999987      -4.70530031E-27
  -7.88000011      -4.77126918E-27
  -7.86999989      -4.83402946E-27
  -7.86000013      -4.89329380E-27
  -7.84999990      -4.94876173E-27
  -7.84000015      -5.00012397E-27
  -7.82999992      -5.04705619E-27
  -7.82000017      -5.08922558E-27
  -7.80999994      -5.12628240E-27
  -7.80000019      -5.15786804E-27
  -7.78999996      -5.18361002E-27
  -7.78000021      -5.20312431E-27
  -7.76999998      -5.21601109E-27
  -7.76000023      -5.22186207E-27
  -7.75000000      -5.22025045E-27
  -7.73999977      -5.21074136E-27
  -7.73000002      -5.19288260E-27
  -7.71999979      -5.16621155E-27
  -7.71000004      -5.13024905E-27
  -7.69999981      -5.08450551E-27
  -7.69000006      -5.02847636E-27
  -7.67999983      -4.96164428E-27
  -7.67000008      -4.88347656E-27
  -7.65999985      -4.79342778E-27
  -7.65000010      -4.69094134E-27
  -7.63999987      -4.57544294E-27
  -7.63000011      -4.44634940E-27
  -7.61999989      -4.30306290E-27
  -7.61000013      -4.14497179E-27
  -7.59999990      -3.97145128E-27
  -7.59000015      -3.78186582E-27
  -7.57999992      -3.57556713E-27
  -7.57000017      -3.35189271E-27
  -7.55999994      -3.11017002E-27
  -7.55000019      -2.84971572E-27
  -7.53999996      -2.56983381E-27
  -7.53000021      -2.26981957E-27
  -7.51999998      -1.94895559E-27
  -7.51000023      -1.60651706E-27
  -7.50000000      -1.24176741E-27
  -7.48999977      -8.53963308E-28
  -7.48000002      -4.42352934E-28
  -7.46999979      -6.17668002E-30
  -7.46000004       4.55331487E-28
  -7.44999981       9.42944160E-28
  -7.44000006       1.45743882E-27