  -16.0000000       0.00000000    
  -15.9899998       0.00000000    
  -15.9799995       0.00000000    
  -15.9700003       0.00000000    
  -15.9600000       0.00000000    
  -15.9499998       0.00000000    
  -15.9399996       0.00000000    
  -15.9300003       0.00000000    
  -15.9200001       0.00000000    
  -15.9099998       0.00000000    
  -15.8999996       0.00000000    
  -15.8900003       0.00000000    
  -15.8800001       0.00000000    
  -15.8699999       0.00000000    
  -15.8599997       0.00000000    
  -15.8500004       0.00000000    
  -15.8400002       0.00000000    
  -15.8299999       0.00000000    
  -15.8199997       0.00000000    
  -15.8100004       0.00000000    
  -15.8000002       0.00000000    
  -15.7900000       0.00000000    
  -15.7799997       0.00000000    
  -15.7700005       0.00000000    
  -15.7600002       0.00000000    
  -15.7500000       0.00000000    
  -15.7399998       0.00000000    
  -15.7299995       0.00000000    
  -15.7200003       0.00000000    
  -15.7100000       0.00000000    
  -15.6999998       0.00000000    
  -15.6899996       0.00000000    
  -15.6800003       0.00000000    
  -15.6700001       0.00000000    
  -15.6599998       0.00000000    
  -15.6499996       0.00000000    
  -15.6400003       0.00000000    
  -15.6300001       0.00000000    
  -15.6199999       0.00000000    
  -15.6099997       0.00000000    
  -15.6000004       0.00000000    
  -15.5900002       0.00000000    
  -15.5799999       0.00000000    
  -15.5699997       0.00000000    
  -15.5600004       0.00000000    
  -15.5500002       0.00000000    
  -15.5400000       0.00000000    
  -15.5299997       0.00000000    
  -15.5200005       0.00000000    
  -15.5100002       0.00000000    
  -15.5000000       0.00000000    
  -15.4899998       0.00000000    
  -15.4799995       0.00000000    
  -15.4700003       0.00000000    
  -15.4600000       0.00000000    
  -15.4499998       0.00000000    
  -15.4399996       0.00000000    
  -15.4300003       0.00000000    
  -15.4200001       0.00000000    
  -15.4099998       0.00000000    
  -15.3999996       0.00000000    
  -15.3900003       0.00000000    
  -15.3800001       0.00000000    
  -15.3699999       0.00000000    
  -15.3599997       0.00000000    
  -15.3500004       0.00000000    
  -15.3400002       0.00000000    
  -15.3299999       0.00000000    
  -15.3199997       0.00000000    
  -15.3100004       0.00000000    
  -15.3000002       0.00000000    
  -15.2900000       0.00000000    
  -15.2799997       0.00000000    
  -15.2700005       0.00000000    
  -15.2600002       0.00000000    
  -15.2500000       0.00000000    
  -15.2399998       0.00000000    
  -15.2299995       0.00000000    
  -15.2200003       0.00000000    
  -15.2100000       0.00000000    
  -15.1999998       0.00000000    
  -15.1899996       0.00000000    
  -15.1800003       0.00000000    
  -15.1700001       0.00000000    
  -15.1599998       0.00000000    
  -15.1499996       0.00000000    
  -15.1400003       0.00000000    
  -15.1300001       0.00000000    
  -15.1199999       0.00000000    
  -15.1099997       0.00000000    
  -15.1000004       0.00000000    
  -15.0900002       0.00000000    
  -15.0799999       0.00000000    
  -15.0699997       0.00000000    
  -15.0600004       0.00000000    
  -15.0500002       0.00000000    
  -15.0400000       0.00000000    
  -15.0299997       0.00000000    
  -15.0200005       0.00000000    
  -15.0100002       0.00000000    
  -15.0000000       0.00000000    
  -14.9899998       0.00000000    
  -14.9799995       0.00000000    
  -14.9700003       0.00000000    
  -14.9600000       0.00000000    
  -14.9499998       0.00000000    
  -14.9399996       0.00000000    
  -14.9300003       0.00000000    
  -14.9200001       0.00000000    
  -14.9099998       0.00000000    
  -14.8999996       0.00000000    
  -14.8900003       0.00000000    
  -14.8800001       0.00000000    
  -14.8699999       0.00000000    
  -14.8599997       0.00000000    
  -14.8500004       0.00000000    
  -14.8400002       0.00000000    
  -14.8299999       0.00000000    
  -14.8199997       0.00000000    
  -14.8100004       0.00000000    
  -14.8000002       0.00000000    
  -14.7900000       0.00000000    
  -14.7799997       0.00000000    
  -14.7700005       0.00000000    
  -14.7600002       0.00000000    
  -14.7500000       0.00000000    
  -14.7399998       0.00000000    
  -14.7299995       0.00000000    
  -14.7200003       0.00000000    
  -14.7100000       0.00000000    
  -14.6999998       0.00000000    
  -14.6899996       0.00000000    
  -14.6800003       0.00000000    
  -14.6700001       0.00000000    
  -14.6599998       0.00000000    
  -14.6499996       0.00000000    
  -14.6400003       0.00000000    
  -14.6300001       0.00000000    
  -14.6199999       0.00000000    
  -14.6099997       0.00000000    
  -14.6000004       0.00000000    
  -14.5900002       0.00000000    
  -14.5799999       0.00000000    
  -14.5699997       0.00000000    
  -14.5600004       0.00000000    
  -14.5500002       0.00000000    
  -14.5400000       0.00000000    
  -14.5299997       0.00000000    
  -14.5200005       0.00000000    
  -14.5100002       0.00000000    
  -14.5000000       0.00000000    
  -14.4899998       0.00000000    
  -14.4799995       0.00000000    
  -14.4700003       0.00000000    
  -14.4600000       0.00000000    
  -14.4499998       0.00000000    
  -14.4399996       0.00000000    
  -14.4300003       0.00000000    
  -14.4200001       0.00000000    
  -14.4099998       0.00000000    
  -14.3999996       0.00000000    
  -14.3900003       0.00000000    
  -14.3800001       0.00000000    
  -14.3699999       0.00000000    
  -14.3599997       0.00000000    
  -14.3500004       0.00000000    
  -14.3400002       0.00000000    
  -14.3299999       0.00000000    
  -14.3199997       0.00000000    
  -14.3100004       0.00000000    
  -14.3000002       0.00000000    
  -14.2900000       0.00000000    
  -14.2799997       0.00000000    
  -14.2700005       0.00000000    
  -14.2600002       0.00000000    
  -14.2500000       0.00000000    
  -14.2399998       0.00000000    
  -14.2299995       0.00000000    
  -14.2200003       0.00000000    
  -14.2100000       0.00000000    
  -14.1999998       0.00000000    
  -14.1899996       0.00000000    
  -14.1800003       0.00000000    
  -14.1700001       0.00000000    
  -14.1599998       0.00000000    
  -14.1499996       0.00000000    
  -14.1400003       0.00000000    
  -14.1300001       0.00000000    
  -14.1199999       0.00000000    
  -14.1099997       0.00000000    
  -14.1000004       0.00000000    
  -14.0900002       0.00000000    
  -14.0799999       0.00000000    
  -14.0699997       0.00000000    
  -14.0600004       0.00000000    
  -14.0500002       0.00000000    
  -14.0400000       0.00000000    
  -14.0299997       0.00000000    
  -14.0200005       0.00000000    
  -14.0100002       0.00000000    
  -14.0000000       0.00000000    
  -13.9899998       0.00000000    
  -13.9799995       0.00000000    
  -13.9700003       0.00000000    
  -13.9600000       0.00000000    
  -13.9499998       0.00000000    
  -13.9399996       0.00000000    
  -13.9300003       0.00000000    
  -13.9200001       0.00000000    
  -13.9099998       0.00000000    
  -13.8999996       0.00000000    
  -13.8900003       0.00000000    
  -13.8800001       0.00000000    
  -13.8699999       0.00000000    
  -13.8599997       0.00000000    
  -13.8500004       0.00000000    
  -13.8400002       0.00000000    
  -13.8299999       0.00000000    
  -13.8199997       0.00000000    
  -13.8100004       0.00000000    
  -13.8000002       0.00000000    
  -13.7900000       0.00000000    
  -13.7799997       0.00000000    
  -13.7700005       0.00000000    
  -13.7600002       0.00000000    
  -13.7500000       0.00000000    
  -13.7399998       0.00000000    
  -13.7299995       0.00000000    
  -13.7200003       0.00000000    
  -13.7100000       0.00000000    
  -13.6999998       0.00000000    
  -13.6899996       0.00000000    
  -13.6800003       0.00000000    
  -13.6700001       0.00000000    
  -13.6599998       0.00000000    
  -13.6499996       0.00000000    
  -13.6400003       0.00000000    
  -13.6300001       0.00000000    
  -13.6199999       0.00000000    
  -13.6099997       0.00000000    
  -13.6000004       0.00000000    
  -13.5900002       0.00000000    
  -13.5799999       0.00000000    
  -13.5699997       0.00000000    
  -13.5600004       0.00000000    
  -13.5500002       0.00000000    
  -13.5400000       0.00000000    
  -13.5299997       0.00000000    
  -13.5200005       0.00000000    
  -13.5100002       0.00000000    
  -13.5000000       0.00000000    
  -13.4899998       0.00000000    
  -13.4799995       0.00000000    
  -13.4700003       0.00000000    
  -13.4600000       0.00000000    
  -13.4499998       0.00000000    
  -13.4399996       0.00000000    
  -13.4300003       0.00000000    
  -13.4200001       0.00000000    
  -13.4099998       0.00000000    
  -13.3999996       0.00000000    
  -13.3900003       0.00000000    
  -13.3800001       0.00000000    
  -13.3699999       0.00000000    
  -13.3599997       0.00000000    
  -13.3500004       0.00000000    
  -13.3400002       0.00000000    
  -13.3299999       0.00000000    
  -13.3199997       0.00000000    
  -13.3100004       0.00000000    
  -13.3000002       0.00000000    
  -13.2900000       0.00000000    
  -13.2799997       0.00000000    
  -13.2700005       0.00000000    
  -13.2600002       0.00000000    
  -13.2500000       0.00000000    
  -13.2399998       0.00000000    
  -13.2299995       0.00000000    
  -13.2200003       0.00000000    
  -13.2100000       0.00000000    
  -13.1999998       0.00000000    
  -13.1899996       0.00000000    
  -13.1800003       0.00000000    
  -13.1700001       0.00000000    
  -13.1599998       0.00000000    
  -13.1499996       0.00000000    
  -13.1400003       0.00000000    
  -13.1300001       0.00000000    
  -13.1199999       0.00000000    
  -13.1099997       0.00000000    
  -13.1000004       0.00000000    
  -13.0900002       0.00000000    
  -13.0799999       0.00000000    
  -13.0699997       0.00000000    
  -13.0600004       0.00000000    
  -13.0500002       0.00000000    
  -13.0400000       0.00000000    
  -13.0299997       0.00000000    
  -13.0200005       0.00000000    
  -13.0100002       0.00000000    
  -13.0000000       0.00000000    
  -12.9899998       0.00000000    
  -12.9799995       0.00000000    
  -12.9700003       0.00000000    
  -12.9600000       0.00000000    
  -12.9499998       0.00000000    
  -12.9399996       0.00000000    
  -12.9300003       0.00000000    
  -12.9200001       0.00000000    
  -12.9099998       0.00000000    
  -12.8999996       0.00000000    
  -12.8900003       0.00000000    
  -12.8800001       0.00000000    
  -12.8699999       0.00000000    
  -12.8599997       0.00000000    
  -12.8500004       0.00000000    
  -12.8400002       0.00000000    
  -12.8299999       0.00000000    
  -12.8199997       0.00000000    
  -12.8100004       0.00000000    
  -12.8000002       0.00000000    
  -12.7900000       0.00000000    
  -12.7799997       0.00000000    
  -12.7700005       0.00000000    
  -12.7600002       0.00000000    
  -12.7500000       0.00000000    
  -12.7399998       0.00000000    
  -12.7299995       0.00000000    
  -12.7200003       0.00000000    
  -12.7100000       0.00000000    
  -12.6999998       0.00000000    
  -12.6899996       0.00000000    
  -12.6800003       0.00000000    
  -12.6700001       0.00000000    
  -12.6599998       0.00000000    
  -12.6499996       0.00000000    
  -12.6400003       0.00000000    
  -12.6300001       0.00000000    
  -12.6199999       0.00000000    
  -12.6099997       0.00000000    
  -12.6000004       0.00000000    
  -12.5900002       0.00000000    
  -12.5799999       0.00000000    
  -12.5699997       0.00000000    
  -12.5600004       0.00000000    
  -12.5500002       0.00000000    
  -12.5400000       0.00000000    
  -12.5299997       0.00000000    
  -12.5200005       0.00000000    
  -12.5100002       0.00000000    
  -12.5000000       0.00000000    
  -12.4899998       3.36311631E-44
  -12.4799995       3.36311631E-44
  -12.4700003       3.36311631E-44
  -12.4600000       3.36311631E-44
  -12.4499998      -1.56945428E-43
  -12.4399996      -1.23314265E-43
  -12.4300003      -1.23314265E-43
  -12.4200001       2.38220739E-43
  -12.4099998       1.77964905E-43
  -12.3999996       8.26766094E-44
  -12.3900003      -1.75162308E-43
  -12.3800001      -3.12489558E-43
  -12.3699999      -6.83833651E-43
  -12.3599997      -2.01226459E-42
  -12.3500004      -8.63199854E-43
  -12.3400002      -1.27518160E-43
  -12.3299999      -9.61290747E-43
  -12.3199997       4.24173045E-42
  -12.3100004       9.85953599E-42
  -12.3000002       9.14207118E-42
  -12.2900000       1.20231408E-41
  -12.2799997      -1.05475735E-41
  -12.2700005      -1.82701294E-41
  -12.2600002      -1.92047955E-41
  -12.2500000      -1.21170278E-41
  -12.2399998       1.29255770E-41
  -12.2299995       3.56588420E-41
  -12.2200003       2.69595812E-41
  -12.2100000       7.76179219E-42
  -12.1999998       2.14777016E-41
  -12.1899996      -8.77072709E-42
  -12.1800003       5.42582765E-42
  -12.1700001      -5.75933669E-43
  -12.1599998       6.36750022E-42
  -12.1499996      -5.29606742E-41
  -12.1400003       1.71532945E-41
  -12.1300001       3.06015559E-41
  -12.1199999      -4.05199464E-41
  -12.1099997       4.34668771E-41
  -12.1000004       1.25724498E-41
  -12.0900002      -4.67585272E-41
  -12.0799999       1.55189601E-40
  -12.0699997       2.50238275E-40
  -12.0600004       2.71121826E-40
  -12.0500002       8.61181984E-41
  -12.0400000       1.94411945E-40
  -12.0299997      -2.29028221E-41
  -12.0200005      -3.46148747E-41
  -12.0100002       1.04200554E-41
  -12.0000000       1.90275312E-40
  -11.9899998       3.04978598E-41
  -11.9799995       3.99608283E-41
  -11.9700003       3.48699110E-41
  -11.9600000       2.95917802E-40
  -11.9499998       1.62473550E-40
  -11.9399996       2.51774098E-40
  -11.9300003       9.55167072E-41
  -11.9200001       3.94962979E-40
  -11.9099998       3.09221730E-40
  -11.8999996       4.47494855E-40
  -11.8900003       1.57745569E-40
  -11.8800001       5.08912366E-40
  -11.8699999       1.71542754E-40
  -11.8599997       5.92718422E-40
  -11.8500004       6.49405149E-40
  -11.8400002       2.90564842E-40
  -11.8299999       2.29252429E-40
  -11.8199997      -1.20131916E-40
  -11.8100004      -2.82779228E-40
  -11.8000002      -6.23294754E-40
  -11.7900000      -1.07516586E-39
  -11.7799997      -1.39143613E-39
  -11.7700005      -2.25881325E-39
  -11.7600002      -3.41799396E-39
  -11.7500000      -4.59529907E-39
  -11.7399998      -6.30509199E-39
  -11.7299995      -8.28168654E-39
  -11.7200003      -1.06889057E-38
  -11.7100000      -1.39374084E-38
  -11.6999998      -1.76247221E-38
  -11.6899996      -2.24642900E-38
  -11.6800003      -2.83546186E-38
  -11.6700001      -3.50506617E-38
  -11.6599998      -4.32622202E-38
  -11.6499996      -5.36431065E-38
  -11.6400003      -6.62010837E-38
  -11.6300001      -8.12324872E-38
  -11.6199999      -9.87183715E-38
  -11.6099997      -1.20262192E-37
  -11.6000004      -1.44966019E-37
  -11.5900002      -1.74993648E-37
  -11.5799999      -2.10448349E-37
  -11.5699997      -2.52208612E-37
  -11.5600004      -3.01332173E-37
  -11.5500002      -3.58795252E-37
  -11.5400000      -4.27044429E-37
  -11.5299997      -5.06292184E-37
  -11.5200005      -5.99446784E-37
  -11.5100002      -7.06966375E-37
  -11.5000000      -8.33706849E-37
  -11.4899998      -9.80082585E-37
  -11.4799995      -1.14924258E-36
  -11.4700003      -1.34550741E-36
  -11.4600000      -1.57295910E-36
  -11.4499998      -1.83432417E-36
  -11.4399996      -2.13546424E-36
  -11.4300003      -2.48185733E-36
  -11.4200001      -2.87868282E-36
  -11.4099998      -3.33496551E-36
  -11.3999996      -3.85593572E-36
  -11.3900003      -4.45204567E-36
  -11.3800001      -5.13136359E-36
  -11.3699999      -5.90573162E-36
  -11.3599997      -6.78630309E-36
  -11.3500004      -7.78751089E-36
  -11.3400002      -8.92243834E-36
  -11.3299999      -1.02094317E-35
  -11.3199997      -1.16650925E-35
  -11.3100004      -1.33102924E-35
  -11.3000002      -1.51671086E-35
  -11.2900000      -1.72605633E-35
  -11.2799997      -1.96174108E-35
  -11.2700005      -2.22680587E-35
  -11.2600002      -2.52450269E-35
  -11.2500000      -2.85839187E-35
  -11.2399998      -3.23254374E-35
  -11.2299995      -3.65137129E-35
  -11.2200003      -4.11950790E-35
  -11.2100000      -4.64228864E-35
  -11.1999998      -5.22542136E-35
  -11.1899996      -5.87524187E-35
  -11.1800003      -6.59843091E-35
  -11.1700001      -7.40243403E-35
  -11.1599998      -8.29546823E-35
  -11.1499996      -9.28619300E-35
  -11.1400003      -1.03841575E-34
  -11.1300001      -1.15998747E-34
  -11.1199999      -1.29444956E-34
  -11.1099997      -1.44302079E-34
  -11.1000004      -1.60701683E-34
  -11.0900002      -1.78785103E-34
  -11.0799999      -1.98706805E-34
  -11.0699997      -2.20632553E-34
  -11.0600004      -2.44738613E-34
  -11.0500002      -2.71218965E-34
  -11.0400000      -3.00278172E-34
  -11.0299997      -3.32138248E-34
  -11.0200005      -3.67036012E-34
  -11.0100002      -4.05224448E-34
  -11.0000000      -4.46978053E-34
  -10.9899998      -4.92586316E-34
  -10.9799995      -5.42359226E-34
  -10.9700003      -5.96629505E-34
  -10.9600000      -6.55749386E-34
  -10.9499998      -7.20093329E-34
  -10.9399996      -7.90064631E-34
  -10.9300003      -8.66083024E-34
  -10.9200001      -9.48603829E-34
  -10.9099998      -1.03810266E-33
  -10.8999996      -1.13508499E-33
  -10.8900003      -1.24008363E-33
  -10.8800001      -1.35366623E-33
  -10.8699999      -1.47642641E-33
  -10.8599997      -1.60899555E-33
  -10.8500004      -1.75202749E-33
  -10.8400002      -1.90622829E-33
  -10.8299999      -2.07231830E-33
  -10.8199997      -2.25106911E-33
  -10.8100004      -2.44328338E-33
  -10.8000002      -2.64979551E-33
  -10.7900000      -2.87148254E-33
  -10.7799997      -3.10926521E-33
  -10.7700005      -3.36409218E-33
  -10.7600002      -3.63695711E-33
  -10.7500000      -3.92889481E-33
  -10.7399998      -4.24097093E-33
  -10.7299995      -4.57429227E-33
  -10.7200003      -4.93000127E-33
  -10.7100000      -5.30929215E-33
  -10.6999998      -5.71338082E-33
  -10.6899996      -6.14352359E-33
  -10.6800003      -6.60101424E-33
  -10.6700001      -7.08717079E-33
  -10.6599998      -7.60333844E-33
  -10.6499996      -8.15090428E-33
  -10.6400003      -8.73126788E-33
  -10.6300001      -9.34588832E-33
  -10.6199999      -9.99617768E-33
  -10.6099997      -1.06836413E-32
  -10.6000004      -1.14096986E-32
  -10.5900002      -1.21758902E-32
  -10.5799999      -1.29836451E-32
  -10.5699997      -1.38344841E-32
  -10.5600004      -1.47298655E-32
  -10.5500002      -1.56712220E-32
  -10.5400000      -1.66600360E-32
  -10.5299997      -1.76976199E-32
  -10.5200005      -1.87853563E-32
  -10.5100002      -1.99245778E-32
  -10.5000000      -2.11164953E-32
  -10.4899998      -2.23622489E-32
  -10.4799995      -2.36629907E-32
  -10.4700003      -2.50195832E-32
  -10.4600000      -2.64330065E-32
  -10.4499998      -2.79039907E-32
  -10.4399996      -2.94330943E-32
  -10.4300003      -3.10208140E-32
  -10.4200001      -3.26673583E-32
  -10.4099998      -3.43729066E-32
  -10.3999996      -3.61373001E-32
  -10.3900003      -3.79601068E-32
  -10.3800001      -3.98407567E-32
  -10.3699999      -4.17784064E-32
  -10.3599997      -4.37717156E-32
  -10.3500004      -4.58193239E-32
  -10.3400002      -4.79192682E-32
  -10.3299999      -5.00692591E-32
  -10.3199997      -5.22666989E-32
  -10.3100004      -5.45084136E-32
  -10.3000002      -5.67908416E-32
  -10.2900000      -5.91098098E-32
  -10.2799997      -6.14608044E-32
  -10.2700005      -6.38384181E-32
  -10.2600002      -6.62369261E-32
  -10.2500000      -6.86497047E-32
  -10.2399998      -7.10696655E-32
  -10.2299995      -7.34887859E-32
  -10.2200003      -7.58980850E-32
  -10.2100000      -7.82883293E-32
  -10.1999998      -8.06486632E-32
  -10.1899996      -8.29677549E-32
  -10.1800003      -8.52330441E-32
  -10.1700001      -8.74310951E-32
  -10.1599998      -8.95471319E-32
  -10.1499996      -9.15653676E-32
  -10.1400003      -9.34684753E-32
  -10.1300001      -9.52381115E-32
  -10.1199999      -9.68545161E-32
  -10.1099997      -9.82961071E-32
  -10.1000004      -9.95400153E-32
  -10.0900002      -1.00562037E-31
  -10.0799999      -1.01335348E-31
  -10.0699997      -1.01832076E-31
  -10.0600004      -1.02022201E-31
  -10.0500002      -1.01873501E-31
  -10.0400000      -1.01351758E-31
  -10.0299997      -1.00420519E-31
  -10.0200005      -9.90405830E-32
  -10.0100002      -9.71708593E-32
  -10.0000000      -9.47671908E-32
  -9.98999977      -9.17827870E-32
  -9.97999954      -8.81675600E-32
  -9.97000027      -8.38688418E-32
  -9.96000004      -7.88300500E-32
  -9.94999981      -7.29916752E-32
  -9.93999958      -6.62905110E-32
  -9.93000031      -5.86588138E-32
  -9.92000008      -5.00254132E-32
  -9.90999985      -4.03143134E-32
  -9.89999962      -2.94456163E-32
  -9.89000034      -1.73337001E-32
  -9.88000011      -3.88826605E-33
  -9.86999989       1.09866095E-32
  -9.85999966       2.73925801E-32
  -9.85000038       4.54377673E-32
  -9.84000015       6.52363277E-32
  -9.82999992       8.69099280E-32
  -9.81999969       1.10586864E-31
  -9.81000042       1.36404482E-31
  -9.80000019       1.64507214E-31
  -9.78999996       1.95049096E-31
  -9.77999973       2.28193781E-31
  -9.77000046       2.64114138E-31
  -9.76000023       3.02994883E-31
  -9.75000000       3.45031455E-31
  -9.73999977       3.90430669E-31
  -9.72999954       4.39414694E-31
  -9.72000027       4.92217006E-31
  -9.71000004       5.49087000E-31
  -9.69999981       6.10291041E-31
  -9.68999958       6.76107863E-31
  -9.68000031       7.46839991E-31
  -9.67000008       8.22804480E-31
  -9.65999985       9.04340624E-31
  -9.64999962       9.91809159E-31
  -9.64000034       1.08559424E-30
  -9.63000011       1.18610201E-30
  -9.61999989       1.29376968E-30
  -9.60999966       1.40905840E-30
  -9.60000038       1.53246067E-30
  -9.59000015       1.66449962E-30
  -9.57999992       1.80573743E-30
  -9.56999969       1.95676213E-30
  -9.56000042       2.11820885E-30
  -9.55000019       2.29075073E-30
  -9.53999996       2.47510435E-30
  -9.52999973       2.67203558E-30
  -9.52000046       2.88235033E-30
  -9.51000023       3.10691376E-30
  -9.50000000       3.34665348E-30
  -9.48999977       3.60254337E-30
  -9.47999954       3.87562180E-30
  -9.47000027       4.16700522E-30
  -9.46000004       4.47786160E-30
  -9.44999981       4.80945069E-30
  -9.43999958       5.16310823E-30
  -9.43000031       5.54024518E-30
  -9.42000008       5.94238048E-30
  -9.40999985       6.37108459E-30
  -9.39999962       6.82809723E-30
  -9.39000034       7.31519200E-30
  -9.38000011       7.83430610E-30
  -9.36999989       8.38745876E-30
  -9.35999966       8.97682267E-30
  -9.35000038       9.60467207E-30
  -9.34000015       1.02734407E-29
  -9.32999992       1.09857030E-29
  -9.31999969       1.17442072E-29
  -9.31000042       1.25518136E-29
  -9.30000019       1.34115938E-29
  -9.28999996       1.43267897E-29
  -9.27999973       1.53008002E-29
  -9.27000046       1.63372725E-29
  -9.26000023       1.74400510E-29
  -9.25000000       1.86131815E-29
  -9.23999977       1.98608892E-29
  -9.22999954       2.11877572E-29
  -9.22000027       2.25984978E-29
  -9.21000004       2.40981939E-29
  -9.19999981       2.56920920E-29
  -9.18999958       2.73858030E-29
  -9.18000031       2.91851813E-29
  -9.17000008       3.10964711E-29
  -9.15999985       3.31262388E-29
  -9.14999962       3.52811859E-29
  -9.14000034       3.75687001E-29
  -9.13000011       3.99962416E-29
  -9.11999989       4.25718238E-29
  -9.10999966       4.53038036E-29
  -9.10000038       4.82009469E-29
  -9.09000015       5.12724801E-29
  -9.07999992       5.45280480E-29
  -9.06999969       5.79776474E-29
  -9.06000042       6.16320754E-29
  -9.05000019       6.55021052E-29
  -9.03999996       6.95996415E-29
  -9.02999973       7.39364927E-29
  -9.02000046       7.85254300E-29
  -9.01000023       8.33797545E-29
  -9.00000000       8.85130620E-29
  -8.98999977       9.39397608E-29
  -8.97999954       9.96748371E-29
  -8.97000027       1.05734084E-28
  -8.96000004       1.12133552E-28
  -8.94999981       1.18889882E-28
  -8.93999958       1.26021276E-28
  -8.93000031       1.33545607E-28
  -8.92000008       1.41481329E-28
  -8.90999985       1.49849194E-28
  -8.89999962       1.58668858E-28
  -8.89000034       1.67961301E-28
  -8.88000011       1.77748625E-28
  -8.86999989       1.88053891E-28
  -8.85999966       1.98899753E-28
  -8.85000038       2.10310972E-28
  -8.84000015       2.22312621E-28
  -8.82999992       2.34929966E-28
  -8.81999969       2.48189392E-28
  -8.81000042       2.62118367E-28
  -8.80000019       2.76746239E-28
  -8.78999996       2.92100330E-28
  -8.77999973       3.08211215E-28
  -8.77000046       3.25108843E-28
  -8.76000023       3.42825015E-28
  -8.75000000       3.61391798E-28
  -8.73999977       3.80842150E-28
  -8.72999954       4.01208956E-28
  -8.72000027       4.22526400E-28
  -8.71000004       4.44830595E-28
  -8.69999981       4.68155677E-28
  -8.68999958       4.92538672E-28
  -8.68000031       5.18016510E-28
  -8.67000008       5.44625736E-28
  -8.65999985       5.72405880E-28
  -8.64999962       6.01393725E-28
  -8.64000034       6.31628129E-28
  -8.63000011       6.63149150E-28
  -8.61999989       6.95995741E-28
  -8.60999966       7.30206757E-28
  -8.60000038       7.65822498E-28
  -8.59000015       8.02884227E-28
  -8.57999992       8.41429259E-28
  -8.56999969       8.81499099E-28
  -8.56000042       9.23130193E-28
  -8.55000019       9.66364239E-28
  -8.53999996       1.01123937E-27
  -8.52999973       1.05779343E-27
  -8.52000046       1.10606263E-27
  -8.51000023       1.15608394E-27
  -8.50000000       1.20789251E-27
  -8.48999977       1.26152292E-27
  -8.47999954       1.31700723E-27
  -8.47000027       1.37437394E-27
  -8.46000004       1.43365878E-27
  -8.44999981       1.49488130E-27
  -8.43999958       1.55807241E-27
  -8.43000031       1.62325118E-27
  -8.42000008       1.69044110E-27
  -8.40999985       1.75965632E-27
  -8.39999962       1.83090957E-27
  -8.39000034       1.90421354E-27
  -8.38000011       1.97957441E-27
  -8.36999989       2.05699622E-27
  -8.35999966       2.13647434E-27
  -8.35000038       2.21800512E-27
  -8.34000015       2.30157160E-27
  -8.32999992       2.38715897E-27
  -8.31999969       2.47474930E-27
  -8.31000042       2.56430639E-27
  -8.30000019       2.65579807E-27
  -8.28999996       2.74917120E-27
  -8.27999973       2.84439496E-27
  -8.27000046       2.94139557E-27
  -8.26000023       3.04011585E-27
  -8.25000000       3.14046971E-27
  -8.23999977       3.24237317E-27
  -8.22999954       3.34573513E-27
  -8.22000027       3.45045487E-27
  -8.21000004       3.55640028E-27
  -8.19999981       3.66345425E-27
  -8.18999958       3.77147080E-27
  -8.18000031       3.88030395E-27
  -8.17000008       3.98977227E-27
  -8.15999985       4.09970204E-27
  -8.14999962       4.20989566E-27
  -8.14000034       4.32014090E-27
  -8.13000011       4.43020779E-27
  -8.11999989       4.53985984E-27
  -8.10999966       4.64882511E-27
  -8.10000038       4.75682779E-27
  -8.09000015       4.86356167E-27
  -8.07999992       4.96869703E-27
  -8.06999969       5.07192842E-27
  -8.06000042       5.17285601E-27
  -8.05000019       5.27111695E-27
  -8.03999996       5.36628409E-27
  -8.02999973       5.45794564E-27
  -8.02000046       5.54563439E-27
  -8.01000023       5.62887269E-27
  -8.00000000       5.70715135E-27
  -7.98999977       5.77992993E-27
  -7.98000002       5.84663759E-27
  -7.96999979       5.90669001E-27
  -7.96000004       5.95947629E-27
  -7.94999981       6.00433351E-27
  -7.94000006       6.04056526E-27
  -7.92999983       6.06745971E-27
  -7.92000008       6.08427770E-27
  -7.90999985       6.09020379E-27
  -7.90000010       6.08446490E-27
  -7.88999987       6.06616626E-27
  -7.88000011       6.03440189E-27
  -7.86999989       5.98828627E-27
  -7.86000013       5.92684410E-27
  -7.84999990       5.84902806E-27
  -7.84000015       5.75383011E-27
  -7.82999992       5.64013746E-27
  -7.82000017       5.50684808E-27
  -7.80999994       5.35276752E-27
  -7.80000019       5.17670325E-27
  -7.78999996       4.97737836E-27
  -7.78000021       4.75349786E-27
  -7.76999998       4.50372400E-27
  -7.76000023       4.22667744E-27
  -7.75000000       3.92092605E-27
  -7.73999977       3.58497761E-27
  -7.73000002       3.21732818E-27
  -7.71999979       2.81639656E-27
  -7.71000004       2.38058885E-27
  -7.69999981       1.90824760E-27
  -7.69000006       1.39764476E-27
  -7.67999983       8.47051049E-28
  -7.67000008       2.54684904E-28
  -7.65999985      -3.81315062E-28
  -7.65000010      -1.06280624E-27
  -7.63999987      -1.79172922E-27
  -7.63000011      -2.57005664E-27
  -7.61999989      -3.39977903E-27
  -7.61000013      -4.28295427E-27
  -7.59999990      -5.22167332E-27
  -7.59000015      -6.21806011E-27
  -7.57999992      -7.27427977E-27
  -7.57000017      -8.39254172E-27
  -7.55999994      -9.57508273E-27
  -7.55000019      -1.08241592E-26
  -7.53999996      -1.21420808E-26
  -7.53000021      -1.35311693E-26
  -7.51999998      -1.49937791E-26
  -7.51000023      -1.65322967E-26
  -7.50000000      -1.81490964E-26
  -7.48999977      -1.98466156E-26
  -7.48000002      -2.16272781E-26
  -7.46999979      -2.34935042E-26
  -7.46000004      -2.54477607E-26
  -7.44999981      -2.74925175E-26
  -7.44000006      -2.96301795E-26