  -16.0000000       0.00000000    
  -15.9899998       0.00000000    
  -15.9799995       0.00000000    
  -15.9700003       0.00000000    
  -15.9600000       0.00000000    
  -15.9499998       0.00000000    
  -15.9399996       0.00000000    
  -15.9300003       0.00000000    
  -15.9200001       0.00000000    
  -15.9099998       0.00000000    
  -15.8999996       0.00000000    
  -15.8900003       0.00000000    
  -15.8800001       0.00000000    
  -15.8699999       0.00000000    
  -15.8599997       0.00000000    
  -15.8500004       0.00000000    
  -15.8400002       0.00000000    
  -15.8299999       0.00000000    
  -15.8199997       0.00000000    
  -15.8100004       0.00000000    
  -15.8000002       0.00000000    
  -15.7900000       0.00000000    
  -15.7799997       0.00000000    
  -15.7700005       0.00000000    
  -15.7600002       0.00000000    
  -15.7500000       0.00000000    
  -15.7399998       0.00000000    
  -15.7299995       0.00000000    
  -15.7200003       0.00000000    
  -15.7100000       0.00000000    
  -15.6999998       0.00000000    
  -15.6899996       0.00000000    
  -15.6800003       0.00000000    
  -15.6700001       0.00000000    
  -15.6599998       0.00000000    
  -15.6499996       0.00000000    
  -15.6400003       0.00000000    
  -15.6300001       0.00000000    
  -15.6199999       0.00000000    
  -15.6099997       0.00000000    
  -15.6000004       0.00000000    
  -15.5900002       0.00000000    
  -15.5799999       0.00000000    
  -15.5699997       0.00000000    
  -15.5600004       0.00000000    
  -15.5500002       0.00000000    
  -15.5400000       0.00000000    
  -15.5299997       0.00000000    
  -15.5200005       0.00000000    
  -15.5100002       0.00000000    
  -15.5000000       0.00000000    
  -15.4899998       0.00000000    
  -15.4799995       0.00000000    
  -15.4700003       0.00000000    
  -15.4600000       0.00000000    
  -15.4499998       0.00000000    
  -15.4399996       0.00000000    
  -15.4300003       0.00000000    
  -15.4200001       0.00000000    
  -15.4099998       0.00000000    
  -15.3999996       0.00000000    
  -15.3900003       0.00000000    
  -15.3800001       0.00000000    
  -15.3699999       0.00000000    
  -15.3599997       0.00000000    
  -15.3500004       0.00000000    
  -15.3400002       0.00000000    
  -15.3299999       0.00000000    
  -15.3199997       0.00000000    
  -15.3100004       0.00000000    
  -15.3000002       0.00000000    
  -15.2900000       0.00000000    
  -15.2799997       0.00000000    
  -15.2700005       0.00000000    
  -15.2600002       0.00000000    
  -15.2500000       0.00000000    
  -15.2399998       0.00000000    
  -15.2299995       0.00000000    
  -15.2200003       0.00000000    
  -15.2100000       0.00000000    
  -15.1999998       0.00000000    
  -15.1899996       0.00000000    
  -15.1800003       0.00000000    
  -15.1700001       0.00000000    
  -15.1599998       0.00000000    
  -15.1499996       0.00000000    
  -15.1400003       0.00000000    
  -15.1300001       0.00000000    
  -15.1199999       0.00000000    
  -15.1099997       0.00000000    
  -15.1000004      -0.00000000    
  -15.0900002      -0.00000000    
  -15.0799999      -0.00000000    
  -15.0699997      -0.00000000    
  -15.0600004      -0.00000000    
  -15.0500002      -0.00000000    
  -15.0400000      -0.00000000    
  -15.0299997      -0.00000000    
  -15.0200005      -0.00000000    
  -15.0100002      -0.00000000    
  -15.0000000      -0.00000000    
  -14.9899998      -0.00000000    
  -14.9799995      -0.00000000    
  -14.9700003      -0.00000000    
  -14.9600000      -0.00000000    
  -14.9499998      -1.40129846E-45
  -14.9399996      -1.40129846E-45
  -14.9300003      -1.40129846E-45
  -14.9200001      -1.40129846E-45
  -14.9099998      -1.40129846E-45
  -14.8999996      -1.40129846E-45
  -14.8900003      -1.40129846E-45
  -14.8800001      -1.40129846E-45
  -14.8699999      -2.80259693E-45
  -14.8599997      -4.20389539E-45
  -14.8500004      -5.60519386E-45
  -14.8400002      -5.60519386E-45
  -14.8299999      -5.60519386E-45
  -14.8199997      -5.60519386E-45
  -14.8100004      -5.60519386E-45
  -14.8000002      -7.00649232E-45
  -14.7900000      -7.00649232E-45
  -14.7799997      -9.80908925E-45
  -14.7700005      -9.80908925E-45
  -14.7600002      -9.80908925E-45
  -14.7500000      -1.40129846E-44
  -14.7399998      -1.54142831E-44
  -14.7299995      -1.68155816E-44
  -14.7200003      -1.96181785E-44
  -14.7100000      -2.24207754E-44
  -14.6999998      -2.66246708E-44
  -14.6899996      -2.94272678E-44
  -14.6800003      -3.50324616E-44
  -14.6700001      -4.06376555E-44
  -14.6599998      -4.48415509E-44
  -14.6499996      -5.46506401E-44
  -14.6400003      -6.30584309E-44
  -14.6300001      -7.14662217E-44
  -14.6199999      -8.12753109E-44
  -14.6099997      -9.38869971E-44
  -14.6000004      -1.09301280E-43
  -14.5900002      -1.24715563E-43
  -14.5799999      -1.44333742E-43
  -14.5699997      -1.65353219E-43
  -14.5600004      -1.89175293E-43
  -14.5500002      -2.17201262E-43
  -14.5400000      -2.48029828E-43
  -14.5299997      -2.83062290E-43
  -14.5200005      -3.22298647E-43
  -14.5100002      -3.67140198E-43
  -14.5000000      -4.18988241E-43
  -14.4899998      -4.76441478E-43
  -14.4799995      -5.42302506E-43
  -14.4700003      -6.16571324E-43
  -14.4600000      -6.97846635E-43
  -14.4499998      -7.91733632E-43
  -14.4399996      -8.96831017E-43
  -14.4300003      -1.01313879E-42
  -14.4200001      -1.13925565E-42
  -14.4099998      -1.27938550E-42
  -14.3999996      -1.43633093E-42
  -14.3900003      -1.61289453E-42
  -14.3800001      -1.81328021E-42
  -14.3699999      -2.03748797E-42
  -14.3599997      -2.28691909E-42
  -14.3500004      -2.56717879E-42
  -14.3400002      -2.88106964E-42
  -14.3299999      -3.23139426E-42
  -14.3199997      -3.61815263E-42
  -14.3100004      -4.05675905E-42
  -14.3000002      -4.55141741E-42
  -14.2900000      -5.10633160E-42
  -14.2799997      -5.72710682E-42
  -14.2700005      -6.42355216E-42
  -14.2600002      -7.19847021E-42
  -14.2500000      -8.07007786E-42
  -14.2399998      -9.05939457E-42
  -14.2299995      -1.01678217E-41
  -14.2200003      -1.14121747E-41
  -14.2100000      -1.28218809E-41
  -14.1999998      -1.44417820E-41
  -14.1899996      -1.62942985E-41
  -14.1800003      -1.84074566E-41
  -14.1700001      -2.08260978E-41
  -14.1599998      -2.36076752E-41
  -14.1499996      -2.68166487E-41
  -14.1400003      -3.05160767E-41
  -14.1300001      -3.47942409E-41
  -14.1199999      -3.97660478E-41
  -14.1099997      -4.55576144E-41
  -14.1000004      -5.23034652E-41
  -14.0900002      -6.01633483E-41
  -14.0799999      -6.93642740E-41
  -14.0699997      -8.01360553E-41
  -14.0600004      -9.27379324E-41
  -14.0500002      -1.07507618E-40
  -14.0400000      -1.24812253E-40
  -14.0299997      -1.45093246E-40
  -14.0200005      -1.68857866E-40
  -14.0100002      -1.96697463E-40
  -14.0000000      -2.29293066E-40
  -13.9899998      -2.67411187E-40
  -13.9799995      -3.11941650E-40
  -13.9700003      -3.63914409E-40
  -13.9600000      -4.24492541E-40
  -13.9499998      -4.94959637E-40
  -13.9399996      -5.76805276E-40
  -13.9300003      -6.71709616E-40
  -13.9200001      -7.81519568E-40
  -13.9099998      -9.08307652E-40
  -13.8999996      -1.05438040E-39
  -13.8900003      -1.22228118E-39
  -13.8800001      -1.41480978E-39
  -13.8699999      -1.63500842E-39
  -13.8599997      -1.88618136E-39
  -13.8500004      -2.17187249E-39
  -13.8400002      -2.49584289E-39
  -13.8299999      -2.86207504E-39
  -13.8199997      -3.27474483E-39
  -13.8100004      -3.73813181E-39
  -13.8000002      -4.25655199E-39
  -13.7900000      -4.83427651E-39
  -13.7799997      -5.47539999E-39
  -13.7700005      -6.18367369E-39
  -13.7600002      -6.96232620E-39
  -13.7500000      -7.81381260E-39
  -13.7399998      -8.73949495E-39
  -13.7299995      -9.73929057E-39
  -13.7200003      -1.08112264E-38
  -13.7100000      -1.19509193E-38
  -13.6999998      -1.31509268E-38
  -13.6899996      -1.43999868E-38
  -13.6800003      -1.56821497E-38
  -13.6700001      -1.69757444E-38
  -13.6599998      -1.82521255E-38
  -13.6499996      -1.94742904E-38
  -13.6400003      -2.05952072E-38
  -13.6300001      -2.15558786E-38
  -13.6199999      -2.22831749E-38
  -13.6099997      -2.26872856E-38
  -13.6000004      -2.26587622E-38
  -13.5900002      -2.20652338E-38
  -13.5799999      -2.07475844E-38
  -13.5699997      -1.85156116E-38
  -13.5600004      -1.51431024E-38
  -13.5500002      -1.03622084E-38
  -13.5400000      -3.85719313E-39
  -13.5299997       4.74271007E-39
  -13.5200005       1.58713362E-38
  -13.5100002       3.00345569E-38
  -13.5000000       4.78204536E-38
  -13.4899998       6.99106010E-38
  -13.4799995       9.70927084E-38
  -13.4700003       1.30274705E-37
  -13.4600000       1.70500513E-37
  -13.4499998       2.18967346E-37
  -13.4399996       2.77045249E-37
  -13.4300003       3.46298383E-37
  -13.4200001       4.28508775E-37
  -13.4099998       5.25702522E-37
  -13.3999996       6.40178338E-37
  -13.3900003       7.74539947E-37
  -13.3800001       9.31730210E-37
  -13.3699999       1.11506991E-36
  -13.3599997       1.32829956E-36
  -13.3500004       1.57562466E-36
  -13.3400002       1.86176666E-36
  -13.3299999       2.19201644E-36
  -13.3199997       2.57229521E-36
  -13.3100004       3.00921801E-36
  -13.3000002       3.51016288E-36
  -13.2900000       4.08335054E-36
  -13.2799997       4.73792347E-36
  -13.2700005       5.48403557E-36
  -13.2600002       6.33295142E-36
  -13.2500000       7.29714234E-36
  -13.2399998       8.39040590E-36
  -13.2299995       9.62798391E-36
  -13.2200003       1.10266938E-35
  -13.2100000       1.26050547E-35
  -13.1999998       1.43834562E-35
  -13.1899996       1.63842963E-35
  -13.1800003       1.86321609E-35
  -13.1700001       2.11540109E-35
  -13.1599998       2.39793501E-35
  -13.1499996       2.71404627E-35
  -13.1400003       3.06726023E-35
  -13.1300001       3.46142363E-35
  -13.1199999       3.90072705E-35
  -13.1099997       4.38973614E-35
  -13.1000004       4.93340974E-35
  -13.0900002       5.53713687E-35
  -13.0799999       6.20676342E-35
  -13.0699997       6.94862204E-35
  -13.0600004       7.76956939E-35
  -13.0500002       8.67701716E-35
  -13.0400000       9.67897227E-35
  -13.0299997       1.07840713E-34
  -13.0200005       1.20016217E-34
  -13.0100002       1.33416462E-34
  -13.0000000       1.48149218E-34
  -12.9899998       1.64330196E-34
  -12.9799995       1.82083616E-34
  -12.9700003       2.01542616E-34
  -12.9600000       2.22849737E-34
  -12.9499998       2.46157494E-34
  -12.9399996       2.71628804E-34
  -12.9300003       2.99437533E-34
  -12.9200001       3.29769076E-34
  -12.9099998       3.62820854E-34
  -12.8999996       3.98802989E-34
  -12.8900003       4.37938640E-34
  -12.8800001       4.80464903E-34
  -12.8699999       5.26633086E-34
  -12.8599997       5.76709238E-34
  -12.8500004       6.30975062E-34
  -12.8400002       6.89728382E-34
  -12.8299999       7.53283275E-34
  -12.8199997       8.21971496E-34
  -12.8100004       8.96141700E-34
  -12.8000002       9.76161457E-34
  -12.7900000       1.06241657E-33
  -12.7799997       1.15531249E-33
  -12.7700005       1.25527359E-33
  -12.7600002       1.36274500E-33
  -12.7500000       1.47819113E-33
  -12.7399998       1.60209870E-33
  -12.7299995       1.73497383E-33
  -12.7200003       1.87734438E-33
  -12.7100000       2.02975989E-33
  -12.6999998       2.19279104E-33
  -12.6899996       2.36702924E-33
  -12.6800003       2.55308851E-33
  -12.6700001       2.75160342E-33
  -12.6599998       2.96322804E-33
  -12.6499996       3.18863826E-33
  -12.6400003       3.42853021E-33
  -12.6300001       3.68361799E-33
  -12.6199999       3.95463483E-33
  -12.6099997       4.24233193E-33
  -12.6000004       4.54747520E-33
  -12.5900002       4.87084782E-33
  -12.5799999       5.21324471E-33
  -12.5699997       5.57547550E-33
  -12.5600004       5.95835826E-33
  -12.5500002       6.36271729E-33
  -12.5400000       6.78938648E-33
  -12.5299997       7.23920188E-33
  -12.5200005       7.71299810E-33
  -12.5100002       8.21160827E-33
  -12.5000000       8.73586186E-33
  -12.4899998       9.28657729E-33
  -12.4799995       9.86455831E-33
  -12.4700003       1.04705910E-32
  -12.4600000       1.11054454E-32
  -12.4499998       1.17698569E-32
  -12.4399996       1.24645336E-32
  -12.4300003       1.31901384E-32
  -12.4200001       1.39472992E-32
  -12.4099998       1.47365864E-32
  -12.3999996       1.55585156E-32
  -12.3900003       1.64135408E-32
  -12.3800001       1.73020382E-32
  -12.3699999       1.82243090E-32
  -12.3599997       1.91805575E-32
  -12.3500004       2.01708924E-32
  -12.3400002       2.11953181E-32
  -12.3299999       2.22537200E-32
  -12.3199997       2.33458438E-32
  -12.3100004       2.44713150E-32
  -12.3000002       2.56295854E-32
  -12.2900000       2.68199527E-32
  -12.2799997       2.80415353E-32
  -12.2700005       2.92932546E-32
  -12.2600002       3.05738352E-32
  -12.2500000       3.18817725E-32
  -12.2399998       3.32153209E-32
  -12.2299995       3.45724996E-32
  -12.2200003       3.59510312E-32
  -12.2100000       3.73483766E-32
  -12.1999998       3.87616617E-32
  -12.1899996       4.01877098E-32
  -12.1800003       4.16229737E-32
  -12.1700001       4.30635596E-32
  -12.1599998       4.45051742E-32
  -12.1499996       4.59430888E-32
  -12.1400003       4.73721637E-32
  -12.1300001       4.87867860E-32
  -12.1199999       5.01808429E-32
  -12.1099997       5.15477254E-32
  -12.1000004       5.28802423E-32
  -12.0900002       5.41706529E-32
  -12.0799999       5.54105938E-32
  -12.0699997       5.65910722E-32
  -12.0600004       5.77023787E-32
  -12.0500002       5.87341454E-32
  -12.0400000       5.96752109E-32
  -12.0299997       6.05136381E-32
  -12.0200005       6.12366494E-32
  -12.0100002       6.18305738E-32
  -12.0000000       6.22808469E-32
  -11.9899998       6.25719169E-32
  -11.9799995       6.26871507E-32
  -11.9700003       6.26089156E-32
  -11.9600000       6.23183569E-32
  -11.9499998       6.17954794E-32
  -11.9399996       6.10189831E-32
  -11.9300003       5.99662162E-32
  -11.9200001       5.86131400E-32
  -11.9099998       5.69341931E-32
  -11.8999996       5.49022689E-32
  -11.8900003       5.24885734E-32
  -11.8800001       4.96625263E-32
  -11.8699999       4.63917309E-32
  -11.8599997       4.26417923E-32
  -11.8500004       3.83762083E-32
  -11.8400002       3.35562906E-32
  -11.8299999       2.81409909E-32
  -11.8199997       2.20867762E-32
  -11.8100004       1.53474717E-32
  -11.8000002       7.87410401E-33
  -11.7900000      -3.85289625E-34
  -11.7799997      -9.48582211E-33
  -11.7700005      -1.94859700E-32
  -11.7600002      -3.04477899E-32
  -11.7500000      -4.24371387E-32
  -11.7399998      -5.55239408E-32
  -11.7299995      -6.97823993E-32
  -11.7200003      -8.52913310E-32
  -11.7100000      -1.02134461E-31
  -11.6999998      -1.20400679E-31
  -11.6899996      -1.40184507E-31
  -11.6800003      -1.61586322E-31
  -11.6700001      -1.84712868E-31
  -11.6599998      -2.09677606E-31
  -11.6499996      -2.36601175E-31
  -11.6400003      -2.65612047E-31
  -11.6300001      -2.96846554E-31
  -11.6199999      -3.30450082E-31
  -11.6099997      -3.66577043E-31
  -11.6000004      -4.05392220E-31
  -11.5900002      -4.47070547E-31
  -11.5799999      -4.91798342E-31
  -11.5699997      -5.39774311E-31
  -11.5600004      -5.91209523E-31
  -11.5500002      -6.46329300E-31
  -11.5400000      -7.05373112E-31
  -11.5299997      -7.68596135E-31
  -11.5200005      -8.36270473E-31
  -11.5100002      -9.08685251E-31
  -11.5000000      -9.86149106E-31
  -11.4899998      -1.06899014E-30
  -11.4799995      -1.15755819E-30
  -11.4700003      -1.25222545E-30
  -11.4600000      -1.35338812E-30
  -11.4499998      -1.46146880E-30
  -11.4399996      -1.57691636E-30
  -11.4300003      -1.70020907E-30
  -11.4200001      -1.83185598E-30
  -11.4099998      -1.97239846E-30
  -11.3999996      -2.12241241E-30
  -11.3900003      -2.28251098E-30
  -11.3800001      -2.45334548E-30
  -11.3699999      -2.63560842E-30
  -11.3599997      -2.83003613E-30
  -11.3500004      -3.03741082E-30
  -11.3400002      -3.25856325E-30
  -11.3299999      -3.49437645E-30
  -11.3199997      -3.74578704E-30
  -11.3100004      -4.01379072E-30
  -11.3000002      -4.29944187E-30
  -11.2900000      -4.60385880E-30
  -11.2799997      -4.92822979E-30
  -11.2700005      -5.27381271E-30
  -11.2600002      -5.64193993E-30
  -11.2500000      -6.03402353E-30
  -11.2399998      -6.45155912E-30
  -11.2299995      -6.89612695E-30
  -11.2200003      -7.36940091E-30
  -11.2100000      -7.87315271E-30
  -11.1999998      -8.40925186E-30
  -11.1899996      -8.97967620E-30
  -11.1800003      -9.58651416E-30
  -11.1700001      -1.02319715E-29
  -11.1599998      -1.09183737E-29
  -11.1499996      -1.16481763E-29
  -11.1400003      -1.24239642E-29
  -11.1300001      -1.32484691E-29
  -11.1199999      -1.41245626E-29
  -11.1099997      -1.50552712E-29
  -11.1000004      -1.60437773E-29
  -11.0900002      -1.70934317E-29
  -11.0799999      -1.82077567E-29
  -11.0699997      -1.93904523E-29
  -11.0600004      -2.06454078E-29
  -11.0500002      -2.19767038E-29
  -11.0400000      -2.33886287E-29
  -11.0299997      -2.48856751E-29
  -11.0200005      -2.64725571E-29
  -11.0100002      -2.81542009E-29
  -11.0000000      -2.99357824E-29
  -10.9899998      -3.18227183E-29
  -10.9799995      -3.38206689E-29
  -10.9700003      -3.59355537E-29
  -10.9600000      -3.81735595E-29
  -10.9499998      -4.05411443E-29
  -10.9399996      -4.30450639E-29
  -10.9300003      -4.56923689E-29
  -10.9200001      -4.84903901E-29
  -10.9099998      -5.14467708E-29
  -10.8999996      -5.45695037E-29
  -10.8900003      -5.78668703E-29
  -10.8800001      -6.13475192E-29
  -10.8699999      -6.50204301E-29
  -10.8599997      -6.88949197E-29
  -10.8500004      -7.29806958E-29
  -10.8400002      -7.72878214E-29
  -10.8299999      -8.18267268E-29
  -10.8199997      -8.66082270E-29
  -10.8100004      -9.16435708E-29
  -10.8000002      -9.69443379E-29
  -10.7900000      -1.02522511E-28
  -10.7799997      -1.08390543E-28
  -10.7700005      -1.14561283E-28
  -10.7600002      -1.21047959E-28
  -10.7500000      -1.27864246E-28
  -10.7399998      -1.35024264E-28
  -10.7299995      -1.42542529E-28
  -10.7200003      -1.50434027E-28
  -10.7100000      -1.58714153E-28
  -10.6999998      -1.67398689E-28
  -10.6899996      -1.76503968E-28
  -10.6800003      -1.86046626E-28
  -10.6700001      -1.96043803E-28
  -10.6599998      -2.06513014E-28
  -10.6499996      -2.17472230E-28
  -10.6400003      -2.28939818E-28
  -10.6300001      -2.40934558E-28
  -10.6199999      -2.53475588E-28
  -10.6099997      -2.66582480E-28
  -10.6000004      -2.80275144E-28
  -10.5900002      -2.94573729E-28
  -10.5799999      -3.09498940E-28
  -10.5699997      -3.25071697E-28
  -10.5600004      -3.41313112E-28
  -10.5500002      -3.58244709E-28
  -10.5400000      -3.75888177E-28
  -10.5299997      -3.94265473E-28
  -10.5200005      -4.13398600E-28
  -10.5100002      -4.33309971E-28
  -10.5000000      -4.54021951E-28
  -10.4899998      -4.75556833E-28
  -10.4799995      -4.97937150E-28
  -10.4700003      -5.21185436E-28
  -10.4600000      -5.45324030E-28
  -10.4499998      -5.70375179E-28
  -10.4399996      -5.96361078E-28
  -10.4300003      -6.23303345E-28
  -10.4200001      -6.51223648E-28
  -10.4099998      -6.80143267E-28
  -10.3999996      -7.10082908E-28
  -10.3900003      -7.41062598E-28
  -10.3800001      -7.73101983E-28
  -10.3699999      -8.06220130E-28
  -10.3599997      -8.40434998E-28
  -10.3500004      -8.75763775E-28
  -10.3400002      -9.12222592E-28
  -10.3299999      -9.49826856E-28
  -10.3199997      -9.88590240E-28
  -10.3100004      -1.02852546E-27
  -10.3000002      -1.06964377E-27
  -10.2900000      -1.11195433E-27
  -10.2799997      -1.15546543E-27
  -10.2700005      -1.20018273E-27
  -10.2600002      -1.24611019E-27
  -10.2500000      -1.29324973E-27
  -10.2399998      -1.34160097E-27
  -10.2299995      -1.39116025E-27
  -10.2200003      -1.44192218E-27
  -10.2100000      -1.49387828E-27
  -10.1999998      -1.54701661E-27
  -10.1899996      -1.60132244E-27
  -10.1800003      -1.65677738E-27
  -10.1700001      -1.71335909E-27
  -10.1599998      -1.77104165E-27
  -10.1499996      -1.82979542E-27
  -10.1400003      -1.88958534E-27
  -10.1300001      -1.95037250E-27
  -10.1199999      -2.01211338E-27
  -10.1099997      -2.07475811E-27
  -10.1000004      -2.13825332E-27
  -10.0900002      -2.20253817E-27
  -10.0799999      -2.26754697E-27
  -10.0699997      -2.33320751E-27
  -10.0600004      -2.39944062E-27
  -10.0500002      -2.46616100E-27
  -10.0400000      -2.53327542E-27
  -10.0299997      -2.60068412E-27
  -10.0200005      -2.66827906E-27
  -10.0100002      -2.73594353E-27
  -10.0000000      -2.80355330E-27
  -9.98999977      -2.87097452E-27
  -9.97999954      -2.93806449E-27
  -9.97000027      -3.00467123E-27
  -9.96000004      -3.07063202E-27
  -9.94999981      -3.13577506E-27
  -9.93999958      -3.19991642E-27
  -9.93000031      -3.26286236E-27
  -9.92000008      -3.32440661E-27
  -9.90999985      -3.38433154E-27
  -9.89999962      -3.44240757E-27
  -9.89000034      -3.49839165E-27
  -9.88000011      -3.55202880E-27
  -9.86999989      -3.60304900E-27
  -9.85999966      -3.65116990E-27
  -9.85000038      -3.69609376E-27
  -9.84000015      -3.73750741E-27
  -9.82999992      -3.77508462E-27
  -9.81999969      -3.80848255E-27
  -9.81000042      -3.83734223E-27
  -9.80000019      -3.86128732E-27
  -9.78999996      -3.87992608E-27
  -9.77999973      -3.89284869E-27
  -9.77000046      -3.89962911E-27
  -9.76000023      -3.89982132E-27
  -9.75000000      -3.89296154E-27
  -9.73999977      -3.87856791E-27
  -9.72999954      -3.85613853E-27
  -9.72000027      -3.82515340E-27
  -9.71000004      -3.78507018E-27
  -9.69999981      -3.73532726E-27
  -9.68999958      -3.67534340E-27
  -9.68000031      -3.60451540E-27
  -9.67000008      -3.52221849E-27
  -9.65999985      -3.42780863E-27
  -9.64999962      -3.32061831E-27
  -9.64000034      -3.19995706E-27
  -9.63000011      -3.06511346E-27
  -9.61999989      -2.91535392E-27
  -9.60999966      -2.74992193E-27
  -9.60000038      -2.56803826E-27
  -9.59000015      -2.36890173E-27
  -9.57999992      -2.15168649E-27
  -9.56999969      -1.91554456E-27
  -9.56000042      -1.65960580E-27
  -9.55000019      -1.38297611E-27
  -9.53999996      -1.08473883E-27
  -9.52999973      -7.63954972E-28
  -9.52000046      -4.19661916E-28
  -9.51000023      -5.08763585E-29
  -9.50000000       3.43408283E-28
  -9.48999977       7.64220365E-28
  -9.47999954       1.21260998E-27
  -9.47000027       1.68964742E-27
  -9.46000004       2.19642430E-27
  -9.44999981       2.73405150E-27
  -9.43999958       3.30366011E-27
  -9.43000031       3.90639953E-27
  -9.42000008       4.54343707E-27
  -9.40999985       5.21595832E-27
  -9.39999962       5.92516353E-27
  -9.39000034       6.67227028E-27
  -9.38000011       7.45850884E-27
  -9.36999989       8.28512336E-27
  -9.35999966       9.15336956E-27
  -9.35000038       1.00645155E-26
  -9.34000015       1.10198368E-26
  -9.32999992       1.20206170E-26
  -9.31999969       1.30681450E-26
  -9.31000042       1.41637156E-26
  -9.30000019       1.53086316E-26
  -9.28999996       1.65041842E-26
  -9.27999973       1.77516738E-26
  -9.27000046       1.90523914E-26
  -9.26000023       2.04076298E-26
  -9.25000000       2.18186631E-26
  -9.23999977       2.32867595E-26
  -9.22999954       2.48131884E-26
  -9.22000027       2.63991809E-26
  -9.21000004       2.80459558E-26
  -9.19999981       2.97547178E-26
  -9.18999958       3.15266350E-26
  -9.18000031       3.33628690E-26
  -9.17000008       3.52645261E-26
  -9.15999985       3.72326878E-26
  -9.14999962       3.92683927E-26
  -9.14000034       4.13726453E-26
  -9.13000011       4.35464008E-26
  -9.11999989       4.57905406E-26
  -9.10999966       4.81059305E-26
  -9.10000038       5.04933534E-26
  -9.09000015       5.29535209E-26
  -9.07999992       5.54870894E-26
  -9.06999969       5.80946260E-26
  -9.06000042       6.07766545E-26
  -9.05000019       6.35335692E-26
  -9.03999996       6.63656847E-26
  -9.02999973       6.92732657E-26
  -9.02000046       7.22563987E-26
  -9.01000023       7.53151144E-26
  -9.00000000       7.84493266E-26
  -8.98999977       8.16588072E-26
  -8.97999954       8.49432172E-26
  -8.97000027       8.83020760E-26
  -8.96000004       9.17347611E-26
  -8.94999981       9.52405268E-26
  -8.93999958       9.88184547E-26
  -8.93000031       1.02467479E-25
  -8.92000008       1.06186323E-25
  -8.90999985       1.09973570E-25
  -8.89999962       1.13827612E-25
  -8.89000034       1.17746661E-25
  -8.88000011       1.21728707E-25
  -8.86999989       1.25771545E-25
  -8.85999966       1.29872722E-25
  -8.85000038       1.34029625E-25
  -8.84000015       1.38239369E-25
  -8.82999992       1.42498786E-25
  -8.81999969       1.46804537E-25
  -8.81000042       1.51152948E-25
  -8.80000019       1.55540148E-25
  -8.78999996       1.59961936E-25
  -8.77999973       1.64413774E-25
  -8.77000046       1.68890978E-25
  -8.76000023       1.73388422E-25
  -8.75000000       1.77900719E-25
  -8.73999977       1.82422174E-25
  -8.72999954       1.86946710E-25
  -8.72000027       1.91467931E-25
  -8.71000004       1.95979081E-25
  -8.69999981       2.00473074E-25
  -8.68999958       2.04942378E-25
  -8.68000031       2.09379116E-25
  -8.67000008       2.13775068E-25
  -8.65999985       2.18121569E-25
  -8.64999962       2.22409471E-25
  -8.64000034       2.26629335E-25
  -8.63000011       2.30771224E-25
  -8.61999989       2.34824811E-25
  -8.60999966       2.38779223E-25
  -8.60000038       2.42623268E-25
  -8.59000015       2.46345188E-25
  -8.57999992       2.49932705E-25
  -8.56999969       2.53373273E-25
  -8.56000042       2.56653652E-25
  -8.55000019       2.59760162E-25
  -8.53999996       2.62678701E-25
  -8.52999973       2.65394601E-25
  -8.52000046       2.67892578E-25
  -8.51000023       2.70156979E-25
  -8.50000000       2.72171557E-25
  -8.48999977       2.73919525E-25
  -8.47999954       2.75383577E-25
  -8.47000027       2.76545840E-25
  -8.46000004       2.77387998E-25
  -8.44999981       2.77890971E-25
  -8.43999958       2.78035382E-25
  -8.43000031       2.77801066E-25
  -8.42000008       2.77167462E-25
  -8.40999985       2.76113421E-25
  -8.39999962       2.74617174E-25
  -8.39000034       2.72656460E-25
  -8.38000011       2.70208353E-25
  -8.36999989       2.67249533E-25
  -8.35999966       2.63756087E-25
  -8.35000038       2.59703462E-25
  -8.34000015       2.55066661E-25
  -8.32999992       2.49820169E-25
  -8.31999969       2.43937855E-25
  -8.31000042       2.37393071E-25
  -8.30000019       2.30158748E-25
  -8.28999996       2.22207227E-25
  -8.27999973       2.13510504E-25
  -8.27000046       2.04039872E-25
  -8.26000023       1.93766314E-25
  -8.25000000       1.82660360E-25
  -8.23999977       1.70692022E-25
  -8.22999954       1.57830976E-25
  -8.22000027       1.44046519E-25
  -8.21000004       1.29307528E-25
  -8.19999981       1.13582597E-25
  -8.18999958       9.68398313E-26
  -8.18000031       7.90472154E-26
  -8.17000008       6.01723685E-26
  -8.15999985       4.01826886E-26
  -8.14999962       1.90453471E-26
  -8.14000034      -3.27267767E-27
  -8.13000011      -2.68045383E-26
  -8.11999989      -5.15835037E-26
  -8.10999966      -7.76429197E-26
  -8.10000038      -1.05016196E-25
  -8.09000015      -1.33736686E-25
  -8.07999992      -1.63837733E-25
  -8.06999969      -1.95352578E-25
  -8.06000042      -2.28314317E-25
  -8.05000019      -2.62755836E-25
  -8.03999996      -2.98709824E-25
  -8.02999973      -3.36208623E-25
  -8.02000046      -3.75284256E-25
  -8.01000023      -4.15968327E-25
  -8.00000000      -4.58291898E-25
  -7.98999977      -5.02285685E-25
  -7.98000002      -5.47979565E-25
  -7.96999979      -5.95402875E-25
  -7.96000004      -6.44584162E-25
  -7.94999981      -6.95551331E-25
  -7.94000006      -7.48331007E-25
  -7.92999983      -8.02949172E-25
  -7.92000008      -8.59430923E-25
  -7.90999985      -9.17799727E-25
  -7.90000010      -9.78078265E-25
  -7.88999987      -1.04028764E-24
  -7.88000011      -1.10444767E-24
  -7.86999989      -1.17057679E-24
  -7.86000013      -1.23869168E-24
  -7.84999990      -1.30880771E-24
  -7.84000015      -1.38093770E-24
  -7.82999992      -1.45509368E-24
  -7.82000017      -1.53128453E-24
  -7.80999994      -1.60951793E-24
  -7.80000019      -1.68979903E-24
  -7.78999996      -1.77213086E-24
  -7.78000021      -1.85651334E-24
  -7.76999998      -1.94294489E-24
  -7.76000023      -2.03142076E-24
  -7.75000000      -2.12193269E-24
  -7.73999977      -2.21447140E-24
  -7.73000002      -2.30902230E-24
  -7.71999979      -2.40556960E-24
  -7.71000004      -2.50409281E-24
  -7.69999981      -2.60456884E-24
  -7.69000006      -2.70697028E-24
  -7.67999983      -2.81126696E-24
  -7.67000008      -2.91742496E-24
  -7.65999985      -3.02540582E-24
  -7.65000010      -3.13516595E-24
  -7.63999987      -3.24665941E-24
  -7.63000011      -3.35983511E-24
  -7.61999989      -3.47463844E-24
  -7.61000013      -3.59100607E-24
  -7.59999990      -3.70887609E-24
  -7.59000015      -3.82817710E-24
  -7.57999992      -3.94883298E-24
  -7.57000017      -4.07076524E-24
  -7.55999994      -4.19388631E-24
  -7.55000019      -4.31810627E-24
  -7.53999996      -4.44332610E-24
  -7.53000021      -4.56944366E-24
  -7.51999998      -4.69635008E-24
  -7.51000023      -4.82392940E-24
  -7.50000000      -4.95206092E-24
  -7.48999977      -5.08061724E-24
  -7.48000002      -5.20946190E-24
  -7.46999979      -5.33845485E-24
  -7.46000004      -5.46744702E-24
  -7.44999981      -5.59628615E-24
  -7.44000006      -5.72480658E-24