  -16.0000000       0.00000000    
  -15.9899998       0.00000000    
  -15.9799995       0.00000000    
  -15.9700003       0.00000000    
  -15.9600000       0.00000000    
  -15.9499998       0.00000000    
  -15.9399996       0.00000000    
  -15.9300003       0.00000000    
  -15.9200001       0.00000000    
  -15.9099998       0.00000000    
  -15.8999996       0.00000000    
  -15.8900003       0.00000000    
  -15.8800001       0.00000000    
  -15.8699999       0.00000000    
  -15.8599997       0.00000000    
  -15.8500004       0.00000000    
  -15.8400002       0.00000000    
  -15.8299999       0.00000000    
  -15.8199997       0.00000000    
  -15.8100004       0.00000000    
  -15.8000002       0.00000000    
  -15.7900000       0.00000000    
  -15.7799997       0.00000000    
  -15.7700005       0.00000000    
  -15.7600002       0.00000000    
  -15.7500000       0.00000000    
  -15.7399998       0.00000000    
  -15.7299995       0.00000000    
  -15.7200003       0.00000000    
  -15.7100000       0.00000000    
  -15.6999998       0.00000000    
  -15.6899996       0.00000000    
  -15.6800003       0.00000000    
  -15.6700001       0.00000000    
  -15.6599998       0.00000000    
  -15.6499996       0.00000000    
  -15.6400003       0.00000000    
  -15.6300001       0.00000000    
  -15.6199999       0.00000000    
  -15.6099997       0.00000000    
  -15.6000004       0.00000000    
  -15.5900002       0.00000000    
  -15.5799999       0.00000000    
  -15.5699997       0.00000000    
  -15.5600004       0.00000000    
  -15.5500002       0.00000000    
  -15.5400000       0.00000000    
  -15.5299997       0.00000000    
  -15.5200005       0.00000000    
  -15.5100002       0.00000000    
  -15.5000000       0.00000000    
  -15.4899998       0.00000000    
  -15.4799995       0.00000000    
  -15.4700003       0.00000000    
  -15.4600000       0.00000000    
  -15.4499998       0.00000000    
  -15.4399996       0.00000000    
  -15.4300003       0.00000000    
  -15.4200001       0.00000000    
  -15.4099998       0.00000000    
  -15.3999996       0.00000000    
  -15.3900003       0.00000000    
  -15.3800001       0.00000000    
  -15.3699999       0.00000000    
  -15.3599997       0.00000000    
  -15.3500004       0.00000000    
  -15.3400002       0.00000000    
  -15.3299999       0.00000000    
  -15.3199997       0.00000000    
  -15.3100004       0.00000000    
  -15.3000002       0.00000000    
  -15.2900000       0.00000000    
  -15.2799997       0.00000000    
  -15.2700005       0.00000000    
  -15.2600002       0.00000000    
  -15.2500000       0.00000000    
  -15.2399998       0.00000000    
  -15.2299995       0.00000000    
  -15.2200003       0.00000000    
  -15.2100000       0.00000000    
  -15.1999998       0.00000000    
  -15.1899996       0.00000000    
  -15.1800003       0.00000000    
  -15.1700001       0.00000000    
  -15.1599998       0.00000000    
  -15.1499996       0.00000000    
  -15.1400003       0.00000000    
  -15.1300001       0.00000000    
  -15.1199999       0.00000000    
  -15.1099997       0.00000000    
  -15.1000004       0.00000000    
  -15.0900002       0.00000000    
  -15.0799999       0.00000000    
  -15.0699997       0.00000000    
  -15.0600004       0.00000000    
  -15.0500002       0.00000000    
  -15.0400000       0.00000000    
  -15.0299997       0.00000000    
  -15.0200005       0.00000000    
  -15.0100002       0.00000000    
  -15.0000000       0.00000000    
  -14.9899998       0.00000000    
  -14.9799995       0.00000000    
  -14.9700003       0.00000000    
  -14.9600000       0.00000000    
  -14.9499998       0.00000000    
  -14.9399996       0.00000000    
  -14.9300003       0.00000000    
  -14.9200001       0.00000000    
  -14.9099998       0.00000000    
  -14.8999996       0.00000000    
  -14.8900003       0.00000000    
  -14.8800001       0.00000000    
  -14.8699999       0.00000000    
  -14.8599997       0.00000000    
  -14.8500004       0.00000000    
  -14.8400002       0.00000000    
  -14.8299999       0.00000000    
  -14.8199997       0.00000000    
  -14.8100004       0.00000000    
  -14.8000002       0.00000000    
  -14.7900000       0.00000000    
  -14.7799997       0.00000000    
  -14.7700005       0.00000000    
  -14.7600002       0.00000000    
  -14.7500000       0.00000000    
  -14.7399998       0.00000000    
  -14.7299995       0.00000000    
  -14.7200003       0.00000000    
  -14.7100000       0.00000000    
  -14.6999998       0.00000000    
  -14.6899996       0.00000000    
  -14.6800003       0.00000000    
  -14.6700001       0.00000000    
  -14.6599998       0.00000000    
  -14.6499996       0.00000000    
  -14.6400003       0.00000000    
  -14.6300001       0.00000000    
  -14.6199999       0.00000000    
  -14.6099997       0.00000000    
  -14.6000004       0.00000000    
  -14.5900002       0.00000000    
  -14.5799999       0.00000000    
  -14.5699997       0.00000000    
  -14.5600004       0.00000000    
  -14.5500002       0.00000000    
  -14.5400000       0.00000000    
  -14.5299997       0.00000000    
  -14.5200005       0.00000000    
  -14.5100002       0.00000000    
  -14.5000000       0.00000000    
  -14.4899998       0.00000000    
  -14.4799995       0.00000000    
  -14.4700003       0.00000000    
  -14.4600000       0.00000000    
  -14.4499998       0.00000000    
  -14.4399996       0.00000000    
  -14.4300003       0.00000000    
  -14.4200001       0.00000000    
  -14.4099998       0.00000000    
  -14.3999996       0.00000000    
  -14.3900003       0.00000000    
  -14.3800001       0.00000000    
  -14.3699999       0.00000000    
  -14.3599997       0.00000000    
  -14.3500004       0.00000000    
  -14.3400002       0.00000000    
  -14.3299999       0.00000000    
  -14.3199997       0.00000000    
  -14.3100004       0.00000000    
  -14.3000002       0.00000000    
  -14.2900000       0.00000000    
  -14.2799997       0.00000000    
  -14.2700005       0.00000000    
  -14.2600002       0.00000000    
  -14.2500000       0.00000000    
  -14.2399998       0.00000000    
  -14.2299995       0.00000000    
  -14.2200003       0.00000000    
  -14.2100000       0.00000000    
  -14.1999998       0.00000000    
  -14.1899996       0.00000000    
  -14.1800003       0.00000000    
  -14.1700001       0.00000000    
  -14.1599998       0.00000000    
  -14.1499996       0.00000000    
  -14.1400003       0.00000000    
  -14.1300001       0.00000000    
  -14.1199999       0.00000000    
  -14.1099997       0.00000000    
  -14.1000004       0.00000000    
  -14.0900002       0.00000000    
  -14.0799999       0.00000000    
  -14.0699997       0.00000000    
  -14.0600004       0.00000000    
  -14.0500002       0.00000000    
  -14.0400000       0.00000000    
  -14.0299997       0.00000000    
  -14.0200005       0.00000000    
  -14.0100002       0.00000000    
  -14.0000000       0.00000000    
  -13.9899998       0.00000000    
  -13.9799995       0.00000000    
  -13.9700003       0.00000000    
  -13.9600000       0.00000000    
  -13.9499998       0.00000000    
  -13.9399996       0.00000000    
  -13.9300003       0.00000000    
  -13.9200001       0.00000000    
  -13.9099998       0.00000000    
  -13.8999996       0.00000000    
  -13.8900003       0.00000000    
  -13.8800001       0.00000000    
  -13.8699999       0.00000000    
  -13.8599997       0.00000000    
  -13.8500004       0.00000000    
  -13.8400002       0.00000000    
  -13.8299999       0.00000000    
  -13.8199997       0.00000000    
  -13.8100004       0.00000000    
  -13.8000002       0.00000000    
  -13.7900000       0.00000000    
  -13.7799997       0.00000000    
  -13.7700005       0.00000000    
  -13.7600002       0.00000000    
  -13.7500000       0.00000000    
  -13.7399998       0.00000000    
  -13.7299995       0.00000000    
  -13.7200003       0.00000000    
  -13.7100000       0.00000000    
  -13.6999998       0.00000000    
  -13.6899996       0.00000000    
  -13.6800003       0.00000000    
  -13.6700001       0.00000000    
  -13.6599998       0.00000000    
  -13.6499996       0.00000000    
  -13.6400003       0.00000000    
  -13.6300001       0.00000000    
  -13.6199999       0.00000000    
  -13.6099997       0.00000000    
  -13.6000004       0.00000000    
  -13.5900002       0.00000000    
  -13.5799999       0.00000000    
  -13.5699997       0.00000000    
  -13.5600004       0.00000000    
  -13.5500002       0.00000000    
  -13.5400000       0.00000000    
  -13.5299997       0.00000000    
  -13.5200005       0.00000000    
  -13.5100002       0.00000000    
  -13.5000000       0.00000000    
  -13.4899998       0.00000000    
  -13.4799995       0.00000000    
  -13.4700003       0.00000000    
  -13.4600000       0.00000000    
  -13.4499998       0.00000000    
  -13.4399996       0.00000000    
  -13.4300003       0.00000000    
  -13.4200001       0.00000000    
  -13.4099998       0.00000000    
  -13.3999996       0.00000000    
  -13.3900003       0.00000000    
  -13.3800001       0.00000000    
  -13.3699999       0.00000000    
  -13.3599997       0.00000000    
  -13.3500004       0.00000000    
  -13.3400002       0.00000000    
  -13.3299999       0.00000000    
  -13.3199997       0.00000000    
  -13.3100004       0.00000000    
  -13.3000002       0.00000000    
  -13.2900000       0.00000000    
  -13.2799997       0.00000000    
  -13.2700005       0.00000000    
  -13.2600002       0.00000000    
  -13.2500000       0.00000000    
  -13.2399998       0.00000000    
  -13.2299995       0.00000000    
  -13.2200003       0.00000000    
  -13.2100000       0.00000000    
  -13.1999998       0.00000000    
  -13.1899996       0.00000000    
  -13.1800003       0.00000000    
  -13.1700001       0.00000000    
  -13.1599998       0.00000000    
  -13.1499996       0.00000000    
  -13.1400003       0.00000000    
  -13.1300001       0.00000000    
  -13.1199999       0.00000000    
  -13.1099997       0.00000000    
  -13.1000004       0.00000000    
  -13.0900002       0.00000000    
  -13.0799999       0.00000000    
  -13.0699997       0.00000000    
  -13.0600004       0.00000000    
  -13.0500002       0.00000000    
  -13.0400000       0.00000000    
  -13.0299997       0.00000000    
  -13.0200005       0.00000000    
  -13.0100002       0.00000000    
  -13.0000000       0.00000000    
  -12.9899998       0.00000000    
  -12.9799995       0.00000000    
  -12.9700003       0.00000000    
  -12.9600000       0.00000000    
  -12.9499998       0.00000000    
  -12.9399996       0.00000000    
  -12.9300003       0.00000000    
  -12.9200001       0.00000000    
  -12.9099998       0.00000000    
  -12.8999996       0.00000000    
  -12.8900003       0.00000000    
  -12.8800001       0.00000000    
  -12.8699999       0.00000000    
  -12.8599997       0.00000000    
  -12.8500004       0.00000000    
  -12.8400002       0.00000000    
  -12.8299999       0.00000000    
  -12.8199997       0.00000000    
  -12.8100004       0.00000000    
  -12.8000002       0.00000000    
  -12.7900000       0.00000000    
  -12.7799997       0.00000000    
  -12.7700005       0.00000000    
  -12.7600002       0.00000000    
  -12.7500000       0.00000000    
  -12.7399998       0.00000000    
  -12.7299995       0.00000000    
  -12.7200003       0.00000000    
  -12.7100000       0.00000000    
  -12.6999998       0.00000000    
  -12.6899996       0.00000000    
  -12.6800003       0.00000000    
  -12.6700001       0.00000000    
  -12.6599998       0.00000000    
  -12.6499996       0.00000000    
  -12.6400003       0.00000000    
  -12.6300001       0.00000000    
  -12.6199999       0.00000000    
  -12.6099997       0.00000000    
  -12.6000004       0.00000000    
  -12.5900002       0.00000000    
  -12.5799999       0.00000000    
  -12.5699997       0.00000000    
  -12.5600004       0.00000000    
  -12.5500002       0.00000000    
  -12.5400000       0.00000000    
  -12.5299997       0.00000000    
  -12.5200005       0.00000000    
  -12.5100002       0.00000000    
  -12.5000000       0.00000000    
  -12.4899998       0.00000000    
  -12.4799995       0.00000000    
  -12.4700003       0.00000000    
  -12.4600000       0.00000000    
  -12.4499998       0.00000000    
  -12.4399996       0.00000000    
  -12.4300003       0.00000000    
  -12.4200001       0.00000000    
  -12.4099998       0.00000000    
  -12.3999996       0.00000000    
  -12.3900003       0.00000000    
  -12.3800001       0.00000000    
  -12.3699999       0.00000000    
  -12.3599997       0.00000000    
  -12.3500004       0.00000000    
  -12.3400002       0.00000000    
  -12.3299999       0.00000000    
  -12.3199997       0.00000000    
  -12.3100004       0.00000000    
  -12.3000002       0.00000000    
  -12.2900000       0.00000000    
  -12.2799997       0.00000000    
  -12.2700005       0.00000000    
  -12.2600002       0.00000000    
  -12.2500000       0.00000000    
  -12.2399998       0.00000000    
  -12.2299995       0.00000000    
  -12.2200003       0.00000000    
  -12.2100000       0.00000000    
  -12.1999998       0.00000000    
  -12.1899996       0.00000000    
  -12.1800003       0.00000000    
  -12.1700001       0.00000000    
  -12.1599998       0.00000000    
  -12.1499996       0.00000000    
  -12.1400003       0.00000000    
  -12.1300001       0.00000000    
  -12.1199999       0.00000000    
  -12.1099997       0.00000000    
  -12.1000004       0.00000000    
  -12.0900002       0.00000000    
  -12.0799999      -3.92363570E-44
  -12.0699997      -3.92363570E-44
  -12.0600004      -3.92363570E-44
  -12.0500002      -3.92363570E-44
  -12.0400000      -3.92363570E-44
  -12.0299997      -3.92363570E-44
  -12.0200005      -3.92363570E-44
  -12.0100002      -3.92363570E-44
  -12.0000000      -3.92363570E-44
  -11.9899998      -3.92363570E-44
  -11.9799995      -3.92363570E-44
  -11.9700003      -3.92363570E-44
  -11.9600000       3.50324616E-44
  -11.9499998       1.52741533E-43
  -11.9399996       2.63444111E-43
  -11.9300003       2.63444111E-43
  -11.9200001       2.63444111E-43
  -11.9099998       2.24207754E-43
  -11.8999996       2.24207754E-43
  -11.8900003       9.06640106E-43
  -11.8800001       5.63321983E-43
  -11.8699999       6.43195995E-43
  -11.8599997       1.32142445E-42
  -11.8500004       8.92627122E-43
  -11.8400002       4.51218106E-43
  -11.8299999       2.03468537E-42
  -11.8199997       8.57594660E-43
  -11.8100004       1.57786207E-42
  -11.8000002       3.60694225E-42
  -11.7900000       4.22911877E-42
  -11.7799997       2.99737742E-42
  -11.7700005      -2.26870221E-42
  -11.7600002      -4.26975642E-42
  -11.7500000      -1.17092500E-41
  -11.7399998      -5.66404839E-42
  -11.7299995      -8.79875306E-42
  -11.7200003      -5.88545355E-43
  -11.7100000      -4.48695768E-42
  -11.6999998       3.60133705E-43
  -11.6899996       1.69136725E-42
  -11.6800003       2.23002638E-41
  -11.6700001       3.42351228E-41
  -11.6599998       6.07883274E-42
  -11.6499996       3.22719036E-42
  -11.6400003      -4.30745135E-41
  -11.6300001      -3.64407666E-41
  -11.6199999       1.49336377E-41
  -11.6099997      -8.16676745E-42
  -11.6000004       1.58080480E-41
  -11.5900002       1.52741533E-43
  -11.5799999      -1.81482164E-41
  -11.5699997       4.18848111E-41
  -11.5600004      -2.92058626E-41
  -11.5500002       8.13607901E-41
  -11.5400000       1.12098272E-40
  -11.5299997       1.07346469E-40
  -11.5200005       1.23465605E-40
  -11.5100002       3.21939914E-40
  -11.5000000       1.23829943E-40
  -11.4899998       1.83941443E-40
  -11.4799995      -1.00258701E-40
  -11.4700003      -1.60832630E-40
  -11.4600000      -1.09550711E-40
  -11.4499998       3.38577531E-40
  -11.4399996       1.88013616E-40
  -11.4300003      -1.54268948E-41
  -11.4200001       1.13271159E-40
  -11.4099998       4.28165344E-40
  -11.3999996       1.63757140E-40
  -11.3900003       1.45516438E-40
  -11.3800001       3.20572247E-40
  -11.3699999       3.87747693E-40
  -11.3599997       5.84641337E-40
  -11.3500004       1.68801814E-40
  -11.3400002       1.73241128E-40
  -11.3299999       3.76954892E-40
  -11.3199997       4.30799786E-40
  -11.3100004       6.37446468E-40
  -11.3000002       2.32209169E-40
  -11.2900000       3.13264476E-40
  -11.2799997       2.75624198E-40
  -11.2700005      -1.18168697E-40
  -11.2600002      -7.30398799E-41
  -11.2500000      -2.34117737E-40
  -11.2399998      -3.26283940E-40
  -11.2299995      -9.62948483E-40
  -11.2200003      -1.34665343E-39
  -11.2100000      -2.08834809E-39
  -11.1999998      -2.78251772E-39
  -11.1899996      -4.03273800E-39
  -11.1800003      -5.50277716E-39
  -11.1700001      -6.87965659E-39
  -11.1599998      -9.03503720E-39
  -11.1499996      -1.17329515E-38
  -11.1400003      -1.51140703E-38
  -11.1300001      -1.90667577E-38
  -11.1199999      -2.37065649E-38
  -11.1099997      -2.95629639E-38
  -11.1000004      -3.68095995E-38
  -11.0900002      -4.46319699E-38
  -11.0799999      -5.52346004E-38
  -11.0699997      -6.69579362E-38
  -11.0600004      -8.11293909E-38
  -11.0500002      -9.88664271E-38
  -11.0400000      -1.18973782E-37
  -11.0299997      -1.43018685E-37
  -11.0200005      -1.71604400E-37
  -11.0100002      -2.04658318E-37
  -11.0000000      -2.43574192E-37
  -10.9899998      -2.89349748E-37
  -10.9799995      -3.42467793E-37
  -10.9700003      -4.05250942E-37
  -10.9600000      -4.77603367E-37
  -10.9499998      -5.61120083E-37
  -10.9399996      -6.59815171E-37
  -10.9300003      -7.72013753E-37
  -10.9200001      -9.02951799E-37
  -10.9099998      -1.05303270E-36
  -10.8999996      -1.22567590E-36
  -10.8900003      -1.42462145E-36
  -10.8800001      -1.65275517E-36
  -10.8699999      -1.91401604E-36
  -10.8599997      -2.21192895E-36
  -10.8500004      -2.55373493E-36
  -10.8400002      -2.94219980E-36
  -10.8299999      -3.38492509E-36
  -10.8199997      -3.88811366E-36
  -10.8100004      -4.45893153E-36
  -10.8000002      -5.10701499E-36
  -10.7900000      -5.84015354E-36
  -10.7799997      -6.66926592E-36
  -10.7700005      -7.60562638E-36
  -10.7600002      -8.66114555E-36
  -10.7500000      -9.85035639E-36
  -10.7399998      -1.11873714E-35
  -10.7299995      -1.26902192E-35
  -10.7200003      -1.43766546E-35
  -10.7100000      -1.62661169E-35
  -10.6999998      -1.83814571E-35
  -10.6899996      -2.07466086E-35
  -10.6800003      -2.33880242E-35
  -10.6700001      -2.63356997E-35
  -10.6599998      -2.96191717E-35
  -10.6499996      -3.32737939E-35
  -10.6400003      -3.73385334E-35
  -10.6300001      -4.18527876E-35
  -10.6199999      -4.68607178E-35
  -10.6099997      -5.24111375E-35
  -10.6000004      -5.85576127E-35
  -10.5900002      -6.53539789E-35
  -10.5799999      -7.28645039E-35
  -10.5699997      -8.11537882E-35
  -10.5600004      -9.02941464E-35
  -10.5500002      -1.00362686E-34
  -10.5400000      -1.11443947E-34
  -10.5299997      -1.23624640E-34
  -10.5200005      -1.37005118E-34
  -10.5100002      -1.51686112E-34
  -10.5000000      -1.67780467E-34
  -10.4899998      -1.85407108E-34
  -10.4799995      -2.04694984E-34
  -10.4700003      -2.25779886E-34
  -10.4600000      -2.48807614E-34
  -10.4499998      -2.73934977E-34
  -10.4399996      -3.01328357E-34
  -10.4300003      -3.31164975E-34
  -10.4200001      -3.63635022E-34
  -10.4099998      -3.98937023E-34
  -10.3999996      -4.37286057E-34
  -10.3900003      -4.78908475E-34
  -10.3800001      -5.24041856E-34
  -10.3699999      -5.72942421E-34
  -10.3599997      -6.25876768E-34
  -10.3500004      -6.83131746E-34
  -10.3400002      -7.45002146E-34
  -10.3299999      -8.11804113E-34
  -10.3199997      -8.83874682E-34
  -10.3100004      -9.61556767E-34
  -10.3000002      -1.04521909E-33
  -10.2900000      -1.13524414E-33
  -10.2799997      -1.23204187E-33
  -10.2700005      -1.33602326E-33
  -10.2600002      -1.44763764E-33
  -10.2500000      -1.56734117E-33
  -10.2399998      -1.69561479E-33
  -10.2299995      -1.83295477E-33
  -10.2200003      -1.97988403E-33
  -10.2100000      -2.13693963E-33
  -10.1999998      -2.30467808E-33
  -10.1899996      -2.48367887E-33
  -10.1800003      -2.67454150E-33
  -10.1700001      -2.87787980E-33
  -10.1599998      -3.09432945E-33
  -10.1499996      -3.32454157E-33
  -10.1400003      -3.56918839E-33
  -10.1300001      -3.82894730E-33
  -10.1199999      -4.10454966E-33
  -10.1099997      -4.39668609E-33
  -10.1000004      -4.70607951E-33
  -10.0900002      -5.03349216E-33
  -10.0799999      -5.37967745E-33
  -10.0699997      -5.74536015E-33
  -10.0600004      -6.13135539E-33
  -10.0500002      -6.53838170E-33
  -10.0400000      -6.96725273E-33
  -10.0299997      -7.41869913E-33
  -10.0200005      -7.89351877E-33
  -10.0100002      -8.39243898E-33
  -10.0000000      -8.91620694E-33
  -9.98999977      -9.46556247E-33
  -9.97999954      -1.00412028E-32
  -9.97000027      -1.06437935E-32
  -9.96000004      -1.12740245E-32
  -9.94999981      -1.19324718E-32
  -9.93999958      -1.26197400E-32
  -9.93000031      -1.33363375E-32
  -9.92000008      -1.40827662E-32
  -9.90999985      -1.48594212E-32
  -9.89999962      -1.56666317E-32
  -9.89000034      -1.65046871E-32
  -9.88000011      -1.73738418E-32
  -9.86999989      -1.82739913E-32
  -9.85999966      -1.92053501E-32
  -9.85000038      -2.01677156E-32
  -9.84000015      -2.11608173E-32
  -9.82999992      -2.21843070E-32
  -9.81999969      -2.32376175E-32
  -9.81000042      -2.43200539E-32
  -9.80000019      -2.54309563E-32
  -9.78999996      -2.65690582E-32
  -9.77999973      -2.77332443E-32
  -9.77000046      -2.89220188E-32
  -9.76000023      -3.01337654E-32
  -9.75000000      -3.13665651E-32
  -9.73999977      -3.26181198E-32
  -9.72999954      -3.38862254E-32
  -9.72000027      -3.51679551E-32
  -9.71000004      -3.64602436E-32
  -9.69999981      -3.77597056E-32
  -9.68999958      -3.90626059E-32
  -9.68000031      -4.03648097E-32
  -9.67000008      -4.16617797E-32
  -9.65999985      -4.29484670E-32
  -9.64999962      -4.42195173E-32
  -9.64000034      -4.54690178E-32
  -9.63000011      -4.66905357E-32
  -9.61999989      -4.78772737E-32
  -9.60999966      -4.90215674E-32
  -9.60000038      -5.01153502E-32
  -9.59000015      -5.11500086E-32
  -9.57999992      -5.21158359E-32
  -9.56999969      -5.30030991E-32
  -9.56000042      -5.38008836E-32
  -9.55000019      -5.44976167E-32
  -9.53999996      -5.50806972E-32
  -9.52999973      -5.55371122E-32
  -9.52000046      -5.58524915E-32
  -9.51000023      -5.60118944E-32
  -9.50000000      -5.59990286E-32
  -9.48999977      -5.57969082E-32
  -9.47999954      -5.53869840E-32
  -9.47000027      -5.47498895E-32
  -9.46000004      -5.38650538E-32
  -9.44999981      -5.27104303E-32
  -9.43999958      -5.12625563E-32
  -9.43000031      -4.94969050E-32
  -9.42000008      -4.73868809E-32
  -9.40999985      -4.49047746E-32
  -9.39999962      -4.20207757E-32
  -9.39000034      -3.87037686E-32
  -9.38000011      -3.49203930E-32
  -9.36999989      -3.06354987E-32
  -9.35999966      -2.58115226E-32
  -9.35000038      -2.04092033E-32
  -9.34000015      -1.43867857E-32
  -9.32999992      -7.69963347E-33
  -9.31999969      -3.00860042E-34
  -9.31000042       7.85890046E-33
  -9.30000019       1.68327088E-32
  -9.28999996       2.66760487E-32
  -9.27999973       3.74477324E-32
  -9.27000046       4.92107045E-32
  -9.26000023       6.20304960E-32
  -9.25000000       7.59777659E-32
  -9.23999977       9.11261735E-32
  -9.22999954       1.07554700E-31
  -9.22000027       1.25346278E-31
  -9.21000004       1.44589261E-31
  -9.19999981       1.65376833E-31
  -9.18999958       1.87808556E-31
  -9.18000031       2.11989004E-31
  -9.17000008       2.38029378E-31
  -9.15999985       2.66047850E-31
  -9.14999962       2.96169140E-31
  -9.14000034       3.28525821E-31
  -9.13000011       3.63259399E-31
  -9.11999989       4.00516880E-31
  -9.10999966       4.40458439E-31
  -9.10000038       4.83251887E-31
  -9.09000015       5.29074303E-31
  -9.07999992       5.78114940E-31
  -9.06999969       6.30574901E-31
  -9.06000042       6.86663755E-31
  -9.05000019       7.46611616E-31
  -9.03999996       8.10656357E-31
  -9.02999973       8.79050004E-31
  -9.02000046       9.52065036E-31
  -9.01000023       1.02998705E-30
  -9.00000000       1.11311989E-30
  -8.98999977       1.20178489E-30
  -8.97999954       1.29632238E-30
  -8.97000027       1.39710362E-30
  -8.96000004       1.50449914E-30
  -8.94999981       1.61893069E-30
  -8.93999958       1.74082438E-30
  -8.93000031       1.87063638E-30
  -8.92000008       2.00885834E-30
  -8.90999985       2.15601030E-30
  -8.89999962       2.31262922E-30
  -8.89000034       2.47930209E-30
  -8.88000011       2.65663585E-30
  -8.86999989       2.84529329E-30
  -8.85999966       3.04594849E-30
  -8.85000038       3.25934077E-30
  -8.84000015       3.48623638E-30
  -8.82999992       3.72744782E-30
  -8.81999969       3.98384665E-30
  -8.81000042       4.25634355E-30
  -8.80000019       4.54589545E-30
  -8.78999996       4.85352928E-30
  -8.77999973       5.18031483E-30
  -8.77000046       5.52740991E-30
  -8.76000023       5.89598701E-30
  -8.75000000       6.28733523E-30
  -8.73999977       6.70278991E-30
  -8.72999954       7.14373308E-30
  -8.72000027       7.61167387E-30
  -8.71000004       8.10816431E-30
  -8.69999981       8.63486252E-30
  -8.68999958       9.19346646E-30
  -8.68000031       9.78586671E-30
  -8.67000008       1.04139290E-29
  -8.65999985       1.10796673E-29
  -8.64999962       1.17852175E-29
  -8.64000034       1.25328229E-29
  -8.63000011       1.33247314E-29
  -8.61999989       1.41635040E-29
  -8.60999966       1.50516541E-29
  -8.60000038       1.59918720E-29
  -8.59000015       1.69869519E-29
  -8.57999992       1.80399375E-29
  -8.56999969       1.91538187E-29
  -8.56000042       2.03318739E-29
  -8.55000019       2.15774194E-29
  -8.53999996       2.28940769E-29
  -8.52999973       2.42854620E-29
  -8.52000046       2.57554461E-29
  -8.51000023       2.73079804E-29
  -8.50000000       2.89473410E-29
  -8.48999977       3.06778251E-29
  -8.47999954       3.25039528E-29
  -8.47000027       3.44304966E-29
  -8.46000004       3.64622534E-29
  -8.44999981       3.86042486E-29
  -8.43999958       4.08620042E-29
  -8.43000031       4.32409009E-29
  -8.42000008       4.57466230E-29
  -8.40999985       4.83849875E-29
  -8.39999962       5.11621665E-29
  -8.39000034       5.40845425E-29
  -8.38000011       5.71585193E-29
  -8.36999989       6.03908556E-29
  -8.35999966       6.37887618E-29
  -8.35000038       6.73589183E-29
  -8.34000015       7.11092757E-29
  -8.32999992       7.50470742E-29
  -8.31999969       7.91804087E-29
  -8.31000042       8.35171877E-29
  -8.30000019       8.80657166E-29
  -8.28999996       9.28348247E-29
  -8.27999973       9.78329500E-29
  -8.27000046       1.03068946E-28
  -8.26000023       1.08552273E-28
  -8.25000000       1.14291809E-28
  -8.23999977       1.20297749E-28
  -8.22999954       1.26579134E-28
  -8.22000027       1.33146567E-28
  -8.21000004       1.40009401E-28
  -8.19999981       1.47178447E-28
  -8.18999958       1.54663995E-28
  -8.18000031       1.62477071E-28
  -8.17000008       1.70627186E-28
  -8.15999985       1.79125749E-28
  -8.14999962       1.87983666E-28
  -8.14000034       1.97212193E-28
  -8.13000011       2.06822030E-28
  -8.11999989       2.16823889E-28
  -8.10999966       2.27229352E-28
  -8.10000038       2.38048119E-28
  -8.09000015       2.49292733E-28
  -8.07999992       2.60974172E-28
  -8.06999969       2.73102307E-28
  -8.06000042       2.85688018E-28
  -8.05000019       2.98741394E-28
  -8.03999996       3.12272689E-28
  -8.02999973       3.26292472E-28
  -8.02000046       3.40810252E-28
  -8.01000023       3.55835081E-28
  -8.00000000       3.71375843E-28
  -7.98999977       3.87439808E-28
  -7.98000002       4.04037473E-28
  -7.96999979       4.21173627E-28
  -7.96000004       4.38857756E-28
  -7.94999981       4.57092654E-28
  -7.94000006       4.75885300E-28
  -7.92999983       4.95239163E-28
  -7.92000008       5.15158238E-28
  -7.90999985       5.35645366E-28
  -7.90000010       5.56701173E-28
  -7.88999987       5.78325225E-28
  -7.88000011       6.00518246E-28
  -7.86999989       6.23276671E-28
  -7.86000013       6.46596071E-28
  -7.84999990       6.70469706E-28
  -7.84000015       6.94893676E-28
  -7.82999992       7.19857772E-28
  -7.82000017       7.45347214E-28
  -7.80999994       7.71355117E-28
  -7.80000019       7.97863520E-28
  -7.78999996       8.24853166E-28
  -7.78000021       8.52309319E-28
  -7.76999998       8.80204392E-28
  -7.76000023       9.08514985E-28
  -7.75000000       9.37215674E-28
  -7.73999977       9.66269579E-28
  -7.73000002       9.95650892E-28
  -7.71999979       1.02531349E-27
  -7.71000004       1.05522241E-27
  -7.69999981       1.08532527E-27
  -7.69000006       1.11558654E-27
  -7.67999983       1.14594411E-27
  -7.67000008       1.17634202E-27
  -7.65999985       1.20672155E-27
  -7.65000010       1.23701787E-27
  -7.63999987       1.26715501E-27
  -7.63000011       1.29706172E-27
  -7.61999989       1.32665460E-27
  -7.61000013       1.35585603E-27
  -7.59999990       1.38455633E-27
  -7.59000015       1.41267462E-27
  -7.57999992       1.44009977E-27
  -7.57000017       1.46672276E-27
  -7.55999994       1.49242680E-27
  -7.55000019       1.51709132E-27
  -7.53999996       1.54058208E-27
  -7.53000021       1.56276745E-27
  -7.51999998       1.58349392E-27
  -7.51000023       1.60261311E-27
  -7.50000000       1.61995899E-27
  -7.48999977       1.63537298E-27
  -7.48000002       1.64867403E-27
  -7.46999979       1.65967302E-27
  -7.46000004       1.66818813E-27
  -7.44999981       1.67399096E-27
  -7.44000006       1.67688775E-27