  -16.0000000       0.00000000    
  -15.9899998       0.00000000    
  -15.9799995       0.00000000    
  -15.9700003       0.00000000    
  -15.9600000       0.00000000    
  -15.9499998       0.00000000    
  -15.9399996       0.00000000    
  -15.9300003       0.00000000    
  -15.9200001       0.00000000    
  -15.9099998       0.00000000    
  -15.8999996       0.00000000    
  -15.8900003       0.00000000    
  -15.8800001       0.00000000    
  -15.8699999       0.00000000    
  -15.8599997       0.00000000    
  -15.8500004       0.00000000    
  -15.8400002       0.00000000    
  -15.8299999       0.00000000    
  -15.8199997       0.00000000    
  -15.8100004       0.00000000    
  -15.8000002       0.00000000    
  -15.7900000       0.00000000    
  -15.7799997       0.00000000    
  -15.7700005       0.00000000    
  -15.7600002       0.00000000    
  -15.7500000       0.00000000    
  -15.7399998       0.00000000    
  -15.7299995       0.00000000    
  -15.7200003       0.00000000    
  -15.7100000       0.00000000    
  -15.6999998       0.00000000    
  -15.6899996       0.00000000    
  -15.6800003       0.00000000    
  -15.6700001       0.00000000    
  -15.6599998       0.00000000    
  -15.6499996       0.00000000    
  -15.6400003       0.00000000    
  -15.6300001       0.00000000    
  -15.6199999       0.00000000    
  -15.6099997       0.00000000    
  -15.6000004       0.00000000    
  -15.5900002       0.00000000    
  -15.5799999       0.00000000    
  -15.5699997       0.00000000    
  -15.5600004       0.00000000    
  -15.5500002       0.00000000    
  -15.5400000       0.00000000    
  -15.5299997       0.00000000    
  -15.5200005       0.00000000    
  -15.5100002       0.00000000    
  -15.5000000       0.00000000    
  -15.4899998       0.00000000    
  -15.4799995       0.00000000    
  -15.4700003       0.00000000    
  -15.4600000       0.00000000    
  -15.4499998       0.00000000    
  -15.4399996       0.00000000    
  -15.4300003       0.00000000    
  -15.4200001       0.00000000    
  -15.4099998       0.00000000    
  -15.3999996       0.00000000    
  -15.3900003       0.00000000    
  -15.3800001       0.00000000    
  -15.3699999       0.00000000    
  -15.3599997       0.00000000    
  -15.3500004       0.00000000    
  -15.3400002       0.00000000    
  -15.3299999       0.00000000    
  -15.3199997       0.00000000    
  -15.3100004       0.00000000    
  -15.3000002       0.00000000    
  -15.2900000       0.00000000    
  -15.2799997       0.00000000    
  -15.2700005       0.00000000    
  -15.2600002       0.00000000    
  -15.2500000       0.00000000    
  -15.2399998       0.00000000    
  -15.2299995       0.00000000    
  -15.2200003       0.00000000    
  -15.2100000       0.00000000    
  -15.1999998       0.00000000    
  -15.1899996       0.00000000    
  -15.1800003       0.00000000    
  -15.1700001       0.00000000    
  -15.1599998       0.00000000    
  -15.1499996       0.00000000    
  -15.1400003       0.00000000    
  -15.1300001       0.00000000    
  -15.1199999       0.00000000    
  -15.1099997       0.00000000    
  -15.1000004       0.00000000    
  -15.0900002       0.00000000    
  -15.0799999       0.00000000    
  -15.0699997       0.00000000    
  -15.0600004       0.00000000    
  -15.0500002       0.00000000    
  -15.0400000       0.00000000    
  -15.0299997       0.00000000    
  -15.0200005       0.00000000    
  -15.0100002       0.00000000    
  -15.0000000       0.00000000    
  -14.9899998       0.00000000    
  -14.9799995       0.00000000    
  -14.9700003       0.00000000    
  -14.9600000       0.00000000    
  -14.9499998       0.00000000    
  -14.9399996       0.00000000    
  -14.9300003       0.00000000    
  -14.9200001       0.00000000    
  -14.9099998       0.00000000    
  -14.8999996       0.00000000    
  -14.8900003       0.00000000    
  -14.8800001       0.00000000    
  -14.8699999       0.00000000    
  -14.8599997       0.00000000    
  -14.8500004       0.00000000    
  -14.8400002       0.00000000    
  -14.8299999       0.00000000    
  -14.8199997       0.00000000    
  -14.8100004       0.00000000    
  -14.8000002       0.00000000    
  -14.7900000       0.00000000    
  -14.7799997       0.00000000    
  -14.7700005       0.00000000    
  -14.7600002       0.00000000    
  -14.7500000       0.00000000    
  -14.7399998       0.00000000    
  -14.7299995       0.00000000    
  -14.7200003       0.00000000    
  -14.7100000       0.00000000    
  -14.6999998       0.00000000    
  -14.6899996       0.00000000    
  -14.6800003       0.00000000    
  -14.6700001       0.00000000    
  -14.6599998       0.00000000    
  -14.6499996       0.00000000    
  -14.6400003       0.00000000    
  -14.6300001       0.00000000    
  -14.6199999       0.00000000    
  -14.6099997       0.00000000    
  -14.6000004       0.00000000    
  -14.5900002       0.00000000    
  -14.5799999       0.00000000    
  -14.5699997       0.00000000    
  -14.5600004       0.00000000    
  -14.5500002       0.00000000    
  -14.5400000       0.00000000    
  -14.5299997       0.00000000    
  -14.5200005       0.00000000    
  -14.5100002       0.00000000    
  -14.5000000       0.00000000    
  -14.4899998       0.00000000    
  -14.4799995       0.00000000    
  -14.4700003       0.00000000    
  -14.4600000       0.00000000    
  -14.4499998       0.00000000    
  -14.4399996       0.00000000    
  -14.4300003       0.00000000    
  -14.4200001       0.00000000    
  -14.4099998       0.00000000    
  -14.3999996       0.00000000    
  -14.3900003       0.00000000    
  -14.3800001       0.00000000    
  -14.3699999       0.00000000    
  -14.3599997       0.00000000    
  -14.3500004       0.00000000    
  -14.3400002       0.00000000    
  -14.3299999       0.00000000    
  -14.3199997       0.00000000    
  -14.3100004       0.00000000    
  -14.3000002       0.00000000    
  -14.2900000       0.00000000    
  -14.2799997       0.00000000    
  -14.2700005       0.00000000    
  -14.2600002       0.00000000    
  -14.2500000       0.00000000    
  -14.2399998       0.00000000    
  -14.2299995       0.00000000    
  -14.2200003       0.00000000    
  -14.2100000       0.00000000    
  -14.1999998       0.00000000    
  -14.1899996       0.00000000    
  -14.1800003       0.00000000    
  -14.1700001       0.00000000    
  -14.1599998       0.00000000    
  -14.1499996       0.00000000    
  -14.1400003       0.00000000    
  -14.1300001       0.00000000    
  -14.1199999       0.00000000    
  -14.1099997       0.00000000    
  -14.1000004       0.00000000    
  -14.0900002       0.00000000    
  -14.0799999       0.00000000    
  -14.0699997       0.00000000    
  -14.0600004       0.00000000    
  -14.0500002       0.00000000    
  -14.0400000       0.00000000    
  -14.0299997       0.00000000    
  -14.0200005       0.00000000    
  -14.0100002       0.00000000    
  -14.0000000       0.00000000    
  -13.9899998       0.00000000    
  -13.9799995       0.00000000    
  -13.9700003       0.00000000    
  -13.9600000       0.00000000    
  -13.9499998       0.00000000    
  -13.9399996       0.00000000    
  -13.9300003       0.00000000    
  -13.9200001       0.00000000    
  -13.9099998       0.00000000    
  -13.8999996       0.00000000    
  -13.8900003       0.00000000    
  -13.8800001       0.00000000    
  -13.8699999       0.00000000    
  -13.8599997       0.00000000    
  -13.8500004       0.00000000    
  -13.8400002       0.00000000    
  -13.8299999       0.00000000    
  -13.8199997       0.00000000    
  -13.8100004       0.00000000    
  -13.8000002       0.00000000    
  -13.7900000       0.00000000    
  -13.7799997       0.00000000    
  -13.7700005       0.00000000    
  -13.7600002       0.00000000    
  -13.7500000       0.00000000    
  -13.7399998       0.00000000    
  -13.7299995       0.00000000    
  -13.7200003       0.00000000    
  -13.7100000       0.00000000    
  -13.6999998       0.00000000    
  -13.6899996       0.00000000    
  -13.6800003       0.00000000    
  -13.6700001       0.00000000    
  -13.6599998       0.00000000    
  -13.6499996       0.00000000    
  -13.6400003       0.00000000    
  -13.6300001       0.00000000    
  -13.6199999       0.00000000    
  -13.6099997       0.00000000    
  -13.6000004       0.00000000    
  -13.5900002       0.00000000    
  -13.5799999      -0.00000000    
  -13.5699997      -0.00000000    
  -13.5600004       0.00000000    
  -13.5500002       0.00000000    
  -13.5400000      -0.00000000    
  -13.5299997      -0.00000000    
  -13.5200005      -0.00000000    
  -13.5100002      -0.00000000    
  -13.5000000      -0.00000000    
  -13.4899998      -0.00000000    
  -13.4799995      -0.00000000    
  -13.4700003      -1.40129846E-45
  -13.4600000       0.00000000    
  -13.4499998       0.00000000    
  -13.4399996      -0.00000000    
  -13.4300003      -0.00000000    
  -13.4200001      -1.40129846E-45
  -13.4099998      -1.40129846E-45
  -13.3999996       1.40129846E-45
  -13.3900003       1.40129846E-45
  -13.3800001       1.40129846E-45
  -13.3699999       1.40129846E-45
  -13.3599997       1.40129846E-45
  -13.3500004       2.80259693E-45
  -13.3400002       2.80259693E-45
  -13.3299999       1.40129846E-45
  -13.3199997      -0.00000000    
  -13.3100004       0.00000000    
  -13.3000002       5.60519386E-45
  -13.2900000       8.40779079E-45
  -13.2799997       9.80908925E-45
  -13.2700005       1.12103877E-44
  -13.2600002       2.10194770E-44
  -13.2500000       3.08285662E-44
  -13.2399998       2.80259693E-44
  -13.2299995       2.80259693E-44
  -13.2200003       3.08285662E-44
  -13.2100000       3.22298647E-44
  -13.1999998       4.20389539E-44
  -13.1899996       5.60519386E-44
  -13.1800003       6.30584309E-44
  -13.1700001       6.44597294E-44
  -13.1599998       7.00649232E-44
  -13.1499996       8.40779079E-44
  -13.1400003       1.05097385E-43
  -13.1300001       1.23314265E-43
  -13.1199999       1.48537637E-43
  -13.1099997       1.80767502E-43
  -13.1000004       2.21405157E-43
  -13.0900002       2.67648007E-43
  -13.0799999       3.25101244E-43
  -13.0699997       4.03573958E-43
  -13.0600004       5.00263552E-43
  -13.0500002       6.19373921E-43
  -13.0400000       7.66510260E-43
  -13.0299997       9.41672568E-43
  -13.0200005       1.15046604E-42
  -13.0100002       1.40830496E-42
  -13.0000000       1.73620880E-42
  -12.9899998       2.14118405E-42
  -12.9799995       2.63303981E-42
  -12.9700003       3.22298647E-42
  -12.9600000       3.93484609E-42
  -12.9499998       4.78683555E-42
  -12.9399996       5.81258603E-42
  -12.9300003       7.04853128E-42
  -12.9200001       8.51569077E-42
  -12.9099998       1.02533009E-41
  -12.8999996       1.23104070E-41
  -12.8900003       1.47640806E-41
  -12.8800001       1.76899918E-41
  -12.8699999       2.11427912E-41
  -12.8599997       2.52191685E-41
  -12.8500004       3.00228196E-41
  -12.8400002       3.56756576E-41
  -12.8299999       4.23192136E-41
  -12.8199997       5.00964201E-41
  -12.8100004       5.91992549E-41
  -12.8000002       6.98365116E-41
  -12.7900000       8.22422069E-41
  -12.7799997       9.66797849E-41
  -12.7700005       1.13458933E-40
  -12.7600002       1.32938383E-40
  -12.7500000       1.55490880E-40
  -12.7399998       1.81557834E-40
  -12.7299995       2.11667534E-40
  -12.7200003       2.46400118E-40
  -12.7100000       2.86374959E-40
  -12.6999998       3.32347358E-40
  -12.6899996       3.85148284E-40
  -12.6800003       4.45680174E-40
  -12.6700001       5.15006613E-40
  -12.6599998       5.94290679E-40
  -12.6499996       6.84834178E-40
  -12.6400003       7.88111276E-40
  -12.6300001       9.05739072E-40
  -12.6199999       1.03953365E-39
  -12.6099997       1.19156893E-39
  -12.6000004       1.36411081E-39
  -12.5900002       1.55963818E-39
  -12.5799999       1.78097468E-39
  -12.5699997       2.03122977E-39
  -12.5600004       2.31384504E-39
  -12.5500002       2.63264185E-39
  -12.5400000       2.99182407E-39
  -12.5299997       3.39605944E-39
  -12.5200005       3.85048792E-39
  -12.5100002       4.36076655E-39
  -12.5000000       4.93311009E-39
  -12.4899998       5.57438771E-39
  -12.4799995       6.29214400E-39
  -12.4700003       7.09464521E-39
  -12.4600000       7.99092691E-39
  -12.4499998       8.99092433E-39
  -12.4399996       1.01054877E-38
  -12.4300003       1.13464944E-38
  -12.4200001       1.27269262E-38
  -12.4099998       1.42608799E-38
  -12.3999996       1.59637294E-38
  -12.3900003       1.78522159E-38
  -12.3800001       1.99445633E-38
  -12.3699999       2.22605860E-38
  -12.3599997       2.48217798E-38
  -12.3500004       2.76513882E-38
  -12.3400002       3.07746330E-38
  -12.3299999       3.42187528E-38
  -12.3199997       3.80132925E-38
  -12.3100004       4.21900728E-38
  -12.3000002       4.67834619E-38
  -12.2900000       5.18304205E-38
  -12.2799997       5.73708519E-38
  -12.2700005       6.34476556E-38
  -12.2600002       7.01070014E-38
  -12.2500000       7.73982768E-38
  -12.2399998       8.53744957E-38
  -12.2299995       9.40927077E-38
  -12.2200003       1.03613757E-37
  -12.2100000       1.14002681E-37
  -12.1999998       1.25329231E-37
  -12.1899996       1.37667754E-37
  -12.1800003       1.51097473E-37
  -12.1700001       1.65702714E-37
  -12.1599998       1.81573484E-37
  -12.1499996       1.98805285E-37
  -12.1400003       2.17499772E-37
  -12.1300001       2.37764476E-37
  -12.1199999       2.59714214E-37
  -12.1099997       2.83469765E-37
  -12.1000004       3.09159333E-37
  -12.0900002       3.36918293E-37
  -12.0799999       3.66889063E-37
  -12.0699997       3.99223834E-37
  -12.0600004       4.34081234E-37
  -12.0500002       4.71628231E-37
  -12.0400000       5.12040288E-37
  -12.0299997       5.55503589E-37
  -12.0200005       6.02212522E-37
  -12.0100002       6.52370442E-37
  -12.0000000       7.06190258E-37
  -11.9899998       7.63895190E-37
  -11.9799995       8.25717788E-37
  -11.9700003       8.91902124E-37
  -11.9600000       9.62701103E-37
  -11.9499998       1.03837831E-36
  -11.9399996       1.11920834E-36
  -11.9300003       1.20547649E-36
  -11.9200001       1.29747781E-36
  -11.9099998       1.39551937E-36
  -11.8999996       1.49991508E-36
  -11.8900003       1.61099424E-36
  -11.8800001       1.72909307E-36
  -11.8699999       1.85456027E-36
  -11.8599997       1.98774900E-36
  -11.8500004       2.12902643E-36
  -11.8400002       2.27876618E-36
  -11.8299999       2.43735532E-36
  -11.8199997       2.60518595E-36
  -11.8100004       2.78265338E-36
  -11.8000002       2.97016622E-36
  -11.7900000       3.16813126E-36
  -11.7799997       3.37696626E-36
  -11.7700005       3.59708518E-36
  -11.7600002       3.82891851E-36
  -11.7500000       4.07288919E-36
  -11.7399998       4.32941012E-36
  -11.7299995       4.59890497E-36
  -11.7200003       4.88179597E-36
  -11.7100000       5.17849386E-36
  -11.6999998       5.48941046E-36
  -11.6899996       5.81493286E-36
  -11.6800003       6.15544704E-36
  -11.6700001       6.51132035E-36
  -11.6599998       6.88290972E-36
  -11.6499996       7.27054161E-36
  -11.6400003       7.67453098E-36
  -11.6300001       8.09515908E-36
  -11.6199999       8.53266267E-36
  -11.6099997       8.98728281E-36
  -11.6000004       9.45919673E-36
  -11.5900002       9.94852280E-36
  -11.5799999       1.04553859E-35
  -11.5699997       1.09798103E-35
  -11.5600004       1.15217667E-35
  -11.5500002       1.20811848E-35
  -11.5400000       1.26579132E-35
  -11.5299997       1.32517272E-35
  -11.5200005       1.38623242E-35
  -11.5100002       1.44893311E-35
  -11.5000000       1.51322211E-35
  -11.4899998       1.57904162E-35
  -11.4799995       1.64632231E-35
  -11.4700003       1.71498269E-35
  -11.4600000       1.78492575E-35
  -11.4499998       1.85604531E-35
  -11.4399996       1.92821596E-35
  -11.4300003       2.00129664E-35
  -11.4200001       2.07513109E-35
  -11.4099998       2.14954811E-35
  -11.3999996       2.22435157E-35
  -11.3900003       2.29932607E-35
  -11.3800001       2.37423514E-35
  -11.3699999       2.44881819E-35
  -11.3599997       2.52279455E-35
  -11.3500004       2.59584682E-35
  -11.3400002       2.66763548E-35
  -11.3299999       2.73779292E-35
  -11.3199997       2.80591850E-35
  -11.3100004       2.87156940E-35
  -11.3000002       2.93427956E-35
  -11.2900000       2.99353842E-35
  -11.2799997       3.04879584E-35
  -11.2700005       3.09945660E-35
  -11.2600002       3.14488935E-35
  -11.2500000       3.18440214E-35
  -11.2399998       3.21726232E-35
  -11.2299995       3.24267177E-35
  -11.2200003       3.25979134E-35
  -11.2100000       3.26770899E-35
  -11.1999998       3.26544582E-35
  -11.1899996       3.25196265E-35
  -11.1800003       3.22615372E-35
  -11.1700001       3.18682402E-35
  -11.1599998       3.13269503E-35
  -11.1499996       3.06241849E-35
  -11.1400003       2.97454282E-35
  -11.1300001       2.86751659E-35
  -11.1199999       2.73969449E-35
  -11.1099997       2.58932965E-35
  -11.1000004       2.41454087E-35
  -11.0900002       2.21333719E-35
  -11.0799999       1.98359305E-35
  -11.0699997       1.72304427E-35
  -11.0600004       1.42927902E-35
  -11.0500002       1.09972999E-35
  -11.0400000       7.31665954E-36
  -11.0299997       3.22183135E-36
  -11.0200005      -1.31828680E-36
  -11.0100002      -6.33651076E-36
  -11.0000000      -1.18679887E-35
  -10.9899998      -1.79500183E-35
  -10.9799995      -2.46223621E-35
  -10.9700003      -3.19272416E-35
  -10.9600000      -3.99097006E-35
  -10.9499998      -4.86176084E-35
  -10.9399996      -5.81019479E-35
  -10.9300003      -6.84169166E-35
  -10.9200001      -7.96202559E-35
  -10.9099998      -9.17734039E-35
  -10.8999996      -1.04941719E-34
  -10.8900003      -1.19194817E-34
  -10.8800001      -1.34606673E-34
  -10.8699999      -1.51256162E-34
  -10.8599997      -1.69227255E-34
  -10.8500004      -1.88609079E-34
  -10.8400002      -2.09496764E-34
  -10.8299999      -2.31991387E-34
  -10.8199997      -2.56200647E-34
  -10.8100004      -2.82239018E-34
  -10.8000002      -3.10228479E-34
  -10.7900000      -3.40298819E-34
  -10.7799997      -3.72588569E-34
  -10.7700005      -4.07243727E-34
  -10.7600002      -4.44420986E-34
  -10.7500000      -4.84286913E-34
  -10.7399998      -5.27017923E-34
  -10.7299995      -5.72802234E-34
  -10.7200003      -6.21839634E-34
  -10.7100000      -6.74343778E-34
  -10.6999998      -7.30540030E-34
  -10.6899996      -7.90669000E-34
  -10.6800003      -8.54986816E-34
  -10.6700001      -9.23764899E-34
  -10.6599998      -9.97292621E-34
  -10.6499996      -1.07587552E-33
  -10.6400003      -1.15983925E-33
  -10.6300001      -1.24953066E-33
  -10.6199999      -1.34531692E-33
  -10.6099997      -1.44758832E-33
  -10.6000004      -1.55675731E-33
  -10.5900002      -1.67326221E-33
  -10.5799999      -1.79757147E-33
  -10.5699997      -1.93017679E-33
  -10.5600004      -2.07160088E-33
  -10.5500002      -2.22239697E-33
  -10.5400000      -2.38315555E-33
  -10.5299997      -2.55449763E-33
  -10.5200005      -2.73708000E-33
  -10.5100002      -2.93160246E-33
  -10.5000000      -3.13880281E-33
  -10.4899998      -3.35945853E-33
  -10.4799995      -3.59440091E-33
  -10.4700003      -3.84449652E-33
  -10.4600000      -4.11066444E-33
  -10.4499998      -4.39388217E-33
  -10.4399996      -4.69518305E-33
  -10.4300003      -5.01564374E-33
  -10.4200001      -5.35640927E-33
  -10.4099998      -5.71869002E-33
  -10.3999996      -6.10376066E-33
  -10.3900003      -6.51296457E-33
  -10.3800001      -6.94770132E-33
  -10.3699999      -7.40947517E-33
  -10.3599997      -7.89984513E-33
  -10.3500004      -8.42045615E-33
  -10.3400002      -8.97304503E-33
  -10.3299999      -9.55945067E-33
  -10.3199997      -1.01815590E-32
  -10.3100004      -1.08413941E-32
  -10.3000002      -1.15410829E-32
  -10.2900000      -1.22828228E-32
  -10.2799997      -1.30689508E-32
  -10.2700005      -1.39019075E-32
  -10.2600002      -1.47842277E-32
  -10.2500000      -1.57185973E-32
  -10.2399998      -1.67078258E-32
  -10.2299995      -1.77548503E-32
  -10.2200003      -1.88627361E-32
  -10.2100000      -2.00346981E-32
  -10.1999998      -2.12740733E-32
  -10.1899996      -2.25843850E-32
  -10.1800003      -2.39692731E-32
  -10.1700001      -2.54325697E-32
  -10.1599998      -2.69782360E-32
  -10.1499996      -2.86104481E-32
  -10.1400003      -3.03335083E-32
  -10.1300001      -3.21519305E-32
  -10.1199999      -3.40704137E-32
  -10.1099997      -3.60938273E-32
  -10.1000004      -3.82272644E-32
  -10.0900002      -4.04759557E-32
  -10.0799999      -4.28453761E-32
  -10.0699997      -4.53412445E-32
  -10.0600004      -4.79694412E-32
  -10.0500002      -5.07361053E-32
  -10.0400000      -5.36474874E-32
  -10.0299997      -5.67101028E-32
  -10.0200005      -5.99308691E-32
  -10.0100002      -6.33167631E-32
  -10.0000000      -6.68751079E-32
  -9.98999977      -7.06133210E-32
  -9.97999954      -7.45391900E-32
  -9.97000027      -7.86607612E-32
  -9.96000004      -8.29861220E-32
  -9.94999981      -8.75238769E-32
  -9.93999958      -9.22826483E-32
  -9.93000031      -9.72715639E-32
  -9.92000008      -1.02499863E-31
  -9.90999985      -1.07976997E-31
  -9.89999962      -1.13712669E-31
  -9.89000034      -1.19716765E-31
  -9.88000011      -1.25999641E-31
  -9.86999989      -1.32571900E-31
  -9.85999966      -1.39444158E-31
  -9.85000038      -1.46627180E-31
  -9.84000015      -1.54132465E-31
  -9.82999992      -1.61971496E-31
  -9.81999969      -1.70155382E-31
  -9.81000042      -1.78696394E-31
  -9.80000019      -1.87606571E-31
  -9.78999996      -1.96898325E-31
  -9.77999973      -2.06583752E-31
  -9.77000046      -2.16675700E-31
  -9.76000023      -2.27186665E-31
  -9.75000000      -2.38129765E-31
  -9.73999977      -2.49517837E-31
  -9.72999954      -2.61363763E-31
  -9.72000027      -2.73681087E-31
  -9.71000004      -2.86483208E-31
  -9.69999981      -2.99782962E-31
  -9.68999958      -3.13593916E-31
  -9.68000031      -3.27928835E-31
  -9.67000008      -3.42801448E-31
  -9.65999985      -3.58224756E-31
  -9.64999962      -3.74211738E-31
  -9.64000034      -3.90775300E-31
  -9.63000011      -4.07927526E-31
  -9.61999989      -4.25681205E-31
  -9.60999966      -4.44048916E-31
  -9.60000038      -4.63042224E-31
  -9.59000015      -4.82671475E-31
  -9.57999992      -5.02948565E-31
  -9.56999969      -5.23883743E-31
  -9.56000042      -5.45487354E-31
  -9.55000019      -5.67768332E-31
  -9.53999996      -5.90735940E-31
  -9.52999973      -6.14397560E-31
  -9.52000046      -6.38760997E-31
  -9.51000023      -6.63831188E-31
  -9.50000000      -6.89614669E-31
  -9.48999977      -7.16114591E-31
  -9.47999954      -7.43333586E-31
  -9.47000027      -7.71274804E-31
  -9.46000004      -7.99938482E-31
  -9.44999981      -8.29323302E-31
  -9.43999958      -8.59425267E-31
  -9.43000031      -8.90241651E-31
  -9.42000008      -9.21768879E-31
  -9.40999985      -9.53994916E-31
  -9.39999962      -9.86913084E-31
  -9.39000034      -1.02051022E-30
  -9.38000011      -1.05477221E-30
  -9.36999989      -1.08968213E-30
  -9.35999966      -1.12522231E-30
  -9.35000038      -1.16136782E-30
  -9.34000015      -1.19809506E-30
  -9.32999992      -1.23537798E-30
  -9.31999969      -1.27318386E-30
  -9.31000042      -1.31147977E-30
  -9.30000019      -1.35022989E-30
  -9.28999996      -1.38938975E-30
  -9.27999973      -1.42891419E-30
  -9.27000046      -1.46875602E-30
  -9.26000023      -1.50885891E-30
  -9.25000000      -1.54916727E-30
  -9.23999977      -1.58961650E-30
  -9.22999954      -1.63014096E-30
  -9.22000027      -1.67066900E-30
  -9.21000004      -1.71111954E-30
  -9.19999981      -1.75140985E-30
  -9.18999958      -1.79144963E-30
  -9.18000031      -1.83114447E-30
  -9.17000008      -1.87039677E-30
  -9.15999985      -1.90909273E-30
  -9.14999962      -1.94712552E-30
  -9.14000034      -1.98436461E-30
  -9.13000011      -2.02068626E-30
  -9.11999989      -2.05594827E-30
  -9.10999966      -2.09001316E-30
  -9.10000038      -2.12272500E-30
  -9.09000015      -2.15392526E-30
  -9.07999992      -2.18344276E-30
  -9.06999969      -2.21109980E-30
  -9.06000042      -2.23670883E-30
  -9.05000019      -2.26007183E-30
  -9.03999996      -2.28098209E-30
  -9.02999973      -2.29922877E-30
  -9.02000046      -2.31457791E-30
  -9.01000023      -2.32679534E-30
  -9.00000000      -2.33563411E-30
  -8.98999977      -2.34082792E-30
  -8.97999954      -2.34211137E-30
  -8.97000027      -2.33920103E-30
  -8.96000004      -2.33180219E-30
  -8.94999981      -2.31960394E-30
  -8.93999958      -2.30228637E-30
  -8.93000031      -2.27950792E-30
  -8.92000008      -2.25094304E-30
  -8.90999985      -2.21621837E-30
  -8.89999962      -2.17496115E-30
  -8.89000034      -2.12678713E-30
  -8.88000011      -2.07128763E-30
  -8.86999989      -2.00806333E-30
  -8.85999966      -1.93667077E-30
  -8.85000038      -1.85667076E-30
  -8.84000015      -1.76759537E-30
  -8.82999992      -1.66897779E-30
  -8.81999969      -1.56032158E-30
  -8.81000042      -1.44111630E-30
  -8.80000019      -1.31084613E-30
  -8.78999996      -1.16895973E-30
  -8.77999973      -1.01491599E-30
  -8.77000046      -8.48134691E-31
  -8.76000023      -6.68045571E-31
  -8.75000000      -4.74031168E-31
  -8.73999977      -2.65480345E-31
  -8.72999954      -4.17452427E-32
  -8.72000027       1.97806570E-31
  -8.71000004       4.53861895E-31
  -8.69999981       7.27090511E-31
  -8.68999958       1.01819666E-30
  -8.68000031       1.32788657E-30
  -8.67000008       1.65690537E-30
  -8.65999985       2.00598957E-30
  -8.64999962       2.37590598E-30
  -8.64000034       2.76742836E-30
  -8.63000011       3.18133873E-30
  -8.61999989       3.61845072E-30
  -8.60999966       4.07957289E-30
  -8.60000038       4.56554332E-30
  -8.59000015       5.07720009E-30
  -8.57999992       5.61539407E-30
  -8.56999969       6.18099718E-30
  -8.56000042       6.77487762E-30
  -8.55000019       7.39793176E-30
  -8.53999996       8.05104319E-30
  -8.52999973       8.73511695E-30
  -8.52000046       9.45106260E-30
  -8.51000023       1.01997957E-29
  -8.50000000       1.09822318E-29
  -8.48999977       1.17992963E-29
  -8.47999954       1.26519138E-29
  -8.47000027       1.35410088E-29
  -8.46000004       1.44675090E-29
  -8.44999981       1.54323412E-29
  -8.43999958       1.64364188E-29
  -8.43000031       1.74806399E-29
  -8.42000008       1.85659451E-29
  -8.40999985       1.96932085E-29
  -8.39999962       2.08633207E-29
  -8.39000034       2.20771531E-29
  -8.38000011       2.33355678E-29
  -8.36999989       2.46394163E-29
  -8.35999966       2.59894917E-29
  -8.35000038       2.73866034E-29
  -8.34000015       2.88315324E-29
  -8.32999992       3.03250309E-29
  -8.31999969       3.18678332E-29
  -8.31000042       3.34605802E-29
  -8.30000019       3.51039311E-29
  -8.28999996       3.67984816E-29
  -8.27999973       3.85447795E-29
  -8.27000046       4.03433784E-29
  -8.26000023       4.21946846E-29
  -8.25000000       4.40991223E-29
  -8.23999977       4.60570769E-29
  -8.22999954       4.80688672E-29
  -8.22000027       5.01346828E-29
  -8.21000004       5.22547104E-29
  -8.19999981       5.44288988E-29
  -8.18999958       5.66574284E-29
  -8.18000031       5.89401369E-29
  -8.17000008       6.12767894E-29
  -8.15999985       6.36672356E-29
  -8.14999962       6.61111143E-29
  -8.14000034       6.86077515E-29
  -8.13000011       7.11568823E-29
  -8.11999989       7.37575497E-29
  -8.10999966       7.64090738E-29
  -8.10000038       7.91104132E-29
  -8.09000015       8.18605750E-29
  -8.07999992       8.46584396E-29
  -8.06999969       8.75026168E-29
  -8.06000042       9.03915840E-29
  -8.05000019       9.33236257E-29
  -8.03999996       9.62969787E-29
  -8.02999973       9.93096748E-29
  -8.02000046       1.02359541E-28
  -8.01000023       1.05444111E-28
  -8.00000000       1.08560891E-28
  -7.98999977       1.11707211E-28
  -7.98000002       1.14879964E-28
  -7.96999979       1.18076309E-28
  -7.96000004       1.21292552E-28
  -7.94999981       1.24525238E-28
  -7.94000006       1.27770502E-28
  -7.92999983       1.31024445E-28
  -7.92000008       1.34282264E-28
  -7.90999985       1.37539637E-28
  -7.90000010       1.40791702E-28
  -7.88999987       1.44033415E-28
  -7.88000011       1.47259083E-28
  -7.86999989       1.50463096E-28
  -7.86000013       1.53639472E-28
  -7.84999990       1.56782048E-28
  -7.84000015       1.59883831E-28
  -7.82999992       1.62938211E-28
  -7.82000017       1.65937739E-28
  -7.80999994       1.68875059E-28
  -7.80000019       1.71741914E-28
  -7.78999996       1.74530095E-28
  -7.78000021       1.77230586E-28
  -7.76999998       1.79834852E-28
  -7.76000023       1.82332976E-28
  -7.75000000       1.84715231E-28
  -7.73999977       1.86971253E-28
  -7.73000002       1.89090920E-28
  -7.71999979       1.91063228E-28
  -7.71000004       1.92876816E-28
  -7.69999981       1.94518732E-28
  -7.69000006       1.95977371E-28
  -7.67999983       1.97240203E-28
  -7.67000008       1.98293567E-28
  -7.65999985       1.99124605E-28
  -7.65000010       1.99718815E-28
  -7.63999987       2.00061775E-28
  -7.63000011       2.00138788E-28
  -7.61999989       1.99933508E-28
  -7.61000013       1.99431153E-28
  -7.59999990       1.98614294E-28
  -7.59000015       1.97466909E-28
  -7.57999992       1.95971389E-28
  -7.57000017       1.94109989E-28
  -7.55999994       1.91864824E-28
  -7.55000019       1.89215744E-28
  -7.53999996       1.86145125E-28
  -7.53000021       1.82632843E-28
  -7.51999998       1.78658614E-28
  -7.51000023       1.74201314E-28
  -7.50000000       1.69240263E-28
  -7.48999977       1.63753554E-28
  -7.48000002       1.57719326E-28
  -7.46999979       1.51116155E-28
  -7.46000004       1.43919990E-28
  -7.44999981       1.36107744E-28
  -7.44000006       1.27655512E-28