  -16.0000000       0.00000000    
  -15.9899998       0.00000000    
  -15.9799995       0.00000000    
  -15.9700003       0.00000000    
  -15.9600000       0.00000000    
  -15.9499998       0.00000000    
  -15.9399996       0.00000000    
  -15.9300003       0.00000000    
  -15.9200001       0.00000000    
  -15.9099998       0.00000000    
  -15.8999996       0.00000000    
  -15.8900003       0.00000000    
  -15.8800001       0.00000000    
  -15.8699999       0.00000000    
  -15.8599997       0.00000000    
  -15.8500004       0.00000000    
  -15.8400002       0.00000000    
  -15.8299999       0.00000000    
  -15.8199997       0.00000000    
  -15.8100004       0.00000000    
  -15.8000002       0.00000000    
  -15.7900000       0.00000000    
  -15.7799997       0.00000000    
  -15.7700005       0.00000000    
  -15.7600002       0.00000000    
  -15.7500000       0.00000000    
  -15.7399998       0.00000000    
  -15.7299995       0.00000000    
  -15.7200003       0.00000000    
  -15.7100000       0.00000000    
  -15.6999998       0.00000000    
  -15.6899996       0.00000000    
  -15.6800003       0.00000000    
  -15.6700001       0.00000000    
  -15.6599998       0.00000000    
  -15.6499996       0.00000000    
  -15.6400003       0.00000000    
  -15.6300001       0.00000000    
  -15.6199999       0.00000000    
  -15.6099997       0.00000000    
  -15.6000004       0.00000000    
  -15.5900002       0.00000000    
  -15.5799999       0.00000000    
  -15.5699997       0.00000000    
  -15.5600004       0.00000000    
  -15.5500002       0.00000000    
  -15.5400000       0.00000000    
  -15.5299997       0.00000000    
  -15.5200005       0.00000000    
  -15.5100002       0.00000000    
  -15.5000000       0.00000000    
  -15.4899998       0.00000000    
  -15.4799995       0.00000000    
  -15.4700003       0.00000000    
  -15.4600000       0.00000000    
  -15.4499998       0.00000000    
  -15.4399996       0.00000000    
  -15.4300003       0.00000000    
  -15.4200001       0.00000000    
  -15.4099998       0.00000000    
  -15.3999996       0.00000000    
  -15.3900003       0.00000000    
  -15.3800001       0.00000000    
  -15.3699999       0.00000000    
  -15.3599997       0.00000000    
  -15.3500004       0.00000000    
  -15.3400002       0.00000000    
  -15.3299999       0.00000000    
  -15.3199997       0.00000000    
  -15.3100004       0.00000000    
  -15.3000002       0.00000000    
  -15.2900000       0.00000000    
  -15.2799997       0.00000000    
  -15.2700005       0.00000000    
  -15.2600002       0.00000000    
  -15.2500000       0.00000000    
  -15.2399998       0.00000000    
  -15.2299995       0.00000000    
  -15.2200003       0.00000000    
  -15.2100000       0.00000000    
  -15.1999998       0.00000000    
  -15.1899996       0.00000000    
  -15.1800003       0.00000000    
  -15.1700001       0.00000000    
  -15.1599998       0.00000000    
  -15.1499996       0.00000000    
  -15.1400003       0.00000000    
  -15.1300001       0.00000000    
  -15.1199999       0.00000000    
  -15.1099997       0.00000000    
  -15.1000004       0.00000000    
  -15.0900002       0.00000000    
  -15.0799999       0.00000000    
  -15.0699997       0.00000000    
  -15.0600004       0.00000000    
  -15.0500002       0.00000000    
  -15.0400000       0.00000000    
  -15.0299997       0.00000000    
  -15.0200005       0.00000000    
  -15.0100002       0.00000000    
  -15.0000000       0.00000000    
  -14.9899998       0.00000000    
  -14.9799995       0.00000000    
  -14.9700003       0.00000000    
  -14.9600000       0.00000000    
  -14.9499998       0.00000000    
  -14.9399996       0.00000000    
  -14.9300003       0.00000000    
  -14.9200001       0.00000000    
  -14.9099998       0.00000000    
  -14.8999996       0.00000000    
  -14.8900003       0.00000000    
  -14.8800001       0.00000000    
  -14.8699999       0.00000000    
  -14.8599997       0.00000000    
  -14.8500004       0.00000000    
  -14.8400002       0.00000000    
  -14.8299999       0.00000000    
  -14.8199997       0.00000000    
  -14.8100004       0.00000000    
  -14.8000002       0.00000000    
  -14.7900000       0.00000000    
  -14.7799997       0.00000000    
  -14.7700005       0.00000000    
  -14.7600002       0.00000000    
  -14.7500000       0.00000000    
  -14.7399998       0.00000000    
  -14.7299995       0.00000000    
  -14.7200003       0.00000000    
  -14.7100000       0.00000000    
  -14.6999998       0.00000000    
  -14.6899996       0.00000000    
  -14.6800003       0.00000000    
  -14.6700001       0.00000000    
  -14.6599998       0.00000000    
  -14.6499996       0.00000000    
  -14.6400003       0.00000000    
  -14.6300001       0.00000000    
  -14.6199999       0.00000000    
  -14.6099997       0.00000000    
  -14.6000004       0.00000000    
  -14.5900002       0.00000000    
  -14.5799999       0.00000000    
  -14.5699997       0.00000000    
  -14.5600004       0.00000000    
  -14.5500002       0.00000000    
  -14.5400000       0.00000000    
  -14.5299997       0.00000000    
  -14.5200005       0.00000000    
  -14.5100002       0.00000000    
  -14.5000000       0.00000000    
  -14.4899998       0.00000000    
  -14.4799995       0.00000000    
  -14.4700003       0.00000000    
  -14.4600000       0.00000000    
  -14.4499998       0.00000000    
  -14.4399996       0.00000000    
  -14.4300003       0.00000000    
  -14.4200001       0.00000000    
  -14.4099998       0.00000000    
  -14.3999996       0.00000000    
  -14.3900003       0.00000000    
  -14.3800001       0.00000000    
  -14.3699999       0.00000000    
  -14.3599997       0.00000000    
  -14.3500004       0.00000000    
  -14.3400002       0.00000000    
  -14.3299999       0.00000000    
  -14.3199997       0.00000000    
  -14.3100004       0.00000000    
  -14.3000002       0.00000000    
  -14.2900000       0.00000000    
  -14.2799997       0.00000000    
  -14.2700005       0.00000000    
  -14.2600002       0.00000000    
  -14.2500000       0.00000000    
  -14.2399998       0.00000000    
  -14.2299995       0.00000000    
  -14.2200003       0.00000000    
  -14.2100000       0.00000000    
  -14.1999998       0.00000000    
  -14.1899996       0.00000000    
  -14.1800003       0.00000000    
  -14.1700001       0.00000000    
  -14.1599998       0.00000000    
  -14.1499996       0.00000000    
  -14.1400003       0.00000000    
  -14.1300001       0.00000000    
  -14.1199999       0.00000000    
  -14.1099997       0.00000000    
  -14.1000004       0.00000000    
  -14.0900002       0.00000000    
  -14.0799999       0.00000000    
  -14.0699997       0.00000000    
  -14.0600004       0.00000000    
  -14.0500002       0.00000000    
  -14.0400000       0.00000000    
  -14.0299997       0.00000000    
  -14.0200005       0.00000000    
  -14.0100002       0.00000000    
  -14.0000000       0.00000000    
  -13.9899998       0.00000000    
  -13.9799995       0.00000000    
  -13.9700003       0.00000000    
  -13.9600000       0.00000000    
  -13.9499998       0.00000000    
  -13.9399996       0.00000000    
  -13.9300003       0.00000000    
  -13.9200001       0.00000000    
  -13.9099998       0.00000000    
  -13.8999996       0.00000000    
  -13.8900003       0.00000000    
  -13.8800001       0.00000000    
  -13.8699999       0.00000000    
  -13.8599997       0.00000000    
  -13.8500004       0.00000000    
  -13.8400002       0.00000000    
  -13.8299999       0.00000000    
  -13.8199997       0.00000000    
  -13.8100004       0.00000000    
  -13.8000002       0.00000000    
  -13.7900000       0.00000000    
  -13.7799997       0.00000000    
  -13.7700005       0.00000000    
  -13.7600002       0.00000000    
  -13.7500000       0.00000000    
  -13.7399998       0.00000000    
  -13.7299995       0.00000000    
  -13.7200003       0.00000000    
  -13.7100000       0.00000000    
  -13.6999998       0.00000000    
  -13.6899996       0.00000000    
  -13.6800003       0.00000000    
  -13.6700001       0.00000000    
  -13.6599998       0.00000000    
  -13.6499996       0.00000000    
  -13.6400003       0.00000000    
  -13.6300001       0.00000000    
  -13.6199999       0.00000000    
  -13.6099997       0.00000000    
  -13.6000004       0.00000000    
  -13.5900002       0.00000000    
  -13.5799999       0.00000000    
  -13.5699997       0.00000000    
  -13.5600004       0.00000000    
  -13.5500002       0.00000000    
  -13.5400000       0.00000000    
  -13.5299997       0.00000000    
  -13.5200005       0.00000000    
  -13.5100002       0.00000000    
  -13.5000000       0.00000000    
  -13.4899998       0.00000000    
  -13.4799995       0.00000000    
  -13.4700003       0.00000000    
  -13.4600000       0.00000000    
  -13.4499998       0.00000000    
  -13.4399996       0.00000000    
  -13.4300003       0.00000000    
  -13.4200001       0.00000000    
  -13.4099998       0.00000000    
  -13.3999996       0.00000000    
  -13.3900003       0.00000000    
  -13.3800001       0.00000000    
  -13.3699999       0.00000000    
  -13.3599997       0.00000000    
  -13.3500004       0.00000000    
  -13.3400002       0.00000000    
  -13.3299999       0.00000000    
  -13.3199997       0.00000000    
  -13.3100004       0.00000000    
  -13.3000002       0.00000000    
  -13.2900000       0.00000000    
  -13.2799997       0.00000000    
  -13.2700005       0.00000000    
  -13.2600002       0.00000000    
  -13.2500000       0.00000000    
  -13.2399998       0.00000000    
  -13.2299995       0.00000000    
  -13.2200003       0.00000000    
  -13.2100000       0.00000000    
  -13.1999998       0.00000000    
  -13.1899996       0.00000000    
  -13.1800003       0.00000000    
  -13.1700001       0.00000000    
  -13.1599998       0.00000000    
  -13.1499996       0.00000000    
  -13.1400003       0.00000000    
  -13.1300001       0.00000000    
  -13.1199999       0.00000000    
  -13.1099997       0.00000000    
  -13.1000004       0.00000000    
  -13.0900002       0.00000000    
  -13.0799999       0.00000000    
  -13.0699997       0.00000000    
  -13.0600004       0.00000000    
  -13.0500002       0.00000000    
  -13.0400000       0.00000000    
  -13.0299997       0.00000000    
  -13.0200005       0.00000000    
  -13.0100002       0.00000000    
  -13.0000000       0.00000000    
  -12.9899998       0.00000000    
  -12.9799995       0.00000000    
  -12.9700003       0.00000000    
  -12.9600000       0.00000000    
  -12.9499998       0.00000000    
  -12.9399996       0.00000000    
  -12.9300003       0.00000000    
  -12.9200001       0.00000000    
  -12.9099998       0.00000000    
  -12.8999996       0.00000000    
  -12.8900003       0.00000000    
  -12.8800001       0.00000000    
  -12.8699999       0.00000000    
  -12.8599997      -0.00000000    
  -12.8500004       0.00000000    
  -12.8400002       0.00000000    
  -12.8299999      -0.00000000    
  -12.8199997      -0.00000000    
  -12.8100004      -0.00000000    
  -12.8000002      -0.00000000    
  -12.7900000       0.00000000    
  -12.7799997       0.00000000    
  -12.7700005      -0.00000000    
  -12.7600002       0.00000000    
  -12.7500000      -0.00000000    
  -12.7399998      -1.40129846E-45
  -12.7299995       0.00000000    
  -12.7200003      -1.40129846E-45
  -12.7100000      -1.40129846E-45
  -12.6999998      -1.40129846E-45
  -12.6899996      -1.40129846E-45
  -12.6800003      -2.80259693E-45
  -12.6700001      -1.40129846E-45
  -12.6599998      -2.80259693E-45
  -12.6499996      -4.20389539E-45
  -12.6400003      -2.80259693E-45
  -12.6300001      -2.80259693E-45
  -12.6199999      -2.80259693E-45
  -12.6099997      -0.00000000    
  -12.6000004      -1.40129846E-45
  -12.5900002      -5.60519386E-45
  -12.5799999      -1.12103877E-44
  -12.5699997      -1.54142831E-44
  -12.5600004      -1.40129846E-44
  -12.5500002      -9.80908925E-45
  -12.5400000      -1.40129846E-45
  -12.5299997       7.00649232E-45
  -12.5200005       1.26116862E-44
  -12.5100002       1.12103877E-44
  -12.5000000       1.12103877E-44
  -12.4899998       1.54142831E-44
  -12.4799995       2.38220739E-44
  -12.4700003       2.94272678E-44
  -12.4600000       2.80259693E-44
  -12.4499998       2.66246708E-44
  -12.4399996       3.36311631E-44
  -12.4300003       3.92363570E-44
  -12.4200001       4.62428493E-44
  -12.4099998       6.16571324E-44
  -12.3999996       7.28675201E-44
  -12.3900003       8.82818033E-44
  -12.3800001       1.12103877E-43
  -12.3699999       1.40129846E-43
  -12.3599997       1.87773994E-43
  -12.3500004       2.55036321E-43
  -12.3400002       3.32107736E-43
  -12.3299999       4.24593435E-43
  -12.3199997       5.32493416E-43
  -12.3100004       6.64215472E-43
  -12.3000002       8.28167392E-43
  -12.2900000       1.03135567E-42
  -12.2799997       1.28358939E-42
  -12.2700005       1.59327635E-42
  -12.2600002       1.96602175E-42
  -12.2500000       2.42424634E-42
  -12.2399998       2.98196313E-42
  -12.2299995       3.65318510E-42
  -12.2200003       4.45612912E-42
  -12.2100000       5.41181467E-42
  -12.1999998       6.55667551E-42
  -12.1899996       7.93134931E-42
  -12.1800003       9.56246072E-42
  -12.1700001       1.14878448E-41
  -12.1599998       1.37761652E-41
  -12.1499996       1.64960855E-41
  -12.1400003       1.97106642E-41
  -12.1300001       2.34927688E-41
  -12.1199999       2.79517005E-41
  -12.1099997       3.31897541E-41
  -12.1000004       3.93372505E-41
  -12.0900002       4.65343194E-41
  -12.0799999       5.49280972E-41
  -12.0699997       6.47161670E-41
  -12.0600004       7.61227365E-41
  -12.0500002       8.93818225E-41
  -12.0400000       1.04769481E-40
  -12.0299997       1.22593997E-40
  -12.0200005       1.43204295E-40
  -12.0100002       1.67006751E-40
  -12.0000000       1.94456787E-40
  -11.9899998       2.26063073E-40
  -11.9799995       2.62404348E-40
  -11.9700003       3.04122404E-40
  -11.9600000       3.51943116E-40
  -11.9499998       4.06690446E-40
  -11.9399996       4.69269632E-40
  -11.9300003       5.40691012E-40
  -11.9200001       6.22107855E-40
  -11.9099998       7.14809353E-40
  -11.8999996       8.20203813E-40
  -11.8900003       9.39878906E-40
  -11.8800001       1.07560587E-39
  -11.8699999       1.22933672E-39
  -11.8599997       1.40323366E-39
  -11.8500004       1.59972513E-39
  -11.8400002       1.82146800E-39
  -11.8299999       2.07141761E-39
  -11.8199997       2.35282917E-39
  -11.8100004       2.66928160E-39
  -11.8000002       3.02473497E-39
  -11.7900000       3.42354731E-39
  -11.7799997       3.87049005E-39
  -11.7700005       4.37085170E-39
  -11.7600002       4.93039578E-39
  -11.7500000       5.55541413E-39
  -11.7399998       6.25285299E-39
  -11.7299995       7.03027376E-39
  -11.7200003       7.89592448E-39
  -11.7100000       8.85882252E-39
  -11.6999998       9.92879517E-39
  -11.6899996       1.11165386E-38
  -11.6800003       1.24336778E-38
  -11.6700001       1.38928836E-38
  -11.6599998       1.55078562E-38
  -11.6499996       1.72934678E-38
  -11.6400003       1.92658612E-38
  -11.6300001       2.14424519E-38
  -11.6199999       2.38420872E-38
  -11.6099997       2.64851099E-38
  -11.6000004       2.93934937E-38
  -11.5900002       3.25908840E-38
  -11.5799999       3.61027482E-38
  -11.5699997       3.99564507E-38
  -11.5600004       4.41814300E-38
  -11.5500002       4.88092602E-38
  -11.5400000       5.38738331E-38
  -11.5299997       5.94114227E-38
  -11.5200005       6.54608282E-38
  -11.5100002       7.20635504E-38
  -11.5000000       7.92638703E-38
  -11.4899998       8.71090005E-38
  -11.4799995       9.56493934E-38
  -11.4700003       1.04938489E-37
  -11.4600000       1.15033409E-37
  -11.4499998       1.25994736E-37
  -11.4399996       1.37886625E-37
  -11.4300003       1.50777327E-37
  -11.4200001       1.64739002E-37
  -11.4099998       1.79847947E-37
  -11.3999996       1.96184588E-37
  -11.3900003       2.13834334E-37
  -11.3800001       2.32886724E-37
  -11.3699999       2.53436486E-37
  -11.3599997       2.75582943E-37
  -11.3500004       2.99430711E-37
  -11.3400002       3.25089450E-37
  -11.3299999       3.52673955E-37
  -11.3199997       3.82304444E-37
  -11.3100004       4.14107328E-37
  -11.3000002       4.48213811E-37
  -11.2900000       4.84760976E-37
  -11.2799997       5.23892000E-37
  -11.2700005       5.65755354E-37
  -11.2600002       6.10505249E-37
  -11.2500000       6.58301813E-37
  -11.2399998       7.09311633E-37
  -11.2299995       7.63706049E-37
  -11.2200003       8.21662677E-37
  -11.2100000       8.83363306E-37
  -11.1999998       9.48996897E-37
  -11.1899996       1.01875618E-36
  -11.1800003       1.09284070E-36
  -11.1700001       1.17145171E-36
  -11.1599998       1.25479717E-36
  -11.1499996       1.34308938E-36
  -11.1400003       1.43654195E-36
  -11.1300001       1.53537363E-36
  -11.1199999       1.63980404E-36
  -11.1099997       1.75005506E-36
  -11.1000004       1.86635342E-36
  -11.0900002       1.98892259E-36
  -11.0799999       2.11798644E-36
  -11.0699997       2.25376935E-36
  -11.0600004       2.39649104E-36
  -11.0500002       2.54636890E-36
  -11.0400000       2.70361997E-36
  -11.0299997       2.86845105E-36
  -11.0200005       3.04106250E-36
  -11.0100002       3.22165162E-36
  -11.0000000       3.41039832E-36
  -10.9899998       3.60747658E-36
  -10.9799995       3.81304280E-36
  -10.9700003       4.02724479E-36
  -10.9600000       4.25020452E-36
  -10.9499998       4.48202709E-36
  -10.9399996       4.72280182E-36
  -10.9300003       4.97259006E-36
  -10.9200001       5.23142231E-36
  -10.9099998       5.49930466E-36
  -10.8999996       5.77621092E-36
  -10.8900003       6.06206899E-36
  -10.8800001       6.35678273E-36
  -10.8699999       6.66020721E-36
  -10.8599997       6.97214585E-36
  -10.8500004       7.29235972E-36
  -10.8400002       7.62054606E-36
  -10.8299999       7.95636049E-36
  -10.8199997       8.29937037E-36
  -10.8100004       8.64909931E-36
  -10.8000002       9.00499271E-36
  -10.7900000       9.36640055E-36
  -10.7799997       9.73261826E-36
  -10.7700005       1.01028244E-35
  -10.7600002       1.04761120E-35
  -10.7500000       1.08514810E-35
  -10.7399998       1.12278178E-35
  -10.7299995       1.16038827E-35
  -10.7200003       1.19783269E-35
  -10.7100000       1.23496644E-35
  -10.6999998       1.27162789E-35
  -10.6899996       1.30763960E-35
  -10.6800003       1.34280944E-35
  -10.6700001       1.37692690E-35
  -10.6599998       1.40976685E-35
  -10.6499996       1.44108461E-35
  -10.6400003       1.47061518E-35
  -10.6300001       1.49807198E-35
  -10.6199999       1.52315011E-35
  -10.6099997       1.54551721E-35
  -10.6000004       1.56481831E-35
  -10.5900002       1.58067543E-35
  -10.5799999       1.59267819E-35
  -10.5699997       1.60038950E-35
  -10.5600004       1.60334244E-35
  -10.5500002       1.60103837E-35
  -10.5400000       1.59294250E-35
  -10.5299997       1.57848501E-35
  -10.5200005       1.55705749E-35
  -10.5100002       1.52801452E-35
  -10.5000000       1.49066459E-35
  -10.4899998       1.44427317E-35
  -10.4799995       1.38805722E-35
  -10.4700003       1.32118304E-35
  -10.4600000       1.24276557E-35
  -10.4499998       1.15186350E-35
  -10.4399996       1.04747452E-35
  -10.4300003       9.28530837E-36
  -10.4200001       7.93902295E-36
  -10.4099998       6.42387430E-36
  -10.3999996       4.72706607E-36
  -10.3900003       2.83503244E-36
  -10.3800001       7.33336526E-37
  -10.3699999      -1.59332541E-36
  -10.3599997      -4.16125108E-36
  -10.3500004      -6.98771196E-36
  -10.3400002      -1.00911017E-35
  -10.3299999      -1.34909300E-35
  -10.3199997      -1.72079086E-35
  -10.3100004      -2.12640873E-35
  -10.3000002      -2.56828469E-35
  -10.2900000      -3.04890776E-35
  -10.2799997      -3.57092225E-35
  -10.2700005      -4.13713802E-35
  -10.2600002      -4.75054174E-35
  -10.2500000      -5.41430976E-35
  -10.2399998      -6.13181820E-35
  -10.2299995      -6.90665896E-35
  -10.2200003      -7.74265240E-35
  -10.2100000      -8.64386283E-35
  -10.1999998      -9.61460994E-35
  -10.1899996      -1.06594941E-34
  -10.1800003      -1.17834056E-34
  -10.1700001      -1.29915613E-34
  -10.1599998      -1.42894919E-34
  -10.1499996      -1.56831024E-34
  -10.1400003      -1.71786653E-34
  -10.1300001      -1.87828638E-34
  -10.1199999      -2.05028095E-34
  -10.1099997      -2.23460787E-34
  -10.1000004      -2.43207371E-34
  -10.0900002      -2.64353687E-34
  -10.0799999      -2.86990816E-34
  -10.0699997      -3.11216354E-34
  -10.0600004      -3.37133410E-34
  -10.0500002      -3.64852531E-34
  -10.0400000      -3.94490670E-34
  -10.0299997      -4.26172538E-34
  -10.0200005      -4.60031046E-34
  -10.0100002      -4.96207435E-34
  -10.0000000      -5.34852088E-34
  -9.98999977      -5.76124429E-34
  -9.97999954      -6.20194952E-34
  -9.97000027      -6.67243930E-34
  -9.96000004      -7.17463390E-34
  -9.94999981      -7.71058173E-34
  -9.93999958      -8.28244687E-34
  -9.93000031      -8.89253028E-34
  -9.92000008      -9.54328487E-34
  -9.90999985      -1.02373188E-33
  -9.89999962      -1.09773852E-33
  -9.89000034      -1.17664147E-33
  -9.88000011      -1.26075084E-33
  -9.86999989      -1.35039652E-33
  -9.85999966      -1.44592821E-33
  -9.85000038      -1.54771721E-33
  -9.84000015      -1.65615473E-33
  -9.82999992      -1.77165605E-33
  -9.81999969      -1.89466326E-33
  -9.81000042      -2.02564089E-33
  -9.80000019      -2.16508280E-33
  -9.78999996      -2.31351119E-33
  -9.77999973      -2.47147632E-33
  -9.77000046      -2.63956228E-33
  -9.76000023      -2.81838436E-33
  -9.75000000      -3.00859440E-33
  -9.73999977      -3.21087935E-33
  -9.72999954      -3.42596102E-33
  -9.72000027      -3.65460716E-33
  -9.71000004      -3.89762005E-33
  -9.69999981      -4.15584934E-33
  -9.68999958      -4.43019282E-33
  -9.68000031      -4.72158942E-33
  -9.67000008      -5.03103243E-33
  -9.65999985      -5.35956290E-33
  -9.64999962      -5.70828212E-33
  -9.64000034      -6.07833398E-33
  -9.63000011      -6.47093624E-33
  -9.61999989      -6.88735144E-33
  -9.60999966      -7.32891928E-33
  -9.60000038      -7.79704668E-33
  -9.59000015      -8.29318758E-33
  -9.57999992      -8.81888776E-33
  -9.56999969      -9.37575396E-33
  -9.56000042      -9.96546568E-33
  -9.55000019      -1.05898023E-32
  -9.53999996      -1.12505999E-32
  -9.52999973      -1.19497824E-32
  -9.52000046      -1.26893719E-32
  -9.51000023      -1.34714577E-32
  -9.50000000      -1.42982446E-32
  -9.48999977      -1.51720115E-32
  -9.47999954      -1.60951552E-32
  -9.47000027      -1.70701513E-32
  -9.46000004      -1.80995890E-32
  -9.44999981      -1.91861543E-32
  -9.43999958      -2.03326610E-32
  -9.43000031      -2.15420022E-32
  -9.42000008      -2.28172005E-32
  -9.40999985      -2.41613989E-32
  -9.39999962      -2.55778343E-32
  -9.39000034      -2.70699040E-32
  -9.38000011      -2.86410785E-32
  -9.36999989      -3.02949844E-32
  -9.35999966      -3.20353802E-32
  -9.35000038      -3.38661069E-32
  -9.34000015      -3.57911875E-32
  -9.32999992      -3.78146952E-32
  -9.31999969      -3.99409324E-32
  -9.31000042      -4.21742952E-32
  -9.30000019      -4.45193007E-32
  -9.28999996      -4.69805860E-32
  -9.27999973      -4.95629678E-32
  -9.27000046      -5.22713244E-32
  -9.26000023      -5.51106840E-32
  -9.25000000      -5.80863128E-32
  -9.23999977      -6.12034828E-32
  -9.22999954      -6.44676778E-32
  -9.22000027      -6.78843168E-32
  -9.21000004      -7.14592361E-32
  -9.19999981      -7.51981369E-32
  -9.18999958      -7.91070611E-32
  -9.18000031      -8.31919686E-32
  -9.17000008      -8.74589779E-32
  -9.15999985      -9.19144071E-32
  -9.14999962      -9.65644335E-32
  -9.14000034      -1.01415587E-31
  -9.13000011      -1.06474386E-31
  -9.11999989      -1.11747265E-31
  -9.10999966      -1.17240997E-31
  -9.10000038      -1.22962304E-31
  -9.09000015      -1.28917853E-31
  -9.07999992      -1.35114342E-31
  -9.06999969      -1.41558590E-31
  -9.06000042      -1.48257274E-31
  -9.05000019      -1.55217199E-31
  -9.03999996      -1.62445150E-31
  -9.02999973      -1.69947719E-31
  -9.02000046      -1.77731572E-31
  -9.01000023      -1.85803151E-31
  -9.00000000      -1.94168850E-31
  -8.98999977      -2.02835030E-31
  -8.97999954      -2.11807672E-31
  -8.97000027      -2.21092596E-31
  -8.96000004      -2.30695586E-31
  -8.94999981      -2.40622542E-31
  -8.93999958      -2.50878048E-31
  -8.93000031      -2.61467254E-31
  -8.92000008      -2.72394532E-31
  -8.90999985      -2.83664184E-31
  -8.89999962      -2.95280020E-31
  -8.89000034      -3.07245424E-31
  -8.88000011      -3.19563194E-31
  -8.86999989      -3.32235423E-31
  -8.85999966      -3.45263944E-31
  -8.85000038      -3.58649792E-31
  -8.84000015      -3.72393178E-31
  -8.82999992      -3.86493538E-31
  -8.81999969      -4.00950309E-31
  -8.81000042      -4.15760879E-31
  -8.80000019      -4.30922922E-31
  -8.78999996      -4.46431925E-31
  -8.77999973      -4.62282855E-31
  -8.77000046      -4.78470164E-31
  -8.76000023      -4.94986471E-31
  -8.75000000      -5.11823500E-31
  -8.73999977      -5.28971094E-31
  -8.72999954      -5.46418111E-31
  -8.72000027      -5.64151900E-31
  -8.71000004      -5.82158076E-31
  -8.69999981      -6.00421167E-31
  -8.68999958      -6.18922696E-31
  -8.68000031      -6.37644513E-31
  -8.67000008      -6.56564235E-31
  -8.65999985      -6.75659107E-31
  -8.64999962      -6.94903266E-31
  -8.64000034      -7.14268030E-31
  -8.63000011      -7.33725189E-31
  -8.61999989      -7.53240981E-31
  -8.60999966      -7.72780895E-31
  -8.60000038      -7.92306702E-31
  -8.59000015      -8.11778813E-31
  -8.57999992      -8.31151995E-31
  -8.56999969      -8.50381954E-31
  -8.56000042      -8.69418568E-31
  -8.55000019      -8.88209268E-31
  -8.53999996      -9.06697631E-31
  -8.52999973      -9.24823190E-31
  -8.52000046      -9.42523784E-31
  -8.51000023      -9.59732175E-31
  -8.50000000      -9.76377739E-31
  -8.48999977      -9.92385245E-31
  -8.47999954      -1.00767626E-30
  -8.47000027      -1.02216701E-30
  -8.46000004      -1.03576842E-30
  -8.44999981      -1.04838909E-30
  -8.43999958      -1.05993084E-30
  -8.43000031      -1.07029193E-30
  -8.42000008      -1.07936581E-30
  -8.40999985      -1.08704132E-30
  -8.39999962      -1.09319874E-30
  -8.39000034      -1.09771734E-30
  -8.38000011      -1.10046734E-30
  -8.36999989      -1.10131454E-30
  -8.35999966      -1.10011846E-30
  -8.35000038      -1.09673369E-30
  -8.34000015      -1.09100941E-30
  -8.32999992      -1.08278697E-30
  -8.31999969      -1.07190029E-30
  -8.31000042      -1.05817926E-30
  -8.30000019      -1.04144662E-30
  -8.28999996      -1.02151785E-30
  -8.27999973      -9.98200086E-31
  -8.27000046      -9.71296218E-31
  -8.26000023      -9.40600863E-31
  -8.25000000      -9.05902903E-31
  -8.23999977      -8.66984072E-31
  -8.22999954      -8.23615571E-31
  -8.22000027      -7.75563619E-31
  -8.21000004      -7.22588509E-31
  -8.19999981      -6.64440941E-31
  -8.18999958      -6.00864423E-31
  -8.18000031      -5.31594986E-31
  -8.17000008      -4.56363206E-31
  -8.15999985      -3.74890469E-31
  -8.14999962      -2.86890469E-31
  -8.14000034      -1.92069535E-31
  -8.13000011      -9.01270621E-32
  -8.11999989       1.92433348E-32
  -8.10999966       1.36359308E-31
  -8.10000038       2.61543214E-31
  -8.09000015       3.95123383E-31
  -8.07999992       5.37436534E-31
  -8.06999969       6.88828452E-31
  -8.06000042       8.49643931E-31
  -8.05000019       1.02024211E-30
  -8.03999996       1.20098499E-30
  -8.02999973       1.39224281E-30
  -8.02000046       1.59438769E-30
  -8.01000023       1.80779934E-30
  -8.00000000       2.03286344E-30
  -7.98999977       2.26996931E-30
  -7.98000002       2.51951058E-30
  -7.96999979       2.78188449E-30
  -7.96000004       3.05749334E-30
  -7.94999981       3.34674000E-30
  -7.94000006       3.65003334E-30
  -7.92999983       3.96778094E-30
  -7.92000008       4.30039393E-30
  -7.90999985       4.64828345E-30
  -7.90000010       5.01186104E-30
  -7.88999987       5.39153856E-30
  -7.88000011       5.78772530E-30
  -7.86999989       6.20082900E-30
  -7.86000013       6.63125440E-30
  -7.84999990       7.07940626E-30
  -7.84000015       7.54568067E-30
  -7.82999992       8.03046809E-30
  -7.82000017       8.53415820E-30
  -7.80999994       9.05712040E-30
  -7.80000019       9.59973010E-30
  -7.78999996       1.01623416E-29
  -7.78000021       1.07453063E-29
  -7.76999998       1.13489642E-29
  -7.76000023       1.19736441E-29
  -7.75000000       1.26196394E-29
  -7.73999977       1.32872540E-29
  -7.73000002       1.39767565E-29
  -7.71999979       1.46884087E-29
  -7.71000004       1.54224422E-29
  -7.69999981       1.61790679E-29
  -7.69000006       1.69584797E-29
  -7.67999983       1.77608462E-29
  -7.67000008       1.85862968E-29
  -7.65999985       1.94349337E-29
  -7.65000010       2.03068504E-29
  -7.63999987       2.12020813E-29
  -7.63000011       2.21206190E-29
  -7.61999989       2.30624484E-29
  -7.61000013       2.40274987E-29
  -7.59999990       2.50156708E-29
  -7.59000015       2.60268066E-29
  -7.57999992       2.70607180E-29
  -7.57000017       2.81171207E-29
  -7.55999994       2.91957588E-29
  -7.55000019       3.02962292E-29
  -7.53999996       3.14181526E-29
  -7.53000021       3.25610807E-29
  -7.51999998       3.37244718E-29
  -7.51000023       3.49077300E-29
  -7.50000000       3.61102145E-29
  -7.48999977       3.73312029E-29
  -7.48000002       3.85698467E-29
  -7.46999979       3.98253213E-29
  -7.46000004       4.10966728E-29
  -7.44999981       4.23828810E-29
  -7.44000006       4.36827904E-29