  -16.0000000       0.00000000    
  -15.9899998       0.00000000    
  -15.9799995       0.00000000    
  -15.9700003       0.00000000    
  -15.9600000       0.00000000    
  -15.9499998       0.00000000    
  -15.9399996       0.00000000    
  -15.9300003       0.00000000    
  -15.9200001       0.00000000    
  -15.9099998       0.00000000    
  -15.8999996       0.00000000    
  -15.8900003       0.00000000    
  -15.8800001       0.00000000    
  -15.8699999       0.00000000    
  -15.8599997       0.00000000    
  -15.8500004       0.00000000    
  -15.8400002       0.00000000    
  -15.8299999       0.00000000    
  -15.8199997       0.00000000    
  -15.8100004       0.00000000    
  -15.8000002       0.00000000    
  -15.7900000       0.00000000    
  -15.7799997       0.00000000    
  -15.7700005       0.00000000    
  -15.7600002       0.00000000    
  -15.7500000       0.00000000    
  -15.7399998       0.00000000    
  -15.7299995       0.00000000    
  -15.7200003       0.00000000    
  -15.7100000       0.00000000    
  -15.6999998       0.00000000    
  -15.6899996       0.00000000    
  -15.6800003       0.00000000    
  -15.6700001       0.00000000    
  -15.6599998       0.00000000    
  -15.6499996       0.00000000    
  -15.6400003       0.00000000    
  -15.6300001       0.00000000    
  -15.6199999       0.00000000    
  -15.6099997       0.00000000    
  -15.6000004       0.00000000    
  -15.5900002       0.00000000    
  -15.5799999       0.00000000    
  -15.5699997       0.00000000    
  -15.5600004       0.00000000    
  -15.5500002       0.00000000    
  -15.5400000       0.00000000    
  -15.5299997       0.00000000    
  -15.5200005       0.00000000    
  -15.5100002       0.00000000    
  -15.5000000       0.00000000    
  -15.4899998       0.00000000    
  -15.4799995       0.00000000    
  -15.4700003       0.00000000    
  -15.4600000       0.00000000    
  -15.4499998       0.00000000    
  -15.4399996       0.00000000    
  -15.4300003       0.00000000    
  -15.4200001       0.00000000    
  -15.4099998       0.00000000    
  -15.3999996       0.00000000    
  -15.3900003       0.00000000    
  -15.3800001       0.00000000    
  -15.3699999       0.00000000    
  -15.3599997       0.00000000    
  -15.3500004       0.00000000    
  -15.3400002       0.00000000    
  -15.3299999       0.00000000    
  -15.3199997       0.00000000    
  -15.3100004       0.00000000    
  -15.3000002       0.00000000    
  -15.2900000       0.00000000    
  -15.2799997       0.00000000    
  -15.2700005       0.00000000    
  -15.2600002       0.00000000    
  -15.2500000       0.00000000    
  -15.2399998       0.00000000    
  -15.2299995       0.00000000    
  -15.2200003       0.00000000    
  -15.2100000       0.00000000    
  -15.1999998       0.00000000    
  -15.1899996       0.00000000    
  -15.1800003       0.00000000    
  -15.1700001       0.00000000    
  -15.1599998       0.00000000    
  -15.1499996       0.00000000    
  -15.1400003       0.00000000    
  -15.1300001       0.00000000    
  -15.1199999       0.00000000    
  -15.1099997       0.00000000    
  -15.1000004       0.00000000    
  -15.0900002       0.00000000    
  -15.0799999       0.00000000    
  -15.0699997       0.00000000    
  -15.0600004       0.00000000    
  -15.0500002       0.00000000    
  -15.0400000       0.00000000    
  -15.0299997       0.00000000    
  -15.0200005       0.00000000    
  -15.0100002       0.00000000    
  -15.0000000       0.00000000    
  -14.9899998       0.00000000    
  -14.9799995       0.00000000    
  -14.9700003       0.00000000    
  -14.9600000       0.00000000    
  -14.9499998       0.00000000    
  -14.9399996       0.00000000    
  -14.9300003       0.00000000    
  -14.9200001       0.00000000    
  -14.9099998       0.00000000    
  -14.8999996       0.00000000    
  -14.8900003       0.00000000    
  -14.8800001       0.00000000    
  -14.8699999       0.00000000    
  -14.8599997       0.00000000    
  -14.8500004       0.00000000    
  -14.8400002       0.00000000    
  -14.8299999       0.00000000    
  -14.8199997       0.00000000    
  -14.8100004       0.00000000    
  -14.8000002       0.00000000    
  -14.7900000       0.00000000    
  -14.7799997       0.00000000    
  -14.7700005       0.00000000    
  -14.7600002       0.00000000    
  -14.7500000       0.00000000    
  -14.7399998       0.00000000    
  -14.7299995       0.00000000    
  -14.7200003       0.00000000    
  -14.7100000       0.00000000    
  -14.6999998       0.00000000    
  -14.6899996       0.00000000    
  -14.6800003       0.00000000    
  -14.6700001       0.00000000    
  -14.6599998       0.00000000    
  -14.6499996       0.00000000    
  -14.6400003       0.00000000    
  -14.6300001       0.00000000    
  -14.6199999       0.00000000    
  -14.6099997       0.00000000    
  -14.6000004       0.00000000    
  -14.5900002       0.00000000    
  -14.5799999       0.00000000    
  -14.5699997       0.00000000    
  -14.5600004       0.00000000    
  -14.5500002       0.00000000    
  -14.5400000       0.00000000    
  -14.5299997       0.00000000    
  -14.5200005       0.00000000    
  -14.5100002       0.00000000    
  -14.5000000       0.00000000    
  -14.4899998       0.00000000    
  -14.4799995       0.00000000    
  -14.4700003       0.00000000    
  -14.4600000       0.00000000    
  -14.4499998       0.00000000    
  -14.4399996       0.00000000    
  -14.4300003       0.00000000    
  -14.4200001       0.00000000    
  -14.4099998       0.00000000    
  -14.3999996       0.00000000    
  -14.3900003       0.00000000    
  -14.3800001       0.00000000    
  -14.3699999       0.00000000    
  -14.3599997       0.00000000    
  -14.3500004       0.00000000    
  -14.3400002       0.00000000    
  -14.3299999       0.00000000    
  -14.3199997       0.00000000    
  -14.3100004       0.00000000    
  -14.3000002       0.00000000    
  -14.2900000       0.00000000    
  -14.2799997       0.00000000    
  -14.2700005       0.00000000    
  -14.2600002       0.00000000    
  -14.2500000       0.00000000    
  -14.2399998       0.00000000    
  -14.2299995       0.00000000    
  -14.2200003       0.00000000    
  -14.2100000       0.00000000    
  -14.1999998       0.00000000    
  -14.1899996       0.00000000    
  -14.1800003       0.00000000    
  -14.1700001       0.00000000    
  -14.1599998       0.00000000    
  -14.1499996       0.00000000    
  -14.1400003       0.00000000    
  -14.1300001       0.00000000    
  -14.1199999       0.00000000    
  -14.1099997       0.00000000    
  -14.1000004       0.00000000    
  -14.0900002       0.00000000    
  -14.0799999       0.00000000    
  -14.0699997       0.00000000    
  -14.0600004       0.00000000    
  -14.0500002       0.00000000    
  -14.0400000       0.00000000    
  -14.0299997       0.00000000    
  -14.0200005       0.00000000    
  -14.0100002       0.00000000    
  -14.0000000       0.00000000    
  -13.9899998       0.00000000    
  -13.9799995       0.00000000    
  -13.9700003       0.00000000    
  -13.9600000       0.00000000    
  -13.9499998       0.00000000    
  -13.9399996       0.00000000    
  -13.9300003       0.00000000    
  -13.9200001       0.00000000    
  -13.9099998       0.00000000    
  -13.8999996       0.00000000    
  -13.8900003       0.00000000    
  -13.8800001       0.00000000    
  -13.8699999       0.00000000    
  -13.8599997       0.00000000    
  -13.8500004       0.00000000    
  -13.8400002      -0.00000000    
  -13.8299999      -0.00000000    
  -13.8199997      -0.00000000    
  -13.8100004      -0.00000000    
  -13.8000002       0.00000000    
  -13.7900000       0.00000000    
  -13.7799997       0.00000000    
  -13.7700005       0.00000000    
  -13.7600002       0.00000000    
  -13.7500000      -0.00000000    
  -13.7399998      -0.00000000    
  -13.7299995      -0.00000000    
  -13.7200003      -0.00000000    
  -13.7100000      -0.00000000    
  -13.6999998       0.00000000    
  -13.6899996       0.00000000    
  -13.6800003       0.00000000    
  -13.6700001       0.00000000    
  -13.6599998      -0.00000000    
  -13.6499996      -0.00000000    
  -13.6400003      -0.00000000    
  -13.6300001      -0.00000000    
  -13.6199999      -0.00000000    
  -13.6099997       0.00000000    
  -13.6000004       0.00000000    
  -13.5900002       0.00000000    
  -13.5799999       0.00000000    
  -13.5699997       0.00000000    
  -13.5600004      -0.00000000    
  -13.5500002      -0.00000000    
  -13.5400000      -1.40129846E-45
  -13.5299997      -1.40129846E-45
  -13.5200005      -1.40129846E-45
  -13.5100002      -1.40129846E-45
  -13.5000000      -2.80259693E-45
  -13.4899998      -1.40129846E-45
  -13.4799995      -1.40129846E-45
  -13.4700003      -1.40129846E-45
  -13.4600000      -4.20389539E-45
  -13.4499998      -2.80259693E-45
  -13.4399996       1.40129846E-45
  -13.4300003       4.20389539E-45
  -13.4200001       1.40129846E-45
  -13.4099998      -1.40129846E-45
  -13.3999996      -2.80259693E-45
  -13.3900003      -2.80259693E-45
  -13.3800001      -5.60519386E-45
  -13.3699999      -1.12103877E-44
  -13.3599997      -1.40129846E-44
  -13.3500004      -1.96181785E-44
  -13.3400002      -2.66246708E-44
  -13.3299999      -3.50324616E-44
  -13.3199997      -4.76441478E-44
  -13.3100004      -6.30584309E-44
  -13.3000002      -8.12753109E-44
  -13.2900000      -1.05097385E-43
  -13.2799997      -1.35925951E-43
  -13.2700005      -1.75162308E-43
  -13.2600002      -2.20003859E-43
  -13.2500000      -2.77457096E-43
  -13.2399998      -3.54528511E-43
  -13.2299995      -4.42810315E-43
  -13.2200003      -5.50710296E-43
  -13.2100000      -6.76827158E-43
  -13.1999998      -8.33772586E-43
  -13.1899996      -1.02575048E-42
  -13.1800003      -1.25416213E-42
  -13.1700001      -1.53161922E-42
  -13.1599998      -1.86092436E-42
  -13.1499996      -2.25749183E-42
  -13.1400003      -2.73113071E-42
  -13.1300001      -3.30426178E-42
  -13.1199999      -3.99089803E-42
  -13.1099997      -4.80084854E-42
  -13.1000004      -5.76494188E-42
  -13.0900002      -6.90700013E-42
  -13.0799999      -8.25645055E-42
  -13.0699997      -9.85252950E-42
  -13.0600004      -1.17386772E-41
  -13.0500002      -1.39681431E-41
  -13.0400000      -1.65955777E-41
  -13.0299997      -1.96784343E-41
  -13.0200005      -2.32923831E-41
  -13.0100002      -2.75215018E-41
  -13.0000000      -3.24722893E-41
  -12.9899998      -3.82456390E-41
  -12.9799995      -4.49774768E-41
  -12.9700003      -5.27995248E-41
  -12.9600000      -6.18869454E-41
  -12.9499998      -7.24359202E-41
  -12.9399996      -8.46552428E-41
  -12.9300003      -9.87887391E-41
  -12.9200001      -1.15112465E-40
  -12.9099998      -1.33938910E-40
  -12.8999996      -1.55614194E-40
  -12.8900003      -1.80547498E-40
  -12.8800001      -2.09190039E-40
  -12.8699999      -2.42047685E-40
  -12.8599997      -2.79686562E-40
  -12.8500004      -3.22745661E-40
  -12.8400002      -3.71945250E-40
  -12.8299999      -4.28100885E-40
  -12.8199997      -4.92119205E-40
  -12.8100004      -5.64993732E-40
  -12.8000002      -6.47853911E-40
  -12.7900000      -7.41966517E-40
  -12.7799997      -8.48725842E-40
  -12.7700005      -9.69687327E-40
  -12.7600002      -1.10658578E-39
  -12.7500000      -1.26134658E-39
  -12.7399998      -1.43611513E-39
  -12.7299995      -1.63324839E-39
  -12.7200003      -1.85535420E-39
  -12.7100000      -2.10533323E-39
  -12.6999998      -2.38638466E-39
  -12.6899996      -2.70203134E-39
  -12.6800003      -3.05617169E-39
  -12.6700001      -3.45309369E-39
  -12.6599998      -3.89748747E-39
  -12.6499996      -4.39453084E-39
  -12.6400003      -4.94991306E-39
  -12.6300001      -5.56986152E-39
  -12.6199999      -6.26121033E-39
  -12.6099997      -7.03142983E-39
  -12.6000004      -7.88868117E-39
  -12.5900002      -8.84189063E-39
  -12.5799999      -9.90080704E-39
  -12.5699997      -1.10760550E-38
  -12.5600004      -1.23792122E-38
  -12.5500002      -1.38228649E-38
  -12.5400000      -1.54207193E-38
  -12.5299997      -1.71876291E-38
  -12.5200005      -1.91397402E-38
  -12.5100002      -2.12945673E-38
  -12.5000000      -2.36710784E-38
  -12.4899998      -2.62897801E-38
  -12.4799995      -2.91728788E-38
  -12.4700003      -3.23443480E-38
  -12.4600000      -3.58300723E-38
  -12.4499998      -3.96579741E-38
  -12.4399996      -4.38581224E-38
  -12.4300003      -4.84628816E-38
  -12.4200001      -5.35070741E-38
  -12.4099998      -5.90281676E-38
  -12.3999996      -6.50662898E-38
  -12.3900003      -7.16645334E-38
  -12.3800001      -7.88691245E-38
  -12.3699999      -8.67295513E-38
  -12.3599997      -9.52986203E-38
  -12.3500004      -1.04633017E-37
  -12.3400002      -1.14793137E-37
  -12.3299999      -1.25843463E-37
  -12.3199997      -1.37852748E-37
  -12.3100004      -1.50894173E-37
  -12.3000002      -1.65045583E-37
  -12.2900000      -1.80390015E-37
  -12.2799997      -1.97015434E-37
  -12.2700005      -2.15015169E-37
  -12.2600002      -2.34488577E-37
  -12.2500000      -2.55540496E-37
  -12.2399998      -2.78282091E-37
  -12.2299995      -3.02830732E-37
  -12.2200003      -3.29310901E-37
  -12.2100000      -3.57853759E-37
  -12.1999998      -3.88597463E-37
  -12.1899996      -4.21687388E-37
  -12.1800003      -4.57277186E-37
  -12.1700001      -4.95528463E-37
  -12.1599998      -5.36610454E-37
  -12.1499996      -5.80701447E-37
  -12.1400003      -6.27987624E-37
  -12.1300001      -6.78664586E-37
  -12.1199999      -7.32936360E-37
  -12.1099997      -7.91017513E-37
  -12.1000004      -8.53131760E-37
  -12.0900002      -9.19510708E-37
  -12.0799999      -9.90398115E-37
  -12.0699997      -1.06604626E-36
  -12.0600004      -1.14671836E-36
  -12.0500002      -1.23268742E-36
  -12.0400000      -1.32423620E-36
  -12.0299997      -1.42165689E-36
  -12.0200005      -1.52525540E-36
  -12.0100002      -1.63534517E-36
  -12.0000000      -1.75224781E-36
  -11.9899998      -1.87629748E-36
  -11.9799995      -2.00783873E-36
  -11.9700003      -2.14722152E-36
  -11.9600000      -2.29481031E-36
  -11.9499998      -2.45097245E-36
  -11.9399996      -2.61609105E-36
  -11.9300003      -2.79055069E-36
  -11.9200001      -2.97474544E-36
  -11.9099998      -3.16907724E-36
  -11.8999996      -3.37395111E-36
  -11.8900003      -3.58978067E-36
  -11.8800001      -3.81697882E-36
  -11.8699999      -4.05596527E-36
  -11.8599997      -4.30715939E-36
  -11.8500004      -4.57098196E-36
  -11.8400002      -4.84785701E-36
  -11.8299999      -5.13819780E-36
  -11.8199997      -5.44242010E-36
  -11.8100004      -5.76093143E-36
  -11.8000002      -6.09413106E-36
  -11.7900000      -6.44240785E-36
  -11.7799997      -6.80613597E-36
  -11.7700005      -7.18568346E-36
  -11.7600002      -7.58139329E-36
  -11.7500000      -7.99358759E-36
  -11.7399998      -8.42256554E-36
  -11.7299995      -8.86861054E-36
  -11.7200003      -9.33195004E-36
  -11.7100000      -9.81279926E-36
  -11.6999998      -1.03113225E-35
  -11.6899996      -1.08276532E-35
  -11.6800003      -1.13618625E-35
  -11.6700001      -1.19139868E-35
  -11.6599998      -1.24839839E-35
  -11.6499996      -1.30717598E-35
  -11.6400003      -1.36771566E-35
  -11.6300001      -1.42999304E-35
  -11.6199999      -1.49397526E-35
  -11.6099997      -1.55962114E-35
  -11.6000004      -1.62688002E-35
  -11.5900002      -1.69569207E-35
  -11.5799999      -1.76598124E-35
  -11.5699997      -1.83766473E-35
  -11.5600004      -1.91064123E-35
  -11.5500002      -1.98480126E-35
  -11.5400000      -2.06001525E-35
  -11.5299997      -2.13613855E-35
  -11.5200005      -2.21301089E-35
  -11.5100002      -2.29044974E-35
  -11.5000000      -2.36825708E-35
  -11.4899998      -2.44620891E-35
  -11.4799995      -2.52406102E-35
  -11.4700003      -2.60153918E-35
  -11.4600000      -2.67834924E-35
  -11.4499998      -2.75416777E-35
  -11.4399996      -2.82863947E-35
  -11.4300003      -2.90138007E-35
  -11.4200001      -2.97196512E-35
  -11.4099998      -3.03994118E-35
  -11.3999996      -3.10481119E-35
  -11.3900003      -3.16604279E-35
  -11.3800001      -3.22305599E-35
  -11.3699999      -3.27522228E-35
  -11.3599997      -3.32186725E-35
  -11.3500004      -3.36226425E-35
  -11.3400002      -3.39563325E-35
  -11.3299999      -3.42112449E-35
  -11.3199997      -3.43784085E-35
  -11.3100004      -3.44480542E-35
  -11.3000002      -3.44097875E-35
  -11.2900000      -3.42524016E-35
  -11.2799997      -3.39639032E-35
  -11.2700005      -3.35314958E-35
  -11.2600002      -3.29414183E-35
  -11.2500000      -3.21789570E-35
  -11.2399998      -3.12283333E-35
  -11.2299995      -3.00728132E-35
  -11.2200003      -2.86944140E-35
  -11.2100000      -2.70739595E-35
  -11.1999998      -2.51909243E-35
  -11.1899996      -2.30234344E-35
  -11.1800003      -2.05481119E-35
  -11.1700001      -1.77400766E-35
  -11.1599998      -1.45727607E-35
  -11.1499996      -1.10178338E-35
  -11.1400003      -7.04504601E-36
  -11.1300001      -2.62218915E-36
  -11.1199999       2.28509458E-36
  -11.1099997       7.71338242E-36
  -11.1000004       1.37016881E-35
  -11.0900002       2.02915508E-35
  -11.0799999       2.75272308E-35
  -11.0699997       3.54558771E-35
  -11.0600004       4.41276734E-35
  -11.0500002       5.35961082E-35
  -11.0400000       6.39181080E-35
  -11.0299997       7.51542728E-35
  -11.0200005       8.73691514E-35
  -11.0100002       1.00631431E-34
  -11.0000000       1.15014201E-34
  -10.9899998       1.30595310E-34
  -10.9799995       1.47457559E-34
  -10.9700003       1.65688948E-34
  -10.9600000       1.85383254E-34
  -10.9499998       2.06640244E-34
  -10.9399996       2.29566034E-34
  -10.9300003       2.54273341E-34
  -10.9200001       2.80882217E-34
  -10.9099998       3.09520474E-34
  -10.8999996       3.40323339E-34
  -10.8900003       3.73435293E-34
  -10.8800001       4.09009632E-34
  -10.8699999       4.47209295E-34
  -10.8599997       4.88207140E-34
  -10.8500004       5.32187527E-34
  -10.8400002       5.79345926E-34
  -10.8299999       6.29889566E-34
  -10.8199997       6.84038943E-34
  -10.8100004       7.42028375E-34
  -10.8000002       8.04106186E-34
  -10.7900000       8.70535668E-34
  -10.7799997       9.41598066E-34
  -10.7700005       1.01758882E-33
  -10.7600002       1.09882365E-33
  -10.7500000       1.18563584E-33
  -10.7399998       1.27838004E-33
  -10.7299995       1.37743161E-33
  -10.7200003       1.48318854E-33
  -10.7100000       1.59607227E-33
  -10.6999998       1.71652756E-33
  -10.6899996       1.84503022E-33
  -10.6800003       1.98208019E-33
  -10.6700001       2.12820644E-33
  -10.6599998       2.28396918E-33
  -10.6499996       2.44996257E-33
  -10.6400003       2.62681147E-33
  -10.6300001       2.81517948E-33
  -10.6199999       3.01576859E-33
  -10.6099997       3.22931882E-33
  -10.6000004       3.45660946E-33
  -10.5900002       3.69846816E-33
  -10.5799999       3.95576514E-33
  -10.5699997       4.22942390E-33
  -10.5600004       4.52040908E-33
  -10.5500002       4.82974997E-33
  -10.5400000       5.15852031E-33
  -10.5299997       5.50785519E-33
  -10.5200005       5.87895324E-33
  -10.5100002       6.27307409E-33
  -10.5000000       6.69154420E-33
  -10.4899998       7.13576572E-33
  -10.4799995       7.60719847E-33
  -10.4700003       8.10738821E-33
  -10.4600000       8.63795861E-33
  -10.4499998       9.20062220E-33
  -10.4399996       9.79716134E-33
  -10.4300003       1.04294612E-32
  -10.4200001       1.10994871E-32
  -10.4099998       1.18093145E-32
  -10.3999996       1.25611210E-32
  -10.3900003       1.33571761E-32
  -10.3800001       1.41998748E-32
  -10.3699999       1.50917091E-32
  -10.3599997       1.60352931E-32
  -10.3500004       1.70333495E-32
  -10.3400002       1.80887480E-32
  -10.3299999       1.92044817E-32
  -10.3199997       2.03836804E-32
  -10.3100004       2.16296250E-32
  -10.3000002       2.29457114E-32
  -10.2900000       2.43354896E-32
  -10.2799997       2.58026829E-32
  -10.2700005       2.73511910E-32
  -10.2600002       2.89850194E-32
  -10.2500000       3.07083646E-32
  -10.2399998       3.25256231E-32
  -10.2299995       3.44413879E-32
  -10.2200003       3.64603759E-32
  -10.2100000       3.85875034E-32
  -10.1999998       4.08278840E-32
  -10.1899996       4.31868925E-32
  -10.1800003       4.56700332E-32
  -10.1700001       4.82830043E-32
  -10.1599998       5.10317656E-32
  -10.1499996       5.39225120E-32
  -10.1400003       5.69615880E-32
  -10.1300001       6.01557177E-32
  -10.1199999       6.35116306E-32
  -10.1099997       6.70364210E-32
  -10.1000004       7.07374356E-32
  -10.0900002       7.46221799E-32
  -10.0799999       7.86985181E-32
  -10.0699997       8.29745139E-32
  -10.0600004       8.74583431E-32
  -10.0500002       9.21586102E-32
  -10.0400000       9.70841548E-32
  -10.0299997       1.02244064E-31
  -10.0200005       1.07647553E-31
  -10.0100002       1.13304455E-31
  -10.0000000       1.19224338E-31
  -9.98999977       1.25417219E-31
  -9.97999954       1.31893675E-31
  -9.97000027       1.38664229E-31
  -9.96000004       1.45739670E-31
  -9.94999981       1.53131108E-31
  -9.93999958       1.60849933E-31
  -9.93000031       1.68907735E-31
  -9.92000008       1.77316282E-31
  -9.90999985       1.86087491E-31
  -9.89999962       1.95233825E-31
  -9.89000034       2.04767636E-31
  -9.88000011       2.14701434E-31
  -9.86999989       2.25048182E-31
  -9.85999966       2.35821023E-31
  -9.85000038       2.47032794E-31
  -9.84000015       2.58696966E-31
  -9.82999992       2.70827222E-31
  -9.81999969       2.83436726E-31
  -9.81000042       2.96539515E-31
  -9.80000019       3.10148754E-31
  -9.78999996       3.24278431E-31
  -9.77999973       3.38942347E-31
  -9.77000046       3.54154090E-31
  -9.76000023       3.69927202E-31
  -9.75000000       3.86275437E-31
  -9.73999977       4.03212383E-31
  -9.72999954       4.20751370E-31
  -9.72000027       4.38905187E-31
  -9.71000004       4.57686719E-31
  -9.69999981       4.77108707E-31
  -9.68999958       4.97183658E-31
  -9.68000031       5.17923281E-31
  -9.67000008       5.39339143E-31
  -9.65999985       5.61442621E-31
  -9.64999962       5.84243403E-31
  -9.64000034       6.07752114E-31
  -9.63000011       6.31976514E-31
  -9.61999989       6.56926382E-31
  -9.60999966       6.82608770E-31
  -9.60000038       7.09030075E-31
  -9.59000015       7.36195796E-31
  -9.57999992       7.64111812E-31
  -9.56999969       7.92780191E-31
  -9.56000042       8.22204038E-31
  -9.55000019       8.52383303E-31
  -9.53999996       8.83318177E-31
  -9.52999973       9.15005273E-31
  -9.52000046       9.47441864E-31
  -9.51000023       9.80621932E-31
  -9.50000000       1.01453739E-30
  -9.48999977       1.04917874E-30
  -9.47999954       1.08453460E-30
  -9.47000027       1.12058964E-30
  -9.46000004       1.15732864E-30
  -9.44999981       1.19473136E-30
  -9.43999958       1.23277600E-30
  -9.43000031       1.27143801E-30
  -9.42000008       1.31068918E-30
  -9.40999985       1.35049678E-30
  -9.39999962       1.39082789E-30
  -9.39000034       1.43164266E-30
  -9.38000011       1.47289931E-30
  -9.36999989       1.51455375E-30
  -9.35999966       1.55655210E-30
  -9.35000038       1.59884196E-30
  -9.34000015       1.64136176E-30
  -9.32999992       1.68404894E-30
  -9.31999969       1.72683167E-30
  -9.31000042       1.76963828E-30
  -9.30000019       1.81238697E-30
  -9.28999996       1.85499102E-30
  -9.27999973       1.89735885E-30
  -9.27000046       1.93939283E-30
  -9.26000023       1.98098502E-30
  -9.25000000       2.02202783E-30
  -9.23999977       2.06240089E-30
  -9.22999954       2.10197574E-30
  -9.22000027       2.14062110E-30
  -9.21000004       2.17819423E-30
  -9.19999981       2.21454428E-30
  -9.18999958       2.24951401E-30
  -9.18000031       2.28293491E-30
  -9.17000008       2.31462775E-30
  -9.15999985       2.34441195E-30
  -9.14999962       2.37208836E-30
  -9.14000034       2.39745308E-30
  -9.13000011       2.42028644E-30
  -9.11999989       2.44036314E-30
  -9.10999966       2.45744843E-30
  -9.10000038       2.47128560E-30
  -9.09000015       2.48162299E-30
  -9.07999992       2.48818149E-30
  -9.06999969       2.49067787E-30
  -9.06000042       2.48881137E-30
  -9.05000019       2.48227280E-30
  -9.03999996       2.47073960E-30
  -9.02999973       2.45386721E-30
  -9.02000046       2.43130807E-30
  -9.01000023       2.40269804E-30
  -9.00000000       2.36765608E-30
  -8.98999977       2.32578046E-30
  -8.97999954       2.27666473E-30
  -8.97000027       2.21988441E-30
  -8.96000004       2.15499486E-30
  -8.94999981       2.08153512E-30
  -8.93999958       1.99903591E-30
  -8.93000031       1.90700336E-30
  -8.92000008       1.80492963E-30
  -8.90999985       1.69228906E-30
  -8.89999962       1.56854336E-30
  -8.89000034       1.43313365E-30
  -8.88000011       1.28547577E-30
  -8.86999989       1.12498063E-30
  -8.85999966       9.51035303E-31
  -8.85000038       7.63011032E-31
  -8.84000015       5.60256923E-31
  -8.82999992       3.42107083E-31
  -8.81999969       1.07876457E-31
  -8.81000042      -1.43138090E-31
  -8.80000019      -4.11651962E-31
  -8.78999996      -6.98410612E-31
  -8.77999973      -1.00416887E-30
  -8.77000046      -1.32969956E-30
  -8.76000023      -1.67579528E-30
  -8.75000000      -2.04326930E-30
  -8.73999977      -2.43294436E-30
  -8.72999954      -2.84566606E-30
  -8.72000027      -3.28229545E-30
  -8.71000004      -3.74370726E-30
  -8.69999981      -4.23079639E-30
  -8.68999958      -4.74446861E-30
  -8.68000031      -5.28564702E-30
  -8.67000008      -5.85526563E-30
  -8.65999985      -6.45427874E-30
  -8.64999962      -7.08364181E-30
  -8.64000034      -7.74433583E-30
  -8.63000011      -8.43734110E-30
  -8.61999989      -9.16365668E-30
  -8.60999966      -9.92427788E-30
  -8.60000038      -1.07202256E-29
  -8.59000015      -1.15525177E-29
  -8.57999992      -1.24221691E-29
  -8.56999969      -1.33302203E-29
  -8.56000042      -1.42776981E-29
  -8.55000019      -1.52656324E-29
  -8.53999996      -1.62950570E-29
  -8.52999973      -1.73669920E-29
  -8.52000046      -1.84824891E-29
  -8.51000023      -1.96425324E-29
  -8.50000000      -2.08481661E-29
  -8.48999977      -2.21003741E-29
  -8.47999954      -2.34001406E-29
  -8.47000027      -2.47484435E-29
  -8.46000004      -2.61462504E-29
  -8.44999981      -2.75945046E-29
  -8.43999958      -2.90940878E-29
  -8.43000031      -3.06459149E-29
  -8.42000008      -3.22508404E-29
  -8.40999985      -3.39096890E-29
  -8.39999962      -3.56232882E-29
  -8.39000034      -3.73923451E-29
  -8.38000011      -3.92176122E-29
  -8.36999989      -4.10997483E-29
  -8.35999966      -4.30394095E-29
  -8.35000038      -4.50371104E-29
  -8.34000015      -4.70933716E-29
  -8.32999992      -4.92086446E-29
  -8.31999969      -5.13833234E-29
  -8.31000042      -5.36177332E-29
  -8.30000019      -5.59120755E-29
  -8.28999996      -5.82665248E-29
  -8.27999973      -6.06811956E-29
  -8.27000046      -6.31560336E-29
  -8.26000023      -6.56909185E-29
  -8.25000000      -6.82856578E-29
  -8.23999977      -7.09399443E-29
  -8.22999954      -7.36533148E-29
  -8.22000027      -7.64251794E-29
  -8.21000004      -7.92549001E-29
  -8.19999981      -8.21417367E-29
  -8.18999958      -8.50846419E-29
  -8.18000031      -8.80826528E-29
  -8.17000008      -9.11343189E-29
  -8.15999985      -9.42384364E-29
  -8.14999962      -9.73934467E-29
  -8.14000034      -1.00597514E-28
  -8.13000011      -1.03848755E-28
  -8.11999989      -1.07145044E-28
  -8.10999966      -1.10484113E-28
  -8.10000038      -1.13863518E-28
  -8.09000015      -1.17280371E-28
  -8.07999992      -1.20731902E-28
  -8.06999969      -1.24214874E-28
  -8.06000042      -1.27725929E-28
  -8.05000019      -1.31261479E-28
  -8.03999996      -1.34817516E-28
  -8.02999973      -1.38390007E-28
  -8.02000046      -1.41974452E-28
  -8.01000023      -1.45566179E-28
  -8.00000000      -1.49160289E-28
  -7.98999977      -1.52751209E-28
  -7.98000002      -1.56333728E-28
  -7.96999979      -1.59901682E-28
  -7.96000004      -1.63448679E-28
  -7.94999981      -1.66968400E-28
  -7.94000006      -1.70453984E-28
  -7.92999983      -1.73898137E-28
  -7.92000008      -1.77293238E-28
  -7.90999985      -1.80631164E-28
  -7.90000010      -1.83903716E-28
  -7.88999987      -1.87101843E-28
  -7.88000011      -1.90216722E-28
  -7.86999989      -1.93238482E-28
  -7.86000013      -1.96157433E-28
  -7.84999990      -1.98962960E-28
  -7.84000015      -2.01644251E-28
  -7.82999992      -2.04190030E-28
  -7.82000017      -2.06588559E-28
  -7.80999994      -2.08827789E-28
  -7.80000019      -2.10894986E-28
  -7.78999996      -2.12777005E-28
  -7.78000021      -2.14460172E-28
  -7.76999998      -2.15930451E-28
  -7.76000023      -2.17173277E-28
  -7.75000000      -2.18173605E-28
  -7.73999977      -2.18915714E-28
  -7.73000002      -2.19383691E-28
  -7.71999979      -2.19560877E-28
  -7.71000004      -2.19430082E-28
  -7.69999981      -2.18973372E-28
  -7.69000006      -2.18173196E-28
  -7.67999983      -2.17010127E-28
  -7.67000008      -2.15465266E-28
  -7.65999985      -2.13518705E-28
  -7.65000010      -2.11150413E-28
  -7.63999987      -2.08339229E-28
  -7.63000011      -2.05063969E-28
  -7.61999989      -2.01302543E-28
  -7.61000013      -1.97032949E-28
  -7.59999990      -1.92231449E-28
  -7.59000015      -1.86875330E-28
  -7.57999992      -1.80939927E-28
  -7.57000017      -1.74401033E-28
  -7.55999994      -1.67233252E-28
  -7.55000019      -1.59411533E-28
  -7.53999996      -1.50909852E-28
  -7.53000021      -1.41701403E-28
  -7.51999998      -1.31759187E-28
  -7.51000023      -1.21055663E-28
  -7.50000000      -1.09563169E-28
  -7.48999977      -9.72537025E-29
  -7.48000002      -8.40980782E-29
  -7.46999979      -7.00672212E-29
  -7.46000004      -5.51321942E-29
  -7.44999981      -3.92628534E-29
  -7.44000006      -2.24290265E-29