  -16.0000000       0.00000000    
  -15.9899998       0.00000000    
  -15.9799995       0.00000000    
  -15.9700003       0.00000000    
  -15.9600000       0.00000000    
  -15.9499998       0.00000000    
  -15.9399996       0.00000000    
  -15.9300003       0.00000000    
  -15.9200001       0.00000000    
  -15.9099998       0.00000000    
  -15.8999996       0.00000000    
  -15.8900003       0.00000000    
  -15.8800001       0.00000000    
  -15.8699999       0.00000000    
  -15.8599997       0.00000000    
  -15.8500004       0.00000000    
  -15.8400002       0.00000000    
  -15.8299999       0.00000000    
  -15.8199997       0.00000000    
  -15.8100004       0.00000000    
  -15.8000002       0.00000000    
  -15.7900000       0.00000000    
  -15.7799997       0.00000000    
  -15.7700005       0.00000000    
  -15.7600002       0.00000000    
  -15.7500000       0.00000000    
  -15.7399998       0.00000000    
  -15.7299995       0.00000000    
  -15.7200003       0.00000000    
  -15.7100000       0.00000000    
  -15.6999998       0.00000000    
  -15.6899996       0.00000000    
  -15.6800003       0.00000000    
  -15.6700001       0.00000000    
  -15.6599998       0.00000000    
  -15.6499996       0.00000000    
  -15.6400003       0.00000000    
  -15.6300001       0.00000000    
  -15.6199999       0.00000000    
  -15.6099997       0.00000000    
  -15.6000004       0.00000000    
  -15.5900002       0.00000000    
  -15.5799999       0.00000000    
  -15.5699997       0.00000000    
  -15.5600004       0.00000000    
  -15.5500002       0.00000000    
  -15.5400000       0.00000000    
  -15.5299997       0.00000000    
  -15.5200005       0.00000000    
  -15.5100002       0.00000000    
  -15.5000000       0.00000000    
  -15.4899998       0.00000000    
  -15.4799995       0.00000000    
  -15.4700003       0.00000000    
  -15.4600000       0.00000000    
  -15.4499998       0.00000000    
  -15.4399996       0.00000000    
  -15.4300003       0.00000000    
  -15.4200001       0.00000000    
  -15.4099998       0.00000000    
  -15.3999996       0.00000000    
  -15.3900003       0.00000000    
  -15.3800001       0.00000000    
  -15.3699999       0.00000000    
  -15.3599997       0.00000000    
  -15.3500004       0.00000000    
  -15.3400002       0.00000000    
  -15.3299999       0.00000000    
  -15.3199997       0.00000000    
  -15.3100004       0.00000000    
  -15.3000002       0.00000000    
  -15.2900000       0.00000000    
  -15.2799997       0.00000000    
  -15.2700005       0.00000000    
  -15.2600002       0.00000000    
  -15.2500000       0.00000000    
  -15.2399998       0.00000000    
  -15.2299995       0.00000000    
  -15.2200003       0.00000000    
  -15.2100000       0.00000000    
  -15.1999998       0.00000000    
  -15.1899996       0.00000000    
  -15.1800003       0.00000000    
  -15.1700001       0.00000000    
  -15.1599998       0.00000000    
  -15.1499996       0.00000000    
  -15.1400003       0.00000000    
  -15.1300001       0.00000000    
  -15.1199999       0.00000000    
  -15.1099997       0.00000000    
  -15.1000004       0.00000000    
  -15.0900002       0.00000000    
  -15.0799999       0.00000000    
  -15.0699997       0.00000000    
  -15.0600004       0.00000000    
  -15.0500002       0.00000000    
  -15.0400000       0.00000000    
  -15.0299997       0.00000000    
  -15.0200005       0.00000000    
  -15.0100002       0.00000000    
  -15.0000000       0.00000000    
  -14.9899998       0.00000000    
  -14.9799995       0.00000000    
  -14.9700003       0.00000000    
  -14.9600000       0.00000000    
  -14.9499998       0.00000000    
  -14.9399996       0.00000000    
  -14.9300003       0.00000000    
  -14.9200001       0.00000000    
  -14.9099998       0.00000000    
  -14.8999996       0.00000000    
  -14.8900003       0.00000000    
  -14.8800001       0.00000000    
  -14.8699999       0.00000000    
  -14.8599997       0.00000000    
  -14.8500004       0.00000000    
  -14.8400002       0.00000000    
  -14.8299999       0.00000000    
  -14.8199997       0.00000000    
  -14.8100004       0.00000000    
  -14.8000002       0.00000000    
  -14.7900000       0.00000000    
  -14.7799997       0.00000000    
  -14.7700005       0.00000000    
  -14.7600002       0.00000000    
  -14.7500000       0.00000000    
  -14.7399998       0.00000000    
  -14.7299995       0.00000000    
  -14.7200003       0.00000000    
  -14.7100000       0.00000000    
  -14.6999998       0.00000000    
  -14.6899996       0.00000000    
  -14.6800003       0.00000000    
  -14.6700001       0.00000000    
  -14.6599998       0.00000000    
  -14.6499996       0.00000000    
  -14.6400003       0.00000000    
  -14.6300001       0.00000000    
  -14.6199999       0.00000000    
  -14.6099997       0.00000000    
  -14.6000004       0.00000000    
  -14.5900002       0.00000000    
  -14.5799999       0.00000000    
  -14.5699997       0.00000000    
  -14.5600004       0.00000000    
  -14.5500002       0.00000000    
  -14.5400000       0.00000000    
  -14.5299997       0.00000000    
  -14.5200005       0.00000000    
  -14.5100002       0.00000000    
  -14.5000000       0.00000000    
  -14.4899998       0.00000000    
  -14.4799995       0.00000000    
  -14.4700003       0.00000000    
  -14.4600000       0.00000000    
  -14.4499998       0.00000000    
  -14.4399996       0.00000000    
  -14.4300003       0.00000000    
  -14.4200001       0.00000000    
  -14.4099998       0.00000000    
  -14.3999996       0.00000000    
  -14.3900003       0.00000000    
  -14.3800001       0.00000000    
  -14.3699999       1.40129846E-45
  -14.3599997       2.80259693E-45
  -14.3500004       2.80259693E-45
  -14.3400002       5.60519386E-45
  -14.3299999       7.00649232E-45
  -14.3199997       7.00649232E-45
  -14.3100004       7.00649232E-45
  -14.3000002       8.40779079E-45
  -14.2900000       1.82168800E-44
  -14.2799997       3.50324616E-44
  -14.2700005       4.90454463E-44
  -14.2600002       5.88545355E-44
  -14.2500000       6.02558340E-44
  -14.2399998       5.18480432E-44
  -14.2299995       4.34402524E-44
  -14.2200003       4.48415509E-44
  -14.2100000       5.32493416E-44
  -14.1999998       5.88545355E-44
  -14.1899996       7.00649232E-44
  -14.1800003       8.12753109E-44
  -14.1700001       8.54792063E-44
  -14.1599998       9.38869971E-44
  -14.1499996       1.07899982E-43
  -14.1400003       1.27518160E-43
  -14.1300001       1.40129846E-43
  -14.1199999       1.52741533E-43
  -14.1099997       1.70958413E-43
  -14.1000004       1.86372696E-43
  -14.0900002       2.04589576E-43
  -14.0799999       2.31214247E-43
  -14.0699997       2.50832425E-43
  -14.0600004       2.69049305E-43
  -14.0500002       2.91470081E-43
  -14.0400000       3.20897348E-43
  -14.0299997       3.48923318E-43
  -14.0200005       3.76949287E-43
  -14.0100002       4.07777853E-43
  -14.0000000       4.35803822E-43
  -13.9899998       4.62428493E-43
  -13.9799995       4.84849269E-43
  -13.9700003       4.98862253E-43
  -13.9600000       5.07270044E-43
  -13.9499998       5.11473939E-43
  -13.9399996       5.04467447E-43
  -13.9300003       4.79244075E-43
  -13.9200001       4.45612912E-43
  -13.9099998       3.85357078E-43
  -13.8999996       2.98476573E-43
  -13.8900003       1.77964905E-43
  -13.8800001       1.26116862E-44
  -13.8699999      -2.05990874E-43
  -13.8599997      -4.94658358E-43
  -13.8500004      -8.43581676E-43
  -13.8400002      -1.27097771E-42
  -13.8299999      -1.78525424E-42
  -13.8199997      -2.40322687E-42
  -13.8100004      -3.15992804E-42
  -13.8000002      -4.08198243E-42
  -13.7900000      -5.17919912E-42
  -13.7799997      -6.46559111E-42
  -13.7700005      -7.97338826E-42
  -13.7600002      -9.74042563E-42
  -13.7500000      -1.17863214E-41
  -13.7399998      -1.41531145E-41
  -13.7299995      -1.69052647E-41
  -13.7200003      -2.00665940E-41
  -13.7100000      -2.36581220E-41
  -13.6999998      -2.77134797E-41
  -13.6899996      -3.22424764E-41
  -13.6800003      -3.72689340E-41
  -13.6700001      -4.28404967E-41
  -13.6599998      -4.89683748E-41
  -13.6499996      -5.56441607E-41
  -13.6400003      -6.28552426E-41
  -13.6300001      -7.05918114E-41
  -13.6199999      -7.87992165E-41
  -13.6099997      -8.73709593E-41
  -13.6000004      -9.62033435E-41
  -13.5900002      -1.05104391E-40
  -13.5799999      -1.13820468E-40
  -13.5699997      -1.22041886E-40
  -13.5600004      -1.29366473E-40
  -13.5500002      -1.35312182E-40
  -13.5400000      -1.39249831E-40
  -13.5299997      -1.40361061E-40
  -13.5200005      -1.37681778E-40
  -13.5100002      -1.30047504E-40
  -13.5000000      -1.16010697E-40
  -13.4899998      -9.38491621E-41
  -13.4799995      -6.14777662E-41
  -13.4700003      -1.64204154E-41
  -13.4600000       4.42838341E-41
  -13.4499998       1.24131222E-40
  -13.4399996       2.27237362E-40
  -13.4300003       3.58449345E-40
  -13.4200001       5.23434022E-40
  -13.4099998       7.28846160E-40
  -13.3999996       9.82409716E-40
  -13.3900003       1.29310281E-39
  -13.3800001       1.67136651E-39
  -13.3699999       2.12925620E-39
  -13.3599997       2.68067275E-39
  -13.3500004       3.34163861E-39
  -13.3400002       4.13055564E-39
  -13.3299999       5.06851756E-39
  -13.3199997       6.17968699E-39
  -13.3100004       7.49166389E-39
  -13.3000002       9.03589340E-39
  -13.2900000       1.08481549E-38
  -13.2799997       1.29691140E-38
  -13.2700005       1.54448735E-38
  -13.2600002       1.83276695E-38
  -13.2500000       2.16765879E-38
  -13.2399998       2.55582771E-38
  -13.2299995       3.00479056E-38
  -13.2200003       3.52300811E-38
  -13.2100000       4.11998620E-38
  -13.1999998       4.80639432E-38
  -13.1899996       5.59419310E-38
  -13.1800003       6.49677057E-38
  -13.1700001       7.52909425E-38
  -13.1599998       8.70787773E-38
  -13.1499996       1.00517583E-37
  -13.1400003       1.15814762E-37
  -13.1300001       1.33201199E-37
  -13.1199999       1.52933286E-37
  -13.1099997       1.75295600E-37
  -13.1000004       2.00603498E-37
  -13.0900002       2.29206063E-37
  -13.0799999       2.61489446E-37
  -13.0699997       2.97880180E-37
  -13.0600004       3.38848699E-37
  -13.0500002       3.84913864E-37
  -13.0400000       4.36646530E-37
  -13.0299997       4.94674949E-37
  -13.0200005       5.59689189E-37
  -13.0100002       6.32446399E-37
  -13.0000000       7.13777403E-37
  -12.9899998       8.04591230E-37
  -12.9799995       9.05883629E-37
  -12.9700003       1.01874228E-36
  -12.9600000       1.14435575E-36
  -12.9499998       1.28402005E-36
  -12.9399996       1.43914724E-36
  -12.9300003       1.61127674E-36
  -12.9200001       1.80208166E-36
  -12.9099998       2.01338097E-36
  -12.8999996       2.24714948E-36
  -12.8900003       2.50553008E-36
  -12.8800001       2.79084414E-36
  -12.8699999       3.10560635E-36
  -12.8599997       3.45253611E-36
  -12.8500004       3.83457392E-36
  -12.8400002       4.25489494E-36
  -12.8299999       4.71692291E-36
  -12.8199997       5.22434990E-36
  -12.8100004       5.78115282E-36
  -12.8000002       6.39160776E-36
  -12.7900000       7.06031725E-36
  -12.7799997       7.79221746E-36
  -12.7700005       8.59261187E-36
  -12.7600002       9.46718426E-36
  -12.7500000       1.04220266E-35
  -12.7399998       1.14636506E-35
  -12.7299995       1.25990323E-35
  -12.7200003       1.38356130E-35
  -12.7100000       1.51813460E-35
  -12.6999998       1.66447087E-35
  -12.6899996       1.82347399E-35
  -12.6800003       1.99610564E-35
  -12.6700001       2.18338935E-35
  -12.6599998       2.38641324E-35
  -12.6499996       2.60633213E-35
  -12.6400003       2.84437089E-35
  -12.6300001       3.10182940E-35
  -12.6199999       3.38008378E-35
  -12.6099997       3.68058847E-35
  -12.6000004       4.00488371E-35
  -12.5900002       4.35459328E-35
  -12.5799999       4.73143450E-35
  -12.5699997       5.13721394E-35
  -12.5600004       5.57383663E-35
  -12.5500002       6.04330944E-35
  -12.5400000       6.54773542E-35
  -12.5299997       7.08933009E-35
  -12.5200005       7.67041690E-35
  -12.5100002       8.29342374E-35
  -12.5000000       8.96090536E-35
  -12.4899998       9.67552500E-35
  -12.4799995       1.04400704E-34
  -12.4700003       1.12574511E-34
  -12.4600000       1.21306976E-34
  -12.4499998       1.30629726E-34
  -12.4399996       1.40575625E-34
  -12.4300003       1.51178894E-34
  -12.4200001       1.62474889E-34
  -12.4099998       1.74500483E-34
  -12.3999996       1.87293799E-34
  -12.3900003       2.00894212E-34
  -12.3800001       2.15342415E-34
  -12.3699999       2.30680389E-34
  -12.3599997       2.46951366E-34
  -12.3500004       2.64199863E-34
  -12.3400002       2.82471545E-34
  -12.3299999       3.01813340E-34
  -12.3199997       3.22273118E-34
  -12.3100004       3.43900033E-34
  -12.3000002       3.66743975E-34
  -12.2900000       3.90855958E-34
  -12.2799997       4.16287733E-34
  -12.2700005       4.43091759E-34
  -12.2600002       4.71321164E-34
  -12.2500000       5.01029442E-34
  -12.2399998       5.32270546E-34
  -12.2299995       5.65098614E-34
  -12.2200003       5.99567735E-34
  -12.2100000       6.35731957E-34
  -12.1999998       6.73644818E-34
  -12.1899996       7.13359583E-34
  -12.1800003       7.54928002E-34
  -12.1700001       7.98401641E-34
  -12.1599998       8.43829814E-34
  -12.1499996       8.91260919E-34
  -12.1400003       9.40740690E-34
  -12.1300001       9.92313301E-34
  -12.1199999       1.04601897E-33
  -12.1099997       1.10189610E-33
  -12.1000004       1.15997856E-33
  -12.0900002       1.22029685E-33
  -12.0799999       1.28287604E-33
  -12.0699997       1.34773706E-33
  -12.0600004       1.41489470E-33
  -12.0500002       1.48435705E-33
  -12.0400000       1.55612658E-33
  -12.0299997       1.63019632E-33
  -12.0200005       1.70655313E-33
  -12.0100002       1.78517258E-33
  -12.0000000       1.86602143E-33
  -11.9899998       1.94905614E-33
  -11.9799995       2.03422034E-33
  -11.9700003       2.12144625E-33
  -11.9600000       2.21065084E-33
  -11.9499998       2.30173751E-33
  -11.9399996       2.39459330E-33
  -11.9300003       2.48908761E-33
  -11.9200001       2.58507205E-33
  -11.9099998       2.68237838E-33
  -11.8999996       2.78081666E-33
  -11.8900003       2.88017422E-33
  -11.8800001       2.98021448E-33
  -11.8699999       3.08067370E-33
  -11.8599997       3.18126203E-33
  -11.8500004       3.28165697E-33
  -11.8400002       3.38150786E-33
  -11.8299999       3.48042792E-33
  -11.8199997       3.57799395E-33
  -11.8100004       3.67374605E-33
  -11.8000002       3.76718205E-33
  -11.7900000       3.85775573E-33
  -11.7799997       3.94487676E-33
  -11.7700005       4.02790339E-33
  -11.7600002       4.10614283E-33
  -11.7500000       4.17884568E-33
  -11.7399998       4.24520418E-33
  -11.7299995       4.30434697E-33
  -11.7200003       4.35533661E-33
  -11.7100000       4.39716474E-33
  -11.6999998       4.42874807E-33
  -11.6899996       4.44892396E-33
  -11.6800003       4.45644308E-33
  -11.6700001       4.44996868E-33
  -11.6599998       4.42806812E-33
  -11.6499996       4.38920517E-33
  -11.6400003       4.33174040E-33
  -11.6300001       4.25391679E-33
  -11.6199999       4.15385724E-33
  -11.6099997       4.02955753E-33
  -11.6000004       3.87887642E-33
  -11.5900002       3.69952758E-33
  -11.5799999       3.48907184E-33
  -11.5699997       3.24490734E-33
  -11.5600004       2.96425861E-33
  -11.5500002       2.64416783E-33
  -11.5400000       2.28147970E-33
  -11.5299997       1.87283507E-33
  -11.5200005       1.41465263E-33
  -11.5100002       9.03118351E-34
  -11.5000000       3.34170475E-34
  -11.4899998      -2.96515603E-34
  -11.4799995      -9.93544723E-34
  -11.4700003      -1.76181936E-33
  -11.4600000      -2.60655697E-33
  -11.4499998      -3.53331010E-33
  -11.4399996      -4.54798691E-33
  -11.4300003      -5.65687518E-33
  -11.4200001      -6.86666347E-33
  -11.4099998      -8.18446978E-33
  -11.3999996      -9.61786245E-33
  -11.3900003      -1.11748929E-32
  -11.3800001      -1.28641238E-32
  -11.3699999      -1.46946639E-32
  -11.3599997      -1.66761932E-32
  -11.3500004      -1.88190151E-32
  -11.3400002      -2.11340778E-32
  -11.3299999      -2.36330186E-32
  -11.3199997      -2.63282199E-32
  -11.3100004      -2.92328371E-32
  -11.3000002      -3.23608452E-32
  -11.2900000      -3.57271142E-32
  -11.2799997      -3.93474282E-32
  -11.2700005      -4.32385790E-32
  -11.2600002      -4.74183930E-32
  -11.2500000      -5.19058103E-32
  -11.2399998      -5.67209526E-32
  -11.2299995      -6.18851990E-32
  -11.2200003      -6.74212367E-32
  -11.2100000      -7.33531750E-32
  -11.1999998      -7.97065926E-32
  -11.1899996      -8.65086612E-32
  -11.1800003      -9.37882391E-32
  -11.1700001      -1.01575866E-31
  -11.1599998      -1.09904043E-31
  -11.1499996      -1.18807202E-31
  -11.1400003      -1.28321877E-31
  -11.1300001      -1.38486788E-31
  -11.1199999      -1.49343019E-31
  -11.1099997      -1.60934075E-31
  -11.1000004      -1.73306118E-31
  -11.0900002      -1.86507966E-31
  -11.0799999      -2.00591505E-31
  -11.0699997      -2.15611501E-31
  -11.0600004      -2.31625990E-31
  -11.0500002      -2.48696542E-31
  -11.0400000      -2.66888093E-31
  -11.0299997      -2.86269503E-31
  -11.0200005      -3.06913582E-31
  -11.0100002      -3.28897183E-31
  -11.0000000      -3.52301887E-31
  -10.9899998      -3.77213434E-31
  -10.9799995      -4.03722877E-31
  -10.9700003      -4.31925948E-31
  -10.9600000      -4.61923953E-31
  -10.9499998      -4.93823954E-31
  -10.9399996      -5.27738706E-31
  -10.9300003      -5.63787215E-31
  -10.9200001      -6.02094930E-31
  -10.9099998      -6.42794165E-31
  -10.8999996      -6.86024428E-31
  -10.8900003      -7.31932372E-31
  -10.8800001      -7.80672788E-31
  -10.8699999      -8.32408457E-31
  -10.8599997      -8.87310720E-31
  -10.8500004      -9.45559380E-31
  -10.8400002      -1.00734430E-30
  -10.8299999      -1.07286457E-30
  -10.8199997      -1.14232933E-30
  -10.8100004      -1.21595825E-30
  -10.8000002      -1.29398249E-30
  -10.7900000      -1.37664363E-30
  -10.7799997      -1.46419633E-30
  -10.7700005      -1.55690634E-30
  -10.7600002      -1.65505392E-30
  -10.7500000      -1.75893057E-30
  -10.7399998      -1.86884342E-30
  -10.7299995      -1.98511279E-30
  -10.7200003      -2.10807458E-30
  -10.7100000      -2.23808068E-30
  -10.6999998      -2.37549766E-30
  -10.6899996      -2.52070864E-30
  -10.6800003      -2.67411536E-30
  -10.6700001      -2.83613704E-30
  -10.6599998      -3.00720889E-30
  -10.6499996      -3.18778834E-30
  -10.6400003      -3.37834895E-30
  -10.6300001      -3.57938632E-30
  -10.6199999      -3.79141729E-30
  -10.6099997      -4.01497826E-30
  -10.6000004      -4.25062857E-30
  -10.5900002      -4.49894940E-30
  -10.5799999      -4.76054523E-30
  -10.5699997      -5.03604462E-30
  -10.5600004      -5.32610020E-30
  -10.5500002      -5.63138906E-30
  -10.5400000      -5.95261424E-30
  -10.5299997      -6.29050323E-30
  -10.5200005      -6.64581248E-30
  -10.5100002      -7.01932252E-30
  -10.5000000      -7.41184509E-30
  -10.4899998      -7.82421528E-30
  -10.4799995      -8.25730050E-30
  -10.4700003      -8.71199526E-30
  -10.4600000      -9.18922340E-30
  -10.4499998      -9.68993885E-30
  -10.4399996      -1.02151241E-29
  -10.4300003      -1.07657979E-29
  -10.4200001      -1.13430006E-29
  -10.4099998      -1.19478073E-29
  -10.3999996      -1.25813254E-29
  -10.3900003      -1.32446894E-29
  -10.3800001      -1.39390684E-29
  -10.3699999      -1.46656616E-29
  -10.3599997      -1.54256938E-29
  -10.3500004      -1.62204333E-29
  -10.3400002      -1.70511606E-29
  -10.3299999      -1.79191968E-29
  -10.3199997      -1.88258900E-29
  -10.3100004      -1.97726185E-29
  -10.3000002      -2.07607845E-29
  -10.2900000      -2.17918266E-29
  -10.2799997      -2.28671967E-29
  -10.2700005      -2.39883723E-29
  -10.2600002      -2.51568701E-29
  -10.2500000      -2.63742143E-29
  -10.2399998      -2.76419577E-29
  -10.2299995      -2.89616590E-29
  -10.2200003      -3.03349133E-29
  -10.2100000      -3.17633184E-29
  -10.1999998      -3.32484902E-29
  -10.1899996      -3.47920478E-29
  -10.1800003      -3.63956222E-29
  -10.1700001      -3.80608535E-29
  -10.1599998      -3.97893786E-29
  -10.1499996      -4.15828287E-29
  -10.1400003      -4.34428406E-29
  -10.1300001      -4.53710366E-29
  -10.1199999      -4.73690204E-29
  -10.1099997      -4.94383869E-29
  -10.1000004      -5.15806891E-29
  -10.0900002      -5.37974886E-29
  -10.0799999      -5.60902781E-29
  -10.0699997      -5.84605201E-29
  -10.0600004      -6.09096651E-29
  -10.0500002      -6.34390430E-29
  -10.0400000      -6.60499901E-29
  -10.0299997      -6.87437643E-29
  -10.0200005      -7.15215330E-29
  -10.0100002      -7.43843797E-29
  -10.0000000      -7.73333215E-29
  -9.98999977      -8.03692432E-29
  -9.97999954      -8.34929631E-29
  -9.97000027      -8.67051434E-29
  -9.96000004      -9.00063679E-29
  -9.94999981      -9.33970217E-29
  -9.93999958      -9.68773818E-29
  -9.93000031      -1.00447538E-28
  -9.92000008      -1.04107443E-28
  -9.90999985      -1.07856844E-28
  -9.89999962      -1.11695222E-28
  -9.89000034      -1.15621988E-28
  -9.88000011      -1.19636192E-28
  -9.86999989      -1.23736726E-28
  -9.85999966      -1.27922169E-28
  -9.85000038      -1.32190824E-28
  -9.84000015      -1.36540753E-28
  -9.82999992      -1.40969646E-28
  -9.81999969      -1.45474914E-28
  -9.81000042      -1.50053571E-28
  -9.80000019      -1.54702333E-28
  -9.78999996      -1.59417443E-28
  -9.77999973      -1.64194808E-28
  -9.77000046      -1.69029880E-28
  -9.76000023      -1.73917685E-28
  -9.75000000      -1.78852676E-28
  -9.73999977      -1.83828930E-28
  -9.72999954      -1.88839971E-28
  -9.72000027      -1.93878709E-28
  -9.71000004      -1.98937513E-28
  -9.69999981      -2.04008222E-28
  -9.68999958      -2.09081964E-28
  -9.68000031      -2.14149254E-28
  -9.67000008      -2.19199933E-28
  -9.65999985      -2.24223023E-28
  -9.64999962      -2.29207041E-28
  -9.64000034      -2.34139444E-28
  -9.63000011      -2.39007088E-28
  -9.61999989      -2.43795985E-28
  -9.60999966      -2.48491161E-28
  -9.60000038      -2.53076824E-28
  -9.59000015      -2.57536243E-28
  -9.57999992      -2.61851746E-28
  -9.56999969      -2.66004605E-28
  -9.56000042      -2.69975102E-28
  -9.55000019      -2.73742438E-28
  -9.53999996      -2.77284704E-28
  -9.52999973      -2.80578839E-28
  -9.52000046      -2.83600671E-28
  -9.51000023      -2.86324707E-28
  -9.50000000      -2.88724247E-28
  -9.48999977      -2.90771438E-28
  -9.47999954      -2.92436982E-28
  -9.47000027      -2.93690089E-28
  -9.46000004      -2.94498835E-28
  -9.44999981      -2.94829637E-28
  -9.43999958      -2.94647637E-28
  -9.43000031      -2.93916361E-28
  -9.42000008      -2.92597773E-28
  -9.40999985      -2.90652343E-28
  -9.39999962      -2.88038857E-28
  -9.39000034      -2.84714509E-28
  -9.38000011      -2.80634691E-28
  -9.36999989      -2.75753325E-28
  -9.35999966      -2.70022312E-28
  -9.35000038      -2.63391937E-28
  -9.34000015      -2.55810658E-28
  -9.32999992      -2.47225007E-28
  -9.31999969      -2.37579733E-28
  -9.31000042      -2.26817708E-28
  -9.30000019      -2.14879856E-28
  -9.28999996      -2.01705147E-28
  -9.27999973      -1.87230604E-28
  -9.27000046      -1.71391190E-28
  -9.26000023      -1.54120100E-28
  -9.25000000      -1.35348338E-28
  -9.23999977      -1.15004848E-28
  -9.22999954      -9.30166566E-29
  -9.22000027      -6.93087358E-29
  -9.21000004      -4.38039676E-29
  -9.19999981      -1.64232141E-29
  -9.18999958       1.29146648E-29
  -9.18000031       4.42928859E-29
  -9.17000008       7.77966461E-29
  -9.15999985       1.13513179E-28
  -9.14999962       1.51531687E-28
  -9.14000034       1.91943294E-28
  -9.13000011       2.34841157E-28
  -9.11999989       2.80320211E-28
  -9.10999966       3.28477367E-28
  -9.10000038       3.79411088E-28
  -9.09000015       4.33222004E-28
  -9.07999992       4.90012237E-28
  -9.06999969       5.49885451E-28
  -9.06000042       6.12946994E-28
  -9.05000019       6.79303851E-28
  -9.03999996       7.49064259E-28
  -9.02999973       8.22337516E-28
  -9.02000046       8.99234602E-28
  -9.01000023       9.79867800E-28
  -9.00000000       1.06434939E-27
  -8.98999977       1.15279387E-27
  -8.97999954       1.24531526E-27
  -8.97000027       1.34202891E-27
  -8.96000004       1.44305058E-27
  -8.94999981       1.54849631E-27
  -8.93999958       1.65848183E-27
  -8.93000031       1.77312397E-27
  -8.92000008       1.89253740E-27
  -8.90999985       2.01683807E-27
  -8.89999962       2.14614058E-27
  -8.89000034       2.28055894E-27
  -8.88000011       2.42020581E-27
  -8.86999989       2.56519270E-27
  -8.85999966       2.71562844E-27
  -8.85000038       2.87162260E-27
  -8.84000015       3.03327919E-27
  -8.82999992       3.20070182E-27
  -8.81999969       3.37399122E-27
  -8.81000042       3.55324484E-27
  -8.80000019       3.73855550E-27
  -8.78999996       3.93001336E-27
  -8.77999973       4.12770506E-27
  -8.77000046       4.33171034E-27
  -8.76000023       4.54210625E-27
  -8.75000000       4.75896288E-27
  -8.73999977       4.98234571E-27
  -8.72999954       5.21231369E-27
  -8.72000027       5.44891804E-27
  -8.71000004       5.69220343E-27
  -8.69999981       5.94220686E-27
  -8.68999958       6.19895720E-27
  -8.68000031       6.46247411E-27
  -8.67000008       6.73276682E-27
  -8.65999985       7.00983880E-27
  -8.64999962       7.29367851E-27
  -8.64000034       7.58426513E-27
  -8.63000011       7.88156477E-27
  -8.61999989       8.18553506E-27
  -8.60999966       8.49611592E-27
  -8.60000038       8.81323723E-27
  -8.59000015       9.13681118E-27
  -8.57999992       9.46673839E-27
  -8.56999969       9.80290253E-27
  -8.56000042       1.01451688E-26
  -8.55000019       1.04933885E-26
  -8.53999996       1.08473898E-26
  -8.52999973       1.12069925E-26
  -8.52000046       1.15719778E-26
  -8.51000023       1.19421300E-26
  -8.50000000       1.23171971E-26
  -8.48999977       1.26969073E-26
  -8.47999954       1.30809655E-26
  -8.47000027       1.34690589E-26
  -8.46000004       1.38608392E-26
  -8.44999981       1.42559430E-26
  -8.43999958       1.46539742E-26
  -8.43000031       1.50545106E-26
  -8.42000008       1.54571070E-26
  -8.40999985       1.58612780E-26
  -8.39999962       1.62665152E-26
  -8.39000034       1.66722809E-26
  -8.38000011       1.70780004E-26
  -8.36999989       1.74830651E-26
  -8.35999966       1.78868386E-26
  -8.35000038       1.82886400E-26
  -8.34000015       1.86877620E-26
  -8.32999992       1.90834543E-26
  -8.31999969       1.94749312E-26
  -8.31000042       1.98613652E-26
  -8.30000019       2.02418935E-26
  -8.28999996       2.06156056E-26
  -8.27999973       2.09815569E-26
  -8.27000046       2.13387522E-26
  -8.26000023       2.16861561E-26
  -8.25000000       2.20226931E-26
  -8.23999977       2.23472369E-26
  -8.22999954       2.26586120E-26
  -8.22000027       2.29555966E-26
  -8.21000004       2.32369303E-26
  -8.19999981       2.35012880E-26
  -8.18999958       2.37473094E-26
  -8.18000031       2.39735707E-26
  -8.17000008       2.41786037E-26
  -8.15999985       2.43608922E-26
  -8.14999962       2.45188539E-26
  -8.14000034       2.46508648E-26
  -8.13000011       2.47552471E-26
  -8.11999989       2.48302506E-26
  -8.10999966       2.48740955E-26
  -8.10000038       2.48849300E-26
  -8.09000015       2.48608544E-26
  -8.07999992       2.47999025E-26
  -8.06999969       2.47000608E-26
  -8.06000042       2.45592429E-26
  -8.05000019       2.43753397E-26
  -8.03999996       2.41461510E-26
  -8.02999973       2.38694334E-26
  -8.02000046       2.35428742E-26
  -8.01000023       2.31641301E-26
  -8.00000000       2.27307758E-26
  -7.98999977       2.22403386E-26
  -7.98000002       2.16902899E-26
  -7.96999979       2.10780506E-26
  -7.96000004       2.04009768E-26
  -7.94999981       1.96563738E-26
  -7.94000006       1.88414959E-26
  -7.92999983       1.79535482E-26
  -7.92000008       1.69896757E-26
  -7.90999985       1.59469819E-26
  -7.90000010       1.48225192E-26
  -7.88999987       1.36132910E-26
  -7.88000011       1.23162527E-26
  -7.86999989       1.09283220E-26
  -7.86000013       9.44637130E-27
  -7.84999990       7.86723508E-27
  -7.84000015       6.18770592E-27
  -7.82999992       4.40454516E-27
  -7.82000017       2.51448316E-27
  -7.80999994       5.14215880E-28
  -7.80000019      -1.59958400E-27
  -7.78999996      -3.83027098E-27
  -7.78000021      -6.18121823E-27
  -7.76999998      -8.65581711E-27
  -7.76000023      -1.12574711E-26
  -7.75000000      -1.39895930E-26
  -7.73999977      -1.68556002E-26
  -7.73000002      -1.98589169E-26
  -7.71999979      -2.30029544E-26
  -7.71000004      -2.62911285E-26
  -7.69999981      -2.97268242E-26
  -7.69000006      -3.33134296E-26
  -7.67999983      -3.70542851E-26
  -7.67000008      -4.09527247E-26
  -7.65999985      -4.50120396E-26
  -7.65000010      -4.92354653E-26
  -7.63999987      -5.36262097E-26
  -7.63000011      -5.81874219E-26
  -7.61999989      -6.29221466E-26
  -7.61000013      -6.78334590E-26
  -7.59999990      -7.29242496E-26
  -7.59000015      -7.81973965E-26
  -7.57999992      -8.36556483E-26
  -7.57000017      -8.93016737E-26
  -7.55999994      -9.51379995E-26
  -7.55000019      -1.01167091E-25
  -7.53999996      -1.07391259E-25
  -7.53000021      -1.13812636E-25
  -7.51999998      -1.20433299E-25
  -7.51000023      -1.27255060E-25
  -7.50000000      -1.34279681E-25
  -7.48999977      -1.41508630E-25
  -7.48000002      -1.48943262E-25
  -7.46999979      -1.56584760E-25
  -7.46000004      -1.64434000E-25
  -7.44999981      -1.72491697E-25
  -7.44000006      -1.80758343E-25