  -16.0000000       0.00000000    
  -15.9899998       0.00000000    
  -15.9799995       0.00000000    
  -15.9700003       0.00000000    
  -15.9600000       0.00000000    
  -15.9499998       0.00000000    
  -15.9399996       0.00000000    
  -15.9300003       0.00000000    
  -15.9200001       0.00000000    
  -15.9099998       0.00000000    
  -15.8999996       0.00000000    
  -15.8900003       0.00000000    
  -15.8800001       0.00000000    
  -15.8699999       0.00000000    
  -15.8599997       0.00000000    
  -15.8500004       0.00000000    
  -15.8400002       0.00000000    
  -15.8299999       0.00000000    
  -15.8199997       0.00000000    
  -15.8100004       0.00000000    
  -15.8000002       0.00000000    
  -15.7900000       0.00000000    
  -15.7799997       0.00000000    
  -15.7700005       0.00000000    
  -15.7600002       0.00000000    
  -15.7500000       0.00000000    
  -15.7399998       0.00000000    
  -15.7299995       0.00000000    
  -15.7200003       0.00000000    
  -15.7100000       0.00000000    
  -15.6999998       0.00000000    
  -15.6899996       0.00000000    
  -15.6800003       0.00000000    
  -15.6700001       0.00000000    
  -15.6599998       0.00000000    
  -15.6499996       0.00000000    
  -15.6400003       0.00000000    
  -15.6300001       0.00000000    
  -15.6199999       0.00000000    
  -15.6099997       0.00000000    
  -15.6000004       0.00000000    
  -15.5900002       0.00000000    
  -15.5799999       0.00000000    
  -15.5699997       0.00000000    
  -15.5600004       0.00000000    
  -15.5500002       0.00000000    
  -15.5400000       0.00000000    
  -15.5299997       0.00000000    
  -15.5200005       0.00000000    
  -15.5100002       0.00000000    
  -15.5000000       0.00000000    
  -15.4899998       0.00000000    
  -15.4799995       0.00000000    
  -15.4700003       0.00000000    
  -15.4600000       0.00000000    
  -15.4499998       0.00000000    
  -15.4399996       0.00000000    
  -15.4300003       0.00000000    
  -15.4200001       0.00000000    
  -15.4099998       0.00000000    
  -15.3999996       0.00000000    
  -15.3900003       0.00000000    
  -15.3800001       0.00000000    
  -15.3699999       0.00000000    
  -15.3599997       0.00000000    
  -15.3500004       0.00000000    
  -15.3400002       0.00000000    
  -15.3299999       0.00000000    
  -15.3199997       0.00000000    
  -15.3100004       0.00000000    
  -15.3000002       0.00000000    
  -15.2900000       0.00000000    
  -15.2799997       0.00000000    
  -15.2700005       0.00000000    
  -15.2600002       0.00000000    
  -15.2500000       0.00000000    
  -15.2399998       0.00000000    
  -15.2299995       0.00000000    
  -15.2200003       0.00000000    
  -15.2100000       0.00000000    
  -15.1999998       0.00000000    
  -15.1899996       0.00000000    
  -15.1800003       0.00000000    
  -15.1700001       0.00000000    
  -15.1599998       0.00000000    
  -15.1499996       0.00000000    
  -15.1400003       0.00000000    
  -15.1300001       0.00000000    
  -15.1199999       0.00000000    
  -15.1099997       0.00000000    
  -15.1000004       0.00000000    
  -15.0900002       0.00000000    
  -15.0799999       0.00000000    
  -15.0699997       0.00000000    
  -15.0600004       0.00000000    
  -15.0500002       0.00000000    
  -15.0400000       0.00000000    
  -15.0299997       0.00000000    
  -15.0200005       0.00000000    
  -15.0100002       0.00000000    
  -15.0000000       0.00000000    
  -14.9899998       0.00000000    
  -14.9799995       0.00000000    
  -14.9700003       0.00000000    
  -14.9600000       0.00000000    
  -14.9499998       0.00000000    
  -14.9399996       0.00000000    
  -14.9300003       0.00000000    
  -14.9200001       0.00000000    
  -14.9099998       0.00000000    
  -14.8999996       0.00000000    
  -14.8900003       0.00000000    
  -14.8800001       0.00000000    
  -14.8699999       0.00000000    
  -14.8599997       0.00000000    
  -14.8500004       0.00000000    
  -14.8400002       0.00000000    
  -14.8299999       0.00000000    
  -14.8199997       0.00000000    
  -14.8100004       0.00000000    
  -14.8000002       0.00000000    
  -14.7900000       0.00000000    
  -14.7799997       0.00000000    
  -14.7700005       0.00000000    
  -14.7600002       0.00000000    
  -14.7500000       0.00000000    
  -14.7399998       0.00000000    
  -14.7299995       0.00000000    
  -14.7200003       0.00000000    
  -14.7100000       0.00000000    
  -14.6999998       0.00000000    
  -14.6899996       0.00000000    
  -14.6800003       0.00000000    
  -14.6700001       0.00000000    
  -14.6599998       0.00000000    
  -14.6499996       0.00000000    
  -14.6400003       0.00000000    
  -14.6300001       0.00000000    
  -14.6199999       0.00000000    
  -14.6099997       0.00000000    
  -14.6000004       0.00000000    
  -14.5900002       0.00000000    
  -14.5799999       0.00000000    
  -14.5699997       0.00000000    
  -14.5600004       0.00000000    
  -14.5500002       0.00000000    
  -14.5400000      -0.00000000    
  -14.5299997      -0.00000000    
  -14.5200005      -0.00000000    
  -14.5100002      -0.00000000    
  -14.5000000       0.00000000    
  -14.4899998      -0.00000000    
  -14.4799995      -0.00000000    
  -14.4700003      -1.40129846E-45
  -14.4600000      -0.00000000    
  -14.4499998      -1.40129846E-45
  -14.4399996      -0.00000000    
  -14.4300003      -0.00000000    
  -14.4200001       0.00000000    
  -14.4099998       1.40129846E-45
  -14.3999996       1.40129846E-45
  -14.3900003       1.40129846E-45
  -14.3800001       2.80259693E-45
  -14.3699999       2.80259693E-45
  -14.3599997       2.80259693E-45
  -14.3500004       2.80259693E-45
  -14.3400002       2.80259693E-45
  -14.3299999       1.40129846E-45
  -14.3199997       1.40129846E-45
  -14.3100004      -0.00000000    
  -14.3000002      -1.40129846E-45
  -14.2900000      -1.40129846E-45
  -14.2799997      -0.00000000    
  -14.2700005      -0.00000000    
  -14.2600002       1.40129846E-45
  -14.2500000       4.20389539E-45
  -14.2399998       5.60519386E-45
  -14.2299995       8.40779079E-45
  -14.2200003       1.26116862E-44
  -14.2100000       1.40129846E-44
  -14.1999998       1.40129846E-44
  -14.1899996       1.40129846E-44
  -14.1800003       1.54142831E-44
  -14.1700001       1.26116862E-44
  -14.1599998       5.60519386E-45
  -14.1499996      -0.00000000    
  -14.1400003      -5.60519386E-45
  -14.1300001      -1.40129846E-45
  -14.1199999       4.20389539E-45
  -14.1099997       8.40779079E-45
  -14.1000004       9.80908925E-45
  -14.0900002       8.40779079E-45
  -14.0799999       5.60519386E-45
  -14.0699997       0.00000000    
  -14.0600004       0.00000000    
  -14.0500002       1.40129846E-45
  -14.0400000      -1.40129846E-45
  -14.0299997      -2.80259693E-45
  -14.0200005      -5.60519386E-45
  -14.0100002      -7.00649232E-45
  -14.0000000      -8.40779079E-45
  -13.9899998      -8.40779079E-45
  -13.9799995      -8.40779079E-45
  -13.9700003      -1.12103877E-44
  -13.9600000      -1.26116862E-44
  -13.9499998      -1.12103877E-44
  -13.9399996      -1.12103877E-44
  -13.9300003      -1.26116862E-44
  -13.9200001      -1.40129846E-44
  -13.9099998      -1.68155816E-44
  -13.8999996      -1.40129846E-44
  -13.8900003      -1.54142831E-44
  -13.8800001      -1.96181785E-44
  -13.8699999      -2.66246708E-44
  -13.8599997      -3.22298647E-44
  -13.8500004      -3.64337601E-44
  -13.8400002      -4.62428493E-44
  -13.8299999      -5.88545355E-44
  -13.8199997      -7.42688186E-44
  -13.8100004      -9.66895940E-44
  -13.8000002      -1.20511668E-43
  -13.7900000      -1.48537637E-43
  -13.7799997      -1.82168800E-43
  -13.7700005      -2.22806456E-43
  -13.7600002      -2.69049305E-43
  -13.7500000      -3.23699945E-43
  -13.7399998      -3.81153182E-43
  -13.7299995      -4.48415509E-43
  -13.7200003      -5.25486924E-43
  -13.7100000      -6.17972623E-43
  -13.6999998      -7.20267411E-43
  -13.6899996      -8.37976482E-43
  -13.6800003      -9.69698537E-43
  -13.6700001      -1.11403228E-42
  -13.6599998      -1.27658290E-42
  -13.6499996      -1.45875170E-42
  -13.6400003      -1.66614387E-42
  -13.6300001      -1.89315423E-42
  -13.6199999      -2.14258535E-42
  -13.6099997      -2.42144375E-42
  -13.6000004      -2.72972941E-42
  -13.5900002      -3.05623195E-42
  -13.5799999      -3.40375397E-42
  -13.5699997      -3.76949287E-42
  -13.5600004      -4.14784345E-42
  -13.5500002      -4.54160832E-42
  -13.5400000      -4.93817579E-42
  -13.5299997      -5.32073027E-42
  -13.5200005      -5.68366657E-42
  -13.5100002      -6.01157041E-42
  -13.5000000      -6.28902751E-42
  -13.4899998      -6.49361708E-42
  -13.4799995      -6.59591187E-42
  -13.4700003      -6.55527422E-42
  -13.4600000      -6.33246776E-42
  -13.4499998      -5.87284186E-42
  -13.4399996      -5.11473939E-42
  -13.4300003      -3.99650322E-42
  -13.4200001      -2.43545673E-42
  -13.4099998      -3.34910333E-43
  -13.3999996       2.42284504E-42
  -13.3900003       5.98494574E-42
  -13.3800001       1.05111398E-41
  -13.3699999       1.61723856E-41
  -13.3599997       2.31830818E-41
  -13.3500004       3.17968635E-41
  -13.3400002       4.22967928E-41
  -13.3299999       5.50009647E-41
  -13.3199997       7.02793219E-41
  -13.3100004       8.85648655E-41
  -13.3000002       1.10341044E-40
  -13.2900000       1.36161369E-40
  -13.2799997       1.66663433E-40
  -13.2700005       2.02563298E-40
  -13.2600002       2.44658304E-40
  -13.2500000       2.93871906E-40
  -13.2399998       3.51238263E-40
  -13.2299995       4.17930260E-40
  -13.2200003       4.95263719E-40
  -13.2100000       5.84708600E-40
  -13.1999998       6.87921238E-40
  -13.1899996       8.06768164E-40
  -13.1800003       9.43316291E-40
  -13.1700001       1.09987916E-39
  -13.1599998       1.27905199E-39
  -13.1499996       1.48371303E-39
  -13.1400003       1.71707967E-39
  -13.1300001       1.98270420E-39
  -13.1199999       2.28453689E-39
  -13.1099997       2.62696799E-39
  -13.1000004       3.01484180E-39
  -13.0900002       3.45352529E-39
  -13.0799999       3.94894175E-39
  -13.0699997       4.50763805E-39
  -13.0600004       5.13680004E-39
  -13.0500002       5.84434506E-39
  -13.0400000       6.63897798E-39
  -13.0299997       7.53028508E-39
  -13.0200005       8.52875227E-39
  -13.0100002       9.64584919E-39
  -13.0000000       1.08941917E-38
  -12.9899998       1.22875434E-38
  -12.9799995       1.38409024E-38
  -12.9700003       1.55706918E-38
  -12.9600000       1.74947923E-38
  -12.9499998       1.96326609E-38
  -12.9399996       2.20054754E-38
  -12.9300003       2.46362956E-38
  -12.9200001       2.75500967E-38
  -12.9099998       3.07739969E-38
  -12.8999996       3.43373951E-38
  -12.8900003       3.82721347E-38
  -12.8800001       4.26125026E-38
  -12.8699999       4.73957592E-38
  -12.8599997       5.26620126E-38
  -12.8500004       5.84546666E-38
  -12.8400002       6.48202947E-38
  -12.8299999       7.18091418E-38
  -12.8199997       7.94752702E-38
  -12.8100004       8.78767047E-38
  -12.8000002       9.70759488E-38
  -12.7900000       1.07139850E-37
  -12.7799997       1.18139808E-37
  -12.7700005       1.30152882E-37
  -12.7600002       1.43261121E-37
  -12.7500000       1.57552134E-37
  -12.7399998       1.73119585E-37
  -12.7299995       1.90063828E-37
  -12.7200003       2.08491396E-37
  -12.7100000       2.28515413E-37
  -12.6999998       2.50257422E-37
  -12.6899996       2.73845894E-37
  -12.6800003       2.99416385E-37
  -12.6700001       3.27114293E-37
  -12.6599998       3.57092753E-37
  -12.6499996       3.89514741E-37
  -12.6400003       4.24551239E-37
  -12.6300001       4.62385849E-37
  -12.6199999       5.03209597E-37
  -12.6099997       5.47226243E-37
  -12.6000004       5.94649321E-37
  -12.5900002       6.45703535E-37
  -12.5799999       7.00626273E-37
  -12.5699997       7.59667439E-37
  -12.5600004       8.23088011E-37
  -12.5500002       8.91164211E-37
  -12.5400000       9.64183654E-37
  -12.5299997       1.04244759E-36
  -12.5200005       1.12627205E-36
  -12.5100002       1.21598824E-36
  -12.5000000       1.31194073E-36
  -12.4899998       1.41448771E-36
  -12.4799995       1.52400235E-36
  -12.4700003       1.64087467E-36
  -12.4600000       1.76551302E-36
  -12.4499998       1.89833549E-36
  -12.4399996       2.03977650E-36
  -12.4300003       2.19028752E-36
  -12.4200001       2.35033760E-36
  -12.4099998       2.52041300E-36
  -12.3999996       2.70100965E-36
  -12.3900003       2.89263840E-36
  -12.3800001       3.09582587E-36
  -12.3699999       3.31112128E-36
  -12.3599997       3.53907169E-36
  -12.3500004       3.78025072E-36
  -12.3400002       4.03524955E-36
  -12.3299999       4.30466081E-36
  -12.3199997       4.58908109E-36
  -12.3100004       4.88913384E-36
  -12.3000002       5.20545188E-36
  -12.2900000       5.53865617E-36
  -12.2799997       5.88938346E-36
  -12.2700005       6.25829490E-36
  -12.2600002       6.64603154E-36
  -12.2500000       7.05322870E-36
  -12.2399998       7.48053783E-36
  -12.2299995       7.92860680E-36
  -12.2200003       8.39807559E-36
  -12.2100000       8.88956769E-36
  -12.1999998       9.40370011E-36
  -12.1899996       9.94107838E-36
  -12.1800003       1.05023030E-35
  -12.1700001       1.10879158E-35
  -12.1599998       1.16984503E-35
  -12.1499996       1.23344341E-35
  -12.1400003       1.29963270E-35
  -12.1300001       1.36845479E-35
  -12.1199999       1.43995145E-35
  -12.1099997       1.51415554E-35
  -12.1000004       1.59109345E-35
  -12.0900002       1.67078686E-35
  -12.0799999       1.75324753E-35
  -12.0699997       1.83848766E-35
  -12.0600004       1.92650452E-35
  -12.0500002       2.01728061E-35
  -12.0400000       2.11080372E-35
  -12.0299997       2.20703254E-35
  -12.0200005       2.30592746E-35
  -12.0100002       2.40742793E-35
  -12.0000000       2.51146033E-35
  -11.9899998       2.61794531E-35
  -11.9799995       2.72677295E-35
  -11.9700003       2.83781441E-35
  -11.9600000       2.95093622E-35
  -11.9499998       3.06596707E-35
  -11.9399996       3.18272959E-35
  -11.9300003       3.30101256E-35
  -11.9200001       3.42058467E-35
  -11.9099998       3.54117300E-35
  -11.8999996       3.66249314E-35
  -11.8900003       3.78421880E-35
  -11.8800001       3.90599353E-35
  -11.8699999       4.02742301E-35
  -11.8599997       4.14807304E-35
  -11.8500004       4.26747038E-35
  -11.8400002       4.38509902E-35
  -11.8299999       4.50040480E-35
  -11.8199997       4.61276553E-35
  -11.8100004       4.72151627E-35
  -11.8000002       4.82593696E-35
  -11.7900000       4.92524614E-35
  -11.7799997       5.01860094E-35
  -11.7700005       5.10508874E-35
  -11.7600002       5.18373207E-35
  -11.7500000       5.25346850E-35
  -11.7399998       5.31316100E-35
  -11.7299995       5.36157667E-35
  -11.7200003       5.39740916E-35
  -11.7100000       5.41923100E-35
  -11.6999998       5.42553837E-35
  -11.6899996       5.41470351E-35
  -11.6800003       5.38498726E-35
  -11.6700001       5.33452423E-35
  -11.6599998       5.26130379E-35
  -11.6499996       5.16320913E-35
  -11.6400003       5.03795412E-35
  -11.6300001       4.88309537E-35
  -11.6199999       4.69602876E-35
  -11.6099997       4.47396909E-35
  -11.6000004       4.21395698E-35
  -11.5900002       3.91281375E-35
  -11.5799999       3.56716704E-35
  -11.5699997       3.17341001E-35
  -11.5600004       2.72768872E-35
  -11.5500002       2.22590388E-35
  -11.5400000       1.66368080E-35
  -11.5299997       1.03636063E-35
  -11.5200005       3.38980959E-36
  -11.5100002      -4.33746546E-36
  -11.5000000      -1.28746277E-35
  -11.4899998      -2.22817666E-35
  -11.4799995      -3.26226688E-35
  -11.4700003      -4.39654316E-35
  -11.4600000      -5.63825923E-35
  -11.4499998      -6.99513098E-35
  -11.4399996      -8.47538315E-35
  -11.4300003      -1.00877527E-34
  -11.4200001      -1.18415524E-34
  -11.4099998      -1.37466786E-34
  -11.3999996      -1.58137292E-34
  -11.3900003      -1.80539058E-34
  -11.3800001      -2.04791320E-34
  -11.3699999      -2.31021374E-34
  -11.3599997      -2.59364035E-34
  -11.3500004      -2.89963232E-34
  -11.3400002      -3.22972009E-34
  -11.3299999      -3.58552662E-34
  -11.3199997      -3.96878438E-34
  -11.3100004      -4.38133698E-34
  -11.3000002      -4.82513936E-34
  -11.2900000      -5.30226288E-34
  -11.2799997      -5.81493178E-34
  -11.2700005      -6.36548558E-34
  -11.2600002      -6.95642266E-34
  -11.2500000      -7.59038927E-34
  -11.2399998      -8.27020795E-34
  -11.2299995      -8.99886751E-34
  -11.2200003      -9.77954637E-34
  -11.2100000      -1.06156452E-33
  -11.1999998      -1.15107208E-33
  -11.1899996      -1.24685944E-33
  -11.1800003      -1.34932875E-33
  -11.1700001      -1.45890751E-33
  -11.1599998      -1.57605287E-33
  -11.1499996      -1.70124246E-33
  -11.1400003      -1.83499113E-33
  -11.1300001      -1.97783794E-33
  -11.1199999      -2.13036090E-33
  -11.1099997      -2.29316467E-33
  -11.1000004      -2.46689336E-33
  -11.0900002      -2.65223172E-33
  -11.0799999      -2.84990248E-33
  -11.0699997      -3.06067193E-33
  -11.0600004      -3.28534912E-33
  -11.0500002      -3.52478483E-33
  -11.0400000      -3.77989172E-33
  -11.0299997      -4.05162009E-33
  -11.0200005      -4.34098419E-33
  -11.0100002      -4.64906326E-33
  -11.0000000      -4.97697953E-33
  -10.9899998      -5.32592907E-33
  -10.9799995      -5.69715717E-33
  -10.9700003      -6.09200866E-33
  -10.9600000      -6.51188752E-33
  -10.9499998      -6.95826387E-33
  -10.9399996      -7.43269266E-33
  -10.9300003      -7.93682472E-33
  -10.9200001      -8.47238655E-33
  -10.9099998      -9.04118843E-33
  -10.8999996      -9.64517800E-33
  -10.8900003      -1.02863595E-32
  -10.8800001      -1.09668708E-32
  -10.8699999      -1.16889226E-32
  -10.8599997      -1.24548799E-32
  -10.8500004      -1.32672170E-32
  -10.8400002      -1.41284899E-32
  -10.8299999      -1.50414523E-32
  -10.8199997      -1.60089591E-32
  -10.8100004      -1.70340078E-32
  -10.8000002      -1.81197150E-32
  -10.7900000      -1.92694028E-32
  -10.7799997      -2.04865097E-32
  -10.7700005      -2.17746781E-32
  -10.7600002      -2.31376902E-32
  -10.7500000      -2.45795237E-32
  -10.7399998      -2.61042266E-32
  -10.7299995      -2.77162349E-32
  -10.7200003      -2.94200375E-32
  -10.7100000      -3.12203394E-32
  -10.6999998      -3.31221424E-32
  -10.6899996      -3.51305861E-32
  -10.6800003      -3.72510134E-32
  -10.6700001      -3.94890841E-32
  -10.6599998      -4.18506346E-32
  -10.6499996      -4.43417128E-32
  -10.6400003      -4.69687664E-32
  -10.6300001      -4.97382869E-32
  -10.6199999      -5.26571687E-32
  -10.6099997      -5.57325793E-32
  -10.6000004      -5.89719596E-32
  -10.5900002      -6.23829856E-32
  -10.5799999      -6.59737741E-32
  -10.5699997      -6.97525300E-32
  -10.5600004      -7.37278109E-32
  -10.5500002      -7.79086858E-32
  -10.5400000      -8.23045116E-32
  -10.5299997      -8.69246040E-32
  -10.5200005      -9.17789490E-32
  -10.5100002      -9.68777086E-32
  -10.5000000      -1.02231592E-31
  -10.4899998      -1.07851536E-31
  -10.4799995      -1.13748968E-31
  -10.4700003      -1.19935395E-31
  -10.4600000      -1.26422995E-31
  -10.4499998      -1.33223888E-31
  -10.4399996      -1.40351334E-31
  -10.4300003      -1.47817944E-31
  -10.4200001      -1.55637427E-31
  -10.4099998      -1.63823781E-31
  -10.3999996      -1.72390937E-31
  -10.3900003      -1.81353928E-31
  -10.3800001      -1.90727403E-31
  -10.3699999      -2.00527064E-31
  -10.3599997      -2.10768182E-31
  -10.3500004      -2.21466968E-31
  -10.3400002      -2.32640324E-31
  -10.3299999      -2.44304989E-31
  -10.3199997      -2.56477609E-31
  -10.3100004      -2.69175723E-31
  -10.3000002      -2.82417126E-31
  -10.2900000      -2.96219804E-31
  -10.2799997      -3.10602353E-31
  -10.2700005      -3.25582736E-31
  -10.2600002      -3.41180794E-31
  -10.2500000      -3.57415123E-31
  -10.2399998      -3.74305166E-31
  -10.2299995      -3.91869897E-31
  -10.2200003      -4.10129650E-31
  -10.2100000      -4.29103539E-31
  -10.1999998      -4.48811689E-31
  -10.1899996      -4.69274930E-31
  -10.1800003      -4.90511787E-31
  -10.1700001      -5.12542714E-31
  -10.1599998      -5.35388447E-31
  -10.1499996      -5.59067699E-31
  -10.1400003      -5.83600125E-31
  -10.1300001      -6.09005662E-31
  -10.1199999      -6.35303492E-31
  -10.1099997      -6.62513177E-31
  -10.1000004      -6.90651550E-31
  -10.0900002      -7.19736947E-31
  -10.0799999      -7.49787379E-31
  -10.0699997      -7.80821276E-31
  -10.0600004      -8.12852181E-31
  -10.0500002      -8.45894951E-31
  -10.0400000      -8.79965291E-31
  -10.0299997      -9.15078436E-31
  -10.0200005      -9.51245670E-31
  -10.0100002      -9.88475927E-31
  -10.0000000      -1.02678397E-30
  -9.98999977      -1.06617479E-30
  -9.97999954      -1.10665825E-30
  -9.97000027      -1.14823849E-30
  -9.96000004      -1.19091985E-30
  -9.94999981      -1.23470203E-30
  -9.93999958      -1.27958776E-30
  -9.93000031      -1.32557301E-30
  -9.92000008      -1.37265118E-30
  -9.90999985      -1.42081936E-30
  -9.89999962      -1.47006759E-30
  -9.89000034      -1.52038026E-30
  -9.88000011      -1.57174278E-30
  -9.86999989      -1.62413653E-30
  -9.85999966      -1.67753840E-30
  -9.85000038      -1.73192090E-30
  -9.84000015      -1.78725396E-30
  -9.82999992      -1.84350673E-30
  -9.81999969      -1.90063688E-30
  -9.81000042      -1.95860154E-30
  -9.80000019      -2.01735369E-30
  -9.78999996      -2.07683822E-30
  -9.77999973      -2.13699701E-30
  -9.77000046      -2.19776762E-30
  -9.76000023      -2.25908216E-30
  -9.75000000      -2.32086163E-30
  -9.73999977      -2.38302403E-30
  -9.72999954      -2.44547795E-30
  -9.72000027      -2.50813424E-30
  -9.71000004      -2.57087762E-30
  -9.69999981      -2.63360312E-30
  -9.68999958      -2.69619378E-30
  -9.68000031      -2.75851999E-30
  -9.67000008      -2.82044503E-30
  -9.65999985      -2.88181919E-30
  -9.64999962      -2.94249370E-30
  -9.64000034      -3.00229909E-30
  -9.63000011      -3.06105274E-30
  -9.61999989      -3.11857805E-30
  -9.60999966      -3.17467697E-30
  -9.60000038      -3.22913752E-30
  -9.59000015      -3.28174099E-30
  -9.57999992      -3.33225264E-30
  -9.56999969      -3.38042873E-30
  -9.56000042      -3.42600330E-30
  -9.55000019      -3.46871757E-30
  -9.53999996      -3.50827700E-30
  -9.52999973      -3.54437991E-30
  -9.52000046      -3.57671447E-30
  -9.51000023      -3.60495341E-30
  -9.50000000      -3.62873714E-30
  -9.48999977      -3.64771771E-30
  -9.47999954      -3.66150993E-30
  -9.47000027      -3.66971958E-30
  -9.46000004      -3.67193214E-30
  -9.44999981      -3.66771729E-30
  -9.43999958      -3.65661536E-30
  -9.43000031      -3.63817194E-30
  -9.42000008      -3.61189052E-30
  -9.40999985      -3.57727645E-30
  -9.39999962      -3.53378203E-30
  -9.39000034      -3.48086973E-30
  -9.38000011      -3.41797383E-30
  -9.36999989      -3.34449358E-30
  -9.35999966      -3.25981887E-30
  -9.35000038      -3.16332451E-30
  -9.34000015      -3.05434396E-30
  -9.32999992      -2.93220163E-30
  -9.31999969      -2.79619807E-30
  -9.31000042      -2.64560652E-30
  -9.30000019      -2.47967204E-30
  -9.28999996      -2.29762822E-30
  -9.27999973      -2.09867627E-30
  -9.27000046      -1.88199316E-30
  -9.26000023      -1.64673875E-30
  -9.25000000      -1.39203508E-30
  -9.23999977      -1.11699555E-30
  -9.22999954      -8.20694609E-31
  -9.22000027      -5.02184211E-31
  -9.21000004      -1.60497203E-31
  -9.19999981       2.05358275E-31
  -9.18999958       5.96399660E-31
  -9.18000031       1.01367420E-30
  -9.17000008       1.45825171E-30
  -9.15999985       1.93121779E-30
  -9.14999962       2.43369253E-30
  -9.14000034       2.96681646E-30
  -9.13000011       3.53175002E-30
  -9.11999989       4.12967829E-30
  -9.10999966       4.76180461E-30
  -9.10000038       5.42935638E-30
  -9.09000015       6.13359486E-30
  -9.07999992       6.87578807E-30
  -9.06999969       7.65721985E-30
  -9.06000042       8.47918870E-30
  -9.05000019       9.34303599E-30
  -9.03999996       1.02500918E-29
  -9.02999973       1.12017081E-29
  -9.02000046       1.21992631E-29
  -9.01000023       1.32441508E-29
  -9.00000000       1.43377450E-29
  -8.98999977       1.54814555E-29
  -8.97999954       1.66767041E-29
  -8.97000027       1.79249008E-29
  -8.96000004       1.92274449E-29
  -8.94999981       2.05857686E-29
  -8.93999958       2.20012925E-29
  -8.93000031       2.34754791E-29
  -8.92000008       2.50097200E-29
  -8.90999985       2.66053861E-29
  -8.89999962       2.82638946E-29
  -8.89000034       2.99866390E-29
  -8.88000011       3.17749853E-29
  -8.86999989       3.36303148E-29
  -8.85999966       3.55538765E-29
  -8.85000038       3.75470425E-29
  -8.84000015       3.96110646E-29
  -8.82999992       4.17471346E-29
  -8.81999969       4.39565253E-29
  -8.81000042       4.62402960E-29
  -8.80000019       4.85997197E-29
  -8.78999996       5.10357472E-29
  -8.77999973       5.35494409E-29
  -8.77000046       5.61417125E-29
  -8.76000023       5.88135371E-29
  -8.75000000       6.15656849E-29
  -8.73999977       6.43989024E-29
  -8.72999954       6.73137914E-29
  -8.72000027       7.03108634E-29
  -8.71000004       7.33906420E-29
  -8.69999981       7.65537412E-29
  -8.68999958       7.98003656E-29
  -8.68000031       8.31305512E-29
  -8.67000008       8.65444185E-29
  -8.65999985       9.00418231E-29
  -8.64999962       9.36226926E-29
  -8.64000034       9.72864553E-29
  -8.63000011       1.01032732E-28
  -8.61999989       1.04860759E-28
  -8.60999966       1.08770132E-28
  -8.60000038       1.12759407E-28
  -8.59000015       1.16827693E-28
  -8.57999992       1.20973763E-28
  -8.56999969       1.25195750E-28
  -8.56000042       1.29491970E-28
  -8.55000019       1.33860280E-28
  -8.53999996       1.38298742E-28
  -8.52999973       1.42804853E-28
  -8.52000046       1.47376047E-28
  -8.51000023       1.52009197E-28
  -8.50000000       1.56701183E-28
  -8.48999977       1.61448625E-28
  -8.47999954       1.66247344E-28
  -8.47000027       1.71093513E-28
  -8.46000004       1.75983004E-28
  -8.44999981       1.80911218E-28
  -8.43999958       1.85873016E-28
  -8.43000031       1.90862715E-28
  -8.42000008       1.95874743E-28
  -8.40999985       2.00903117E-28
  -8.39999962       2.05941037E-28
  -8.39000034       2.10982111E-28
  -8.38000011       2.16018923E-28
  -8.36999989       2.21044035E-28
  -8.35999966       2.26049214E-28
  -8.35000038       2.31025576E-28
  -8.34000015       2.35965081E-28
  -8.32999992       2.40857810E-28
  -8.31999969       2.45693483E-28
  -8.31000042       2.50461941E-28
  -8.30000019       2.55153001E-28
  -8.28999996       2.59754192E-28
  -8.27999973       2.64254488E-28
  -8.27000046       2.68640505E-28
  -8.26000023       2.72899988E-28
  -8.25000000       2.77019432E-28
  -8.23999977       2.80985090E-28
  -8.22999954       2.84781892E-28
  -8.22000027       2.88394118E-28
  -8.21000004       2.91806409E-28
  -8.19999981       2.95002008E-28
  -8.18999958       2.97963992E-28
  -8.18000031       3.00674955E-28
  -8.17000008       3.03116625E-28
  -8.15999985       3.05268972E-28
  -8.14999962       3.07113411E-28
  -8.14000034       3.08629720E-28
  -8.13000011       3.09796448E-28
  -8.11999989       3.10591881E-28
  -8.10999966       3.10994593E-28
  -8.10000038       3.10981497E-28
  -8.09000015       3.10527387E-28
  -8.07999992       3.09608622E-28
  -8.06999969       3.08200863E-28
  -8.06000042       3.06277317E-28
  -8.05000019       3.03812415E-28
  -8.03999996       3.00778305E-28
  -8.02999973       2.97147374E-28
  -8.02000046       2.92891189E-28
  -8.01000023       2.87979586E-28
  -8.00000000       2.82383171E-28
  -7.98999977       2.76071296E-28
  -7.98000002       2.69012763E-28
  -7.96999979       2.61174686E-28
  -7.96000004       2.52524684E-28
  -7.94999981       2.43029681E-28
  -7.94000006       2.32655948E-28
  -7.92999983       2.21367904E-28
  -7.92000008       2.09130883E-28
  -7.90999985       1.95908483E-28
  -7.90000010       1.81663848E-28
  -7.88999987       1.66360180E-28
  -7.88000011       1.49960368E-28
  -7.86999989       1.32424897E-28
  -7.86000013       1.13716016E-28
  -7.84999990       9.37945939E-29
  -7.84000015       7.26199751E-29
  -7.82999992       5.01527445E-29
  -7.82000017       2.63523369E-29
  -7.80999994       1.17772309E-30
  -7.80000019      -2.54127931E-29
  -7.78999996      -5.34599875E-29
  -7.78000021      -8.30062806E-29
  -7.76999998      -1.14093233E-28
  -7.76000023      -1.46763216E-28
  -7.75000000      -1.81058528E-28
  -7.73999977      -2.17021394E-28
  -7.73000002      -2.54694389E-28
  -7.71999979      -2.94119691E-28
  -7.71000004      -3.35339166E-28
  -7.69999981      -3.78395401E-28
  -7.69000006      -4.23330235E-28
  -7.67999983      -4.70184644E-28
  -7.67000008      -5.19000179E-28
  -7.65999985      -5.69817959E-28
  -7.65000010      -6.22678044E-28
  -7.63999987      -6.77620540E-28
  -7.63000011      -7.34683051E-28
  -7.61999989      -7.93904579E-28
  -7.61000013      -8.55322725E-28
  -7.59999990      -9.18973554E-28
  -7.59000015      -9.84893611E-28
  -7.57999992      -1.05311477E-27
  -7.57000017      -1.12367333E-27
  -7.55999994      -1.19659732E-27
  -7.55000019      -1.27191986E-27
  -7.53999996      -1.34966946E-27
  -7.53000021      -1.42986952E-27
  -7.51999998      -1.51255027E-27
  -7.51000023      -1.59773338E-27
  -7.50000000      -1.68544042E-27
  -7.48999977      -1.77568796E-27
  -7.48000002      -1.86849448E-27
  -7.46999979      -1.96387500E-27
  -7.46000004      -2.06183935E-27
  -7.44999981      -2.16240005E-27
  -7.44000006      -2.26556153E-27