  -16.0000000       0.00000000    
  -15.9899998       0.00000000    
  -15.9799995       0.00000000    
  -15.9700003       0.00000000    
  -15.9600000       0.00000000    
  -15.9499998       0.00000000    
  -15.9399996      -3.34000444E-16
  -15.9300003      -3.18966350E-15
  -15.9200001      -1.49353000E-14
  -15.9099998      -4.30013962E-14
  -15.8999996      -7.16224362E-14
  -15.8900003       5.58545966E-16
  -15.8800001       4.49002109E-13
  -15.8699999       1.75081672E-12
  -15.8599997       4.36784593E-12
  -15.8500004       8.07889259E-12
  -15.8400002       1.08542489E-11
  -15.8299999       7.79231801E-12
  -15.8199997      -8.62048800E-12
  -15.8100004      -4.51855324E-11
  -15.8000002      -1.00443792E-10
  -15.7900000      -1.54127558E-10
  -15.7799997      -1.58967631E-10
  -15.7700005      -4.45333735E-11
  -15.7600002       2.56029503E-10
  -15.7500000       7.51450568E-10
  -15.7399998       1.32053057E-09
  -15.7299995       1.65620895E-09
  -15.7200003       1.27885658E-09
  -15.7100000      -3.25595606E-10
  -15.6999998      -3.41870376E-09
  -15.6899996      -7.62183561E-09
  -15.6800003      -1.15751781E-08
  -15.6700001      -1.28766358E-08
  -15.6599998      -8.54930438E-09
  -15.6499996       3.82777232E-09
  -15.6400003       2.44534615E-08
  -15.6300001       4.95958226E-08
  -15.6199999       7.06736358E-08
  -15.6099997       7.50820632E-08
  -15.6000004       4.94391088E-08
  -15.5900002      -1.48311434E-08
  -15.5799999      -1.14801999E-07
  -15.5699997      -2.30620344E-07
  -15.5600004      -3.24423524E-07
  -15.5500002      -3.46292865E-07
  -15.5400000      -2.48236120E-07
  -15.5299997      -4.24478408E-09
  -15.5200005       3.68903358E-07
  -15.5100002       7.98089900E-07
  -15.5000000       1.15596140E-06
  -15.4899998       1.28438376E-06
  -15.4799995       1.03883792E-06
  -15.4700003       3.45231712E-07
  -15.4600000      -7.47201284E-07
  -15.4499998      -2.03738318E-06
  -15.4399996      -3.18677735E-06
  -15.4300003      -3.78550703E-06
  -15.4200001      -3.46345678E-06
  -15.4099998      -2.02170486E-06
  -15.3999996       4.54272765E-07
  -15.3900003       3.54245367E-06
  -15.3800001       6.52595645E-06
  -15.3699999       8.53807160E-06
  -15.3599997       8.78767696E-06
  -15.3500004       6.81060465E-06
  -15.3400002       2.67239307E-06
  -15.3299999      -2.95052519E-06
  -15.3199997      -8.85904592E-06
  -15.3100004      -1.35903529E-05
  -15.3000002      -1.57944305E-05
  -15.2900000      -1.46294542E-05
  -15.2799997      -1.00566613E-05
  -15.2700005      -2.93102266E-06
  -15.2600002       5.16396040E-06
  -15.2500000       1.23146128E-05
  -15.2399998       1.68075967E-05
  -15.2299995       1.76396097E-05
  -15.2200003       1.48429690E-05
  -15.2100000       9.50780395E-06
  -15.1999998       3.46677393E-06
  -15.1899996      -1.28419867E-06
  -15.1800003      -3.26404347E-06
  -15.1700001      -2.07020685E-06
  -15.1599998       1.36925735E-06
  -15.1499996       4.97018527E-06
  -15.1400003       6.08343225E-06
  -15.1300001       2.36033793E-06
  -15.1199999      -7.34982950E-06
  -15.1099997      -2.23437091E-05
  -15.1000004      -3.98753618E-05
  -15.0900002      -5.55427723E-05
  -15.0799999      -6.42025625E-05
  -15.0699997      -6.12158401E-05
  -15.0600004      -4.37289309E-05
  -15.0500002      -1.16714973E-05
  -15.0400000       3.17890444E-05
  -15.0299997       8.04709634E-05
  -15.0200005       1.26062427E-04
  -15.0100002       1.59508942E-04
  -15.0000000       1.72642656E-04
  -14.9899998       1.59761548E-04
  -14.9799995       1.18880118E-04
  -14.9700003       5.24391544E-05
  -14.9600000      -3.26469853E-05
  -14.9499998      -1.25641789E-04
  -14.9399996      -2.13284016E-04
  -14.9300003      -2.81595916E-04
  -14.9200001      -3.17994913E-04
  -14.9099998      -3.13429045E-04
  -14.8999996      -2.64202303E-04
  -14.8900003      -1.73141350E-04
  -14.8800001      -4.98026566E-05
  -14.8699999       9.04627814E-05
  -14.8599997       2.28567718E-04
  -14.8500004       3.44614702E-04
  -14.8400002       4.21203091E-04
  -14.8299999       4.46477061E-04
  -14.8199997       4.16260358E-04
  -14.8100004       3.34768556E-04
  -14.8000002       2.13682841E-04
  -14.7900000       6.97545038E-05
  -14.7799997      -7.85231096E-05
  -14.7700005      -2.14393818E-04
  -14.7600002      -3.25612491E-04
  -14.7500000      -4.05850267E-04
  -14.7399998      -4.54424095E-04
  -14.7299995      -4.74505941E-04
  -14.7200003      -4.70417173E-04
  -14.7100000      -4.44885838E-04
  -14.6999998      -3.97166848E-04
  -14.6899996      -3.22717940E-04
  -14.6800003      -2.14655156E-04
  -14.6700001      -6.66876076E-05
  -14.6599998       1.23236037E-04
  -14.6499996       3.49630602E-04
  -14.6400003       5.97560313E-04
  -14.6300001       8.42865149E-04
  -14.6199999       1.05476554E-03
  -14.6099997       1.20047166E-03
  -14.6000004       1.25093106E-03
  -14.5900002       1.18651160E-03
  -14.5799999       1.00139901E-03
  -14.5699997       7.05736631E-04
  -14.5600004       3.25070287E-04
  -14.5500002      -1.02856422E-04
  -14.5400000      -5.33253304E-04
  -14.5299997      -9.20441176E-04
  -14.5200005      -1.22385891E-03
  -14.5100002      -1.41293008E-03
  -14.5000000      -1.47009222E-03
  -14.4899998      -1.39173586E-03
  -14.4799995      -1.18718552E-03
  -14.4700003      -8.76214122E-04
  -14.4600000      -4.85760858E-04
  -14.4499998      -4.64855111E-05
  -14.4399996       4.10219043E-04
  -14.4300003       8.54463782E-04
  -14.4200001       1.25922880E-03
  -14.4099998       1.60096004E-03
  -14.3999996       1.85969775E-03
  -14.3900003       2.01902073E-03
  -14.3800001       2.06616870E-03
  -14.3699999       1.99246733E-03
  -14.3599997       1.79416628E-03
  -14.3500004       1.47350307E-03
  -14.3400002       1.03975600E-03
  -14.3299999       5.09915524E-04
  -14.3199997      -9.13522381E-05
  -14.3100004      -7.32721644E-04
  -14.3000002      -1.37824519E-03
  -14.2900000      -1.99027406E-03
  -14.2799997      -2.53291079E-03
  -14.2700005      -2.97551486E-03
  -14.2600002      -3.29573615E-03
  -14.2500000      -3.48162767E-03
  -14.2399998      -3.53258662E-03
  -14.2299995      -3.45898024E-03
  -14.2200003      -3.28063499E-03
  -14.2100000      -3.02436226E-03
  -14.1999998      -2.72086589E-03
  -14.1899996      -2.40131002E-03
  -14.1800003      -2.09385832E-03
  -14.1700001      -1.82051479E-03
  -14.1599998      -1.59457035E-03
  -14.1499996      -1.41911837E-03
  -14.1400003      -1.28696463E-03
  -14.1300001      -1.18228956E-03
  -14.1199999      -1.08400302E-03
  -14.1099997      -9.70470079E-04
  -14.1000004      -8.24735733E-04
  -14.0900002      -6.39070873E-04
  -14.0799999      -4.17630799E-04
  -14.0699997      -1.76195113E-04
  -14.0600004       6.12944423E-05
  -14.0500002       2.68855132E-04
  -14.0400000       4.25831095E-04
  -14.0299997       5.23575465E-04
  -14.0200005       5.69392054E-04
  -14.0100002       5.86451555E-04
  -14.0000000       6.09335490E-04
  -13.9899998       6.76262425E-04
  -13.9799995       8.20058573E-04
  -13.9700003       1.06047851E-03
  -13.9600000       1.40010228E-03
  -13.9499998       1.82505313E-03
  -13.9399996       2.31019221E-03
  -13.9300003       2.82715820E-03
  -13.9200001       3.35251633E-03
  -13.9099998       3.87351005E-03
  -13.8999996       4.38951002E-03
  -13.8900003       4.90895798E-03
  -13.8800001       5.44306450E-03
  -13.8699999       5.99866221E-03
  -13.8599997       6.57287752E-03
  -13.8500004       7.15156272E-03
  -13.8400002       7.71198748E-03
  -13.8299999       8.22867546E-03
  -13.8199997       8.68011918E-03
  -13.8100004       9.05376393E-03
  -13.8000002       9.34734382E-03
  -13.7900000       9.56611149E-03
  -13.7799997       9.71709844E-03
  -13.7700005       9.80270933E-03
  -13.7600002       9.81627312E-03
  -13.7500000       9.74136405E-03
  -13.7399998       9.55524482E-03
  -13.7299995       9.23506543E-03
  -13.7200003       8.76448303E-03
  -13.7100000       8.13799538E-03
  -13.6999998       7.36132031E-03
  -13.6899996       6.44782884E-03
  -13.6800003       5.41242352E-03
  -13.6700001       4.26579360E-03
  -13.6599998       3.01139802E-03
  -13.6499996       1.64681545E-03
  -13.6400003       1.69031468E-04
  -13.6300001      -1.41840172E-03
  -13.6199999      -3.09942453E-03
  -13.6099997      -4.84353397E-03
  -13.6000004      -6.60916790E-03
  -13.5900002      -8.35169666E-03
  -13.5799999      -1.00332834E-02
  -13.5699997      -1.16311470E-02
  -13.5600004      -1.31409960E-02
  -13.5500002      -1.45743089E-02
  -13.5400000      -1.59505457E-02
  -13.5299997      -1.72870494E-02
  -13.5200005      -1.85907762E-02
  -13.5100002      -1.98548362E-02
  -13.5000000      -2.10612267E-02
  -13.4899998      -2.21883114E-02
  -13.4799995      -2.32199207E-02
  -13.4700003      -2.41519567E-02
  -13.4600000      -2.49936171E-02
  -13.4499998      -2.57625673E-02
  -13.4399996      -2.64759362E-02
  -13.4300003      -2.71412842E-02
  -13.4200001      -2.77515836E-02
  -13.4099998      -2.82871984E-02
  -13.3999996      -2.87247542E-02
  -13.3900003      -2.90500429E-02
  -13.3800001      -2.92700324E-02
  -13.3699999      -2.94190645E-02
  -13.3599997      -2.95562185E-02
  -13.3500004      -2.97542643E-02
  -13.3400002      -3.00837290E-02
  -13.3299999      -3.05976607E-02
  -13.3199997      -3.13225426E-02
  -13.3100004      -3.22583988E-02
  -13.3000002      -3.33873741E-02
  -13.2900000      -3.46871205E-02
  -13.2799997      -3.61426845E-02
  -13.2700005      -3.77520695E-02
  -13.2600002      -3.95226106E-02
  -13.2500000      -4.14602011E-02
  -13.2399998      -4.35556099E-02
  -13.2299995      -4.57751937E-02
  -13.2200003      -4.80603687E-02
  -13.2100000      -5.03377654E-02
  -13.1999998      -5.25368936E-02
  -13.1899996      -5.46088517E-02
  -13.1800003      -5.65382466E-02
  -13.1700001      -5.83427548E-02
  -13.1599998      -6.00594766E-02
  -13.1499996      -6.17222264E-02
  -13.1400003      -6.33383542E-02
  -13.1300001      -6.48738667E-02
  -13.1199999      -6.62541091E-02
  -13.1099997      -6.73801154E-02
  -13.1000004      -6.81563169E-02
  -13.0900002      -6.85190633E-02
  -13.0799999      -6.84556738E-02
  -13.0699997      -6.80067837E-02
  -13.0600004      -6.72496781E-02
  -13.0500002      -6.62692934E-02
  -13.0400000      -6.51263520E-02
  -13.0299997      -6.38346076E-02
  -13.0200005      -6.23555742E-02
  -13.0100002      -6.06119558E-02
  -13.0000000      -5.85147403E-02
  -12.9899998      -5.59933856E-02
  -12.9799995      -5.30178249E-02
  -12.9700003      -4.96038906E-02
  -12.9600000      -4.58017141E-02
  -12.9499998      -4.16720957E-02
  -12.9399996      -3.72615308E-02
  -12.9300003      -3.25866863E-02
  -12.9200001      -2.76351944E-02
  -12.9099998      -2.23819632E-02
  -12.8999996      -1.68148782E-02
  -12.8900003      -1.09582199E-02
  -12.8800001      -4.88305697E-03
  -12.8699999       1.30035344E-03
  -12.8599997       7.46714231E-03
  -12.8500004       1.35095464E-02
  -12.8400002       1.93647426E-02
  -12.8299999       2.50261240E-02
  -12.8199997       3.05339433E-02
  -12.8100004       3.59480642E-02
  -12.8000002       4.13121469E-02
  -12.7900000       4.66239229E-02
  -12.7799997       5.18221408E-02
  -12.7700005       5.67956232E-02
  -12.7600002       6.14111945E-02
  -12.7500000       6.55490905E-02
  -12.7399998       6.91330135E-02
  -12.7299995       7.21425936E-02
  -12.7200003       7.46045560E-02
  -12.7100000       7.65662566E-02
  -12.6999998       7.80628994E-02
  -12.6899996       7.90911838E-02
  -12.6800003       7.96009600E-02
  -12.6700001       7.95067772E-02
  -12.6599998       7.87147507E-02
  -12.6499996       7.71535411E-02
  -12.6400003       7.47958645E-02
  -12.6300001       7.16623887E-02
  -12.6199999       6.78059161E-02
  -12.6099997       6.32837489E-02
  -12.6000004       5.81291206E-02
  -12.5900002       5.23352176E-02
  -12.5799999       4.58589606E-02
  -12.5699997       3.86434011E-02
  -12.5600004       3.06498986E-02
  -12.5500002       2.18868125E-02
  -12.5400000       1.24225253E-02
  -12.5299997       2.37527071E-03
  -12.5200005      -8.11634865E-03
  -12.5100002      -1.89318601E-02
  -12.5000000      -3.00012734E-02
  -12.4899998      -4.13199067E-02
  -12.4799995      -5.29377609E-02
  -12.4700003      -6.49292916E-02
  -12.4600000      -7.73539990E-02
  -12.4499998      -9.02239233E-02
  -12.4399996     -0.103489488    
  -12.4300003     -0.117049657    
  -12.4200001     -0.130780667    
  -12.4099998     -0.144571722    
  -12.3999996     -0.158352956    
  -12.3900003     -0.172104001    
  -12.3800001     -0.185841233    
  -12.3699999     -0.199588940    
  -12.3599997     -0.213348076    
  -12.3500004     -0.227076605    
  -12.3400002     -0.240689337    
  -12.3299999     -0.254080147    
  -12.3199997     -0.267155349    
  -12.3100004     -0.279865980    
  -12.3000002     -0.292222798    
  -12.2900000     -0.304288775    
  -12.2799997     -0.316148788    
  -12.2700005     -0.327868909    
  -12.2600002     -0.339460403    
  -12.2500000     -0.350863755    
  -12.2399998     -0.361959040    
  -12.2299995     -0.372600704    
  -12.2200003     -0.382661998    
  -12.2100000     -0.392074376    
  -12.1999998     -0.400845587    
  -12.1899996     -0.409051418    
  -12.1800003     -0.416801721    
  -12.1700001     -0.424199551    
  -12.1599998     -0.431303471    
  -12.1499996     -0.438112706    
  -12.1400003     -0.444575816    
  -12.1300001     -0.450621873    
  -12.1199999     -0.456196100    
  -12.1099997     -0.461289942    
  -12.1000004     -0.465946794    
  -12.0900002     -0.470246732    
  -12.0799999     -0.474271595    
  -12.0699997     -0.478068441    
  -12.0600004     -0.481625825    
  -12.0500002     -0.484873265    
  -12.0400000     -0.487704754    
  -12.0299997     -0.490019500    
  -12.0200005     -0.491760671    
  -12.0100002     -0.492940694    
  -12.0000000     -0.493640125    
  -11.9899998     -0.493981928    
  -11.9799995     -0.494090050    
  -11.9700003     -0.494047880    
  -11.9600000     -0.493873209    
  -11.9499998     -0.493514746    
  -11.9399996     -0.492875934    
  -11.9300003     -0.491849959    
  -11.9200001     -0.490355372    
  -11.9099998     -0.488358289    
  -11.8999996     -0.485873133    
  -11.8900003     -0.482943594    
  -11.8800001     -0.479616076    
  -11.8699999     -0.475914538    
  -11.8599997     -0.471830398    
  -11.8500004     -0.467330843    
  -11.8400002     -0.462379932    
  -11.8299999     -0.456963718    
  -11.8199997     -0.451108187    
  -11.8100004     -0.444878668    
  -11.8000002     -0.438362211    
  -11.7900000     -0.431639135    
  -11.7799997     -0.424754798    
  -11.7700005     -0.417702526    
  -11.7600002     -0.410427719    
  -11.7500000     -0.402849078    
  -11.7399998     -0.394890815    
  -11.7299995     -0.386513054    
  -11.7200003     -0.377729595    
  -11.7100000     -0.368605763    
  -11.6999998     -0.359239101    
  -11.6899996     -0.349732071    
  -11.6800003     -0.340166032    
  -11.6700001     -0.330586255    
  -11.6599998     -0.321006238    
  -11.6499996     -0.311422795    
  -11.6400003     -0.301837027    
  -11.6300001     -0.292269677    
  -11.6199999     -0.282765478    
  -11.6099997     -0.273383915    
  -11.6000004     -0.264179051    
  -11.5900002     -0.255182147    
  -11.5799999     -0.246392533    
  -11.5699997     -0.237781987    
  -11.5600004     -0.229313925    
  -11.5500002     -0.220964447    
  -11.5400000     -0.212741941    
  -11.5299997     -0.204694688    
  -11.5200005     -0.196901351    
  -11.5100002     -0.189449638    
  -11.5000000     -0.182413608    
  -11.4899998     -0.175835654    
  -11.4799995     -0.169722572    
  -11.4700003     -0.164056927    
  -11.4600000     -0.158818111    
  -11.4499998     -0.154004827    
  -11.4399996     -0.149647132    
  -11.4300003     -0.145804629    
  -11.4200001     -0.142547950    
  -11.4099998     -0.139937758    
  -11.3999996     -0.137999892    
  -11.3900003     -0.136718675    
  -11.3800001     -0.136042193    
  -11.3699999     -0.135904908    
  -11.3599997     -0.136252120    
  -11.3500004     -0.137061536    
  -11.3400002     -0.138349697    
  -11.3299999     -0.140159994    
  -11.3199997     -0.142541111    
  -11.3100004     -0.145518214    
  -11.3000002     -0.149076596    
  -11.2900000     -0.153156012    
  -11.2799997     -0.157670483    
  -11.2700005     -0.162530050    
  -11.2600002     -0.167672798    
  -11.2500000     -0.173083156    
  -11.2399998     -0.178789586    
  -11.2299995     -0.184851825    
  -11.2200003     -0.191327810    
  -11.2100000     -0.198249862    
  -11.1999998     -0.205603570    
  -11.1899996     -0.213327006    
  -11.1800003     -0.221327811    
  -11.1700001     -0.229507819    
  -11.1599998     -0.237788901    
  -11.1499996     -0.246128470    
  -11.1400003     -0.254521638    
  -11.1300001     -0.262983590    
  -11.1199999     -0.271533817    
  -11.1099997     -0.280173868    
  -11.1000004     -0.288878798    
  -11.0900002     -0.297602177    
  -11.0799999     -0.306288630    
  -11.0699997     -0.314892143    
  -11.0600004     -0.323390514    
  -11.0500002     -0.331787586    
  -11.0400000     -0.340108037    
  -11.0299997     -0.348378122    
  -11.0200005     -0.356616080    
  -11.0100002     -0.364818960    
  -11.0000000     -0.372965842    
  -10.9899998     -0.381025314    
  -10.9799995     -0.388974041    
  -10.9700003     -0.396801651    
  -10.9600000     -0.404519677    
  -10.9499998     -0.412150830    
  -10.9399996     -0.419719696    
  -10.9300003     -0.427237332    
  -10.9200001     -0.434695393    
  -10.9099998     -0.442067891    
  -10.8999996     -0.449322879    
  -10.8900003     -0.456442565    
  -10.8800001     -0.463432789    
  -10.8699999     -0.470331818    
  -10.8599997     -0.477202207    
  -10.8500004     -0.484118789    
  -10.8400002     -0.491143793    
  -10.8299999     -0.498316228    
  -10.8199997     -0.505642235    
  -10.8100004     -0.513104081    
  -10.8000002     -0.520674288    
  -10.7900000     -0.528329909    
  -10.7799997     -0.536066830    
  -10.7700005     -0.543904603    
  -10.7600002     -0.551875412    
  -10.7500000     -0.560015202    
  -10.7399998     -0.568346858    
  -10.7299995     -0.576877534    
  -10.7200003     -0.585595727    
  -10.7100000     -0.594489157    
  -10.6999998     -0.603548765    
  -10.6899996     -0.612787068    
  -10.6800003     -0.622232914    
  -10.6700001     -0.631930411    
  -10.6599998     -0.641919434    
  -10.6499996     -0.652227998    
  -10.6400003     -0.662859738    
  -10.6300001     -0.673795581    
  -10.6199999     -0.685004950    
  -10.6099997     -0.696458161    
  -10.6000004     -0.708134353    
  -10.5900002     -0.720034659    
  -10.5799999     -0.732168794    
  -10.5699997     -0.744550407    
  -10.5600004     -0.757181346    
  -10.5500002     -0.770051122    
  -10.5400000     -0.783132493    
  -10.5299997     -0.796401024    
  -10.5200005     -0.809843421    
  -10.5100002     -0.823475420    
  -10.5000000     -0.837338865    
  -10.4899998     -0.851496816    
  -10.4799995     -0.866010904    
  -10.4700003     -0.880921960    
  -10.4600000     -0.896232903    
  -10.4499998     -0.911910415    
  -10.4399996     -0.927891076    
  -10.4300003     -0.944108367    
  -10.4200001     -0.960515559    
  -10.4099998     -0.977098942    
  -10.3999996     -0.993883729    
  -10.3900003      -1.01091576    
  -10.3800001      -1.02824712    
  -10.3699999      -1.04590762    
  -10.3599997      -1.06390035    
  -10.3500004      -1.08219981    
  -10.3400002      -1.10077167    
  -10.3299999      -1.11959076    
  -10.3199997      -1.13865578    
  -10.3100004      -1.15799308    
  -10.3000002      -1.17765021    
  -10.2900000      -1.19766307    
  -10.2799997      -1.21803772    
  -10.2700005      -1.23873746    
  -10.2600002      -1.25968623    
  -10.2500000      -1.28079045    
  -10.2399998      -1.30197310    
  -10.2299995      -1.32320893    
  -10.2200003      -1.34453154    
  -10.2100000      -1.36603200    
  -10.1999998      -1.38782227    
  -10.1899996      -1.41000354    
  -10.1800003      -1.43261504    
  -10.1700001      -1.45562458    
  -10.1599998      -1.47892761    
  -10.1499996      -1.50238729    
  -10.1400003      -1.52586722    
  -10.1300001      -1.54928744    
  -10.1199999      -1.57262874    
  -10.1099997      -1.59594250    
  -10.1000004      -1.61931276    
  -10.0900002      -1.64282203    
  -10.0799999      -1.66650379    
  -10.0699997      -1.69033492    
  -10.0600004      -1.71423495    
  -10.0500002      -1.73810530    
  -10.0400000      -1.76186168    
  -10.0299997      -1.78546882    
  -10.0200005      -1.80895388    
  -10.0100002      -1.83239067    
  -10.0000000      -1.85586631    
  -9.98999977      -1.87943614    
  -9.97999954      -1.90309465    
  -9.97000027      -1.92677081    
  -9.96000004      -1.95033622    
  -9.94999981      -1.97364843    
  -9.93999958      -1.99658906    
  -9.93000031      -2.01910615    
  -9.92000008      -2.04121089    
  -9.90999985      -2.06297231    
  -9.89999962      -2.08448601    
  -9.89000034      -2.10583115    
  -9.88000011      -2.12705231    
  -9.86999989      -2.14814472    
  -9.85999966      -2.16907048    
  -9.85000038      -2.18978000    
  -9.84000015      -2.21023822    
  -9.82999992      -2.23043346    
  -9.81999969      -2.25038576    
  -9.81000042      -2.27011299    
  -9.80000019      -2.28962946    
  -9.78999996      -2.30891991    
  -9.77999973      -2.32793927    
  -9.77000046      -2.34663391    
  -9.76000023      -2.36496544    
  -9.75000000      -2.38292885    
  -9.73999977      -2.40058184    
  -9.72999954      -2.41801572    
  -9.72000027      -2.43535066    
  -9.71000004      -2.45268297    
  -9.69999981      -2.47007751    
  -9.68999958      -2.48753905    
  -9.68000031      -2.50501442    
  -9.67000008      -2.52243471    
  -9.65999985      -2.53974748    
  -9.64999962      -2.55692339    
  -9.64000034      -2.57400942    
  -9.63000011      -2.59108090    
  -9.61999989      -2.60824466    
  -9.60999966      -2.62558413    
  -9.60000038      -2.64314842    
  -9.59000015      -2.66094398    
  -9.57999992      -2.67893815    
  -9.56999969      -2.69709277    
  -9.56000042      -2.71538949    
  -9.55000019      -2.73385596    
  -9.53999996      -2.75255966    
  -9.52999973      -2.77159905    
  -9.52000046      -2.79106021    
  -9.51000023      -2.81101203    
  -9.50000000      -2.83146644    
  -9.48999977      -2.85239744    
  -9.47999954      -2.87375474    
  -9.47000027      -2.89549828    
  -9.46000004      -2.91762209    
  -9.44999981      -2.94016004    
  -9.43999958      -2.96318913    
  -9.43000031      -2.98680472    
  -9.42000008      -3.01107574    
  -9.40999985      -3.03605127    
  -9.39999962      -3.06172585    
  -9.39000034      -3.08805656    
  -9.38000011      -3.11499333    
  -9.36999989      -3.14250565    
  -9.35999966      -3.17057538    
  -9.35000038      -3.19923902    
  -9.34000015      -3.22853279    
  -9.32999992      -3.25851488    
  -9.31999969      -3.28920412    
  -9.31000042      -3.32058430    
  -9.30000019      -3.35261774    
  -9.28999996      -3.38525271    
  -9.27999973      -3.41844821    
  -9.27000046      -3.45219588    
  -9.26000023      -3.48653078    
  -9.25000000      -3.52151155    
  -9.23999977      -3.55720401    
  -9.22999954      -3.59366941    
  -9.22000027      -3.63090968    
  -9.21000004      -3.66890764    
  -9.19999981      -3.70759606    
  -9.18999958      -3.74690580    
  -9.18000031      -3.78679299    
  -9.17000008      -3.82722783    
  -9.15999985      -3.86822033    
  -9.14999962      -3.90979624    
  -9.14000034      -3.95198083    
  -9.13000011      -3.99477887    
  -9.11999989      -4.03817511    
  -9.10999966      -4.08211517    
  -9.10000038      -4.12655973    
  -9.09000015      -4.17147875    
  -9.07999992      -4.21685934    
  -9.06999969      -4.26274109    
  -9.06000042      -4.30916119    
  -9.05000019      -4.35617018    
  -9.03999996      -4.40377712    
  -9.02999973      -4.45196438    
  -9.02000046      -4.50068712    
  -9.01000023      -4.54986238    
  -9.00000000      -4.59943151    
  -8.98999977      -4.64937401    
  -8.97999954      -4.69969511    
  -8.97000027      -4.75042200    
  -8.96000004      -4.80162144    
  -8.94999981      -4.85330582    
  -8.93999958      -4.90548992    
  -8.93000031      -4.95811701    
  -8.92000008      -5.01111078    
  -8.90999985      -5.06436777    
  -8.89999962      -5.11783504    
  -8.89000034      -5.17148781    
  -8.88000011      -5.22536182    
  -8.86999989      -5.27951241    
  -8.85999966      -5.33402586    
  -8.85000038      -5.38895416    
  -8.84000015      -5.44429255    
  -8.82999992      -5.50001812    
  -8.81999969      -5.55605459    
  -8.81000042      -5.61231470    
  -8.80000019      -5.66872215    
  -8.78999996      -5.72526360    
  -8.77999973      -5.78196001    
  -8.77000046      -5.83885622    
  -8.76000023      -5.89603329    
  -8.75000000      -5.95352793    
  -8.73999977      -6.01137161    
  -8.72999954      -6.06952953    
  -8.72000027      -6.12795496    
  -8.71000004      -6.18658161    
  -8.69999981      -6.24534845    
  -8.68999958      -6.30423307    
  -8.68000031      -6.36322308    
  -8.67000008      -6.42234898    
  -8.65999985      -6.48163748    
  -8.64999962      -6.54113054    
  -8.64000034      -6.60084677    
  -8.63000011      -6.66079950    
  -8.61999989      -6.72099733    
  -8.60999966      -6.78143978    
  -8.60000038      -6.84213829    
  -8.59000015      -6.90310240    
  -8.57999992      -6.96433687    
  -8.56999969      -7.02584457    
  -8.56000042      -7.08763266    
  -8.55000019      -7.14969206    
  -8.53999996      -7.21202612    
  -8.52999973      -7.27464008    
  -8.52000046      -7.33755732    
  -8.51000023      -7.40082407    
  -8.50000000      -7.46448326    
  -8.48999977      -7.52859402    
  -8.47999954      -7.59317160    
  -8.47000027      -7.65823650    
  -8.46000004      -7.72377014    
  -8.44999981      -7.78975725    
  -8.43999958      -7.85618210    
  -8.43000031      -7.92303038    
  -8.42000008      -7.99035406    
  -8.40999985      -8.05819225    
  -8.39999962      -8.12661934    
  -8.39000034      -8.19569969    
  -8.38000011      -8.26548862    
  -8.36999989      -8.33601570    
  -8.35999966      -8.40724850    
  -8.35000038      -8.47920895    
  -8.34000015      -8.55185890    
  -8.32999992      -8.62519455    
  -8.31999969      -8.69926262    
  -8.31000042      -8.77406979    
  -8.30000019      -8.84969330    
  -8.28999996      -8.92617416    
  -8.27999973      -9.00354099    
  -8.27000046      -9.08181190    
  -8.26000023      -9.16098785    
  -8.25000000      -9.24104881    
  -8.23999977      -9.32199669    
  -8.22999954      -9.40384960    
  -8.22000027      -9.48661995    
  -8.21000004      -9.57032967    
  -8.19999981      -9.65501022    
  -8.18999958      -9.74066067    
  -8.18000031      -9.82730961    
  -8.17000008      -9.91492844    
  -8.15999985      -10.0035105    
  -8.14999962      -10.0930567    
  -8.14000034      -10.1835890    
  -8.13000011      -10.2751169    
  -8.11999989      -10.3676939    
  -8.10999966      -10.4613352    
  -8.10000038      -10.5560741    
  -8.09000015      -10.6518888    
  -8.07999992      -10.7487974    
  -8.06999969      -10.8467512    
  -8.06000042      -10.9457369    
  -8.05000019      -11.0457249    
  -8.03999996      -11.1467218    
  -8.02999973      -11.2487354    
  -8.02000046      -11.3517666    
  -8.01000023      -11.4558268    
  -8.00000000      -11.5608835    
  -7.98999977      -11.6669474    
  -7.98000002      -11.7739811    
  -7.96999979      -11.8819580    
  -7.96000004      -11.9908695    
  -7.94999981      -12.1007347    
  -7.94000006      -12.2115135    
  -7.92999983      -12.3232574    
  -7.92000008      -12.4359369    
  -7.90999985      -12.5495605    
  -7.90000010      -12.6640882    
  -7.88999987      -12.7795267    
  -7.88000011      -12.8958597    
  -7.86999989      -13.0130939    
  -7.86000013      -13.1312256    
  -7.84999990      -13.2502966    
  -7.84000015      -13.3703203    
  -7.82999992      -13.4912910    
  -7.82000017      -13.6131983    
  -7.80999994      -13.7360268    
  -7.80000019      -13.8597240    
  -7.78999996      -13.9842739    
  -7.78000021      -14.1096649    
  -7.76999998      -14.2359076    
  -7.76000023      -14.3630514    
  -7.75000000      -14.4911137    
  -7.73999977      -14.6201220    
  -7.73000002      -14.7500534    
  -7.71999979      -14.8809032    
  -7.71000004      -15.0125961    
  -7.69999981      -15.1451044    
  -7.69000006      -15.2784414    
  -7.67999983      -15.4125795    
  -7.67000008      -15.5475950    
  -7.65999985      -15.6835260    
  -7.65000010      -15.8204842    
  -7.63999987      -15.9584904    
  -7.63000011      -16.0975399    
  -7.61999989      -16.2375889    
  -7.61000013      -16.3786068    
  -7.59999990      -16.5205002    
  -7.59000015      -16.6632576    
  -7.57999992      -16.8068943    
  -7.57000017      -16.9514351    
  -7.55999994      -17.0969486    
  -7.55000019      -17.2434711    
  -7.53999996      -17.3910236    
  -7.53000021      -17.5396595    
  -7.51999998      -17.6893063    
  -7.51000023      -17.8399258    
  -7.50000000      -17.9915257    
  -7.48999977      -18.1440983    
  -7.48000002      -18.2976818    
  -7.46999979      -18.4523678    
  -7.46000004      -18.6082134    
  -7.44999981      -18.7652740    
  -7.44000006      -18.9235172    