  -16.0000000       0.00000000    
  -15.9899998       0.00000000    
  -15.9799995       0.00000000    
  -15.9700003       0.00000000    
  -15.9600000       0.00000000    
  -15.9499998       0.00000000    
  -15.9399996       3.45914390E-27
  -15.9300003       3.60384387E-26
  -15.9200001       1.82654592E-25
  -15.9099998       6.21634916E-25
  -15.8999996       1.86645555E-24
  -15.8900003       6.68405868E-24
  -15.8800001       2.79049890E-23
  -15.8699999       1.07606446E-22
  -15.8599997       3.42185722E-22
  -15.8500004       8.67192143E-22
  -15.8400002       1.67893168E-21
  -15.8299999       2.09989856E-21
  -15.8199997      -2.36632700E-22
  -15.8100004      -1.06005635E-20
  -15.8000002      -3.74274703E-20
  -15.7900000      -8.93951472E-20
  -15.7799997      -1.66673339E-19
  -15.7700005      -2.45487948E-19
  -15.7600002      -2.60491376E-19
  -15.7500000      -9.80585135E-20
  -15.7399998       3.78222105E-19
  -15.7299995       1.24876252E-18
  -15.7200003       2.40293817E-18
  -15.7100000       3.38619350E-18
  -15.6999998       3.32437788E-18
  -15.6899996       1.06476519E-18
  -15.6800003      -4.33974601E-18
  -15.6700001      -1.27918734E-17
  -15.6599998      -2.21751571E-17
  -15.6499996      -2.77507929E-17
  -15.6400003      -2.26411774E-17
  -15.6300001      -4.06271826E-20
  -15.6199999       4.27387381E-17
  -15.6099997       9.92902675E-17
  -15.6000004       1.50349275E-16
  -15.5900002       1.64288737E-16
  -15.5799999       1.04730714E-16
  -15.5699997      -5.37782542E-17
  -15.5600004      -3.04774366E-16
  -15.5500002      -5.90932377E-16
  -15.5400000      -7.98189481E-16
  -15.5299997      -7.74164503E-16
  -15.5200005      -3.76758852E-16
  -15.5100002       4.52514382E-16
  -15.5000000       1.61095439E-15
  -15.4899998       2.78668885E-15
  -15.4799995       3.47856653E-15
  -15.4700003       3.11117849E-15
  -15.4600000       1.24325696E-15
  -15.4499998      -2.17456460E-15
  -15.4399996      -6.57931868E-15
  -15.4300003      -1.07236760E-14
  -15.4200001      -1.28508739E-14
  -15.4099998      -1.11555247E-14
  -15.3999996      -4.46844269E-15
  -15.3900003       7.01280473E-15
  -15.3800001       2.12155089E-14
  -15.3699999       3.41904205E-14
  -15.3599997       4.08126834E-14
  -15.3500004       3.61829402E-14
  -15.3400002       1.74610116E-14
  -15.3299999      -1.43874763E-14
  -15.3199997      -5.35911342E-14
  -15.3100004      -8.99173924E-14
  -15.3000002      -1.10661358E-13
  -15.2900000      -1.04085055E-13
  -15.2799997      -6.35502257E-14
  -15.2700005       8.85844166E-15
  -15.2600002       1.00566291E-13
  -15.2500000       1.89656261E-13
  -15.2399998       2.49272797E-13
  -15.2299995       2.54626344E-13
  -15.2200003       1.90949578E-13
  -15.2100000       6.01005316E-14
  -15.1999998      -1.16518327E-13
  -15.1899996      -3.00332133E-13
  -15.1800003      -4.43490784E-13
  -15.1700001      -5.00845242E-13
  -15.1599998      -4.43066861E-13
  -15.1499996      -2.67181622E-13
  -15.1400003      -1.04861207E-15
  -15.1300001       3.00323162E-13
  -15.1199999       5.66543177E-13
  -15.1099997       7.29199307E-13
  -15.1000004       7.40398194E-13
  -15.0900002       5.87280387E-13
  -15.0799999       2.97999418E-13
  -15.0699997      -6.32468185E-14
  -15.0600004      -4.11567238E-13
  -15.0500002      -6.63488741E-13
  -15.0400000      -7.59985716E-13
  -15.0299997      -6.83901937E-13
  -15.0200005      -4.66375799E-13
  -15.0100002      -1.79641715E-13
  -15.0000000       8.27386052E-14
  -14.9899998       2.33525032E-13
  -14.9799995       2.20035511E-13
  -14.9700003       4.48814434E-14
  -14.9600000      -2.27574795E-13
  -14.9499998      -4.82597306E-13
  -14.9399996      -5.83409460E-13
  -14.9300003      -4.10955205E-13
  -14.9200001       9.41909650E-14
  -14.9099998       8.98891421E-13
  -14.8999996       1.86395799E-12
  -14.8900003       2.75723758E-12
  -14.8800001       3.29480518E-12
  -14.8699999       3.20494347E-12
  -14.8599997       2.30290786E-12
  -14.8500004       5.59572191E-13
  -14.8400002      -1.85455492E-12
  -14.8299999      -4.56569981E-12
  -14.8199997      -7.04221360E-12
  -14.8100004      -8.68698082E-12
  -14.8000002      -8.96284089E-12
  -14.7900000      -7.52641179E-12
  -14.7799997      -4.33961157E-12
  -14.7700005       2.71280258E-13
  -14.7600002       5.63080181E-12
  -14.7500000       1.08105235E-11
  -14.7399998       1.47943480E-11
  -14.7299995       1.66828096E-11
  -14.7200003       1.58935035E-11
  -14.7100000       1.23114271E-11
  -14.6999998       6.35054249E-12
  -14.6899996      -1.09421944E-12
  -14.6800003      -8.80099466E-12
  -14.6700001      -1.54525247E-11
  -14.6599998      -1.98970805E-11
  -14.6499996      -2.13815857E-11
  -14.6400003      -1.97042504E-11
  -14.6300001      -1.52511389E-11
  -14.6199999      -8.90693162E-12
  -14.6099997      -1.85910098E-12
  -14.6000004       4.66079996E-12
  -14.5900002       9.64029117E-12
  -14.5799999       1.24939703E-11
  -14.5699997       1.31692140E-11
  -14.5600004       1.21257978E-11
  -14.5500002       1.01941927E-11
  -14.5400000       8.34510152E-12
  -14.5299997       7.42319487E-12
  -14.5200005       7.90702746E-12
  -14.5100002       9.75264227E-12
  -14.5000000       1.23612379E-11
  -14.4899998       1.46850448E-11
  -14.4799995       1.54554061E-11
  -14.4700003       1.34890875E-11
  -14.4600000       8.00898931E-12
  -14.4499998      -1.09216173E-12
  -14.4399996      -1.31091284E-11
  -14.4300003      -2.65451966E-11
  -14.4200001      -3.93078833E-11
  -14.4099998      -4.90538686E-11
  -14.3999996      -5.36240947E-11
  -14.3900003      -5.14869362E-11
  -14.3800001      -4.20996189E-11
  -14.3699999      -2.61090038E-11
  -14.3599997      -5.34106093E-12
  -14.3500004       1.74315996E-11
  -14.3400002       3.89109786E-11
  -14.3299999       5.58113486E-11
  -14.3199997       6.54155896E-11
  -14.3100004       6.60462032E-11
  -14.3000002       5.73613657E-11
  -14.2900000       4.04184290E-11
  -14.2799997       1.74917494E-11
  -14.2700005      -8.32201842E-12
  -14.2600002      -3.36369578E-11
  -14.2500000      -5.53488852E-11
  -14.2399998      -7.11366521E-11
  -14.2299995      -7.97998542E-11
  -14.2200003      -8.13708129E-11
  -14.2100000      -7.69829200E-11
  -14.1999998      -6.85270729E-11
  -14.1899996      -5.81705240E-11
  -14.1800003      -4.78425390E-11
  -14.1700001      -3.87995504E-11
  -14.1599998      -3.13673185E-11
  -14.1499996      -2.49196289E-11
  -14.1400003      -1.81015498E-11
  -14.1300001      -9.24718462E-12
  -14.1199999       3.10422087E-12
  -14.1099997       1.97179564E-11
  -14.1000004       4.03207606E-11
  -14.0900002       6.34947095E-11
  -14.0799999       8.68428385E-11
  -14.0699997       1.07395683E-10
  -14.0600004       1.22168733E-10
  -14.0500002       1.28744168E-10
  -14.0400000       1.25743943E-10
  -14.0299997       1.13090988E-10
  -14.0200005       9.20089074E-11
  -14.0100002       6.47754905E-11
  -14.0000000       3.43048021E-11
  -13.9899998       3.66605227E-12
  -13.9799995      -2.43479265E-11
  -13.9700003      -4.75181110E-11
  -13.9600000      -6.43260653E-11
  -13.9499998      -7.39261985E-11
  -13.9399996      -7.60213073E-11
  -13.9300003      -7.07152323E-11
  -13.9200001      -5.84062174E-11
  -13.9099998      -3.97527462E-11
  -13.8999996      -1.57025157E-11
  -13.8900003       1.24585368E-11
  -13.8800001       4.30947396E-11
  -13.8699999       7.42924749E-11
  -13.8599997       1.04031825E-10
  -13.8500004       1.30431249E-10
  -13.8400002       1.52005880E-10
  -13.8299999       1.67863112E-10
  -13.8199997       1.77769868E-10
  -13.8100004       1.82060853E-10
  -13.8000002       1.81406404E-10
  -13.7900000       1.76502479E-10
  -13.7799997       1.67775238E-10
  -13.7700005       1.55191748E-10
  -13.7600002       1.38241182E-10
  -13.7500000       1.16099810E-10
  -13.7399998       8.79394058E-11
  -13.7299995       5.32935189E-11
  -13.7200003       1.23796433E-11
  -13.7100000      -3.37156691E-11
  -13.6999998      -8.30414210E-11
  -13.6899996      -1.32978226E-10
  -13.6800003      -1.80574639E-10
  -13.6700001      -2.22942387E-10
  -13.6599998      -2.57618621E-10
  -13.6499996      -2.82824014E-10
  -13.6400003      -2.97585290E-10
  -13.6300001      -3.01727060E-10
  -13.6199999      -2.95775487E-10
  -13.6099997      -2.80823781E-10
  -13.6000004      -2.58403465E-10
  -13.5900002      -2.30375885E-10
  -13.5799999      -1.98834005E-10
  -13.5699997      -1.65983990E-10
  -13.5600004      -1.33978856E-10
  -13.5500002      -1.04697952E-10
  -13.5400000      -7.95012459E-11
  -13.5299997      -5.90213226E-11
  -13.5200005      -4.30677542E-11
  -13.5100002      -3.07104515E-11
  -13.5000000      -2.05603989E-11
  -13.4899998      -1.12087943E-11
  -13.4799995      -1.72209306E-12
  -13.4700003       7.94524863E-12
  -13.4600000       1.67575467E-11
  -13.4499998       2.27133225E-11
  -13.4399996       2.32731629E-11
  -13.4300003       1.60152898E-11
  -13.4200001      -6.49729673E-13
  -13.4099998      -2.68991270E-11
  -13.3999996      -6.12242895E-11
  -13.3900003      -1.00554724E-10
  -13.3800001      -1.40760736E-10
  -13.3699999      -1.77405049E-10
  -13.3599997      -2.06546849E-10
  -13.3500004      -2.25384961E-10
  -13.3400002      -2.32580788E-10
  -13.3299999      -2.28197794E-10
  -13.3199997      -2.13309842E-10
  -13.3100004      -1.89424351E-10
  -13.3000002      -1.57908728E-10
  -13.2900000      -1.19592405E-10
  -13.2799997      -7.46440479E-11
  -13.2700005      -2.27311538E-11
  -13.2600002       3.66266045E-11
  -13.2500000       1.03650158E-10
  -13.2399998       1.77987652E-10
  -13.2299995       2.58598670E-10
  -13.2200003       3.43867962E-10
  -13.2100000       4.31904568E-10
  -13.1999998       5.20930576E-10
  -13.1899996       6.09646889E-10
  -13.1800003       6.97481406E-10
  -13.1700001       7.84664611E-10
  -13.1599998       8.72130090E-10
  -13.1499996       9.61271174E-10
  -13.1400003       1.05360731E-09
  -13.1300001       1.15041998E-09
  -13.1199999       1.25241351E-09
  -13.1099997       1.35944778E-09
  -13.1000004       1.47040058E-09
  -13.0900002       1.58319213E-09
  -13.0799999       1.69501069E-09
  -13.0699997       1.80272697E-09
  -13.0600004       1.90344718E-09
  -13.0500002       1.99509320E-09
  -13.0400000       2.07686557E-09
  -13.0299997       2.14944040E-09
  -13.0200005       2.21480612E-09
  -13.0100002       2.27573427E-09
  -13.0000000       2.33500264E-09
  -12.9899998       2.39457520E-09
  -12.9799995       2.45498621E-09
  -12.9700003       2.51514987E-09
  -12.9600000       2.57264299E-09
  -12.9499998       2.62444511E-09
  -12.9399996       2.66788613E-09
  -12.9300003       2.70153055E-09
  -12.9200001       2.72567346E-09
  -12.9099998       2.74236789E-09
  -12.8999996       2.75493650E-09
  -12.8900003       2.76719159E-09
  -12.8800001       2.78266321E-09
  -12.8699999       2.80412071E-09
  -12.8599997       2.83356916E-09
  -12.8500004       2.87268453E-09
  -12.8400002       2.92348123E-09
  -12.8299999       2.98887914E-09
  -12.8199997       3.07286596E-09
  -12.8100004       3.18007776E-09
  -12.8000002       3.31488859E-09
  -12.7900000       3.48026874E-09
  -12.7799997       3.67680064E-09
  -12.7700005       3.90231980E-09
  -12.7600002       4.15227452E-09
  -12.7500000       4.42084547E-09
  -12.7399998       4.70250994E-09
  -12.7299995       4.99345276E-09
  -12.7200003       5.29258193E-09
  -12.7100000       5.60154456E-09
  -12.6999998       5.92405858E-09
  -12.6899996       6.26458752E-09
  -12.6800003       6.62693367E-09
  -12.6700001       7.01317715E-09
  -12.6599998       7.42331707E-09
  -12.6499996       7.85560772E-09
  -12.6400003       8.30740632E-09
  -12.6300001       8.77607409E-09
  -12.6199999       9.25957178E-09
  -12.6099997       9.75652359E-09
  -12.6000004       1.02656861E-08
  -12.5900002       1.07852465E-08
  -12.5799999       1.13121512E-08
  -12.5699997       1.18419701E-08
  -12.5600004       1.23694628E-08
  -12.5500002       1.28895499E-08
  -12.5400000       1.33984628E-08
  -12.5299997       1.38945708E-08
  -12.5200005       1.43784469E-08
  -12.5100002       1.48521204E-08
  -12.5000000       1.53177258E-08
  -12.4899998       1.57759601E-08
  -12.4799995       1.62250728E-08
  -12.4700003       1.66605965E-08
  -12.4600000       1.70761663E-08
  -12.4499998       1.74650250E-08
  -12.4399996       1.78217423E-08
  -12.4300003       1.81435169E-08
  -12.4200001       1.84305549E-08
  -12.4099998       1.86854106E-08
  -12.3999996       1.89115514E-08
  -12.3900003       1.91116030E-08
  -12.3800001       1.92860767E-08
  -12.3699999       1.94329335E-08
  -12.3599997       1.95480894E-08
  -12.3500004       1.96268832E-08
  -12.3400002       1.96655190E-08
  -12.3299999       1.96622967E-08
  -12.3199997       1.96177634E-08
  -12.3100004       1.95341556E-08
  -12.3000002       1.94139762E-08
  -12.2900000       1.92585130E-08
  -12.2799997       1.90671514E-08
  -12.2700005       1.88372837E-08
  -12.2600002       1.85655296E-08
  -12.2500000       1.82492688E-08
  -12.2399998       1.78882988E-08
  -12.2299995       1.74857568E-08
  -12.2200003       1.70477641E-08
  -12.2100000       1.65821668E-08
  -12.1999998       1.60964984E-08
  -12.1899996       1.55962017E-08
  -12.1800003       1.50834136E-08
  -12.1700001       1.45569912E-08
  -12.1599998       1.40138514E-08
  -12.1499996       1.34508591E-08
  -12.1400003       1.28667192E-08
  -12.1300001       1.22631132E-08
  -12.1199999       1.16447101E-08
  -12.1099997       1.10180007E-08
  -12.1000004       1.03892983E-08
  -12.0900002       9.76300374E-09
  -12.0799999       9.14027432E-09
  -12.0699997       8.51914539E-09
  -12.0600004       7.89570809E-09
  -12.0500002       7.26573290E-09
  -12.0400000       6.62650512E-09
  -12.0299997       5.97816641E-09
  -12.0200005       5.32354960E-09
  -12.0100002       4.66724703E-09
  -12.0000000       4.01413436E-09
  -11.9899998       3.36772810E-09
  -11.9799995       2.72933098E-09
  -11.9700003       2.09809747E-09
  -11.9600000       1.47191126E-09
  -11.9499998       8.48786041E-10
  -11.9399996       2.28126198E-10
  -11.9300003      -3.88651639E-10
  -11.9200001      -9.98349625E-10
  -11.9099998      -1.59691582E-09
  -11.8999996      -2.18101825E-09
  -11.8900003      -2.74902612E-09
  -11.8800001      -3.30138383E-09
  -11.8699999      -3.84025789E-09
  -11.8599997      -4.36840297E-09
  -11.8500004      -4.88779506E-09
  -11.8400002      -5.39865752E-09
  -11.8299999      -5.89909588E-09
  -11.8199997      -6.38562936E-09
  -11.8100004      -6.85450408E-09
  -11.8000002      -7.30286365E-09
  -11.7900000      -7.72984610E-09
  -11.7799997      -8.13672951E-09
  -11.7700005      -8.52644799E-09
  -11.7600002      -8.90228602E-09
  -11.7500000      -9.26667720E-09
  -11.7399998      -9.62018021E-09
  -11.7299995      -9.96126737E-09
  -11.7200003      -1.02868762E-08
  -11.7100000      -1.05933493E-08
  -11.6999998      -1.08776499E-08
  -11.6899996      -1.11380647E-08
  -11.6800003      -1.13744614E-08
  -11.6700001      -1.15877583E-08
  -11.6599998      -1.17790622E-08
  -11.6499996      -1.19488277E-08
  -11.6400003      -1.20962715E-08
  -11.6300001      -1.22194868E-08
  -11.6199999      -1.23160362E-08
  -11.6099997      -1.23838140E-08
  -11.6000004      -1.24218653E-08
  -11.5900002      -1.24307569E-08
  -11.5799999      -1.24123423E-08
  -11.5699997      -1.23690471E-08
  -11.5600004      -1.23028476E-08
  -11.5500002      -1.22145201E-08
  -11.5400000      -1.21032082E-08
  -11.5299997      -1.19667076E-08
  -11.5200005      -1.18021237E-08
  -11.5100002      -1.16068612E-08
  -11.5000000      -1.13794592E-08
  -11.4899998      -1.11199565E-08
  -11.4799995      -1.08297984E-08
  -11.4700003      -1.05111662E-08
  -11.4600000      -1.01662083E-08
  -11.4499998      -9.79631132E-09
  -11.4399996      -9.40176559E-09
  -11.4300003      -8.98195740E-09
  -11.4200001      -8.53596394E-09
  -11.4099998      -8.06335088E-09
  -11.3999996      -7.56485630E-09
  -11.3900003      -7.04266734E-09
  -11.3800001      -6.50026610E-09
  -11.3699999      -5.94177241E-09
  -11.3599997      -5.37109246E-09
  -11.3500004      -4.79111417E-09
  -11.3400002      -4.20321378E-09
  -11.3299999      -3.60725116E-09
  -11.3199997      -3.00202840E-09
  -11.3100004      -2.38607623E-09
  -11.3000002      -1.75849035E-09
  -11.2900000      -1.11957599E-09
  -11.2799997      -4.71090333E-10
  -11.2700005       1.83999704E-10
  -11.2600002       8.42110437E-10
  -11.2500000       1.49983981E-09
  -11.2399998       2.15467710E-09
  -11.2299995       2.80539814E-09
  -11.2200003       3.45201689E-09
  -11.2100000       4.09534939E-09
  -11.1999998       4.73620121E-09
  -11.1899996       5.37463984E-09
  -11.1800003       6.00936634E-09
  -11.1700001       6.63761490E-09
  -11.1599998       7.25541893E-09
  -11.1499996       7.85835752E-09
  -11.1400003       8.44242098E-09
  -11.1300001       9.00475960E-09
  -11.1199999       9.54412194E-09
  -11.1099997       1.00608313E-08
  -11.1000004       1.05563274E-08
  -11.0900002       1.10324736E-08
  -11.0799999       1.14910019E-08
  -11.0699997       1.19331505E-08
  -11.0600004       1.23597674E-08
  -11.0500002       1.27717144E-08
  -11.0400000       1.31704807E-08
  -11.0299997       1.35585667E-08
  -11.0200005       1.39393999E-08
  -11.0100002       1.43168108E-08
  -11.0000000       1.46941375E-08
  -10.9899998       1.50730237E-08
  -10.9799995       1.54527946E-08
  -10.9700003       1.58303255E-08
  -10.9600000       1.62008522E-08
  -10.9499998       1.65591914E-08
  -10.9399996       1.69015308E-08
  -10.9300003       1.72267267E-08
  -10.9200001       1.75369781E-08
  -10.9099998       1.78374986E-08
  -10.8999996       1.81353563E-08
  -10.8900003       1.84377846E-08
  -10.8800001       1.87505034E-08
  -10.8699999       1.90767615E-08
  -10.8599997       1.94170973E-08
  -10.8500004       1.97700558E-08
  -10.8400002       2.01333350E-08
  -10.8299999       2.05049862E-08
  -10.8199997       2.08840856E-08
  -10.8100004       2.12705142E-08
  -10.8000002       2.16644587E-08
  -10.7900000       2.20653043E-08
  -10.7799997       2.24710650E-08
  -10.7700005       2.28781865E-08
  -10.7600002       2.32824746E-08
  -10.7500000       2.36803945E-08
  -10.7399998       2.40706992E-08
  -10.7299995       2.44551277E-08
  -10.7200003       2.48387622E-08
  -10.7100000       2.52285943E-08
  -10.6999998       2.56320263E-08
  -10.6899996       2.60544795E-08
  -10.6800003       2.64982063E-08
  -10.6700001       2.69617608E-08
  -10.6599998       2.74406862E-08
  -10.6499996       2.79293531E-08
  -10.6400003       2.84228356E-08
  -10.6300001       2.89182776E-08
  -10.6199999       2.94155011E-08
  -10.6099997       2.99162757E-08
  -10.6000004       3.04227434E-08
  -10.5900002       3.09358690E-08
  -10.5799999       3.14544906E-08
  -10.5699997       3.19749525E-08
  -10.5600004       3.24923661E-08
  -10.5500002       3.30023830E-08
  -10.5400000       3.35027970E-08
  -10.5299997       3.39944570E-08
  -10.5200005       3.44813103E-08
  -10.5100002       3.49688669E-08
  -10.5000000       3.54621967E-08
  -10.4899998       3.59640531E-08
  -10.4799995       3.64741020E-08
  -10.4700003       3.69884710E-08
  -10.4600000       3.75015397E-08
  -10.4499998       3.80077374E-08
  -10.4399996       3.85037566E-08
  -10.4300003       3.89889578E-08
  -10.4200001       3.94657000E-08
  -10.4099998       3.99375075E-08
  -10.3999996       4.04074250E-08
  -10.3900003       4.08762482E-08
  -10.3800001       4.13416572E-08
  -10.3699999       4.17990549E-08
  -10.3599997       4.22428243E-08
  -10.3500004       4.26688977E-08
  -10.3400002       4.30761986E-08
  -10.3299999       4.34673844E-08
  -10.3199997       4.38484484E-08
  -10.3100004       4.42262476E-08
  -10.3000002       4.46067538E-08
  -10.2900000       4.49927597E-08
  -10.2799997       4.53833344E-08
  -10.2700005       4.57742892E-08
  -10.2600002       4.61596663E-08
  -10.2500000       4.65342040E-08
  -10.2399998       4.68950319E-08
  -10.2299995       4.72422634E-08
  -10.2200003       4.75787054E-08
  -10.2100000       4.79079745E-08
  -10.1999998       4.82327742E-08
  -10.1899996       4.85533782E-08
  -10.1800003       4.88671752E-08
  -10.1700001       4.91692695E-08
  -10.1599998       4.94541048E-08
  -10.1499996       4.97178085E-08
  -10.1400003       4.99593611E-08
  -10.1300001       5.01811428E-08
  -10.1199999       5.03881630E-08
  -10.1099997       5.05864897E-08
  -10.1000004       5.07814839E-08
  -10.0900002       5.09758351E-08
  -10.0799999       5.11692591E-08
  -10.0699997       5.13590628E-08
  -10.0600004       5.15408836E-08
  -10.0500002       5.17113818E-08
  -10.0400000       5.18687280E-08
  -10.0299997       5.20135082E-08
  -10.0200005       5.21480423E-08
  -10.0100002       5.22756842E-08
  -10.0000000       5.23990380E-08
  -9.98999977       5.25193329E-08
  -9.97999954       5.26360431E-08
  -9.97000027       5.27472110E-08
  -9.96000004       5.28505062E-08
  -9.94999981       5.29442055E-08
  -9.93999958       5.30279927E-08
  -9.93000031       5.31031326E-08
  -9.92000008       5.31721369E-08
  -9.90999985       5.32378550E-08
  -9.89999962       5.33029088E-08
  -9.89000034       5.33684137E-08
  -9.88000011       5.34344835E-08
  -9.86999989       5.34996900E-08
  -9.85999966       5.35628146E-08
  -9.85000038       5.36227951E-08
  -9.84000015       5.36790878E-08
  -9.82999992       5.37322968E-08
  -9.81999969       5.37836975E-08
  -9.81000042       5.38353291E-08
  -9.80000019       5.38889680E-08
  -9.78999996       5.39463940E-08
  -9.77999973       5.40084066E-08
  -9.77000046       5.40761889E-08
  -9.76000023       5.41505116E-08
  -9.75000000       5.42323093E-08
  -9.73999977       5.43226513E-08
  -9.72999954       5.44228733E-08
  -9.72000027       5.45351284E-08
  -9.71000004       5.46614771E-08
  -9.69999981       5.48045413E-08
  -9.68999958       5.49671633E-08
  -9.68000031       5.51516735E-08
  -9.67000008       5.53608572E-08
  -9.65999985       5.55963382E-08
  -9.64999962       5.58593598E-08
  -9.64000034       5.61498794E-08
  -9.63000011       5.64676448E-08
  -9.61999989       5.68111318E-08
  -9.60999966       5.71792604E-08
  -9.60000038       5.75717891E-08
  -9.59000015       5.79881316E-08
  -9.57999992       5.84292792E-08
  -9.56999969       5.88965037E-08
  -9.56000042       5.93907998E-08
  -9.55000019       5.99130558E-08
  -9.53999996       6.04632007E-08
  -9.52999973       6.10407369E-08
  -9.52000046       6.16444140E-08
  -9.51000023       6.22727043E-08
  -9.50000000       6.29249755E-08
  -9.48999977       6.36012203E-08
  -9.47999954       6.43017941E-08
  -9.47000027       6.50273577E-08
  -9.46000004       6.57778187E-08
  -9.44999981       6.65529214E-08
  -9.43999958       6.73513227E-08
  -9.43000031       6.81706780E-08
  -9.42000008       6.90080526E-08
  -9.40999985       6.98614642E-08
  -9.39999962       7.07291861E-08
  -9.39000034       7.16103017E-08
  -9.38000011       7.25051805E-08
  -9.36999989       7.34148031E-08
  -9.35999966       7.43396242E-08
  -9.35000038       7.52800489E-08
  -9.34000015       7.62359633E-08
  -9.32999992       7.72066286E-08
  -9.31999969       7.81907161E-08
  -9.31000042       7.91871955E-08
  -9.30000019       8.01950506E-08
  -9.28999996       8.12130025E-08
  -9.27999973       8.22400992E-08
  -9.27000046       8.32749762E-08
  -9.26000023       8.43157650E-08
  -9.25000000       8.53604192E-08
  -9.23999977       8.64071126E-08
  -9.22999954       8.74537136E-08
  -9.22000027       8.84991138E-08
  -9.21000004       8.95425885E-08
  -9.19999981       9.05841802E-08
  -9.18999958       9.16236615E-08
  -9.18000031       9.26608124E-08
  -9.17000008       9.36941760E-08
  -9.15999985       9.47232692E-08
  -9.14999962       9.57461666E-08
  -9.14000034       9.67622924E-08
  -9.13000011       9.77710926E-08
  -9.11999989       9.87737891E-08
  -9.10999966       9.97714196E-08
  -9.10000038       1.00765291E-07
  -9.09000015       1.01756406E-07
  -9.07999992       1.02743570E-07
  -9.06999969       1.03725050E-07
  -9.06000042       1.04697364E-07
  -9.05000019       1.05657719E-07
  -9.03999996       1.06603935E-07
  -9.02999973       1.07535591E-07
  -9.02000046       1.08454714E-07
  -9.01000023       1.09364585E-07
  -9.00000000       1.10268083E-07
  -8.98999977       1.11168006E-07
  -8.97999954       1.12065223E-07
  -8.97000027       1.12958389E-07
  -8.96000004       1.13844862E-07
  -8.94999981       1.14722390E-07
  -8.93999958       1.15588769E-07
  -8.93000031       1.16444291E-07
  -8.92000008       1.17290902E-07
  -8.90999985       1.18132085E-07
  -8.89999962       1.18971151E-07
  -8.89000034       1.19810451E-07
  -8.88000011       1.20651080E-07
  -8.86999989       1.21491226E-07
  -8.85999966       1.22326981E-07
  -8.85000038       1.23155374E-07
  -8.84000015       1.23973336E-07
  -8.82999992       1.24780314E-07
  -8.81999969       1.25577643E-07
  -8.81000042       1.26367780E-07
  -8.80000019       1.27154152E-07
  -8.78999996       1.27939572E-07
  -8.77999973       1.28725461E-07
  -8.77000046       1.29510980E-07
  -8.76000023       1.30295405E-07
  -8.75000000       1.31076646E-07
  -8.73999977       1.31854975E-07
  -8.72999954       1.32631328E-07
  -8.72000027       1.33408591E-07
  -8.71000004       1.34191637E-07
  -8.69999981       1.34984418E-07
  -8.68999958       1.35790202E-07
  -8.68000031       1.36611533E-07
  -8.67000008       1.37447188E-07
  -8.65999985       1.38295988E-07
  -8.64999962       1.39155318E-07
  -8.64000034       1.40022536E-07
  -8.63000011       1.40896319E-07
  -8.61999989       1.41776127E-07
  -8.60999966       1.42663595E-07
  -8.60000038       1.43560655E-07
  -8.59000015       1.44469738E-07
  -8.57999992       1.45392789E-07
  -8.56999969       1.46331558E-07
  -8.56000042       1.47287025E-07
  -8.55000019       1.48259289E-07
  -8.53999996       1.49248351E-07
  -8.52999973       1.50254621E-07
  -8.52000046       1.51278812E-07
  -8.51000023       1.52321860E-07
  -8.50000000       1.53384676E-07
  -8.48999977       1.54468310E-07
  -8.47999954       1.55575066E-07
  -8.47000027       1.56705426E-07
  -8.46000004       1.57859532E-07
  -8.44999981       1.59037725E-07
  -8.43999958       1.60238883E-07
  -8.43000031       1.61462282E-07
  -8.42000008       1.62707707E-07
  -8.40999985       1.63973766E-07
  -8.39999962       1.65261184E-07
  -8.39000034       1.66572860E-07
  -8.38000011       1.67910073E-07
  -8.36999989       1.69276575E-07
  -8.35999966       1.70674042E-07
  -8.35000038       1.72102489E-07
  -8.34000015       1.73561801E-07
  -8.32999992       1.75048157E-07
  -8.31999969       1.76559013E-07
  -8.31000042       1.78090588E-07
  -8.30000019       1.79640949E-07
  -8.28999996       1.81211547E-07
  -8.27999973       1.82803419E-07
  -8.27000046       1.84420728E-07
  -8.26000023       1.86068746E-07
  -8.25000000       1.87748839E-07
  -8.23999977       1.89461858E-07
  -8.22999954       1.91205075E-07
  -8.22000027       1.92974284E-07
  -8.21000004       1.94764240E-07
  -8.19999981       1.96570682E-07
  -8.18999958       1.98392257E-07
  -8.18000031       2.00229252E-07
  -8.17000008       2.02082674E-07
  -8.15999985       2.03955267E-07
  -8.14999962       2.05847471E-07
  -8.14000034       2.07758617E-07
  -8.13000011       2.09686164E-07
  -8.11999989       2.11625235E-07
  -8.10999966       2.13572847E-07
  -8.10000038       2.15527081E-07
  -8.09000015       2.17489657E-07
  -8.07999992       2.19461597E-07
  -8.06999969       2.21445916E-07
  -8.06000042       2.23446307E-07
  -8.05000019       2.25464291E-07
  -8.03999996       2.27497722E-07
  -8.02999973       2.29542024E-07
  -8.02000046       2.31592466E-07
  -8.01000023       2.33645935E-07
  -8.00000000       2.35699915E-07
  -7.98999977       2.37756424E-07
  -7.98000002       2.39818775E-07
  -7.96999979       2.41892053E-07
  -7.96000004       2.43979571E-07
  -7.94999981       2.46081242E-07
  -7.94000006       2.48195676E-07
  -7.92999983       2.50317896E-07
  -7.92000008       2.52441652E-07
  -7.90999985       2.54563162E-07
  -7.90000010       2.56679726E-07
  -7.88999987       2.58793705E-07
  -7.88000011       2.60909047E-07
  -7.86999989       2.63029023E-07
  -7.86000013       2.65156842E-07
  -7.84999990       2.67293871E-07
  -7.84000015       2.69437038E-07
  -7.82999992       2.71582678E-07
  -7.82000017       2.73726783E-07
  -7.80999994       2.75867990E-07
  -7.80000019       2.78006951E-07
  -7.78999996       2.80148100E-07
  -7.78000021       2.82295730E-07
  -7.76999998       2.84455979E-07
  -7.76000023       2.86631149E-07
  -7.75000000       2.88819194E-07
  -7.73999977       2.91018239E-07
  -7.73000002       2.93222030E-07
  -7.71999979       2.95426759E-07
  -7.71000004       2.97632738E-07
  -7.69999981       2.99839371E-07
  -7.69000006       3.02052285E-07
  -7.67999983       3.04277393E-07
  -7.67000008       3.06517336E-07
  -7.65999985       3.08772314E-07
  -7.65000010       3.11041731E-07
  -7.63999987       3.13321067E-07
  -7.63000011       3.15607110E-07
  -7.61999989       3.17896479E-07
  -7.61000013       3.20190765E-07
  -7.59999990       3.22494145E-07
  -7.59000015       3.24810685E-07
  -7.57999992       3.27149053E-07
  -7.57000017       3.29510954E-07
  -7.55999994       3.31895563E-07
  -7.55000019       3.34300040E-07
  -7.53999996       3.36720120E-07
  -7.53000021       3.39148784E-07
  -7.51999998       3.41586173E-07
  -7.51000023       3.44030411E-07
  -7.50000000       3.46486758E-07
  -7.48999977       3.48955922E-07
  -7.48000002       3.51444953E-07
  -7.46999979       3.53953993E-07
  -7.46000004       3.56480399E-07
  -7.44999981       3.59020902E-07
  -7.44000006       3.61567231E-07