  -16.0000000       0.00000000    
  -15.9899998       0.00000000    
  -15.9799995       0.00000000    
  -15.9700003       0.00000000    
  -15.9600000       0.00000000    
  -15.9499998       0.00000000    
  -15.9399996       0.00000000    
  -15.9300003      -1.02962780E-29
  -15.9200001      -4.04086494E-29
  -15.9099998       5.02215989E-28
  -15.8999996       6.46824650E-27
  -15.8900003       3.93531583E-26
  -15.8800001       1.65363266E-25
  -15.8699999       5.39868399E-25
  -15.8599997       1.45646758E-24
  -15.8500004       3.39144753E-24
  -15.8400002       7.08823314E-24
  -15.8299999       1.38316710E-23
  -15.8199997       2.60941414E-23
  -15.8100004       4.84076290E-23
  -15.8000002       8.73443897E-23
  -15.7900000       1.48046321E-22
  -15.7799997       2.24011708E-22
  -15.7700005       2.79094066E-22
  -15.7600002       2.28085790E-22
  -15.7500000      -6.56258814E-23
  -15.7399998      -7.46242827E-22
  -15.7299995      -1.85009466E-21
  -15.7200003      -3.12537048E-21
  -15.7100000      -3.85964897E-21
  -15.6999998      -2.86746905E-21
  -15.6899996       1.16859113E-21
  -15.6800003       8.87998098E-21
  -15.6700001       1.90304985E-20
  -15.6599998       2.74642736E-20
  -15.6499996       2.70503796E-20
  -15.6400003       9.58366530E-21
  -15.6300001      -2.98898354E-20
  -15.6199999      -8.70701816E-20
  -15.6099997      -1.43170708E-19
  -15.6000004      -1.64347747E-19
  -15.5900002      -1.09767113E-19
  -15.5799999       5.00308949E-20
  -15.5699997       3.07752702E-19
  -15.5600004       5.96633640E-19
  -15.5500002       7.85063109E-19
  -15.5400000       7.03090958E-19
  -15.5299997       2.06965074E-19
  -15.5200005      -7.29027723E-19
  -15.5100002      -1.92518905E-18
  -15.5000000      -2.96143998E-18
  -15.4899998      -3.24274301E-18
  -15.4799995      -2.18817169E-18
  -15.4700003       4.82723425E-19
  -15.4600000       4.45435809E-18
  -15.4499998       8.64742719E-18
  -15.4399996       1.13219461E-17
  -15.4300003       1.05337555E-17
  -15.4200001       4.90036477E-18
  -15.4099998      -5.53017265E-18
  -15.3999996      -1.86503354E-17
  -15.3900003      -3.02841410E-17
  -15.3800001      -3.50589418E-17
  -15.3699999      -2.81367901E-17
  -15.3599997      -7.40520126E-18
  -15.3500004       2.46169993E-17
  -15.3400002       6.00492097E-17
  -15.3299999       8.68021960E-17
  -15.3199997       9.17835836E-17
  -15.3100004       6.55452954E-17
  -15.3000002       6.99809853E-18
  -15.2900000      -7.36117225E-17
  -15.2799997      -1.55087497E-16
  -15.2700005      -2.09787284E-16
  -15.2600002      -2.11619323E-16
  -15.2500000      -1.45435359E-16
  -15.2399998      -1.47507330E-17
  -15.2299995       1.55288919E-16
  -15.2200003       3.21615790E-16
  -15.2100000       4.33475093E-16
  -15.1999998       4.46709295E-16
  -15.1899996       3.37895419E-16
  -15.1800003       1.13780453E-16
  -15.1700001      -1.87252899E-16
  -15.1599998      -5.02414257E-16
  -15.1499996      -7.58246689E-16
  -15.1400003      -8.86686689E-16
  -15.1300001      -8.38932506E-16
  -15.1199999      -5.94242317E-16
  -15.1099997      -1.63483010E-16
  -15.1000004       4.10341908E-16
  -15.0900002       1.05178622E-15
  -15.0799999       1.65210261E-15
  -15.0699997       2.07098158E-15
  -15.0600004       2.14777380E-15
  -15.0500002       1.72986468E-15
  -15.0400000       7.21624108E-16
  -15.0299997      -8.52489957E-16
  -15.0200005      -2.78948744E-15
  -15.0100002      -4.68273652E-15
  -15.0000000      -5.95988264E-15
  -14.9899998      -6.00123309E-15
  -14.9799995      -4.33016372E-15
  -14.9700003      -8.33778205E-16
  -14.9600000       4.05739370E-15
  -14.9499998       9.31384300E-15
  -14.9399996       1.34416658E-14
  -14.9300003       1.48249384E-14
  -14.9200001       1.22223966E-14
  -14.9099998       5.29177905E-15
  -14.8999996      -5.03331965E-15
  -14.8900003      -1.64872032E-14
  -14.8800001      -2.58450623E-14
  -14.8699999      -2.97137430E-14
  -14.8599997      -2.55820637E-14
  -14.8500004      -1.28445118E-14
  -14.8400002       6.54669054E-15
  -14.8299999       2.81031505E-14
  -14.8199997       4.56413946E-14
  -14.8100004       5.28539953E-14
  -14.8000002       4.52645530E-14
  -14.7900000       2.20270274E-14
  -14.7799997      -1.30299722E-14
  -14.7700005      -5.15923296E-14
  -14.7600002      -8.24702516E-14
  -14.7500000      -9.44125149E-14
  -14.7399998      -7.95041658E-14
  -14.7299995      -3.62400878E-14
  -14.7200003       2.86985096E-14
  -14.7100000       1.00725736E-13
  -14.6999998       1.59985713E-13
  -14.6899996       1.86011173E-13
  -14.6800003       1.63453208E-13
  -14.6700001       8.74648661E-14
  -14.6599998      -3.28110274E-14
  -14.6499996      -1.73946063E-13
  -14.6400003      -3.01764364E-13
  -14.6300001      -3.78443587E-13
  -14.6199999      -3.71916880E-13
  -14.6099997      -2.65500133E-13
  -14.6000004      -6.52623978E-14
  -14.5900002       1.97173197E-13
  -14.5799999       4.67924690E-13
  -14.5699997       6.80457914E-13
  -14.5600004       7.70142847E-13
  -14.5500002       6.90898727E-13
  -14.5400000       4.30049605E-13
  -14.5299997       1.73225607E-14
  -14.5200005      -4.75270268E-13
  -14.5100002      -9.44137238E-13
  -14.5000000      -1.27440614E-12
  -14.4899998      -1.36623178E-12
  -14.4799995      -1.16141916E-12
  -14.4700003      -6.63737674E-13
  -14.4600000       5.30953828E-14
  -14.4499998       8.53514091E-13
  -14.4399996       1.56448097E-12
  -14.4300003       2.01223933E-12
  -14.4200001       2.06390157E-12
  -14.4099998       1.66414170E-12
  -14.3999996       8.57314057E-13
  -14.3900003      -2.12168540E-13
  -14.3800001      -1.32374255E-12
  -14.3699999      -2.22564458E-12
  -14.3599997      -2.69207421E-12
  -14.3500004      -2.57981982E-12
  -14.3400002      -1.87042287E-12
  -14.3299999      -6.86145802E-13
  -14.3199997       7.26680055E-13
  -14.3100004       2.04600421E-12
  -14.3000002       2.94535555E-12
  -14.2900000       3.17292438E-12
  -14.2799997       2.61995894E-12
  -14.2700005       1.36080383E-12
  -14.2600002      -3.47941511E-13
  -14.2500000      -2.11302221E-12
  -14.2399998      -3.48827954E-12
  -14.2299995      -4.08006658E-12
  -14.2200003      -3.65075938E-12
  -14.2100000      -2.19474048E-12
  -14.1999998       3.49416202E-14
  -14.1899996       2.56136995E-12
  -14.1800003       4.77840423E-12
  -14.1700001       6.08851468E-12
  -14.1599998       6.05434973E-12
  -14.1499996       4.52759922E-12
  -14.1400003       1.71997106E-12
  -14.1300001      -1.80855146E-12
  -14.1199999      -5.25098541E-12
  -14.1099997      -7.72895983E-12
  -14.1000004      -8.50679076E-12
  -14.0900002      -7.19404007E-12
  -14.0799999      -3.88405801E-12
  -14.0699997       8.13338492E-13
  -14.0600004       5.86407355E-12
  -14.0500002       1.00157053E-11
  -14.0400000       1.20756981E-11
  -14.0299997       1.11984623E-11
  -14.0200005       7.10994588E-12
  -14.0100002       2.09244690E-13
  -14.0000000      -8.48633924E-12
  -13.9899998      -1.75484766E-11
  -13.9799995      -2.54534241E-11
  -13.9700003      -3.09325482E-11
  -13.9600000      -3.32717083E-11
  -13.9499998      -3.24824403E-11
  -13.9399996      -2.92986538E-11
  -13.9300003      -2.49951188E-11
  -13.9200001      -2.10696478E-11
  -13.9099998      -1.88665177E-11
  -13.8999996      -1.92355055E-11
  -13.8900003      -2.23118971E-11
  -13.8800001      -2.74733188E-11
  -13.8699999      -3.34850273E-11
  -13.8599997      -3.87952170E-11
  -13.8500004      -4.19069883E-11
  -13.8400002      -4.17326347E-11
  -13.8299999      -3.78440161E-11
  -13.8199997      -3.05588436E-11
  -13.8100004      -2.08465502E-11
  -13.8000002      -1.00827298E-11
  -13.7900000       2.83212689E-13
  -13.7799997       9.06240534E-12
  -13.7700005       1.55837704E-11
  -13.7600002       1.98163742E-11
  -13.7500000       2.23378729E-11
  -13.7399998       2.41674909E-11
  -13.7299995       2.65133158E-11
  -13.7200003       3.05003037E-11
  -13.7100000       3.69413909E-11
  -13.6999998       4.61977054E-11
  -13.6899996       5.81444753E-11
  -13.6800003       7.22321578E-11
  -13.6700001       8.76103495E-11
  -13.6599998       1.03274833E-10
  -13.6499996       1.18202906E-10
  -13.6400003       1.31455194E-10
  -13.6300001       1.42242065E-10
  -13.6199999       1.49964416E-10
  -13.6099997       1.54245186E-10
  -13.6000004       1.54960905E-10
  -13.5900002       1.52273402E-10
  -13.5799999       1.46645390E-10
  -13.5699997       1.38817235E-10
  -13.5600004       1.29727923E-10
  -13.5500002       1.20373073E-10
  -13.5400000       1.11623454E-10
  -13.5299997       1.04038098E-10
  -13.5200005       9.77329190E-11
  -13.5100002       9.23447221E-11
  -13.5000000       8.71244951E-11
  -13.4899998       8.11435086E-11
  -13.4799995       7.35671316E-11
  -13.4700003       6.39178710E-11
  -13.4600000       5.22411316E-11
  -13.4499998       3.91149335E-11
  -13.4399996       2.54808674E-11
  -13.4300003       1.23337738E-11
  -13.4200001       3.53113806E-13
  -13.4099998      -1.04105327E-11
  -13.3999996      -2.06917521E-11
  -13.3900003      -3.19454116E-11
  -13.3800001      -4.60589206E-11
  -13.3699999      -6.49088283E-11
  -13.3599997      -8.98750727E-11
  -13.3500004      -1.21443869E-10
  -13.3400002      -1.59007113E-10
  -13.3299999      -2.00908692E-10
  -13.3199997      -2.44724269E-10
  -13.3100004      -2.87691676E-10
  -13.3000002      -3.27182365E-10
  -13.2900000      -3.61097791E-10
  -13.2799997      -3.88112265E-10
  -13.2700005      -4.07735096E-10
  -13.2600002      -4.20219054E-10
  -13.2500000      -4.26374436E-10
  -13.2399998      -4.27355568E-10
  -13.2299995      -4.24473845E-10
  -13.2200003      -4.19052876E-10
  -13.2100000      -4.12308659E-10
  -13.1999998      -4.05240369E-10
  -13.1899996      -3.98505534E-10
  -13.1800003      -3.92291505E-10
  -13.1700001      -3.86220556E-10
  -13.1599998      -3.79343001E-10
  -13.1499996      -3.70258518E-10
  -13.1400003      -3.57380348E-10
  -13.1300001      -3.39298811E-10
  -13.1199999      -3.15166809E-10
  -13.1099997      -2.84978569E-10
  -13.1000004      -2.49672227E-10
  -13.0900002      -2.10981538E-10
  -13.0799999      -1.71069270E-10
  -13.0699997      -1.32032593E-10
  -13.0600004      -9.54062523E-11
  -13.0500002      -6.18037427E-11
  -13.0400000      -3.07895341E-11
  -13.0299997      -1.00990884E-12
  -13.0200005       2.94701000E-11
  -13.0100002       6.27234029E-11
  -13.0000000       1.00552074E-10
  -12.9899998       1.44200138E-10
  -12.9799995       1.94258484E-10
  -12.9700003       2.50756971E-10
  -12.9600000       3.13376991E-10
  -12.9499998       3.81730259E-10
  -12.9399996       4.55604471E-10
  -12.9300003       5.35134770E-10
  -12.9200001       6.20871354E-10
  -12.9099998       7.13733406E-10
  -12.8999996       8.14860568E-10
  -12.8900003       9.25363064E-10
  -12.8800001       1.04600961E-09
  -12.8699999       1.17686783E-09
  -12.8599997       1.31697830E-09
  -12.8500004       1.46416634E-09
  -12.8400002       1.61506863E-09
  -12.8299999       1.76546799E-09
  -12.8199997       1.91091587E-09
  -12.8100004       2.04755057E-09
  -12.8000002       2.17293050E-09
  -12.7900000       2.28660646E-09
  -12.7799997       2.39026243E-09
  -12.7700005       2.48726795E-09
  -12.7600002       2.58177413E-09
  -12.7500000       2.67755151E-09
  -12.7399998       2.77693912E-09
  -12.7299995       2.88029578E-09
  -12.7200003       2.98612468E-09
  -12.7100000       3.09195358E-09
  -12.6999998       3.19566063E-09
  -12.6899996       3.29683014E-09
  -12.6800003       3.39761330E-09
  -12.6700001       3.50270235E-09
  -12.6599998       3.61839558E-09
  -12.6499996       3.75086362E-09
  -12.6400003       3.90429866E-09
  -12.6300001       4.07940748E-09
  -12.6199999       4.27288827E-09
  -12.6099997       4.47814275E-09
  -12.6000004       4.68697570E-09
  -12.5900002       4.89179230E-09
  -12.5799999       5.08768760E-09
  -12.5699997       5.27358957E-09
  -12.5600004       5.45215739E-09
  -12.5500002       5.62861757E-09
  -12.5400000       5.80879789E-09
  -12.5299997       5.99712147E-09
  -12.5200005       6.19545482E-09
  -12.5100002       6.40284092E-09
  -12.5000000       6.61654065E-09
  -12.4899998       6.83354617E-09
  -12.4799995       7.05215397E-09
  -12.4700003       7.27277261E-09
  -12.4600000       7.49772244E-09
  -12.4499998       7.72982300E-09
  -12.4399996       7.97063038E-09
  -12.4300003       8.21880164E-09
  -12.4200001       8.46935144E-09
  -12.4099998       8.71448158E-09
  -12.3999996       8.94526675E-09
  -12.3900003       9.15452247E-09
  -12.3800001       9.33881505E-09
  -12.3699999       9.49990575E-09
  -12.3599997       9.64443991E-09
  -12.3500004       9.78190151E-09
  -12.3400002       9.92192106E-09
  -12.3299999       1.00714912E-08
  -12.3199997       1.02328777E-08
  -12.3100004       1.04033084E-08
  -12.3000002       1.05762190E-08
  -12.2900000       1.07433928E-08
  -12.2799997       1.08976268E-08
  -12.2700005       1.10348317E-08
  -12.2600002       1.11546408E-08
  -12.2500000       1.12601706E-08
  -12.2399998       1.13565619E-08
  -12.2299995       1.14494503E-08
  -12.2200003       1.15438459E-08
  -12.2100000       1.16438263E-08
  -12.1999998       1.17529906E-08
  -12.1899996       1.18751773E-08
  -12.1800003       1.20147936E-08
  -12.1700001       1.21766872E-08
  -12.1599998       1.23646968E-08
  -12.1499996       1.25801760E-08
  -12.1400003       1.28205055E-08
  -12.1300001       1.30787141E-08
  -12.1199999       1.33445663E-08
  -12.1099997       1.36072007E-08
  -12.1000004       1.38581138E-08
  -12.0900002       1.40944314E-08
  -12.0799999       1.43200998E-08
  -12.0699997       1.45456038E-08
  -12.0600004       1.47854315E-08
  -12.0500002       1.50542405E-08
  -12.0400000       1.53629607E-08
  -12.0299997       1.57165729E-08
  -12.0200005       1.61134910E-08
  -12.0100002       1.65469629E-08
  -12.0000000       1.70085315E-08
  -11.9899998       1.74911126E-08
  -11.9799995       1.79912707E-08
  -11.9700003       1.85095868E-08
  -11.9600000       1.90487821E-08
  -11.9499998       1.96110257E-08
  -11.9399996       2.01950581E-08
  -11.9300003       2.07946780E-08
  -11.9200001       2.13992983E-08
  -11.9099998       2.19966054E-08
  -11.8999996       2.25762413E-08
  -11.8900003       2.31335466E-08
  -11.8800001       2.36710953E-08
  -11.8699999       2.41982185E-08
  -11.8599997       2.47279761E-08
  -11.8500004       2.52728789E-08
  -11.8400002       2.58403929E-08
  -11.8299999       2.64304845E-08
  -11.8199997       2.70356555E-08
  -11.8100004       2.76429972E-08
  -11.8000002       2.82382988E-08
  -11.7900000       2.88101099E-08
  -11.7799997       2.93523250E-08
  -11.7700005       2.98646228E-08
  -11.7600002       3.03504990E-08
  -11.7500000       3.08143697E-08
  -11.7399998       3.12583381E-08
  -11.7299995       3.16810471E-08
  -11.7200003       3.20777609E-08
  -11.7100000       3.24432570E-08
  -11.6999998       3.27741603E-08
  -11.6899996       3.30721228E-08
  -11.6800003       3.33441186E-08
  -11.6700001       3.36003438E-08
  -11.6599998       3.38514354E-08
  -11.6499996       3.41031985E-08
  -11.6400003       3.43545601E-08
  -11.6300001       3.45967130E-08
  -11.6199999       3.48149740E-08
  -11.6099997       3.49934020E-08
  -11.6000004       3.51195304E-08
  -11.5900002       3.51885738E-08
  -11.5799999       3.52046001E-08
  -11.5699997       3.51785907E-08
  -11.5600004       3.51249305E-08
  -11.5500002       3.50562885E-08
  -11.5400000       3.49791058E-08
  -11.5299997       3.48927820E-08
  -11.5200005       3.47907623E-08
  -11.5100002       3.46642501E-08
  -11.5000000       3.45060656E-08
  -11.4899998       3.43147128E-08
  -11.4799995       3.40949775E-08
  -11.4700003       3.38566046E-08
  -11.4600000       3.36106858E-08
  -11.4499998       3.33659784E-08
  -11.4399996       3.31259571E-08
  -11.4300003       3.28881384E-08
  -11.4200001       3.26461596E-08
  -11.4099998       3.23935403E-08
  -11.3999996       3.21270726E-08
  -11.3900003       3.18492894E-08
  -11.3800001       3.15677795E-08
  -11.3699999       3.12923802E-08
  -11.3599997       3.10310533E-08
  -11.3500004       3.07860581E-08
  -11.3400002       3.05520373E-08
  -11.3299999       3.03172492E-08
  -11.3199997       3.00672696E-08
  -11.3100004       2.97903355E-08
  -11.3000002       2.94817308E-08
  -11.2900000       2.91465838E-08
  -11.2799997       2.87982509E-08
  -11.2700005       2.84546200E-08
  -11.2600002       2.81329111E-08
  -11.2500000       2.78439440E-08
  -11.2399998       2.75889427E-08
  -11.2299995       2.73601408E-08
  -11.2200003       2.71443881E-08
  -11.2100000       2.69281824E-08
  -11.1999998       2.67025744E-08
  -11.1899996       2.64666742E-08
  -11.1800003       2.62264344E-08
  -11.1700001       2.59925983E-08
  -11.1599998       2.57764565E-08
  -11.1499996       2.55842210E-08
  -11.1400003       2.54164121E-08
  -11.1300001       2.52672088E-08
  -11.1199999       2.51284185E-08
  -11.1099997       2.49935610E-08
  -11.1000004       2.48616043E-08
  -11.0900002       2.47383820E-08
  -11.0799999       2.46346854E-08
  -11.0699997       2.45631764E-08
  -11.0600004       2.45326230E-08
  -11.0500002       2.45446916E-08
  -11.0400000       2.45925911E-08
  -11.0299997       2.46624570E-08
  -11.0200005       2.47380179E-08
  -11.0100002       2.48061092E-08
  -11.0000000       2.48609471E-08
  -10.9899998       2.49063614E-08
  -10.9799995       2.49535965E-08
  -10.9700003       2.50186627E-08
  -10.9600000       2.51162220E-08
  -10.9499998       2.52559982E-08
  -10.9399996       2.54404391E-08
  -10.9300003       2.56655142E-08
  -10.9200001       2.59245461E-08
  -10.9099998       2.62115840E-08
  -10.8999996       2.65254290E-08
  -10.8900003       2.68700617E-08
  -10.8800001       2.72539555E-08
  -10.8699999       2.76856724E-08
  -10.8599997       2.81704811E-08
  -10.8500004       2.87075448E-08
  -10.8400002       2.92884135E-08
  -10.8299999       2.99002707E-08
  -10.8199997       3.05295096E-08
  -10.8100004       3.11660457E-08
  -10.8000002       3.18068949E-08
  -10.7900000       3.24566010E-08
  -10.7799997       3.31261347E-08
  -10.7700005       3.38280266E-08
  -10.7600002       3.45727109E-08
  -10.7500000       3.53645113E-08
  -10.7399998       3.62013424E-08
  -10.7299995       3.70759210E-08
  -10.7200003       3.79787792E-08
  -10.7100000       3.89021082E-08
  -10.6999998       3.98425648E-08
  -10.6899996       4.08018046E-08
  -10.6800003       4.17836930E-08
  -10.6700001       4.27929479E-08
  -10.6599998       4.38307275E-08
  -10.6499996       4.48922748E-08
  -10.6400003       4.59687080E-08
  -10.6300001       4.70479193E-08
  -10.6199999       4.81190341E-08
  -10.6099997       4.91763927E-08
  -10.6000004       5.02212529E-08
  -10.5900002       5.12620737E-08
  -10.5799999       5.23118331E-08
  -10.5699997       5.33840634E-08
  -10.5600004       5.44890604E-08
  -10.5500002       5.56300819E-08
  -10.5400000       5.68035823E-08
  -10.5299997       5.80001007E-08
  -10.5200005       5.92078102E-08
  -10.5100002       6.04161627E-08
  -10.5000000       6.16178681E-08
  -10.4899998       6.28110186E-08
  -10.4799995       6.39969642E-08
  -10.4700003       6.51783409E-08
  -10.4600000       6.63566908E-08
  -10.4499998       6.75301735E-08
  -10.4399996       6.86945612E-08
  -10.4300003       6.98437006E-08
  -10.4200001       7.09722983E-08
  -10.4099998       7.20791604E-08
  -10.3999996       7.31681027E-08
  -10.3900003       7.42479926E-08
  -10.3800001       7.53305684E-08
  -10.3699999       7.64278880E-08
  -10.3599997       7.75486413E-08
  -10.3500004       7.86969139E-08
  -10.3400002       7.98713202E-08
  -10.3299999       8.10654228E-08
  -10.3199997       8.22726349E-08
  -10.3100004       8.34865759E-08
  -10.3000002       8.47038137E-08
  -10.2900000       8.59252012E-08
  -10.2799997       8.71542412E-08
  -10.2700005       8.83948772E-08
  -10.2600002       8.96496815E-08
  -10.2500000       9.09180358E-08
  -10.2399998       9.21965650E-08
  -10.2299995       9.34803097E-08
  -10.2200003       9.47632941E-08
  -10.2100000       9.60434647E-08
  -10.1999998       9.73210135E-08
  -10.1899996       9.86012623E-08
  -10.1800003       9.98920555E-08
  -10.1700001       1.01202517E-07
  -10.1599998       1.02538941E-07
  -10.1499996       1.03905194E-07
  -10.1400003       1.05300835E-07
  -10.1300001       1.06722162E-07
  -10.1199999       1.08163619E-07
  -10.1099997       1.09620402E-07
  -10.1000004       1.11089577E-07
  -10.0900002       1.12570923E-07
  -10.0799999       1.14067362E-07
  -10.0699997       1.15581727E-07
  -10.0600004       1.17117494E-07
  -10.0500002       1.18673931E-07
  -10.0400000       1.20249865E-07
  -10.0299997       1.21842717E-07
  -10.0200005       1.23448757E-07
  -10.0100002       1.25066833E-07
  -10.0000000       1.26698936E-07
  -9.98999977       1.28349029E-07
  -9.97999954       1.30025455E-07
  -9.97000027       1.31735391E-07
  -9.96000004       1.33485415E-07
  -9.94999981       1.35278768E-07
  -9.93999958       1.37113716E-07
  -9.93000031       1.38985186E-07
  -9.92000008       1.40885177E-07
  -9.90999985       1.42806300E-07
  -9.89999962       1.44741477E-07
  -9.89000034       1.46686546E-07
  -9.88000011       1.48639344E-07
  -9.86999989       1.50598538E-07
  -9.85999966       1.52563047E-07
  -9.85000038       1.54530142E-07
  -9.84000015       1.56496597E-07
  -9.82999992       1.58458079E-07
  -9.81999969       1.60410494E-07
  -9.81000042       1.62353629E-07
  -9.80000019       1.64290185E-07
  -9.78999996       1.66227821E-07
  -9.77999973       1.68176740E-07
  -9.77000046       1.70147828E-07
  -9.76000023       1.72150095E-07
  -9.75000000       1.74187406E-07
  -9.73999977       1.76259235E-07
  -9.72999954       1.78360182E-07
  -9.72000027       1.80481919E-07
  -9.71000004       1.82617555E-07
  -9.69999981       1.84759685E-07
  -9.68999958       1.86906604E-07
  -9.68000031       1.89059051E-07
  -9.67000008       1.91219812E-07
  -9.65999985       1.93394229E-07
  -9.64999962       1.95583993E-07
  -9.64000034       1.97790754E-07
  -9.63000011       2.00012636E-07
  -9.61999989       2.02246298E-07
  -9.60999966       2.04490433E-07
  -9.60000038       2.06746861E-07
  -9.59000015       2.09019859E-07
  -9.57999992       2.11313406E-07
  -9.56999969       2.13636682E-07
  -9.56000042       2.15993268E-07
  -9.55000019       2.18381189E-07
  -9.53999996       2.20793780E-07
  -9.52999973       2.23219715E-07
  -9.52000046       2.25643802E-07
  -9.51000023       2.28056024E-07
  -9.50000000       2.30446460E-07
  -9.48999977       2.32814102E-07
  -9.47999954       2.35162901E-07
  -9.47000027       2.37501894E-07
  -9.46000004       2.39841086E-07
  -9.44999981       2.42188008E-07
  -9.43999958       2.44548659E-07
  -9.43000031       2.46924714E-07
  -9.42000008       2.49312933E-07
  -9.40999985       2.51711612E-07
  -9.39999962       2.54119556E-07
  -9.39000034       2.56541682E-07
  -9.38000011       2.58981260E-07
  -9.36999989       2.61447155E-07
  -9.35999966       2.63943747E-07
  -9.35000038       2.66472568E-07
  -9.34000015       2.69031631E-07
  -9.32999992       2.71609991E-07
  -9.31999969       2.74196452E-07
  -9.31000042       2.76780554E-07
  -9.30000019       2.79356982E-07
  -9.28999996       2.81923946E-07
  -9.27999973       2.84488493E-07
  -9.27000046       2.87061255E-07
  -9.26000023       2.89653428E-07
  -9.25000000       2.92276127E-07
  -9.23999977       2.94934296E-07
  -9.22999954       2.97628247E-07
  -9.22000027       3.00352497E-07
  -9.21000004       3.03102752E-07
  -9.19999981       3.05873584E-07
  -9.18999958       3.08664227E-07
  -9.18000031       3.11474594E-07
  -9.17000008       3.14311194E-07
  -9.15999985       3.17179939E-07
  -9.14999962       3.20082933E-07
  -9.14000034       3.23022135E-07
  -9.13000011       3.25992374E-07
  -9.11999989       3.28987340E-07
  -9.10999966       3.32002514E-07
  -9.10000038       3.35032155E-07
  -9.09000015       3.38076433E-07
  -9.07999992       3.41142425E-07
  -9.06999969       3.44239027E-07
  -9.06000042       3.47376130E-07
  -9.05000019       3.50563568E-07
  -9.03999996       3.53806854E-07
  -9.02999973       3.57109030E-07
  -9.02000046       3.60468533E-07
  -9.01000023       3.63881810E-07
  -9.00000000       3.67349486E-07
  -8.98999977       3.70871987E-07
  -8.97999954       3.74455027E-07
  -8.97000027       3.78106023E-07
  -8.96000004       3.81831597E-07
  -8.94999981       3.85636696E-07
  -8.93999958       3.89520210E-07
  -8.93000031       3.93478444E-07
  -8.92000008       3.97501680E-07
  -8.90999985       4.01580849E-07
  -8.89999962       4.05706032E-07
  -8.89000034       4.09869244E-07
  -8.88000011       4.14067159E-07
  -8.86999989       4.18301369E-07
  -8.85999966       4.22577642E-07
  -8.85000038       4.26897060E-07
  -8.84000015       4.31265846E-07
  -8.82999992       4.35686104E-07
  -8.81999969       4.40162182E-07
  -8.81000042       4.44693626E-07
  -8.80000019       4.49286205E-07
  -8.78999996       4.53940686E-07
  -8.77999973       4.58666705E-07
  -8.77000046       4.63466222E-07
  -8.76000023       4.68343728E-07
  -8.75000000       4.73300418E-07
  -8.73999977       4.78332709E-07
  -8.72999954       4.83434803E-07
  -8.72000027       4.88594765E-07
  -8.71000004       4.93804180E-07
  -8.69999981       4.99055659E-07
  -8.68999958       5.04344257E-07
  -8.68000031       5.09669064E-07
  -8.67000008       5.15032013E-07
  -8.65999985       5.20440040E-07
  -8.64999962       5.25895700E-07
  -8.64000034       5.31405590E-07
  -8.63000011       5.36969310E-07
  -8.61999989       5.42592659E-07
  -8.60999966       5.48271316E-07
  -8.60000038       5.54012615E-07
  -8.59000015       5.59809109E-07
  -8.57999992       5.65664379E-07
  -8.56999969       5.71578823E-07
  -8.56000042       5.77556023E-07
  -8.55000019       5.83586768E-07
  -8.53999996       5.89669582E-07
  -8.52999973       5.95800884E-07
  -8.52000046       6.01970953E-07
  -8.51000023       6.08176606E-07
  -8.50000000       6.14409885E-07
  -8.48999977       6.20671699E-07
  -8.47999954       6.26959149E-07
  -8.47000027       6.33281047E-07
  -8.46000004       6.39636085E-07
  -8.44999981       6.46026592E-07
  -8.43999958       6.52458255E-07
  -8.43000031       6.58931640E-07
  -8.42000008       6.65443224E-07
  -8.40999985       6.71995736E-07
  -8.39999962       6.78588208E-07
  -8.39000034       6.85224336E-07
  -8.38000011       6.91905939E-07
  -8.36999989       6.98640804E-07
  -8.35999966       7.05431376E-07
  -8.35000038       7.12286237E-07
  -8.34000015       7.19201410E-07
  -8.32999992       7.26184282E-07
  -8.31999969       7.33228376E-07
  -8.31000042       7.40332837E-07
  -8.30000019       7.47495733E-07
  -8.28999996       7.54710982E-07
  -8.27999973       7.61977901E-07
  -8.27000046       7.69291660E-07
  -8.26000023       7.76655043E-07
  -8.25000000       7.84061228E-07
  -8.23999977       7.91510502E-07
  -8.22999954       7.98998315E-07
  -8.22000027       8.06521541E-07
  -8.21000004       8.14084842E-07
  -8.19999981       8.21694130E-07
  -8.18999958       8.29347243E-07
  -8.18000031       8.37050834E-07
  -8.17000008       8.44815418E-07
  -8.15999985       8.52647020E-07
  -8.14999962       8.60551495E-07
  -8.14000034       8.68530037E-07
  -8.13000011       8.76578667E-07
  -8.11999989       8.84695623E-07
  -8.10999966       8.92882952E-07
  -8.10000038       9.01127635E-07
  -8.09000015       9.09435983E-07
  -8.07999992       9.17803618E-07
  -8.06999969       9.26234634E-07
  -8.06000042       9.34729542E-07
  -8.05000019       9.43290388E-07
  -8.03999996       9.51919901E-07
  -8.02999973       9.60618308E-07
  -8.02000046       9.69384018E-07
  -8.01000023       9.78220100E-07
  -8.00000000       9.87128715E-07
  -7.98999977       9.96108952E-07
  -7.98000002       1.00517013E-06
  -7.96999979       1.01432329E-06
  -7.96000004       1.02357353E-06
  -7.94999981       1.03292700E-06
  -7.94000006       1.04238848E-06
  -7.92999983       1.05195602E-06
  -7.92000008       1.06162599E-06
  -7.90999985       1.07139965E-06
  -7.90000010       1.08126846E-06
  -7.88999987       1.09123243E-06
  -7.88000011       1.10129042E-06
  -7.86999989       1.11145050E-06
  -7.86000013       1.12171017E-06
  -7.84999990       1.13206659E-06
  -7.84000015       1.14252566E-06
  -7.82999992       1.15308217E-06
  -7.82000017       1.16373224E-06
  -7.80999994       1.17446700E-06
  -7.80000019       1.18529954E-06
  -7.78999996       1.19622166E-06
  -7.78000021       1.20724530E-06
  -7.76999998       1.21837684E-06
  -7.76000023       1.22963718E-06
  -7.75000000       1.24102223E-06
  -7.73999977       1.25253962E-06
  -7.73000002       1.26418388E-06
  -7.71999979       1.27596036E-06
  -7.71000004       1.28786712E-06
  -7.69999981       1.29989371E-06
  -7.69000006       1.31203672E-06
  -7.67999983       1.32430728E-06
  -7.67000008       1.33669903E-06
  -7.65999985       1.34922095E-06
  -7.65000010       1.36187055E-06
  -7.63999987       1.37464610E-06
  -7.63000011       1.38753762E-06
  -7.61999989       1.40053874E-06
  -7.61000013       1.41364399E-06
  -7.59999990       1.42684439E-06
  -7.59000015       1.44015087E-06
  -7.57999992       1.45357365E-06
  -7.57000017       1.46712637E-06
  -7.55999994       1.48080960E-06
  -7.55000019       1.49463631E-06
  -7.53999996       1.50860853E-06
  -7.53000021       1.52271230E-06
  -7.51999998       1.53694725E-06
  -7.51000023       1.55129464E-06
  -7.50000000       1.56576073E-06
  -7.48999977       1.58032935E-06
  -7.48000002       1.59501951E-06
  -7.46999979       1.60982574E-06
  -7.46000004       1.62475226E-06
  -7.44999981       1.63980496E-06
  -7.44000006       1.65499910E-06