  -16.0000000       0.00000000    
  -15.9899998       0.00000000    
  -15.9799995       0.00000000    
  -15.9700003       0.00000000    
  -15.9600000       0.00000000    
  -15.9499998       0.00000000    
  -15.9399996       0.00000000    
  -15.9300003       0.00000000    
  -15.9200001       0.00000000    
  -15.9099998       0.00000000    
  -15.8999996       0.00000000    
  -15.8900003      -3.27189178E-41
  -15.8800001      -3.17359630E-39
  -15.8699999      -6.57165988E-38
  -15.8599997      -7.70913880E-37
  -15.8500004      -6.39095415E-36
  -15.8400002      -4.10918731E-35
  -15.8299999      -2.14998904E-34
  -15.8199997      -9.41163593E-34
  -15.8100004      -3.50538844E-33
  -15.8000002      -1.12115029E-32
  -15.7900000      -3.08533178E-32
  -15.7799997      -7.24481913E-32
  -15.7700005      -1.40951905E-31
  -15.7600002      -2.06922976E-31
  -15.7500000      -1.36771636E-31
  -15.7399998       4.34202693E-31
  -15.7299995       2.27639860E-30
  -15.7200003       6.70929444E-30
  -15.7100000       1.55059328E-29
  -15.6999998       3.01606979E-29
  -15.6899996       4.99157498E-29
  -15.6800003       6.78797740E-29
  -15.6700001       6.50495177E-29
  -15.6599998       3.75340688E-30
  -15.6499996      -1.74280554E-28
  -15.6400003      -5.34521682E-28
  -15.6300001      -1.10562631E-27
  -15.6199999      -1.79290770E-27
  -15.6099997      -2.25875202E-27
  -15.6000004      -1.82519129E-27
  -15.5900002       4.86750386E-28
  -15.5799999       5.63351033E-27
  -15.5699997       1.38527087E-26
  -15.5600004       2.37049621E-26
  -15.5500002       3.12613466E-26
  -15.5400000       3.00415058E-26
  -15.5299997       1.21098484E-26
  -15.5200005      -2.99879372E-26
  -15.5100002      -1.01564227E-25
  -15.5000000      -2.05111675E-25
  -15.4899998      -3.38152080E-25
  -15.4799995      -4.81317466E-25
  -15.4700003      -5.64362086E-25
  -15.4600000      -4.06107887E-25
  -15.4499998       3.42317784E-25
  -15.4399996       2.16071092E-24
  -15.4300003       5.37862405E-24
  -15.4200001       9.51227728E-24
  -15.4099998       1.22765832E-23
  -15.3999996       8.77934503E-24
  -15.3900003      -7.97418705E-24
  -15.3800001      -4.37267241E-23
  -15.3699999      -9.57266931E-23
  -15.3599997      -1.42757470E-22
  -15.3500004      -1.37710590E-22
  -15.3400002      -1.27624031E-23
  -15.3299999       2.90727076E-22
  -15.3199997       7.61321304E-22
  -15.3100004       1.23768030E-21
  -15.3000002       1.35213243E-21
  -15.2900000       5.71141808E-22
  -15.2799997      -1.58590597E-21
  -15.2700005      -5.11565407E-21
  -15.2600002      -8.97975802E-21
  -15.2500000      -1.07184707E-20
  -15.2399998      -6.69544908E-21
  -15.2299995       6.53421429E-21
  -15.2200003       2.95499837E-20
  -15.2100000       5.66566892E-20
  -15.1999998       7.34053000E-20
  -15.1899996       5.76999190E-20
  -15.1800003      -1.27562196E-20
  -15.1700001      -1.45625444E-19
  -15.1599998      -3.14665812E-19
  -15.1499996      -4.44684853E-19
  -15.1400003      -4.14508684E-19
  -15.1300001      -9.24327030E-20
  -15.1199999       5.89482922E-19
  -15.1099997       1.53513400E-18
  -15.1000004       2.39850407E-18
  -15.0900002       2.57805810E-18
  -15.0799999       1.36305251E-18
  -15.0699997      -1.73005508E-18
  -15.0600004      -6.47676298E-18
  -15.0500002      -1.14885378E-17
  -15.0400000      -1.40714407E-17
  -15.0299997      -1.07327098E-17
  -15.0200005       1.44911538E-18
  -15.0100002       2.27073784E-17
  -15.0000000       4.83560853E-17
  -14.9899998       6.76161586E-17
  -14.9799995       6.49461917E-17
  -14.9700003       2.49924334E-17
  -14.9600000      -5.89152774E-17
  -14.9499998      -1.74783899E-16
  -14.9399996      -2.84816523E-16
  -14.9300003      -3.26927877E-16
  -14.9200001      -2.30140731E-16
  -14.9099998       5.46726746E-17
  -14.8999996       5.14281242E-16
  -14.8900003       1.03717787E-15
  -14.8800001       1.40370925E-15
  -14.8699999       1.32437572E-15
  -14.8599997       5.38277156E-16
  -14.8500004      -1.03890751E-15
  -14.8400002      -3.15937402E-15
  -14.8299999      -5.15186572E-15
  -14.8199997      -5.97898450E-15
  -14.8100004      -4.50650708E-15
  -14.8000002       1.62338199E-17
  -14.7900000       7.36755526E-15
  -14.7799997       1.58707039E-14
  -14.7700005       2.23061434E-14
  -14.7600002       2.24885333E-14
  -14.7500000       1.26219573E-14
  -14.7399998      -8.74862045E-15
  -14.7299995      -3.87460145E-14
  -14.7200003      -6.90091295E-14
  -14.7100000      -8.63581057E-14
  -14.6999998      -7.59622467E-14
  -14.6899996      -2.69453242E-14
  -14.6800003       6.07493995E-14
  -14.6700001       1.70575698E-13
  -14.6599998       2.67750611E-13
  -14.6499996       3.04594647E-13
  -14.6400003       2.34081824E-13
  -14.6300001       2.99394976E-14
  -14.6199999      -2.91956590E-13
  -14.6099997      -6.59229290E-13
  -14.6000004      -9.45064339E-13
  -14.5900002      -9.93658497E-13
  -14.5799999      -6.69605864E-13
  -14.5699997       7.78017719E-14
  -14.5600004       1.15458131E-12
  -14.5500002       2.29250755E-12
  -14.5400000       3.07550621E-12
  -14.5299997       3.03631838E-12
  -14.5200005       1.81603593E-12
  -14.5100002      -6.48915058E-13
  -14.5000000      -3.97358145E-12
  -14.4899998      -7.27876440E-12
  -14.4799995      -9.31528292E-12
  -14.4700003      -8.78070793E-12
  -14.4600000      -4.78641215E-12
  -14.4499998       2.64131035E-12
  -14.4399996       1.22009304E-11
  -14.4300003       2.12860424E-11
  -14.4200001       2.64254365E-11
  -14.4099998       2.42098910E-11
  -14.3999996       1.25492542E-11
  -14.3900003      -8.07588978E-12
  -14.3800001      -3.38238153E-11
  -14.3699999      -5.76147359E-11
  -14.3599997      -7.04501110E-11
  -14.3500004      -6.38804079E-11
  -14.3400002      -3.31469227E-11
  -14.3299999       1.98770566E-11
  -14.3199997       8.50440829E-11
  -14.3100004       1.44594503E-10
  -14.3000002       1.76652734E-10
  -14.2900000       1.61274216E-10
  -14.2799997       8.77898032E-11
  -14.2700005      -3.86432622E-11
  -14.2600002      -1.93747782E-10
  -14.2500000      -3.36196737E-10
  -14.2399998      -4.15972867E-10
  -14.2299995      -3.88103105E-10
  -14.2200003      -2.28793554E-10
  -14.2100000       5.06569578E-11
  -14.1999998       3.97353483E-10
  -14.1899996       7.21899929E-10
  -14.1800003       9.16629883E-10
  -14.1700001       8.84649964E-10
  -14.1599998       5.73258052E-10
  -14.1499996       2.22051219E-12
  -14.1400003      -7.23390292E-10
  -14.1300001      -1.42376300E-09
  -14.1199999      -1.88082616E-09
  -14.1099997      -1.89557636E-09
  -14.1000004      -1.35344225E-09
  -14.0900002      -2.79353152E-10
  -14.0799999       1.13683962E-09
  -14.0699997       2.55914312E-09
  -14.0600004       3.57258245E-09
  -14.0500002       3.78900111E-09
  -14.0400000       2.96788616E-09
  -14.0299997       1.11906928E-09
  -14.0200005      -1.44720769E-09
  -14.0100002      -4.14854773E-09
  -14.0000000      -6.24429441E-09
  -13.9899998      -7.01829750E-09
  -13.9799995      -5.99010308E-09
  -13.9700003      -3.09812553E-09
  -13.9600000       1.20380850E-09
  -13.9499998       5.98038596E-09
  -13.9399996       9.99273198E-09
  -13.9300003       1.19943868E-08
  -13.9200001       1.10807754E-08
  -13.9099998       7.00132352E-09
  -13.8999996       3.39214379E-10
  -13.8900003      -7.51381002E-09
  -13.8800001      -1.46132306E-08
  -13.8699999      -1.89122993E-08
  -13.8599997      -1.88109706E-08
  -13.8500004      -1.36645379E-08
  -13.8400002      -4.10417389E-09
  -13.8299999       7.94729971E-09
  -13.8199997       1.96127914E-08
  -13.8100004       2.77083441E-08
  -13.8000002       2.95656051E-08
  -13.7900000       2.38274733E-08
  -13.7799997       1.09952429E-08
  -13.7700005      -6.45564358E-09
  -13.7600002      -2.44800447E-08
  -13.7500000      -3.83458101E-08
  -13.7399998      -4.38171313E-08
  -13.7299995      -3.83566352E-08
  -13.7200003      -2.20236824E-08
  -13.7100000       2.21160401E-09
  -13.6999998       2.88959576E-08
  -13.6899996       5.12391765E-08
  -13.6800003       6.27597743E-08
  -13.6700001       5.90503753E-08
  -13.6599998       3.92055881E-08
  -13.6499996       6.49055787E-09
  -13.6400003      -3.20186970E-08
  -13.6300001      -6.68499283E-08
  -13.6199999      -8.83533673E-08
  -13.6099997      -8.92303476E-08
  -13.6000004      -6.67384583E-08
  -13.5900002      -2.39520013E-08
  -13.5799999       3.03643475E-08
  -13.5699997       8.33944753E-08
  -13.5600004       1.21162685E-07
  -13.5500002       1.32058759E-07
  -13.5400000       1.10139950E-07
  -13.5299997       5.73174503E-08
  -13.5200005      -1.62699916E-08
  -13.5100002      -9.39916376E-08
  -13.5000000      -1.56343162E-07
  -13.4899998      -1.85702135E-07
  -13.4799995      -1.71096659E-07
  -13.4700003      -1.11740434E-07
  -13.4600000      -1.82813533E-08
  -13.4499998       8.87985223E-08
  -13.4399996       1.83504810E-07
  -13.4300003       2.40519540E-07
  -13.4200001       2.41826910E-07
  -13.4099998       1.82087263E-07
  -13.3999996       7.12311419E-08
  -13.3900003      -6.66774369E-08
  -13.3800001      -1.98375275E-07
  -13.3699999      -2.89209794E-07
  -13.3599997      -3.12059939E-07
  -13.3500004      -2.55140662E-07
  -13.3400002      -1.26540272E-07
  -13.3299999       4.60139979E-08
  -13.3199997       2.20565340E-07
  -13.3100004       3.50601709E-07
  -13.3000002       3.96883223E-07
  -13.2900000       3.38542861E-07
  -13.2799997       1.80486964E-07
  -13.2700005      -4.52090987E-08
  -13.2600002      -2.84883754E-07
  -13.2500000      -4.75112387E-07
  -13.2399998      -5.58342435E-07
  -13.2299995      -4.98681800E-07
  -13.2200003      -2.93769574E-07
  -13.2100000       2.07506918E-08
  -13.1999998       3.76096438E-07
  -13.1899996       6.84297788E-07
  -13.1800003       8.58638373E-07
  -13.1700001       8.36060281E-07
  -13.1599998       5.96038376E-07
  -13.1499996       1.70746659E-07
  -13.1400003      -3.56990512E-07
  -13.1300001      -8.68755308E-07
  -13.1199999      -1.23618713E-06
  -13.1099997      -1.35189623E-06
  -13.1000004      -1.15843511E-06
  -13.0900002      -6.67862309E-07
  -13.0799999       3.39586066E-08
  -13.0699997       8.00951284E-07
  -13.0600004       1.45671254E-06
  -13.0500002       1.83484633E-06
  -13.0400000       1.82070823E-06
  -13.0299997       1.38428413E-06
  -13.0200005       5.95159236E-07
  -13.0100002      -3.85829196E-07
  -13.0000000      -1.33832259E-06
  -12.9899998      -2.03174045E-06
  -12.9799995      -2.28138879E-06
  -12.9700003      -1.99791339E-06
  -12.9600000      -1.21710809E-06
  -12.9499998      -1.00884400E-07
  -12.9399996       1.09331961E-06
  -12.9300003       2.06966547E-06
  -12.9200001       2.56541671E-06
  -12.9099998       2.41997145E-06
  -12.8999996       1.62378103E-06
  -12.8900003       3.33119118E-07
  -12.8800001      -1.15587022E-06
  -12.8699999      -2.47065600E-06
  -12.8599997      -3.25040241E-06
  -12.8500004      -3.23847485E-06
  -12.8400002      -2.35644461E-06
  -12.8299999      -7.39523045E-07
  -12.8199997       1.27854241E-06
  -12.8100004       3.23134964E-06
  -12.8000002       4.62406888E-06
  -12.7900000       5.05311118E-06
  -12.7799997       4.31282706E-06
  -12.7700005       2.46197988E-06
  -12.7600002      -1.69222460E-07
  -12.7500000      -3.03746128E-06
  -12.7399998      -5.50028244E-06
  -12.7299995      -6.96173993E-06
  -12.7200003      -7.01649924E-06
  -12.7100000      -5.55751740E-06
  -12.6999998      -2.81918574E-06
  -12.6899996       6.58170109E-07
  -12.6800003       4.13829184E-06
  -12.6700001       6.85117493E-06
  -12.6599998       8.17128694E-06
  -12.6499996       7.76998786E-06
  -12.6400003       5.70442262E-06
  -12.6300001       2.41858174E-06
  -12.6199999      -1.34774632E-06
  -12.6099997      -4.72446027E-06
  -12.6000004      -6.91459263E-06
  -12.5900002      -7.38841527E-06
  -12.5799999      -6.02094315E-06
  -12.5699997      -3.13707369E-06
  -12.5600004       5.50770494E-07
  -12.5500002       4.10234043E-06
  -12.5400000       6.57242890E-06
  -12.5299997       7.24581469E-06
  -12.5200005       5.82779148E-06
  -12.5100002       2.54170732E-06
  -12.5000000      -1.89503021E-06
  -12.4899998      -6.41718589E-06
  -12.4799995      -9.85148108E-06
  -12.4700003      -1.11972522E-05
  -12.4600000      -9.88276497E-06
  -12.4499998      -5.93434424E-06
  -12.4399996      -1.29394540E-08
  -12.4300003       6.69804695E-06
  -12.4200001       1.27354506E-05
  -12.4099998       1.66794525E-05
  -12.3999996       1.74854249E-05
  -12.3900003       1.47471555E-05
  -12.3800001       8.82622498E-06
  -12.3699999       8.10571407E-07
  -12.3599997      -7.69662893E-06
  -12.3500004      -1.49169164E-05
  -12.3400002      -1.92924672E-05
  -12.3299999      -1.98487432E-05
  -12.3199997      -1.64383964E-05
  -12.3100004      -9.80486038E-06
  -12.3000002      -1.44345404E-06
  -12.2900000       6.71582939E-06
  -12.2799997       1.27370886E-05
  -12.2700005       1.51232089E-05
  -12.2600002       1.31733459E-05
  -12.2500000       7.16641625E-06
  -12.2399998      -1.67865142E-06
  -12.2299995      -1.14644890E-05
  -12.2200003      -2.00447557E-05
  -12.2100000      -2.55257964E-05
  -12.1999998      -2.67238702E-05
  -12.1899996      -2.34673716E-05
  -12.1800003      -1.66660611E-05
  -12.1700001      -8.12180679E-06
  -12.1599998      -1.16121171E-07
  -12.1499996       5.13544137E-06
  -12.1400003       6.03645685E-06
  -12.1300001       2.03788591E-06
  -12.1199999      -6.16654052E-06
  -12.1099997      -1.67344861E-05
  -12.1000004      -2.70486380E-05
  -12.0900002      -3.42927160E-05
  -12.0799999      -3.61018429E-05
  -12.0699997      -3.11369076E-05
  -12.0600004      -1.94452932E-05
  -12.0500002      -2.51604365E-06
  -12.0400000       1.69932919E-05
  -12.0299997       3.58045654E-05
  -12.0200005       5.07221594E-05
  -12.0100002       5.93324548E-05
  -12.0000000       6.05381538E-05
  -11.9899998       5.48009739E-05
  -11.9799995       4.40323201E-05
  -11.9700003       3.11526346E-05
  -11.9600000       1.94175991E-05
  -11.9499998       1.16658020E-05
  -11.9399996       9.66174321E-06
  -11.9300003       1.36883218E-05
  -11.9200001       2.24854939E-05
  -11.9099998       3.35517470E-05
  -11.8999996       4.37398849E-05
  -11.8900003       5.00094648E-05
  -11.8800001       5.01602008E-05
  -11.8699999       4.33742534E-05
  -11.8599997       3.04387886E-05
  -11.8500004       1.35943001E-05
  -11.8400002      -3.95886354E-06
  -11.8299999      -1.87836285E-05
  -11.8199997      -2.79928845E-05
  -11.8100004      -2.99185085E-05
  -11.8000002      -2.45080337E-05
  -11.7900000      -1.33568619E-05
  -11.7799997       6.32621379E-07
  -11.7700005       1.38881742E-05
  -11.7600002       2.29570123E-05
  -11.7500000       2.52690970E-05
  -11.7399998       1.97030586E-05
  -11.7299995       6.82923564E-06
  -11.7200003      -1.12219841E-05
  -11.7100000      -3.12338016E-05
  -11.6999998      -4.96095927E-05
  -11.6899996      -6.31530274E-05
  -11.6800003      -6.97483410E-05
  -11.6700001      -6.87921929E-05
  -11.6599998      -6.12862859E-05
  -11.6499996      -4.95764252E-05
  -11.6400003      -3.68019791E-05
  -11.6300001      -2.61816822E-05
  -11.6199999      -2.02956962E-05
  -11.6099997      -2.05207252E-05
  -11.6000004      -2.67387859E-05
  -11.5900002      -3.73782750E-05
  -11.5799999      -4.97728215E-05
  -11.5699997      -6.07549991E-05
  -11.5600004      -6.73530958E-05
  -11.5500002      -6.74393013E-05
  -11.5400000      -6.01904976E-05
  -11.5299997      -4.62654680E-05
  -11.5200005      -2.76638602E-05
  -11.5100002      -7.30079137E-06
  -11.5000000       1.16089905E-05
  -11.4899998       2.62238354E-05
  -11.4799995       3.46605048E-05
  -11.4700003       3.63676845E-05
  -11.4600000       3.22094384E-05
  -11.4499998       2.42433725E-05
  -11.4399996       1.52438906E-05
  -11.4300003       8.07632568E-06
  -11.4200001       5.05949583E-06
  -11.4099998       7.45676607E-06
  -11.3999996       1.52070352E-05
  -11.3900003       2.69538614E-05
  -11.3800001       4.03646882E-05
  -11.3699999       5.26673502E-05
  -11.3599997       6.12821314E-05
  -11.3500004       6.44067841E-05
  -11.3400002       6.14224991E-05
  -11.3299999       5.30305297E-05
  -11.3199997       4.10905595E-05
  -11.3100004       2.82004421E-05
  -11.3000002       1.71157772E-05
  -11.2900000       1.01430014E-05
  -11.2799997       8.64404956E-06
  -11.2700005       1.27623734E-05
  -11.2600002       2.14269094E-05
  -11.2500000       3.26256013E-05
  -11.2399998       4.38778625E-05
  -11.2299995       5.27924421E-05
  -11.2200003       5.75809390E-05
  -11.2100000       5.74129190E-05
  -11.1999998       5.25396536E-05
  -11.1899996       4.41701559E-05
  -11.1800003       3.41410268E-05
  -11.1700001       2.44666317E-05
  -11.1599998       1.68786955E-05
  -11.1499996       1.24603239E-05
  -11.1400003       1.14509303E-05
  -11.1300001       1.32544737E-05
  -11.1199999       1.66346890E-05
  -11.1099997       2.00397735E-05
  -11.1000004       2.19741087E-05
  -11.0900002       2.13306812E-05
  -11.0799999       1.76142821E-05
  -11.0699997       1.10160199E-05
  -11.0600004       2.33662172E-06
  -11.0500002      -7.21041215E-06
  -11.0400000      -1.62619526E-05
  -11.0299997      -2.35723510E-05
  -11.0200005      -2.82290930E-05
  -11.0100002      -2.97800016E-05
  -11.0000000      -2.82589244E-05
  -10.9899998      -2.41202688E-05
  -10.9799995      -1.81101641E-05
  -10.9700003      -1.11098361E-05
  -10.9600000      -3.98516204E-06
  -10.9499998       2.53259554E-06
  -10.9399996       7.92254923E-06
  -10.9300003       1.19061224E-05
  -10.9200001       1.44428432E-05
  -10.9099998       1.57008544E-05
  -10.8999996       1.60111249E-05
  -10.8900003       1.58106377E-05
  -10.8800001       1.55761063E-05
  -10.8699999       1.57494978E-05
  -10.8599997       1.66594873E-05
  -10.8500004       1.84488326E-05
  -10.8400002       2.10232756E-05
  -10.8299999       2.40398440E-05
  -10.8199997       2.69488501E-05
  -10.8100004       2.90933131E-05
  -10.8000002       2.98541727E-05
  -10.7900000       2.88134579E-05
  -10.7799997       2.58958116E-05
  -10.7700005       2.14465563E-05
  -10.7600002       1.62144897E-05
  -10.7500000       1.12288662E-05
  -10.7399998       7.58776650E-06
  -10.7299995       6.20218725E-06
  -10.7200003       7.55798055E-06
  -10.7100000       1.15597813E-05
  -10.6999998       1.75055393E-05
  -10.6899996       2.42087681E-05
  -10.6800003       3.02473054E-05
  -10.6700001       3.42816056E-05
  -10.6599998       3.53637406E-05
  -10.6499996       3.31572955E-05
  -10.6400003       2.80094919E-05
  -10.6300001       2.08551646E-05
  -10.6199999       1.29777563E-05
  -10.6099997       5.69091071E-06
  -10.6000004       2.61261874E-08
  -10.5900002      -3.49110906E-06
  -10.5799999      -4.92041499E-06
  -10.5699997      -4.82681980E-06
  -10.5600004      -4.07380321E-06
  -10.5500002      -3.55588304E-06
  -10.5400000      -3.95218785E-06
  -10.5299997      -5.57190469E-06
  -10.5200005      -8.33071499E-06
  -10.5100002      -1.18544312E-05
  -10.5000000      -1.56653914E-05
  -10.4899998      -1.93821470E-05
  -10.4799995      -2.28608933E-05
  -10.4700003      -2.62287995E-05
  -10.4600000      -2.97974075E-05
  -10.4499998      -3.38865684E-05
  -10.4399996      -3.86214160E-05
  -10.4300003      -4.37766757E-05
  -10.4200001      -4.87296275E-05
  -10.4099998      -5.25493342E-05
  -10.3999996      -5.42052549E-05
  -10.3900003      -5.28386845E-05
  -10.3800001      -4.80164963E-05
  -10.3699999      -3.98882112E-05
  -10.3599997      -2.91934448E-05
  -10.3500004      -1.71100437E-05
  -10.3400002      -4.98073496E-06
  -10.3299999       6.00691510E-06
  -10.3199997       1.50973428E-05
  -10.3100004       2.21220616E-05
  -10.3000002       2.74891536E-05
  -10.2900000       3.20112886E-05
  -10.2799997       3.66229870E-05
  -10.2700005       4.20694814E-05
  -10.2600002       4.86572935E-05
  -10.2500000       5.61380366E-05
  -10.2399998       6.37578123E-05
  -10.2299995       7.04569175E-05
  -10.2200003       7.51615371E-05
  -10.2100000       7.70837287E-05
  -10.1999998       7.59442046E-05
  -10.1899996       7.20552562E-05
  -10.1800003       6.62410457E-05
  -10.1700001       5.96174432E-05
  -10.1599998       5.32923186E-05
  -10.1499996       4.80678900E-05
  -10.1400003       4.42254313E-05
  -10.1300001       4.14493552E-05
  -10.1199999       3.89105553E-05
  -10.1099997       3.54875410E-05
  -10.1000004       3.00689044E-05
  -10.0900002       2.18619025E-05
  -10.0799999       1.06316975E-05
  -10.0699997      -3.18500474E-06
  -10.0600004      -1.85173158E-05
  -10.0500002      -3.38380887E-05
  -10.0400000      -4.74410008E-05
  -10.0299997      -5.77556493E-05
  -10.0200005      -6.36348777E-05
  -10.0100002      -6.45584951E-05
  -10.0000000      -6.07183174E-05
  -9.98999977      -5.29753306E-05
  -9.97999954      -4.27045306E-05
  -9.97000027      -3.15616817E-05
  -9.96000004      -2.12160758E-05
  -9.94999981      -1.30939434E-05
  -9.93999958      -8.17043110E-06
  -9.93000031      -6.83671078E-06
  -9.92000008      -8.85590453E-06
  -9.90999985      -1.34094298E-05
  -9.89999962      -1.92251719E-05
  -9.89000034      -2.47705193E-05
  -9.88000011      -2.84862726E-05
  -9.86999989      -2.90321514E-05
  -9.85999966      -2.55103296E-05
  -9.85000038      -1.76326685E-05
  -9.84000015      -5.80096594E-06
  -9.82999992       8.92047865E-06
  -9.81999969       2.49451186E-05
  -9.81000042       4.04018574E-05
  -9.80000019       5.34341780E-05
  -9.78999996       6.25087632E-05
  -9.77999973       6.66745254E-05
  -9.77000046       6.57194250E-05
  -9.76000023       6.01910251E-05
  -9.75000000       5.12751612E-05
  -9.73999977       4.05588289E-05
  -9.72999954       2.97291936E-05
  -9.72000027       2.02753745E-05
  -9.71000004       1.32567511E-05
  -9.69999981       9.18344085E-06
  -9.68999958       8.02412796E-06
  -9.68000031       9.32389321E-06
  -9.67000008       1.23882037E-05
  -9.65999985       1.64766334E-05
  -9.64999962       2.09543286E-05
  -9.64000034       2.53692888E-05
  -9.63000011       2.94506590E-05
  -9.61999989       3.30506045E-05
  -9.60999966       3.60682461E-05
  -9.60000038       3.83963015E-05
  -9.59000015       3.99168093E-05
  -9.57999992       4.05491264E-05
  -9.56999969       4.03288250E-05
  -9.56000042       3.94796007E-05
  -9.55000019       3.84387313E-05
  -9.53999996       3.78103105E-05
  -9.52999973       3.82455764E-05
  -9.52000046       4.02773840E-05
  -9.51000023       4.41557168E-05
  -9.50000000       4.97362453E-05
  -9.48999977       5.64617258E-05
  -9.47999954       6.34492826E-05
  -9.47000027       6.96647330E-05
  -9.46000004       7.41381300E-05
  -9.44999981       7.61616539E-05
  -9.43999958       7.54166322E-05
  -9.43000031       7.19982854E-05
  -9.42000008       6.63385144E-05
  -9.40999985       5.90571399E-05
  -9.39999962       5.07915975E-05
  -9.39000034       4.20579927E-05
  -9.38000011       3.31820884E-05
  -9.36999989       2.43133018E-05
  -9.35999966       1.55062335E-05
  -9.35000038       6.83328608E-06
  -9.34000015      -1.51669269E-06
  -9.32999992      -9.19157719E-06
  -9.31999969      -1.57000486E-05
  -9.31000042      -2.05021624E-05
  -9.30000019      -2.31412705E-05
  -9.28999996      -2.33801911E-05
  -9.27999973      -2.13040275E-05
  -9.27000046      -1.73614480E-05
  -9.26000023      -1.23317668E-05
  -9.25000000      -7.22109235E-06
  -9.23999977      -3.10440055E-06
  -9.22999954      -9.38831420E-07
  -9.22000027      -1.37738857E-06
  -9.21000004      -4.61334275E-06
  -9.19999981      -1.02834083E-05
  -9.18999958      -1.74539091E-05
  -9.18000031      -2.47054504E-05
  -9.17000008      -3.03175275E-05
  -9.15999985      -3.25353358E-05
  -9.14999962      -2.98798204E-05
  -9.14000034      -2.14430947E-05
  -9.13000011      -7.10376980E-06
  -9.11999989       1.23950094E-05
  -9.10999966       3.55372249E-05
  -9.10000038       6.02876717E-05
  -9.09000015       8.44582828E-05
  -9.07999992       1.06103544E-04
  -9.06999969       1.23849430E-04
  -9.06000042       1.37074137E-04
  -9.05000019       1.45898579E-04
  -9.03999996       1.50998632E-04
  -9.02999973       1.53301284E-04
  -9.02000046       1.53660483E-04
  -9.01000023       1.52610592E-04
  -9.00000000       1.50265943E-04
  -8.98999977       1.46384264E-04
  -8.97999954       1.40556556E-04
  -8.97000027       1.32443762E-04
  -8.96000004       1.21968726E-04
  -8.94999981       1.09393673E-04
  -8.93999958       9.52577175E-05
  -8.93000031       8.02051654E-05
  -8.92000008       6.47760462E-05
  -8.90999985       4.92446889E-05
  -8.89999962       3.35726363E-05
  -8.89000034       1.74961187E-05
  -8.88000011       7.14593284E-07
  -8.86999989      -1.68948536E-05
  -8.85999966      -3.51249873E-05
  -8.85000038      -5.34121973E-05
  -8.84000015      -7.09525411E-05
  -8.82999992      -8.69184951E-05
  -8.81999969      -1.00693513E-04
  -8.81000042      -1.12030561E-04
  -8.80000019      -1.21070225E-04
  -8.78999996      -1.28206913E-04
  -8.77999973      -1.33855967E-04
  -8.77000046      -1.38215779E-04
  -8.76000023      -1.41127195E-04
  -8.75000000      -1.42097007E-04
  -8.73999977      -1.40488206E-04
  -8.72999954      -1.35809882E-04
  -8.72000027      -1.27993131E-04
  -8.71000004      -1.17534655E-04
  -8.69999981      -1.05433959E-04
  -8.68999958      -9.29259259E-05
  -8.68000031      -8.10937636E-05
  -8.67000008      -7.05001003E-05
  -8.65999985      -6.09801864E-05
  -8.64999962      -5.16898435E-05
  -8.64000034      -4.14100650E-05
  -8.63000011      -2.90147891E-05
  -8.61999989      -1.39397271E-05
  -8.60999966       3.51906965E-06
  -8.60000038       2.21939117E-05
  -8.59000015       4.03400918E-05
  -8.57999992       5.61424313E-05
  -8.56999969       6.82609389E-05
  -8.56000042       7.62234704E-05
  -8.55000019       8.05264135E-05
  -8.53999996       8.24093877E-05
  -8.52999973       8.33894228E-05
  -8.52000046       8.47311312E-05
  -8.51000023       8.70511431E-05
  -8.50000000       9.02047832E-05
  -8.48999977       9.34932323E-05
  -8.47999954       9.61027908E-05
  -8.47000027       9.75947187E-05
  -8.46000004       9.82390920E-05
  -8.44999981       9.90444314E-05
  -8.43999958       1.01451806E-04
  -8.43000031       1.06799103E-04
  -8.42000008       1.15759576E-04
  -8.40999985       1.27982043E-04
  -8.39999962       1.42094097E-04
  -8.39000034       1.56095703E-04
  -8.38000011       1.68020284E-04
  -8.36999989       1.76627684E-04
  -8.35999966       1.81869269E-04
  -8.35000038       1.84936303E-04
  -8.34000015       1.87852987E-04
  -8.32999992       1.92744032E-04
  -8.31999969       2.01035073E-04
  -8.31000042       2.12880390E-04
  -8.30000019       2.27035503E-04
  -8.28999996       2.41236296E-04
  -8.27999973       2.52958213E-04
  -8.27000046       2.60285829E-04
  -8.26000023       2.62574962E-04
  -8.25000000       2.60664034E-04
  -8.23999977       2.56551866E-04
  -8.22999954       2.52659753E-04
  -8.22000027       2.50949408E-04
  -8.21000004       2.52226833E-04
  -8.19999981       2.55889812E-04
  -8.18999958       2.60213827E-04
  -8.18000031       2.63061927E-04
  -8.17000008       2.62744376E-04
  -8.15999985       2.58691929E-04
  -8.14999962       2.51678022E-04
  -8.14000034       2.43497459E-04
  -8.13000011       2.36223292E-04
  -8.11999989       2.31330239E-04
  -8.10999966       2.29035839E-04
  -8.10000038       2.28131845E-04
  -8.09000015       2.26396776E-04
  -8.07999992       2.21453301E-04
  -8.06999969       2.11756516E-04
  -8.06000042       1.97335627E-04
  -8.05000019       1.79990879E-04
  -8.03999996       1.62844721E-04
  -8.02999973       1.49385611E-04
  -8.02000046       1.42337347E-04
  -8.01000023       1.42758916E-04
  -8.00000000       1.49703526E-04
  -7.98999977       1.60563941E-04
  -7.98000002       1.71981534E-04
  -7.96999979       1.80989489E-04
  -7.96000004       1.85975892E-04
  -7.94999981       1.87120924E-04
  -7.94000006       1.86158286E-04
  -7.92999983       1.85562661E-04
  -7.92000008       1.87473808E-04
  -7.90999985       1.92760897E-04
  -7.90000010       2.00570808E-04
  -7.88999987       2.08517071E-04
  -7.88000011       2.13426290E-04
  -7.86999989       2.12354513E-04
  -7.86000013       2.03497606E-04
  -7.84999990       1.86674530E-04
  -7.84000015       1.63236939E-04
  -7.82999992       1.35482071E-04
  -7.82000017       1.05827261E-04
  -7.80999994       7.60801122E-05
  -7.80000019       4.70737141E-05
  -7.78999996       1.87707938E-05
  -7.78000021      -9.26108351E-06
  -7.76999998      -3.72521426E-05
  -7.76000023      -6.48007335E-05
  -7.75000000      -9.08139336E-05
  -7.73999977      -1.13847738E-04
  -7.73000002      -1.32689354E-04
  -7.71999979      -1.46906823E-04
  -7.71000004      -1.57092232E-04
  -7.69999981      -1.64653728E-04
  -7.69000006      -1.71207270E-04
  -7.67999983      -1.77806258E-04
  -7.67000008      -1.84339689E-04
  -7.65999985      -1.89383922E-04
  -7.65000010      -1.90620165E-04
  -7.63999987      -1.85695055E-04
  -7.63000011      -1.73204637E-04
  -7.61999989      -1.53400848E-04
  -7.61000013      -1.28304746E-04
  -7.59999990      -1.01128826E-04
  -7.59000015      -7.51867847E-05
  -7.57999992      -5.26889562E-05
  -7.57000017      -3.38970276E-05
  -7.55999994      -1.69966515E-05
  -7.55000019       1.21423022E-06
  -7.53999996       2.40419413E-05
  -7.53000021       5.34878636E-05
  -7.51999998       8.92563839E-05
  -7.51000023       1.28590953E-04
  -7.50000000       1.67044185E-04
  -7.48999977       1.99931193E-04
  -7.48000002       2.23938681E-04
  -7.46999979       2.38278764E-04
  -7.46000004       2.44928960E-04
  -7.44999981       2.47837568E-04
  -7.44000006       2.51366466E-04