  -16.0000000       0.00000000    
  -15.9899998       0.00000000    
  -15.9799995       0.00000000    
  -15.9700003       0.00000000    
  -15.9600000       0.00000000    
  -15.9499998       0.00000000    
  -15.9399996      -2.89851449E-13
  -15.9300003      -2.80499127E-12
  -15.9200001      -1.34742018E-11
  -15.9099998      -4.08577720E-11
  -15.8999996      -7.79868045E-11
  -15.8900003      -4.90621779E-11
  -15.8800001       2.85170859E-10
  -15.8699999       1.42653900E-09
  -15.8599997       4.13616652E-09
  -15.8500004       9.16136056E-09
  -15.8400002       1.65425806E-08
  -15.8299999       2.45161278E-08
  -15.8199997       2.83607200E-08
  -15.8100004       1.99413499E-08
  -15.8000002      -1.10394458E-08
  -15.7900000      -7.32534531E-08
  -15.7799997      -1.67434777E-07
  -15.7700005      -2.79015410E-07
  -15.7600002      -3.72834961E-07
  -15.7500000      -3.94089909E-07
  -15.7399998      -2.79218369E-07
  -15.7299995       2.22431105E-08
  -15.7200003       5.18366392E-07
  -15.7100000       1.14701584E-06
  -15.6999998       1.76228252E-06
  -15.6899996       2.14789225E-06
  -15.6800003       2.06467007E-06
  -15.6700001       1.32786818E-06
  -15.6599998      -1.03689530E-07
  -15.6499996      -2.05675292E-06
  -15.6400003      -4.12503550E-06
  -15.6300001      -5.72865201E-06
  -15.6199999      -6.25589792E-06
  -15.6099997      -5.26158919E-06
  -15.6000004      -2.66644793E-06
  -15.5900002       1.11528709E-06
  -15.5799999       5.18749039E-06
  -15.5699997       8.35824903E-06
  -15.5600004       9.48103298E-06
  -15.5500002       7.86934925E-06
  -15.5400000       3.65489700E-06
  -15.5299997      -2.05473634E-06
  -15.5200005      -7.32789977E-06
  -15.5100002      -9.89690307E-06
  -15.5000000      -7.89723254E-06
  -15.4899998      -6.63646290E-07
  -15.4799995       1.06779826E-05
  -15.4700003       2.30785372E-05
  -15.4600000       3.20546133E-05
  -15.4499998       3.27923844E-05
  -15.4399996       2.16572225E-05
  -15.4300003      -2.27677992E-06
  -15.4200001      -3.61567400E-05
  -15.4099998      -7.31785331E-05
  -15.3999996      -1.03568047E-04
  -15.3900003      -1.16676856E-04
  -15.3800001      -1.03812032E-04
  -15.3699999      -6.11309733E-05
  -15.3599997       8.20840796E-06
  -15.3500004       9.33939809E-05
  -15.3400002       1.77256457E-04
  -15.3299999       2.39508445E-04
  -15.3199997       2.61379755E-04
  -15.3100004       2.30628793E-04
  -15.3000002       1.45660524E-04
  -15.2900000       1.75280456E-05
  -15.2799997      -1.31006396E-04
  -15.2700005      -2.69506767E-04
  -15.2600002      -3.66344262E-04
  -15.2500000      -3.96247342E-04
  -15.2399998      -3.47102032E-04
  -15.2299995      -2.24159303E-04
  -15.2200003      -5.03060255E-05
  -15.2100000       1.38068252E-04
  -15.1999998       2.98948900E-04
  -15.1899996       3.94628994E-04
  -15.1800003       4.01302852E-04
  -15.1700001       3.15830286E-04
  -15.1599998       1.57712318E-04
  -15.1499996      -3.45682020E-05
  -15.1400003      -2.12270039E-04
  -15.1300001      -3.28259310E-04
  -15.1199999      -3.49153794E-04
  -15.1099997      -2.64653296E-04
  -15.1000004      -9.15159108E-05
  -15.0900002       1.29096996E-04
  -15.0799999       3.40575178E-04
  -15.0699997       4.84166143E-04
  -15.0600004       5.13548264E-04
  -15.0500002       4.07150772E-04
  -15.0400000       1.75172507E-04
  -15.0299997      -1.40597607E-04
  -15.0200005      -4.74391883E-04
  -15.0100002      -7.50053616E-04
  -15.0000000      -8.97777558E-04
  -14.9899998      -8.70405464E-04
  -14.9799995      -6.55722397E-04
  -14.9700003      -2.81896355E-04
  -14.9600000       1.85400611E-04
  -14.9499998       6.54112722E-04
  -14.9399996       1.02334959E-03
  -14.9300003       1.20421464E-03
  -14.9200001       1.13987108E-03
  -14.9099998       8.20630696E-04
  -14.8999996       2.90450407E-04
  -14.8900003      -3.57351761E-04
  -14.8800001      -9.95364739E-04
  -14.8699999      -1.48618978E-03
  -14.8599997      -1.71107554E-03
  -14.8500004      -1.59723777E-03
  -14.8400002      -1.13765209E-03
  -14.8299999      -3.98123346E-04
  -14.8199997       4.91167884E-04
  -14.8100004       1.35911349E-03
  -14.8000002       2.02797726E-03
  -14.7900000       2.35152035E-03
  -14.7799997       2.24845042E-03
  -14.7700005       1.72331079E-03
  -14.7600002       8.69321171E-04
  -14.7500000      -1.48114312E-04
  -14.7399998      -1.12417864E-03
  -14.7299995      -1.85667002E-03
  -14.7200003      -2.18801410E-03
  -14.7100000      -2.03796383E-03
  -14.6999998      -1.41985738E-03
  -14.6899996      -4.37075680E-04
  -14.6800003       7.39165815E-04
  -14.6700001       1.90552010E-03
  -14.6599998       2.86787399E-03
  -14.6499996       3.47969565E-03
  -14.6400003       3.66973621E-03
  -14.6300001       3.45395016E-03
  -14.6199999       2.92982627E-03
  -14.6099997       2.25480297E-03
  -14.6000004       1.61314593E-03
  -14.5900002       1.17781945E-03
  -14.5799999       1.07457791E-03
  -14.5699997       1.35511672E-03
  -14.5600004       1.98474783E-03
  -14.5500002       2.84738047E-03
  -14.5400000       3.76756000E-03
  -14.5299997       4.54576034E-03
  -14.5200005       5.00010047E-03
  -14.5100002       5.00587234E-03
  -14.5000000       4.52352641E-03
  -14.4899998       3.60844191E-03
  -14.4799995       2.39903131E-03
  -14.4700003       1.08494633E-03
  -14.4600000      -1.37837327E-04
  -14.4499998      -1.11442106E-03
  -14.4399996      -1.76960311E-03
  -14.4300003      -2.12764228E-03
  -14.4200001      -2.30799988E-03
  -14.4099998      -2.49773613E-03
  -14.3999996      -2.90700886E-03
  -14.3900003      -3.71844880E-03
  -14.3800001      -5.04224421E-03
  -14.3699999      -6.88720122E-03
  -14.3599997      -9.15359613E-03
  -14.3500004      -1.16485003E-02
  -14.3400002      -1.41190840E-02
  -14.3299999      -1.62962228E-02
  -14.3199997      -1.79397259E-02
  -14.3100004      -1.88772324E-02
  -14.3000002      -1.90312397E-02
  -14.2900000      -1.84312463E-02
  -14.2799997      -1.72102638E-02
  -14.2700005      -1.55864293E-02
  -14.2600002      -1.38315763E-02
  -14.2500000      -1.22300321E-02
  -14.2399998      -1.10321650E-02
  -14.2299995      -1.04091642E-02
  -14.2200003      -1.04168607E-02
  -14.2100000      -1.09768799E-02
  -14.1999998      -1.18815098E-02
  -14.1899996      -1.28245438E-02
  -14.1800003      -1.34549690E-02
  -14.1700001      -1.34441033E-02
  -14.1599998      -1.25523219E-02
  -14.1499996      -1.06804753E-02
  -14.1400003      -7.89330155E-03
  -14.1300001      -4.40851459E-03
  -14.1199999      -5.53380640E-04
  -14.1099997       3.30145168E-03
  -14.1000004       6.81596855E-03
  -14.0900002       9.74616874E-03
  -14.0799999       1.19870324E-02
  -14.0699997       1.35854948E-02
  -14.0600004       1.47231352E-02
  -14.0500002       1.56741869E-02
  -14.0400000       1.67492907E-02
  -14.0299997       1.82359479E-02
  -14.0200005       2.03454122E-02
  -14.0100002       2.31739245E-02
  -14.0000000       2.66822800E-02
  -13.9899998       3.06961294E-02
  -13.9799995       3.49281020E-02
  -13.9700003       3.90189476E-02
  -13.9600000       4.25950922E-02
  -13.9499998       4.53337952E-02
  -13.9399996       4.70259786E-02
  -13.9300003       4.76226397E-02
  -13.9200001       4.72529419E-02
  -13.9099998       4.62050736E-02
  -13.8999996       4.48704660E-02
  -13.8900003       4.36597914E-02
  -13.8800001       4.29095775E-02
  -13.8699999       4.28010076E-02
  -13.8599997       4.33130376E-02
  -13.8500004       4.42221463E-02
  -13.8400002       4.51504439E-02
  -13.8299999       4.56500798E-02
  -13.8199997       4.53024656E-02
  -13.8100004       4.38069366E-02
  -13.8000002       4.10371870E-02
  -13.7900000       3.70549522E-02
  -13.7799997       3.20807360E-02
  -13.7700005       2.64341440E-02
  -13.7600002       2.04627272E-02
  -13.7500000       1.44765377E-02
  -13.7399998       8.70237406E-03
  -13.7299995       3.26176221E-03
  -13.7200003      -1.83079834E-03
  -13.7100000      -6.65552542E-03
  -13.6999998      -1.13695841E-02
  -13.6899996      -1.61865093E-02
  -13.6800003      -2.13526841E-02
  -13.6700001      -2.71182489E-02
  -13.6599998      -3.36997733E-02
  -13.6499996      -4.12382670E-02
  -13.6400003      -4.97600660E-02
  -13.6300001      -5.91526851E-02
  -13.6199999      -6.91694766E-02
  -13.6099997      -7.94661492E-02
  -13.6000004      -8.96681473E-02
  -13.5900002      -9.94532183E-02
  -13.5799999     -0.108628228    
  -13.5699997     -0.117177904    
  -13.5600004     -0.125270814    
  -13.5500002     -0.133218393    
  -13.5400000     -0.141398668    
  -13.5299997     -0.150164977    
  -13.5200005     -0.159765601    
  -13.5100002     -0.170293063    
  -13.5000000     -0.181674778    
  -13.4899998     -0.193699598    
  -13.4799995     -0.206069291    
  -13.4700003     -0.218454957    
  -13.4600000     -0.230544314    
  -13.4499998     -0.242072150    
  -13.4399996     -0.252835363    
  -13.4300003     -0.262699634    
  -13.4200001     -0.271608174    
  -13.4099998     -0.279593676    
  -13.3999996     -0.286792219    
  -13.3900003     -0.293449223    
  -13.3800001     -0.299905330    
  -13.3699999     -0.306555748    
  -13.3599997     -0.313786387    
  -13.3500004     -0.321898282    
  -13.3400002     -0.331042439    
  -13.3299999     -0.341184199    
  -13.3199997     -0.352109104    
  -13.3100004     -0.363472879    
  -13.3000002     -0.374878466    
  -13.2900000     -0.385961086    
  -13.2799997     -0.396454066    
  -13.2700005     -0.406220585    
  -13.2600002     -0.415249616    
  -13.2500000     -0.423620224    
  -13.2399998     -0.431460559    
  -13.2299995     -0.438912183    
  -13.2200003     -0.446115971    
  -13.2100000     -0.453216255    
  -13.1999998     -0.460374415    
  -13.1899996     -0.467772752    
  -13.1800003     -0.475599021    
  -13.1700001     -0.484007388    
  -13.1599998     -0.493069619    
  -13.1499996     -0.502732575    
  -13.1400003     -0.512805462    
  -13.1300001     -0.522989929    
  -13.1199999     -0.532949626    
  -13.1099997     -0.542399645    
  -13.1000004     -0.551190913    
  -13.0900002     -0.559358120    
  -13.0799999     -0.567113459    
  -13.0699997     -0.574786723    
  -13.0600004     -0.582732558    
  -13.0500002     -0.591230929    
  -13.0400000     -0.600417256    
  -13.0299997     -0.610257149    
  -13.0200005     -0.620575190    
  -13.0100002     -0.631116569    
  -13.0000000     -0.641620994    
  -12.9899998     -0.651878178    
  -12.9799995     -0.661754191    
  -12.9700003     -0.671184123    
  -12.9600000     -0.680148423    
  -12.9499998     -0.688649118    
  -12.9399996     -0.696708679    
  -12.9300003     -0.704387128    
  -12.9200001     -0.711811662    
  -12.9099998     -0.719199657    
  -12.8999996     -0.726844072    
  -12.8900003     -0.735065222    
  -12.8800001     -0.744124115    
  -12.8699999     -0.754128635    
  -12.8599997     -0.764962435    
  -12.8500004     -0.776276410    
  -12.8400002     -0.787541330    
  -12.8299999     -0.798163056    
  -12.8199997     -0.807622671    
  -12.8100004     -0.815603554    
  -12.8000002     -0.822055638    
  -12.7900000     -0.827190459    
  -12.7799997     -0.831402540    
  -12.7700005     -0.835146785    
  -12.7600002     -0.838822603    
  -12.7500000     -0.842690766    
  -12.7399998     -0.846852601    
  -12.7299995     -0.851283252    
  -12.7200003     -0.855898917    
  -12.7100000     -0.860617578    
  -12.6999998     -0.865393400    
  -12.6899996     -0.870206296    
  -12.6800003     -0.875017762    
  -12.6700001     -0.879729271    
  -12.6599998     -0.884158254    
  -12.6499996     -0.888063610    
  -12.6400003     -0.891211629    
  -12.6300001     -0.893458545    
  -12.6199999     -0.894821525    
  -12.6099997     -0.895494819    
  -12.6000004     -0.895807266    
  -12.5900002     -0.896119952    
  -12.5799999     -0.896708250    
  -12.5699997     -0.897665441    
  -12.5600004     -0.898866713    
  -12.5500002     -0.900012612    
  -12.5400000     -0.900736809    
  -12.5299997     -0.900738835    
  -12.5200005     -0.899890065    
  -12.5100002     -0.898278952    
  -12.5000000     -0.896182239    
  -12.4899998     -0.893958688    
  -12.4799995     -0.891930819    
  -12.4700003     -0.890278161    
  -12.4600000     -0.888997078    
  -12.4499998     -0.887930393    
  -12.4399996     -0.886853039    
  -12.4300003     -0.885573626    
  -12.4200001     -0.884008646    
  -12.4099998     -0.882201195    
  -12.3999996     -0.880273521    
  -12.3900003     -0.878343761    
  -12.3800001     -0.876439810    
  -12.3699999     -0.874456167    
  -12.3599997     -0.872174144    
  -12.3500004     -0.869340062    
  -12.3400002     -0.865772367    
  -12.3299999     -0.861447990    
  -12.3199997     -0.856541216    
  -12.3100004     -0.851378083    
  -12.3000002     -0.846338630    
  -12.2900000     -0.841733038    
  -12.2799997     -0.837708414    
  -12.2700005     -0.834201515    
  -12.2600002     -0.830992937    
  -12.2500000     -0.827797711    
  -12.2399998     -0.824382961    
  -12.2299995     -0.820653439    
  -12.2200003     -0.816677034    
  -12.2100000     -0.812634766    
  -12.1999998     -0.808725536    
  -12.1899996     -0.805072486    
  -12.1800003     -0.801656544    
  -12.1700001     -0.798326612    
  -12.1599998     -0.794868290    
  -12.1499996     -0.791106939    
  -12.1400003     -0.786996305    
  -12.1300001     -0.782658398    
  -12.1199999     -0.778345942    
  -12.1099997     -0.774356544    
  -12.1000004     -0.770907819    
  -12.0900002     -0.768062413    
  -12.0799999     -0.765699387    
  -12.0699997     -0.763571560    
  -12.0600004     -0.761416972    
  -12.0500002     -0.759078979    
  -12.0400000     -0.756590605    
  -12.0299997     -0.754174531    
  -12.0200005     -0.752171516    
  -12.0100002     -0.750918448    
  -12.0000000     -0.750618994    
  -11.9899998     -0.751268148    
  -11.9799995     -0.752664804    
  -11.9700003     -0.754496932    
  -11.9600000     -0.756466746    
  -11.9499998     -0.758423328    
  -11.9399996     -0.760416210    
  -11.9300003     -0.762677133    
  -11.9200001     -0.765522957    
  -11.9099998     -0.769225717    
  -11.8999996     -0.773906410    
  -11.8900003     -0.779486656    
  -11.8800001     -0.785737932    
  -11.8699999     -0.792388022    
  -11.8599997     -0.799250126    
  -11.8500004     -0.806315124    
  -11.8400002     -0.813772976    
  -11.8299999     -0.821931899    
  -11.8199997     -0.831116140    
  -11.8100004     -0.841518879    
  -11.8000002     -0.853128791    
  -11.7900000     -0.865735650    
  -11.7799997     -0.879017472    
  -11.7700005     -0.892676175    
  -11.7600002     -0.906564176    
  -11.7500000     -0.920752943    
  -11.7399998     -0.935502708    
  -11.7299995     -0.951157153    
  -11.7200003     -0.968004823    
  -11.7100000     -0.986145973    
  -11.6999998      -1.00545645    
  -11.6899996      -1.02562082    
  -11.6800003      -1.04626846    
  -11.6700001      -1.06710231    
  -11.6599998      -1.08802211    
  -11.6499996      -1.10915494    
  -11.6400003      -1.13078189    
  -11.6300001      -1.15321779    
  -11.6199999      -1.17666566    
  -11.6099997      -1.20113444    
  -11.6000004      -1.22642171    
  -11.5900002      -1.25221562    
  -11.5799999      -1.27822399    
  -11.5699997      -1.30432451    
  -11.5600004      -1.33061826    
  -11.5500002      -1.35740864    
  -11.5400000      -1.38508451    
  -11.5299997      -1.41395152    
  -11.5200005      -1.44410717    
  -11.5100002      -1.47537267    
  -11.5000000      -1.50734723    
  -11.4899998      -1.53955233    
  -11.4799995      -1.57159269    
  -11.4700003      -1.60330415    
  -11.4600000      -1.63479936    
  -11.4499998      -1.66640842    
  -11.4399996      -1.69853270    
  -11.4300003      -1.73149073    
  -11.4200001      -1.76539421    
  -11.4099998      -1.80010855    
  -11.3999996      -1.83533335    
  -11.3900003      -1.87074184    
  -11.3800001      -1.90612376    
  -11.3699999      -1.94147432    
  -11.3599997      -1.97698855    
  -11.3500004      -2.01296401    
  -11.3400002      -2.04964614    
  -11.3299999      -2.08710289    
  -11.3199997      -2.12517190    
  -11.3100004      -2.16350532    
  -11.3000002      -2.20171595    
  -11.2900000      -2.23954034    
  -11.2799997      -2.27697206    
  -11.2700005      -2.31430006    
  -11.2600002      -2.35201955    
  -11.2500000      -2.39066291    
  -11.2399998      -2.43059659    
  -11.2299995      -2.47188854    
  -11.2200003      -2.51425433    
  -11.2100000      -2.55716658    
  -11.1999998      -2.60002875    
  -11.1899996      -2.64235950    
  -11.1800003      -2.68397021    
  -11.1700001      -2.72497058    
  -11.1599998      -2.76572490    
  -11.1499996      -2.80666471    
  -11.1400003      -2.84812999    
  -11.1300001      -2.89025974    
  -11.1199999      -2.93297100    
  -11.1099997      -2.97605705    
  -11.1000004      -3.01931953    
  -11.0900002      -3.06268930    
  -11.0799999      -3.10630083    
  -11.0699997      -3.15043855    
  -11.0600004      -3.19540715    
  -11.0500002      -3.24138093    
  -11.0400000      -3.28828335    
  -11.0299997      -3.33576274    
  -11.0200005      -3.38328576    
  -11.0100002      -3.43030810    
  -11.0000000      -3.47647142    
  -10.9899998      -3.52170968    
  -10.9799995      -3.56630349    
  -10.9700003      -3.61076427    
  -10.9600000      -3.65567446    
  -10.9499998      -3.70147061    
  -10.9399996      -3.74835277    
  -10.9300003      -3.79621410    
  -10.9200001      -3.84475350    
  -10.9099998      -3.89357948    
  -10.8999996      -3.94242334    
  -10.8900003      -3.99116826    
  -10.8800001      -4.03989840    
  -10.8699999      -4.08877230    
  -10.8599997      -4.13794088    
  -10.8500004      -4.18742085    
  -10.8400002      -4.23706627    
  -10.8299999      -4.28666162    
  -10.8199997      -4.33600855    
  -10.8100004      -4.38507032    
  -10.8000002      -4.43404341    
  -10.7900000      -4.48334169    
  -10.7799997      -4.53346443    
  -10.7700005      -4.58482742    
  -10.7600002      -4.63762283    
  -10.7500000      -4.69170427    
  -10.7399998      -4.74664164    
  -10.7299995      -4.80185699    
  -10.7200003      -4.85680628    
  -10.7100000      -4.91119242    
  -10.6999998      -4.96501064    
  -10.6899996      -5.01854372    
  -10.6800003      -5.07222366    
  -10.6700001      -5.12645102    
  -10.6599998      -5.18147516    
  -10.6499996      -5.23728752    
  -10.6400003      -5.29371595    
  -10.6300001      -5.35052061    
  -10.6199999      -5.40757084    
  -10.6099997      -5.46492863    
  -10.6000004      -5.52285767    
  -10.5900002      -5.58173704    
  -10.5799999      -5.64187288    
  -10.5699997      -5.70336533    
  -10.5600004      -5.76601410    
  -10.5500002      -5.82935619    
  -10.5400000      -5.89281988    
  -10.5299997      -5.95590639    
  -10.5200005      -6.01839733    
  -10.5100002      -6.08042669    
  -10.5000000      -6.14242887    
  -10.4899998      -6.20499611    
  -10.4799995      -6.26864672    
  -10.4700003      -6.33366585    
  -10.4600000      -6.39999962    
  -10.4499998      -6.46734905    
  -10.4399996      -6.53525782    
  -10.4300003      -6.60336256    
  -10.4200001      -6.67150974    
  -10.4099998      -6.73981237    
  -10.3999996      -6.80858898    
  -10.3900003      -6.87817287    
  -10.3800001      -6.94878817    
  -10.3699999      -7.02037859    
  -10.3599997      -7.09264278    
  -10.3500004      -7.16511250    
  -10.3400002      -7.23742056    
  -10.3299999      -7.30939627    
  -10.3199997      -7.38124752    
  -10.3100004      -7.45345068    
  -10.3000002      -7.52665234    
  -10.2900000      -7.60146379    
  -10.2799997      -7.67815495    
  -10.2700005      -7.75667572    
  -10.2600002      -7.83656836    
  -10.2500000      -7.91717672    
  -10.2399998      -7.99785995    
  -10.2299995      -8.07814503    
  -10.2200003      -8.15795326    
  -10.2100000      -8.23746490    
  -10.1999998      -8.31709576    
  -10.1899996      -8.39724255    
  -10.1800003      -8.47821426    
  -10.1700001      -8.56010342    
  -10.1599998      -8.64282703    
  -10.1499996      -8.72625828    
  -10.1400003      -8.81035328    
  -10.1300001      -8.89520550    
  -10.1199999      -8.98109531    
  -10.1099997      -9.06835651    
  -10.1000004      -9.15725803    
  -10.0900002      -9.24779224    
  -10.0799999      -9.33973122    
  -10.0699997      -9.43250942    
  -10.0600004      -9.52556324    
  -10.0500002      -9.61833191    
  -10.0400000      -9.71058750    
  -10.0299997      -9.80242252    
  -10.0200005      -9.89426422    
  -10.0100002      -9.98673153    
  -10.0000000      -10.0803900    
  -9.98999977      -10.1756430    
  -9.97999954      -10.2726116    
  -9.97000027      -10.3711863    
  -9.96000004      -10.4710932    
  -9.94999981      -10.5720310    
  -9.93999958      -10.6738768    
  -9.93000031      -10.7765884    
  -9.92000008      -10.8803120    
  -9.90999985      -10.9851465    
  -9.89999962      -11.0910997    
  -9.89000034      -11.1980600    
  -9.88000011      -11.3057575    
  -9.86999989      -11.4139023    
  -9.85999966      -11.5223675    
  -9.85000038      -11.6312132    
  -9.84000015      -11.7407837    
  -9.82999992      -11.8516502    
  -9.81999969      -11.9643555    
  -9.81000042      -12.0792942    
  -9.80000019      -12.1966085    
  -9.78999996      -12.3160706    
  -9.77999973      -12.4371548    
  -9.77000046      -12.5592833    
  -9.76000023      -12.6819191    
  -9.75000000      -12.8047733    
  -9.73999977      -12.9278908    
  -9.72999954      -13.0515089    
  -9.72000027      -13.1760550    
  -9.71000004      -13.3018579    
  -9.69999981      -13.4291716    
  -9.68999958      -13.5580244    
  -9.68000031      -13.6883411    
  -9.67000008      -13.8200226    
  -9.65999985      -13.9530611    
  -9.64999962      -14.0876236    
  -9.64000034      -14.2239437    
  -9.63000011      -14.3622570    
  -9.61999989      -14.5026712    
  -9.60999966      -14.6450319    
  -9.60000038      -14.7889833    
  -9.59000015      -14.9339848    
  -9.57999992      -15.0795307    
  -9.56999969      -15.2252684    
  -9.56000042      -15.3711891    
  -9.55000019      -15.5175791    
  -9.53999996      -15.6650267    
  -9.52999973      -15.8141546    
  -9.52000046      -15.9655008    
  -9.51000023      -16.1193447    
  -9.50000000      -16.2755928    
  -9.48999977      -16.4339676    
  -9.47999954      -16.5940056    
  -9.47000027      -16.7553368    
  -9.46000004      -16.9178009    
  -9.44999981      -17.0813293    
  -9.43999958      -17.2461796    
  -9.43000031      -17.4124813    
  -9.42000008      -17.5803680    
  -9.40999985      -17.7498360    
  -9.39999962      -17.9207535    
  -9.39000034      -18.0928936    
  -9.38000011      -18.2661572    
  -9.36999989      -18.4405460    
  -9.35999966      -18.6163330    
  -9.35000038      -18.7938881    
  -9.34000015      -18.9736080    
  -9.32999992      -19.1557941    
  -9.31999969      -19.3405190    
  -9.31000042      -19.5275440    
  -9.30000019      -19.7165699    
  -9.28999996      -19.9070873    
  -9.27999973      -20.0987339    
  -9.27000046      -20.2913265    
  -9.26000023      -20.4848461    
  -9.25000000      -20.6795101    
  -9.23999977      -20.8756104    
  -9.22999954      -21.0734138    
  -9.22000027      -21.2730255    
  -9.21000004      -21.4744644    
  -9.19999981      -21.6777000    
  -9.18999958      -21.8826885    
  -9.18000031      -22.0894203    
  -9.17000008      -22.2981129    
  -9.15999985      -22.5088787    
  -9.14999962      -22.7219028    
  -9.14000034      -22.9372597    
  -9.13000011      -23.1548538    
  -9.11999989      -23.3743153    
  -9.10999966      -23.5952835    
  -9.10000038      -23.8173275    
  -9.09000015      -24.0402584    
  -9.07999992      -24.2641010    
  -9.06999969      -24.4891281    
  -9.06000042      -24.7157764    
  -9.05000019      -24.9445038    
  -9.03999996      -25.1756725    
  -9.02999973      -25.4094925    
  -9.02000046      -25.6458893    
  -9.01000023      -25.8846397    
  -9.00000000      -26.1255112    
  -8.98999977      -26.3683147    
  -8.97999954      -26.6128407    
  -8.97000027      -26.8592606    
  -8.96000004      -27.1075573    
  -8.94999981      -27.3578434    
  -8.93999958      -27.6101608    
  -8.93000031      -27.8642941    
  -8.92000008      -28.1201363    
  -8.90999985      -28.3775806    
  -8.89999962      -28.6364994    
  -8.89000034      -28.8971634    
  -8.88000011      -29.1598873    
  -8.86999989      -29.4251251    
  -8.85999966      -29.6933880    
  -8.85000038      -29.9648323    
  -8.84000015      -30.2395515    
  -8.82999992      -30.5172482    
  -8.81999969      -30.7975693    
  -8.81000042      -31.0800591    
  -8.80000019      -31.3642826    
  -8.78999996      -31.6501102    
  -8.77999973      -31.9375420    
  -8.77000046      -32.2268867    
  -8.76000023      -32.5184174    
  -8.75000000      -32.8124390    
  -8.73999977      -33.1090813    
  -8.72999954      -33.4084015    
  -8.72000027      -33.7103882    
  -8.71000004      -34.0149117    
  -8.69999981      -34.3220177    
  -8.68999958      -34.6318359    
  -8.68000031      -34.9446144    
  -8.67000008      -35.2605476    
  -8.65999985      -35.5797997    
  -8.64999962      -35.9023361    
  -8.64000034      -36.2279854    
  -8.63000011      -36.5564728    
  -8.61999989      -36.8875008    
  -8.60999966      -37.2207069    
  -8.60000038      -37.5560493    
  -8.59000015      -37.8935966    
  -8.57999992      -38.2337379    
  -8.56999969      -38.5767250    
  -8.56000042      -38.9230042    
  -8.55000019      -39.2728729    
  -8.53999996      -39.6263084    
  -8.52999973      -39.9833794    
  -8.52000046      -40.3438721    
  -8.51000023      -40.7075424    
  -8.50000000      -41.0743637    
  -8.48999977      -41.4442635    
  -8.47999954      -41.8172112    
  -8.47000027      -42.1933403    
  -8.46000004      -42.5725899    
  -8.44999981      -42.9550209    
  -8.43999958      -43.3405495    
  -8.43000031      -43.7290459    
  -8.42000008      -44.1205521    
  -8.40999985      -44.5151138    
  -8.39999962      -44.9127731    
  -8.39000034      -45.3138618    
  -8.38000011      -45.7185211    
  -8.36999989      -46.1271667    
  -8.35999966      -46.5397720    
  -8.35000038      -46.9564209    
  -8.34000015      -47.3770561    
  -8.32999992      -47.8013382    
  -8.31999969      -48.2292213    
  -8.31000042      -48.6603851    
  -8.30000019      -49.0948524    
  -8.28999996      -49.5325546    
  -8.27999973      -49.9734039    
  -8.27000046      -50.4175568    
  -8.26000023      -50.8649101    
  -8.25000000      -51.3155975    
  -8.23999977      -51.7696838    
  -8.22999954      -52.2272110    
  -8.22000027      -52.6883240    
  -8.21000004      -53.1532822    
  -8.19999981      -53.6223869    
  -8.18999958      -54.0957108    
  -8.18000031      -54.5734253    
  -8.17000008      -55.0554276    
  -8.15999985      -55.5414505    
  -8.14999962      -56.0314255    
  -8.14000034      -56.5248413    
  -8.13000011      -57.0216370    
  -8.11999989      -57.5217209    
  -8.10999966      -58.0251122    
  -8.10000038      -58.5320702    
  -8.09000015      -59.0427322    
  -8.07999992      -59.5573082    
  -8.06999969      -60.0758743    
  -8.06000042      -60.5985031    
  -8.05000019      -61.1253166    
  -8.03999996      -61.6561813    
  -8.02999973      -62.1912727    
  -8.02000046      -62.7302780    
  -8.01000023      -63.2735939    
  -8.00000000      -63.8210487    
  -7.98999977      -64.3726959    
  -7.98000002      -64.9284210    
  -7.96999979      -65.4880295    
  -7.96000004      -66.0512695    
  -7.94999981      -66.6180344    
  -7.94000006      -67.1882095    
  -7.92999983      -67.7619629    
  -7.92000008      -68.3394165    
  -7.90999985      -68.9210510    
  -7.90000010      -69.5073395    
  -7.88999987      -70.0983810    
  -7.88000011      -70.6945724    
  -7.86999989      -71.2957153    
  -7.86000013      -71.9014816    
  -7.84999990      -72.5116577    
  -7.84000015      -73.1259384    
  -7.82999992      -73.7439957    
  -7.82000017      -74.3660202    
  -7.80999994      -74.9917526    
  -7.80000019      -75.6212692    
  -7.78999996      -76.2548294    
  -7.78000021      -76.8925400    
  -7.76999998      -77.5342941    
  -7.76000023      -78.1802368    
  -7.75000000      -78.8304977    
  -7.73999977      -79.4849548    
  -7.73000002      -80.1438217    
  -7.71999979      -80.8074265    
  -7.71000004      -81.4758682    
  -7.69999981      -82.1495972    
  -7.69000006      -82.8284149    
  -7.67999983      -83.5122452    
  -7.67000008      -84.2009048    
  -7.65999985      -84.8941650    
  -7.65000010      -85.5915451    
  -7.63999987      -86.2928162    
  -7.63000011      -86.9980011    
  -7.61999989      -87.7073746    
  -7.61000013      -88.4212418    
  -7.59999990      -89.1397247    
  -7.59000015      -89.8633423    
  -7.57999992      -90.5920486    
  -7.57000017      -91.3258972    
  -7.55999994      -92.0647049    
  -7.55000019      -92.8086319    
  -7.53999996      -93.5576324    
  -7.53000021      -94.3112259    
  -7.51999998      -95.0698853    
  -7.51000023      -95.8336411    
  -7.50000000      -96.6022644    
  -7.48999977      -97.3760757    
  -7.48000002      -98.1548080    
  -7.46999979      -98.9384766    
  -7.46000004      -99.7270203    
  -7.44999981      -100.520317    
  -7.44000006      -101.318497    