  -16.0000000       0.00000000    
  -15.9899998       0.00000000    
  -15.9799995       0.00000000    
  -15.9700003       0.00000000    
  -15.9600000       0.00000000    
  -15.9499998       0.00000000    
  -15.9399996       0.00000000    
  -15.9300003       0.00000000    
  -15.9200001       0.00000000    
  -15.9099998       0.00000000    
  -15.8999996      -4.57972364E-41
  -15.8900003      -3.61139838E-40
  -15.8800001      -1.81954822E-39
  -15.8699999      -2.37054662E-38
  -15.8599997      -2.95889507E-37
  -15.8500004      -2.42245358E-36
  -15.8400002      -1.43361566E-35
  -15.8299999      -6.67571450E-35
  -15.8199997      -2.58096338E-34
  -15.8100004      -8.55637471E-34
  -15.8000002      -2.47018181E-33
  -15.7900000      -6.20260835E-33
  -15.7799997      -1.32238545E-32
  -15.7700005      -2.21910323E-32
  -15.7600002      -2.12255518E-32
  -15.7500000       2.97108548E-32
  -15.7399998       2.25980890E-31
  -15.7299995       7.38328096E-31
  -15.7200003       1.77564309E-30
  -15.7100000       3.40280450E-30
  -15.6999998       5.13525484E-30
  -15.6899996       5.37972344E-30
  -15.6800003       1.15561909E-30
  -15.6700001      -1.09626776E-29
  -15.6599998      -3.15215179E-29
  -15.6499996      -5.22195381E-29
  -15.6400003      -4.99110824E-29
  -15.6300001       1.21354110E-29
  -15.6199999       1.64735609E-28
  -15.6099997       3.87357547E-28
  -15.6000004       5.46632844E-28
  -15.5900002       3.62299513E-28
  -15.5799999      -5.19945281E-28
  -15.5699997      -2.26684631E-27
  -15.5600004      -4.40679272E-27
  -15.5500002      -5.38439283E-27
  -15.5400000      -2.57560909E-27
  -15.5299997       6.63194284E-27
  -15.5200005       2.23402034E-26
  -15.5100002       3.87775271E-26
  -15.5000000       4.21233450E-26
  -15.4899998       1.29623467E-26
  -15.4799995      -6.33130333E-26
  -15.4700003      -1.78079137E-25
  -15.4600000      -2.79924630E-25
  -15.4499998      -2.69480654E-25
  -15.4399996      -2.87959314E-26
  -15.4300003       5.02074665E-25
  -15.4200001       1.21443263E-24
  -15.4099998       1.74075688E-24
  -15.3999996       1.47801689E-24
  -15.3900003      -1.80569152E-25
  -15.3800001      -3.38166684E-24
  -15.3699999      -7.24972638E-24
  -15.3599997      -9.56209779E-24
  -15.3500004      -7.12813136E-24
  -15.3400002       2.76236390E-24
  -15.3299999       1.99198328E-23
  -15.3199997       3.87620753E-23
  -15.3100004       4.74814622E-23
  -15.3000002       3.09074851E-23
  -15.2900000      -2.17936725E-23
  -15.2799997      -1.05877194E-22
  -15.2700005      -1.91052090E-22
  -15.2600002      -2.20642426E-22
  -15.2500000      -1.27832512E-22
  -15.2399998       1.28219117E-22
  -15.2299995       5.14605801E-22
  -15.2200003       8.87361435E-22
  -15.2100000       9.96645202E-22
  -15.1999998       5.63074020E-22
  -15.1899996      -5.70148727E-22
  -15.1800003      -2.24857195E-21
  -15.1700001      -3.87077835E-21
  -15.1599998      -4.42491262E-21
  -15.1499996      -2.79449460E-21
  -15.1400003       1.66431708E-21
  -15.1300001       8.42937192E-21
  -15.1199999       1.53251381E-20
  -15.1099997       1.86477982E-20
  -15.1000004       1.42135010E-20
  -15.0900002      -6.87183626E-22
  -15.0799999      -2.49536319E-20
  -15.0699997      -5.19893096E-20
  -15.0600004      -6.99193994E-20
  -15.0500002      -6.46316667E-20
  -15.0400000      -2.55607469E-20
  -15.0299997       4.73267639E-20
  -15.0200005       1.38257733E-19
  -15.0100002       2.15500350E-19
  -15.0000000       2.38704964E-19
  -14.9899998       1.73383868E-19
  -14.9799995       8.47468186E-21
  -14.9700003      -2.30189372E-19
  -14.9600000      -4.78304058E-19
  -14.9499998      -6.47994474E-19
  -14.9399996      -6.56935003E-19
  -14.9300003      -4.61381338E-19
  -14.9200001      -7.76776362E-20
  -14.9099998       4.21182609E-19
  -14.8999996       9.36415293E-19
  -14.8900003       1.38722997E-18
  -14.8800001       1.73824685E-18
  -14.8699999       1.97970625E-18
  -14.8599997       2.04982676E-18
  -14.8500004       1.72971035E-18
  -14.8400002       5.88026981E-19
  -14.8299999      -1.92294656E-18
  -14.8199997      -6.14786729E-18
  -14.8100004      -1.17141695E-17
  -14.8000002      -1.70081916E-17
  -14.7900000      -1.89784912E-17
  -14.7799997      -1.36559280E-17
  -14.7700005       2.36263090E-18
  -14.7600002       2.96026104E-17
  -14.7500000       6.32661415E-17
  -14.7399998       9.18825011E-17
  -14.7299995       9.84949962E-17
  -14.7200003       6.54041519E-17
  -14.7100000      -1.77120843E-17
  -14.6999998      -1.44288436E-16
  -14.6899996      -2.83804371E-16
  -14.6800003      -3.81970593E-16
  -14.6700001      -3.72153534E-16
  -14.6599998      -1.98831204E-16
  -14.6499996       1.51374701E-16
  -14.6400003       6.21399464E-16
  -14.6300001       1.07249279E-15
  -14.6199999       1.30374919E-15
  -14.6099997       1.10893321E-15
  -14.6000004       3.63482643E-16
  -14.5900002      -8.82334369E-16
  -14.5799999      -2.34221275E-15
  -14.5699997      -3.50627976E-15
  -14.5600004      -3.75579957E-15
  -14.5500002      -2.57697132E-15
  -14.5400000       1.73772290E-16
  -14.5299997       4.04401312E-15
  -14.5200005       7.91319270E-15
  -14.5100002       1.01720796E-14
  -14.5000000       9.18699643E-15
  -14.4899998       3.97522854E-15
  -14.4799995      -5.10242568E-15
  -14.4700003      -1.59155221E-14
  -14.4600000      -2.46952456E-14
  -14.4499998      -2.69035536E-14
  -14.4399996      -1.87893321E-14
  -14.4300003       7.23986324E-16
  -14.4200001       2.84572069E-14
  -14.4099998       5.64745496E-14
  -14.3999996       7.33131072E-14
  -14.3900003       6.71564448E-14
  -14.3800001       3.04710074E-14
  -14.3699999      -3.51545270E-14
  -14.3599997      -1.15809529E-13
  -14.3500004      -1.85629019E-13
  -14.3400002      -2.12018893E-13
  -14.3299999      -1.65642063E-13
  -14.3199997      -3.31888414E-14
  -14.3100004       1.70884005E-13
  -14.3000002       3.98536239E-13
  -14.2900000       5.72768449E-13
  -14.2799997       6.04992185E-13
  -14.2700005       4.23551520E-13
  -14.2600002       7.06516195E-15
  -14.2500000      -5.87873988E-13
  -14.2399998      -1.21689952E-12
  -14.2299995      -1.66620103E-12
  -14.2200003      -1.70275653E-12
  -14.2100000      -1.15016319E-12
  -14.1999998       2.76153307E-14
  -14.1899996       1.66129979E-12
  -14.1800003       3.35960535E-12
  -14.1700001       4.56361338E-12
  -14.1599998       4.67818189E-12
  -14.1499996       3.26185238E-12
  -14.1400003       2.30428849E-13
  -14.1300001      -3.99012160E-12
  -14.1199999      -8.42986878E-12
  -14.1099997      -1.17108415E-11
  -14.1000004      -1.23629388E-11
  -14.0900002      -9.27358364E-12
  -14.0799999      -2.16618672E-12
  -14.0699997       8.03956034E-12
  -14.0600004       1.91391156E-11
  -14.0500002       2.79383062E-11
  -14.0400000       3.09543051E-11
  -14.0299997       2.54206760E-11
  -14.0200005       1.03683104E-11
  -14.0100002      -1.25356938E-11
  -14.0000000      -3.87231566E-11
  -13.9899998      -6.12791901E-11
  -13.9799995      -7.23735516E-11
  -13.9700003      -6.53706325E-11
  -13.9600000      -3.71575409E-11
  -13.9499998       9.95894686E-12
  -13.9399996       6.74731104E-11
  -13.9300003       1.21542817E-10
  -13.9200001       1.55655364E-10
  -13.9099998       1.54757263E-10
  -13.8999996       1.09989531E-10
  -13.8900003       2.27841964E-11
  -13.8800001      -9.30274885E-11
  -13.8699999      -2.12174639E-10
  -13.8599997      -3.02403769E-10
  -13.8500004      -3.31944638E-10
  -13.8400002      -2.78518181E-10
  -13.8299999      -1.37659759E-10
  -13.8199997       7.21439367E-11
  -13.8100004       3.09622106E-10
  -13.8000002       5.17238030E-10
  -13.7900000       6.33522013E-10
  -13.7799997       6.08947504E-10
  -13.7700005       4.21648327E-10
  -13.7600002       8.86184320E-11
  -13.7500000      -3.31520145E-10
  -13.7399998      -7.46476991E-10
  -13.7299995      -1.04873055E-09
  -13.7200003      -1.14127063E-09
  -13.7100000      -9.64925251E-10
  -13.6999998      -5.20149979E-10
  -13.6899996       1.23510049E-10
  -13.6800003       8.34821046E-10
  -13.6700001       1.44579038E-09
  -13.6599998       1.79011506E-09
  -13.6499996       1.74682158E-09
  -13.6400003       1.27808419E-09
  -13.6300001       4.50111531E-10
  -13.6199999      -5.71011294E-10
  -13.6099997      -1.55094582E-09
  -13.6000004      -2.24135666E-09
  -13.5900002      -2.44493692E-09
  -13.5799999      -2.07455786E-09
  -13.5699997      -1.18906374E-09
  -13.5600004       7.73438778E-12
  -13.5500002       1.20980337E-09
  -13.5400000       2.08694573E-09
  -13.5299997       2.38036946E-09
  -13.5200005       1.98985828E-09
  -13.5100002       1.02475550E-09
  -13.5000000      -2.02980438E-10
  -13.4899998      -1.25170507E-09
  -13.4799995      -1.67833092E-09
  -13.4700003      -1.19203447E-09
  -13.4600000       2.10413006E-10
  -13.4499998       2.17507123E-09
  -13.4399996       4.02423028E-09
  -13.4300003       4.90626739E-09
  -13.4200001       4.04233491E-09
  -13.4099998       1.01561060E-09
  -13.3999996      -3.97724254E-09
  -13.3900003      -1.00006492E-08
  -13.3800001      -1.54522475E-08
  -13.3699999      -1.83620141E-08
  -13.3599997      -1.68873271E-08
  -13.3500004      -9.90726434E-09
  -13.3400002       2.43319942E-09
  -13.3299999       1.83999855E-08
  -13.3199997       3.47160523E-08
  -13.3100004       4.70552237E-08
  -13.3000002       5.09541636E-08
  -13.2900000       4.29897788E-08
  -13.2799997       2.19612613E-08
  -13.2700005      -1.02427338E-08
  -13.2600002      -4.83953286E-08
  -13.2500000      -8.45027017E-08
  -13.2399998      -1.09220295E-07
  -13.2299995      -1.13920251E-07
  -13.2200003      -9.30069604E-08
  -13.2100000      -4.59347547E-08
  -13.1999998       2.16440998E-08
  -13.1899996       9.80549331E-08
  -13.1800003       1.67296889E-07
  -13.1700001       2.12105618E-07
  -13.1599998       2.17857092E-07
  -13.1499996       1.76489110E-07
  -13.1400003       8.94812544E-08
  -13.1300001      -3.09821218E-08
  -13.1199999      -1.63224030E-07
  -13.1099997      -2.79717483E-07
  -13.1000004      -3.52625960E-07
  -13.0900002      -3.60171470E-07
  -13.0799999      -2.92417241E-07
  -13.0699997      -1.55010156E-07
  -13.0600004       3.02560821E-08
  -13.0500002       2.28568339E-07
  -13.0400000       3.98589918E-07
  -13.0299997       5.01158695E-07
  -13.0200005       5.08363485E-07
  -13.0100002       4.10896575E-07
  -13.0000000       2.21781491E-07
  -12.9899998      -2.47383820E-08
  -12.9799995      -2.79316083E-07
  -12.9700003      -4.87604382E-07
  -12.9600000      -6.02281091E-07
  -12.9499998      -5.94300843E-07
  -12.9399996      -4.60650256E-07
  -12.9300003      -2.26513379E-07
  -12.9200001       5.90462079E-08
  -12.9099998       3.33283765E-07
  -12.8999996       5.33780167E-07
  -12.8900003       6.13125962E-07
  -12.8800001       5.50786524E-07
  -12.8699999       3.59123447E-07
  -12.8599997       8.17886132E-08
  -12.8500004      -2.15526626E-07
  -12.8400002      -4.60133634E-07
  -12.8299999      -5.89798162E-07
  -12.8199997      -5.68441465E-07
  -12.8100004      -3.96136869E-07
  -12.8000002      -1.10648052E-07
  -12.7900000       2.20296798E-07
  -12.7799997       5.14548503E-07
  -12.7700005       6.95433641E-07
  -12.7600002       7.11277323E-07
  -12.7500000       5.49667391E-07
  -12.7399998       2.42613879E-07
  -12.7299995      -1.39191428E-07
  -12.7200003      -5.02211094E-07
  -12.7100000      -7.52650237E-07
  -12.6999998      -8.20590401E-07
  -12.6899996      -6.79769926E-07
  -12.6800003      -3.57811814E-07
  -12.6700001       6.63125732E-08
  -12.6599998       4.77925994E-07
  -12.6499996       7.52622668E-07
  -12.6400003       7.87173462E-07
  -12.6300001       5.28416592E-07
  -12.6199999      -6.82428070E-09
  -12.6099997      -7.26193491E-07
  -12.6000004      -1.47316428E-06
  -12.5900002      -2.05425567E-06
  -12.5799999      -2.27750434E-06
  -12.5699997      -1.99484293E-06
  -12.5600004      -1.13972533E-06
  -12.5500002       2.48201275E-07
  -12.5400000       2.01738317E-06
  -12.5299997       3.92004495E-06
  -12.5200005       5.64748416E-06
  -12.5100002       6.87912188E-06
  -12.5000000       7.33641764E-06
  -12.4899998       6.83139069E-06
  -12.4799995       5.30018860E-06
  -12.4700003       2.81480106E-06
  -12.4600000      -4.29740965E-07
  -12.4499998      -4.15039494E-06
  -12.4399996      -8.02638624E-06
  -12.4300003      -1.17543359E-05
  -12.4200001      -1.50965134E-05
  -12.4099998      -1.79116578E-05
  -12.3999996      -2.01614439E-05
  -12.3900003      -2.18910063E-05
  -12.3800001      -2.31880931E-05
  -12.3699999      -2.41308298E-05
  -12.3599997      -2.47375956E-05
  -12.3500004      -2.49330515E-05
  -12.3400002      -2.45415431E-05
  -12.3299999      -2.33132905E-05
  -12.3199997      -2.09809859E-05
  -12.3100004      -1.73364260E-05
  -12.3000002      -1.23105046E-05
  -12.2900000      -6.03680792E-06
  -12.2799997       1.11942052E-06
  -12.2700005       8.57919167E-06
  -12.2600002       1.56172100E-05
  -12.2500000       2.14702286E-05
  -12.2399998       2.54673305E-05
  -12.2299995       2.71562167E-05
  -12.2200003       2.63979782E-05
  -12.2100000       2.34075469E-05
  -12.1999998       1.87272744E-05
  -12.1899996       1.31350762E-05
  -12.1800003       7.50307345E-06
  -12.1700001       2.63448919E-06
  -12.1599998      -8.87380907E-07
  -12.1499996      -2.80561699E-06
  -12.1400003      -3.22789879E-06
  -12.1300001      -2.58736259E-06
  -12.1199999      -1.53404585E-06
  -12.1099997      -7.80484697E-07
  -12.1000004      -9.35508126E-07
  -12.0900002      -2.36304891E-06
  -12.0799999      -5.09704842E-06
  -12.0699997      -8.83061966E-06
  -12.0600004      -1.29806185E-05
  -12.0500002      -1.68116931E-05
  -12.0400000      -1.95909506E-05
  -12.0299997      -2.07384801E-05
  -12.0200005      -1.99414644E-05
  -12.0100002      -1.72096316E-05
  -12.0000000      -1.28643505E-05
  -11.9899998      -7.46929754E-06
  -11.9799995      -1.72287446E-06
  -11.9700003       3.66104837E-06
  -11.9600000       8.05844684E-06
  -11.9499998       1.10082065E-05
  -11.9399996       1.22457559E-05
  -11.9300003       1.17014197E-05
  -11.9200001       9.47593162E-06
  -11.9099998       5.80834876E-06
  -11.8999996       1.04861294E-06
  -11.8900003      -4.36036817E-06
  -11.8800001      -9.89511136E-06
  -11.8699999      -1.49692178E-05
  -11.8599997      -1.89690763E-05
  -11.8500004      -2.13162330E-05
  -11.8400002      -2.15555119E-05
  -11.8299999      -1.94559252E-05
  -11.8199997      -1.51007671E-05
  -11.8100004      -8.93814104E-06
  -11.8000002      -1.76627714E-06
  -11.7900000       5.36001380E-06
  -11.7799997       1.12968355E-05
  -11.7700005       1.50268052E-05
  -11.7600002       1.58795574E-05
  -11.7500000       1.37054622E-05
  -11.7399998       8.95486119E-06
  -11.7299995       2.63212200E-06
  -11.7200003      -3.87917817E-06
  -11.7100000      -9.09259143E-06
  -11.6999998      -1.17418622E-05
  -11.6899996      -1.10794954E-05
  -11.6800003      -7.07927893E-06
  -11.6700001      -4.88466753E-07
  -11.6599998       7.29289104E-06
  -11.6499996       1.44885453E-05
  -11.6400003       1.93238393E-05
  -11.6300001       2.04231474E-05
  -11.6199999       1.71368320E-05
  -11.6099997       9.72010184E-06
  -11.6000004      -6.82273310E-07
  -11.5900002      -1.22478823E-05
  -11.5799999      -2.28423032E-05
  -11.5699997      -3.04591977E-05
  -11.5600004      -3.36373814E-05
  -11.5500002      -3.17619852E-05
  -11.5400000      -2.51833262E-05
  -11.5299997      -1.51292670E-05
  -11.5200005      -3.43464490E-06
  -11.5100002       7.84726944E-06
  -11.5000000       1.68607949E-05
  -11.4899998       2.22976687E-05
  -11.4799995       2.36061660E-05
  -11.4700003       2.10214675E-05
  -11.4600000       1.54233931E-05
  -11.4499998       8.06826210E-06
  -11.4399996       2.68861697E-07
  -11.4300003      -6.89609169E-06
  -11.4200001      -1.27749481E-05
  -11.4099998      -1.72001110E-05
  -11.3999996      -2.04081498E-05
  -11.3900003      -2.28575991E-05
  -11.3800001      -2.50032390E-05
  -11.3699999      -2.70932087E-05
  -11.3599997      -2.90450771E-05
  -11.3500004      -3.04329642E-05
  -11.3400002      -3.05869253E-05
  -11.3299999      -2.87765433E-05
  -11.3199997      -2.44303046E-05
  -11.3100004      -1.73353728E-05
  -11.3000002      -7.76899742E-06
  -11.2900000       3.46952424E-06
  -11.2799997       1.51344093E-05
  -11.2700005       2.57020838E-05
  -11.2600002       3.36015473E-05
  -11.2500000       3.74660012E-05
  -11.2399998       3.63645777E-05
  -11.2299995       2.99788171E-05
  -11.2200003       1.86980051E-05
  -11.2100000       3.61827779E-06
  -11.1999998      -1.35586924E-05
  -11.1899996      -3.07209375E-05
  -11.1800003      -4.56178641E-05
  -11.1700001      -5.61789675E-05
  -11.1599998      -6.08385271E-05
  -11.1499996      -5.88161274E-05
  -11.1400003      -5.02995827E-05
  -11.1300001      -3.64836196E-05
  -11.1199999      -1.94358836E-05
  -11.1099997      -1.79158383E-06
  -11.1000004       1.36859680E-05
  -11.0900002       2.46064537E-05
  -11.0799999       2.94183137E-05
  -11.0699997       2.77365998E-05
  -11.0600004       2.04485641E-05
  -11.0500002       9.55401265E-06
  -11.0400000      -2.24553719E-06
  -11.0299997      -1.21343983E-05
  -11.0200005      -1.78239916E-05
  -11.0100002      -1.81017986E-05
  -11.0000000      -1.31528641E-05
  -10.9899998      -4.56362341E-06
  -10.9799995       5.01149816E-06
  -10.9700003       1.24599828E-05
  -10.9600000       1.49664902E-05
  -10.9499998       1.07398000E-05
  -10.9399996      -4.64701429E-07
  -10.9300003      -1.71629054E-05
  -10.9200001      -3.63615363E-05
  -10.9099998      -5.41482295E-05
  -10.8999996      -6.65324842E-05
  -10.8900003      -7.03545520E-05
  -10.8800001      -6.40564249E-05
  -10.8699999      -4.81331444E-05
  -10.8599997      -2.51483998E-05
  -10.8500004       7.08378707E-07
  -10.8400002       2.44456442E-05
  -10.8299999       4.13107191E-05
  -10.8199997       4.78320981E-05
  -10.8100004       4.26390216E-05
  -10.8000002       2.68723325E-05
  -10.7900000       4.07809830E-06
  -10.7799997      -2.04224434E-05
  -10.7700005      -4.05859828E-05
  -10.7600002      -5.09302736E-05
  -10.7500000      -4.77954600E-05
  -10.7399998      -3.03187844E-05
  -10.7299995      -8.96346762E-07
  -10.7200003       3.50078153E-05
  -10.7100000       6.97233845E-05
  -10.6999998       9.47875888E-05
  -10.6899996       1.02667233E-04
  -10.6800003       8.84574911E-05
  -10.6700001       5.11990038E-05
  -10.6599998      -5.49897550E-06
  -10.6499996      -7.37242226E-05
  -10.6400003      -1.42439545E-04
  -10.6300001      -1.99404487E-04
  -10.6199999      -2.33498911E-04
  -10.6099997      -2.36994078E-04
  -10.6000004      -2.07295860E-04
  -10.5900002      -1.47766317E-04
  -10.5799999      -6.74045441E-05
  -10.5699997       2.06012810E-05
  -10.5600004       1.01197940E-04
  -10.5500002       1.60222611E-04
  -10.5400000       1.87043392E-04
  -10.5299997       1.76556248E-04
  -10.5200005       1.30141110E-04
  -10.5100002       5.53973987E-05
  -10.5000000      -3.52684656E-05
  -10.4899998      -1.26899613E-04
  -10.4799995      -2.04628173E-04
  -10.4700003      -2.56183324E-04
  -10.4600000      -2.73811427E-04
  -10.4499998      -2.55299965E-04
  -10.4399996      -2.03995733E-04
  -10.4300003      -1.27908919E-04
  -10.4200001      -3.81557657E-05
  -10.4099998       5.29192585E-05
  -10.3999996       1.33590278E-04
  -10.3900003       1.94276057E-04
  -10.3800001       2.28562130E-04
  -10.3699999       2.33657891E-04
  -10.3599997       2.10335944E-04
  -10.3500004       1.62475117E-04
  -10.3400002       9.63602943E-05
  -10.3299999       1.98827092E-05
  -10.3199997      -5.82535358E-05
  -10.3100004      -1.29264852E-04
  -10.3000002      -1.84956181E-04
  -10.2900000      -2.18349567E-04
  -10.2799997      -2.24304633E-04
  -10.2700005      -2.00139533E-04
  -10.2600002      -1.46214850E-04
  -10.2500000      -6.63860628E-05
  -10.2399998       3.18174571E-05
  -10.2299995       1.37449548E-04
  -10.2200003       2.36975495E-04
  -10.2100000       3.15724232E-04
  -10.1999998       3.59885831E-04
  -10.1899996       3.58817313E-04
  -10.1800003       3.07274924E-04
  -10.1700001       2.07103396E-04
  -10.1599998       6.79224540E-05
  -10.1499996      -9.35202261E-05
  -10.1400003      -2.55421357E-04
  -10.1300001      -3.94205505E-04
  -10.1199999      -4.88500111E-04
  -10.1099997      -5.23058639E-04
  -10.1000004      -4.91815852E-04
  -10.0900002      -3.99374199E-04
  -10.0799999      -2.60514469E-04
  -10.0699997      -9.77364180E-05
  -10.0600004       6.27278205E-05
  -10.0500002       1.95634930E-04
  -10.0400000       2.81218759E-04
  -10.0299997       3.08530725E-04
  -10.0200005       2.76983716E-04
  -10.0100002       1.95864195E-04
  -10.0000000       8.20308342E-05
  -9.98999977      -4.36017472E-05
  -9.97999954      -1.59984265E-04
  -9.97000027      -2.49444653E-04
  -9.96000004      -3.00164567E-04
  -9.94999981      -3.07307579E-04
  -9.93999958      -2.72824866E-04
  -9.93000031      -2.04238590E-04
  -9.92000008      -1.12845344E-04
  -9.90999985      -1.17793516E-05
  -9.89999962       8.57422710E-05
  -9.89000034       1.67837876E-04
  -9.88000011       2.25036943E-04
  -9.86999989       2.51081306E-04
  -9.85999966       2.43509086E-04
  -9.85000038       2.04001190E-04
  -9.84000015       1.38383621E-04
  -9.82999992       5.61353918E-05
  -9.81999969      -3.07065347E-05
  -9.81000042      -1.09225897E-04
  -9.80000019      -1.67690290E-04
  -9.78999996      -1.97630870E-04
  -9.77999973      -1.95480607E-04
  -9.77000046      -1.63347751E-04
  -9.76000023      -1.08668930E-04
  -9.75000000      -4.27479827E-05
  -9.73999977       2.15287691E-05
  -9.72999954       7.22888653E-05
  -9.72000027       1.00980229E-04
  -9.71000004       1.03859631E-04
  -9.69999981       8.23516893E-05
  -9.68999958       4.22646262E-05
  -9.68000031      -7.85970860E-06
  -9.67000008      -5.87836912E-05
  -9.65999985      -1.02465048E-04
  -9.64999962      -1.33363646E-04
  -9.64000034      -1.48936946E-04
  -9.63000011      -1.49350322E-04
  -9.61999989      -1.36645176E-04
  -9.60999966      -1.13722701E-04
  -9.60000038      -8.34913517E-05
  -9.59000015      -4.84048178E-05
  -9.57999992      -1.04389401E-05
  -9.56999969       2.86154846E-05
  -9.56000042       6.67708737E-05
  -9.55000019       1.01605503E-04
  -9.53999996       1.30318585E-04
  -9.52999973       1.50086940E-04
  -9.52000046       1.58596813E-04
  -9.51000023       1.54543784E-04
  -9.50000000       1.37900250E-04
  -9.48999977       1.09838016E-04
  -9.47999954       7.23315025E-05
  -9.47000027       2.75993661E-05
  -9.46000004      -2.23841125E-05
  -9.44999981      -7.60928888E-05
  -9.43999958      -1.32260029E-04
  -9.43000031      -1.89349041E-04
  -9.42000008      -2.44898372E-04
  -9.40999985      -2.95045727E-04
  -9.39999962      -3.34525947E-04
  -9.39000034      -3.57308454E-04
  -9.38000011      -3.57829325E-04
  -9.36999989      -3.32547497E-04
  -9.35999966      -2.81385932E-04
  -9.35000038      -2.08579266E-04
  -9.34000015      -1.22558165E-04
  -9.32999992      -3.47464884E-05
  -9.31999969       4.25429862E-05
  -9.31000042       9.86412779E-05
  -9.30000019       1.26843981E-04
  -9.28999996       1.25889463E-04
  -9.27999973       1.00162099E-04
  -9.27000046       5.85252928E-05
  -9.26000023       1.20694258E-05
  -9.25000000      -2.86292689E-05
  -9.23999977      -5.59981927E-05
  -9.22999954      -6.70361769E-05
  -9.22000027      -6.35577162E-05
  -9.21000004      -5.11006911E-05
  -9.19999981      -3.68753172E-05
  -9.18999958      -2.74049999E-05
  -9.18000031      -2.65809322E-05
  -9.17000008      -3.47002460E-05
  -9.15999985      -4.87315156E-05
  -9.14999962      -6.36570112E-05
  -9.14000034      -7.44046411E-05
  -9.13000011      -7.77103924E-05
  -9.11999989      -7.32972112E-05
  -9.10999966      -6.39988939E-05
  -9.10000038      -5.48139542E-05
  -9.09000015      -5.12245024E-05
  -9.07999992      -5.73442849E-05
  -9.06999969      -7.44962090E-05
  -9.06000042      -1.00658690E-04
  -9.05000019      -1.30923421E-04
  -9.03999996      -1.58780444E-04
  -9.02999973      -1.77801674E-04
  -9.02000046      -1.83206532E-04
  -9.01000023      -1.72883578E-04
  -9.00000000      -1.47661834E-04
  -8.98999977      -1.10886736E-04
  -8.97999954      -6.75595584E-05
  -8.97000027      -2.33766623E-05
  -8.96000004       1.60588188E-05
  -8.94999981       4.57428869E-05
  -8.93999958       6.15621611E-05
  -8.93000031       6.05490168E-05
  -8.92000008       4.12662339E-05
  -8.90999985       4.35668699E-06
  -8.89999962      -4.68938633E-05
  -8.89000034      -1.06286134E-04
  -8.88000011      -1.65064848E-04
  -8.86999989      -2.13107240E-04
  -8.85999966      -2.40873240E-04
  -8.85000038      -2.41727845E-04
  -8.84000015      -2.14002401E-04
  -8.82999992      -1.62104625E-04
  -8.81999969      -9.61715486E-05
  -8.81000042      -3.01518285E-05
  -8.80000019       2.13113544E-05
  -8.78999996       4.64091863E-05
  -8.77999973       3.91237591E-05
  -8.77000046       7.37841503E-07
  -8.76000023      -6.05774585E-05
  -8.75000000      -1.32001311E-04
  -8.73999977      -1.99473550E-04
  -8.72999954      -2.51262594E-04
  -8.72000027      -2.80640903E-04
  -8.71000004      -2.86922354E-04
  -8.69999981      -2.74658581E-04
  -8.68999958      -2.51389574E-04
  -8.68000031      -2.24790798E-04
  -8.67000008      -2.00208713E-04
  -8.65999985      -1.79377123E-04
  -8.64999962      -1.60641721E-04
  -8.64000034      -1.40460048E-04
  -8.63000011      -1.15492527E-04
  -8.61999989      -8.44215829E-05
  -8.60999966      -4.87869984E-05
  -8.60000038      -1.25451716E-05
  -8.59000015       1.94172007E-05
  -8.57999992       4.31591434E-05
  -8.56999969       5.71349519E-05
  -8.56000042       6.25680841E-05
  -8.55000019       6.25365210E-05
  -8.53999996       6.00958265E-05
  -8.52999973       5.61998204E-05
  -8.52000046       4.83323674E-05
  -8.51000023       3.05630128E-05
  -8.50000000      -4.75639308E-06
  -8.48999977      -6.40588332E-05
  -8.47999954      -1.49318395E-04
  -8.47000027      -2.55644845E-04
  -8.46000004      -3.70694353E-04
  -8.44999981      -4.76349174E-04
  -8.43999958      -5.52406011E-04
  -8.43000031      -5.81347907E-04
  -8.42000008      -5.52883255E-04
  -8.40999985      -4.66950296E-04
  -8.39999962      -3.34309065E-04
  -8.39000034      -1.74533823E-04
  -8.38000011      -1.19587494E-05
  -8.36999989       1.29317545E-04
  -8.35999966       2.30060905E-04
  -8.35000038       2.79052620E-04
  -8.34000015       2.74156715E-04
  -8.32999992       2.21333568E-04
  -8.31999969       1.32185189E-04
  -8.31000042       2.09257450E-05
  -8.30000019      -9.83377031E-05
  -8.28999996      -2.13414591E-04
  -8.27999973      -3.14759323E-04
  -8.27000046      -3.95353884E-04
  -8.26000023      -4.50223975E-04
  -8.25000000      -4.76081390E-04
  -8.23999977      -4.71394276E-04
  -8.22999954      -4.36888193E-04
  -8.22000027      -3.76204232E-04
  -8.21000004      -2.96296028E-04
  -8.19999981      -2.07187695E-04
  -8.18999958      -1.20916462E-04
  -8.18000031      -4.97652072E-05
  -8.17000008      -4.14555188E-06
  -8.15999985       9.36852484E-06
  -8.14999962      -1.06243615E-05
  -8.14000034      -5.99678242E-05
  -8.13000011      -1.29589753E-04
  -8.11999989      -2.07012126E-04
  -8.10999966      -2.78403022E-04
  -8.10000038      -3.30784096E-04
  -8.09000015      -3.54042335E-04
  -8.07999992      -3.42485204E-04
  -8.06999969      -2.95778591E-04
  -8.06000042      -2.19184483E-04
  -8.05000019      -1.23063757E-04
  -8.03999996      -2.16497574E-05
  -8.02999973       6.88405562E-05
  -8.02000046       1.32591449E-04
  -8.01000023       1.56773371E-04
  -8.00000000       1.33909460E-04
  -7.98999977       6.35444012E-05
  -7.98000002      -4.72119136E-05
  -7.96999979      -1.84513076E-04
  -7.96000004      -3.29938484E-04
  -7.94999981      -4.63630742E-04
  -7.94000006      -5.67786978E-04
  -7.92999983      -6.29760616E-04
  -7.92000008      -6.44100015E-04
  -7.90999985      -6.13096752E-04
  -7.90000010      -5.45782328E-04
  -7.88999987      -4.55681205E-04
  -7.88000011      -3.57910059E-04
  -7.86999989      -2.66317918E-04
  -7.86000013      -1.91277475E-04
  -7.84999990      -1.38502553E-04
  -7.84000015      -1.08961554E-04
  -7.82999992      -9.96826566E-05
  -7.82000017      -1.05077947E-04
  -7.80999994      -1.18388823E-04
  -7.80000019      -1.32951798E-04
  -7.78999996      -1.43143436E-04
  -7.78000021      -1.45016369E-04
  -7.76999998      -1.36719158E-04
  -7.76000023      -1.18781580E-04
  -7.75000000      -9.42667903E-05
  -7.73999977      -6.86891653E-05
  -7.73000002      -4.95392123E-05
  -7.71999979      -4.52922504E-05
  -7.71000004      -6.39048667E-05
  -7.69999981      -1.10991925E-04
  -7.69000006      -1.88061182E-04
  -7.67999983      -2.91279925E-04
  -7.67000008      -4.11208777E-04
  -7.65999985      -5.33751911E-04
  -7.65000010      -6.42277300E-04
  -7.63999987      -7.20537151E-04
  -7.63000011      -7.55769724E-04
  -7.61999989      -7.41266645E-04
  -7.61000013      -6.77787641E-04
  -7.59999990      -5.73475205E-04
  -7.59000015      -4.42295714E-04
  -7.57999992      -3.01403954E-04
  -7.57000017      -1.68082974E-04
  -7.55999994      -5.69841286E-05
  -7.55000019       2.17395755E-05
  -7.53999996       6.31070943E-05
  -7.53000021       6.68489520E-05
  -7.51999998       3.61830680E-05
  -7.51000023      -2.36320757E-05
  -7.50000000      -1.06448955E-04
  -7.48999977      -2.05768709E-04
  -7.48000002      -3.14649718E-04
  -7.46999979      -4.25266771E-04
  -7.46000004      -5.28580509E-04
  -7.44999981      -6.14569581E-04
  -7.44000006      -6.73278759E-04