  -16.0000000       0.00000000    
  -15.9899998       0.00000000    
  -15.9799995       0.00000000    
  -15.9700003       0.00000000    
  -15.9600000       0.00000000    
  -15.9499998       0.00000000    
  -15.9399996       0.00000000    
  -15.9300003       0.00000000    
  -15.9200001       0.00000000    
  -15.9099998       0.00000000    
  -15.8999996      -1.11820815E-40
  -15.8900003      -2.76396453E-39
  -15.8800001      -4.29248408E-38
  -15.8699999      -5.31629230E-37
  -15.8599997      -5.22270081E-36
  -15.8500004      -4.04542334E-35
  -15.8400002      -2.51750207E-34
  -15.8299999      -1.29135025E-33
  -15.8199997      -5.58856500E-33
  -15.8100004      -2.07874553E-32
  -15.8000002      -6.73744579E-32
  -15.7900000      -1.91995785E-31
  -15.7799997      -4.82998639E-31
  -15.7700005      -1.07019159E-30
  -15.7600002      -2.06218554E-30
  -15.7500000      -3.33540259E-30
  -15.7399998      -4.06322017E-30
  -15.7299995      -1.92084504E-30
  -15.7200003       7.88219556E-30
  -15.7100000       3.31022820E-29
  -15.6999998       8.30808141E-29
  -15.6899996       1.63247865E-28
  -15.6800003       2.63124642E-28
  -15.6700001       3.37266420E-28
  -15.6599998       2.84072043E-28
  -15.6499996      -6.24517993E-29
  -15.6400003      -8.99761537E-28
  -15.6300001      -2.34575725E-27
  -15.6199999      -4.22347539E-27
  -15.6099997      -5.76580901E-27
  -15.6000004      -5.36943260E-27
  -15.5900002      -6.72210169E-28
  -15.5799999       1.06574538E-26
  -15.5699997       2.90915354E-26
  -15.5600004       5.04668649E-26
  -15.5500002       6.32537948E-26
  -15.5400000       4.80850134E-26
  -15.5299997      -1.73038966E-26
  -15.5200005      -1.45058775E-25
  -15.5100002      -3.16666985E-25
  -15.5000000      -4.61955073E-25
  -15.4899998      -4.53016292E-25
  -15.4799995      -1.34006748E-25
  -15.4700003       5.96896978E-25
  -15.4600000       1.65918452E-24
  -15.4499998       2.66189082E-24
  -15.4399996       2.86953755E-24
  -15.4300003       1.38063182E-24
  -15.4200001      -2.40180200E-24
  -15.4099998      -8.06364230E-24
  -15.3999996      -1.35169943E-23
  -15.3900003      -1.48929886E-23
  -15.3800001      -7.57980551E-24
  -15.3699999       1.12757253E-23
  -15.3599997       3.92257204E-23
  -15.3500004       6.54630101E-23
  -15.3400002       7.07774650E-23
  -15.3299999       3.31843775E-23
  -15.3199997      -5.97000593E-23
  -15.3100004      -1.94102078E-22
  -15.3000002      -3.16855234E-22
  -15.2900000      -3.36973813E-22
  -15.2799997      -1.53160525E-22
  -15.2700005       2.89515032E-22
  -15.2600002       9.26669074E-22
  -15.2500000       1.51863090E-21
  -15.2399998       1.65950142E-21
  -15.2299995       8.95242269E-22
  -15.2200003      -1.03928125E-21
  -15.2100000      -3.91895596E-21
  -15.1999998      -6.79470874E-21
  -15.1899996      -8.01182584E-21
  -15.1800003      -5.64465869E-21
  -15.1700001       1.61628345E-21
  -15.1599998       1.33210781E-20
  -15.1499996       2.63256644E-20
  -15.1400003       3.47056615E-20
  -15.1300001       3.10871276E-20
  -15.1199999       9.53947172E-21
  -15.1099997      -3.05667244E-20
  -15.1000004      -8.11699734E-20
  -15.0900002      -1.24558912E-19
  -15.0799999      -1.36589620E-19
  -15.0699997      -9.46005754E-20
  -15.0600004       1.15297297E-20
  -15.0500002       1.68977477E-19
  -15.0400000       3.37326373E-19
  -15.0299997       4.54085140E-19
  -15.0200005       4.51608510E-19
  -15.0100002       2.81727894E-19
  -15.0000000      -6.03310254E-20
  -14.9899998      -5.23035349E-19
  -14.9799995      -1.00389731E-18
  -14.9700003      -1.37250688E-18
  -14.9600000      -1.50116407E-18
  -14.9499998      -1.28759513E-18
  -14.9399996      -6.58578094E-19
  -14.9300003       4.40734497E-19
  -14.9200001       2.04514926E-18
  -14.9099998       4.11500393E-18
  -14.8999996       6.40077611E-18
  -14.8900003       8.24865334E-18
  -14.8800001       8.45039773E-18
  -14.8699999       5.31967917E-18
  -14.8599997      -2.80517274E-18
  -14.8500004      -1.65377657E-17
  -14.8400002      -3.40646079E-17
  -14.8299999      -4.99441959E-17
  -14.8199997      -5.49533072E-17
  -14.8100004      -3.79270053E-17
  -14.8000002       9.87298708E-18
  -14.7900000       8.83384557E-17
  -14.7799997       1.81982805E-16
  -14.7700005       2.56656436E-16
  -14.7600002       2.63459566E-16
  -14.7500000       1.52723442E-16
  -14.7399998      -1.02314830E-16
  -14.7299995      -4.77608474E-16
  -14.7200003      -8.77133639E-16
  -14.7100000      -1.13284516E-15
  -14.6999998      -1.03860702E-15
  -14.6899996      -4.22351512E-16
  -14.6800003       7.54814723E-16
  -14.6700001       2.30280243E-15
  -14.6599998       3.75569920E-15
  -14.6499996       4.42239586E-15
  -14.6400003       3.56548101E-15
  -14.6300001       6.98292638E-16
  -14.6199999      -4.06763009E-15
  -14.6099997      -9.74969820E-15
  -14.6000004      -1.44524709E-14
  -14.5900002      -1.56925576E-14
  -14.5799999      -1.11367070E-14
  -14.5699997       3.52587417E-16
  -14.5600004       1.76496577E-14
  -14.5500002       3.67071790E-14
  -14.5400000       5.07711582E-14
  -14.5299997       5.17920904E-14
  -14.5200005       3.30174629E-14
  -14.5100002      -7.73075028E-15
  -14.5000000      -6.50839788E-14
  -14.4899998      -1.24765175E-13
  -14.4799995      -1.65076042E-13
  -14.4700003      -1.61893909E-13
  -14.4600000      -9.67640817E-14
  -14.4499998       3.36848300E-14
  -14.4399996       2.10006315E-13
  -14.4300003       3.87473582E-13
  -14.4200001       5.01951182E-13
  -14.4099998       4.85284827E-13
  -14.3999996       2.88356063E-13
  -14.3900003      -9.35680095E-14
  -14.3800001      -6.01437194E-13
  -14.3699999      -1.10819004E-12
  -14.3599997      -1.43693271E-12
  -14.3500004      -1.40348974E-12
  -14.3400002      -8.77444872E-13
  -14.3299999       1.52772529E-13
  -14.3199997       1.53172397E-12
  -14.3100004       2.92823383E-12
  -14.3000002       3.88295862E-12
  -14.2900000       3.91583727E-12
  -14.2799997       2.67809169E-12
  -14.2700005       1.13429035E-13
  -14.2600002      -3.42166790E-12
  -14.2500000      -7.13165117E-12
  -14.2399998      -9.88922052E-12
  -14.2299995      -1.04851830E-11
  -14.2200003      -7.98668423E-12
  -14.2100000      -2.12414743E-12
  -14.1999998       6.40668161E-12
  -14.1899996       1.58494468E-11
  -14.1800003       2.35927857E-11
  -14.1700001       2.67054781E-11
  -14.1599998       2.27361706E-11
  -14.1499996       1.06116288E-11
  -14.1400003      -8.61153596E-12
  -14.1300001      -3.14138264E-11
  -14.1199999      -5.21223065E-11
  -14.1099997      -6.39569439E-11
  -14.1000004      -6.07138784E-11
  -14.0900002      -3.87673678E-11
  -14.0799999       1.11155182E-12
  -14.0699997       5.27069950E-11
  -14.0600004       1.04602896E-10
  -14.0500002       1.42006962E-10
  -14.0400000       1.50057619E-10
  -14.0299997       1.18062005E-10
  -14.0200005       4.36969384E-11
  -14.0100002      -6.40398082E-11
  -14.0000000      -1.84300214E-10
  -13.9899998      -2.87064206E-10
  -13.9799995      -3.39102385E-10
  -13.9700003      -3.12390835E-10
  -13.9600000      -1.93244212E-10
  -13.9499998       1.02014361E-11
  -13.9399996       2.64649969E-10
  -13.9300003       5.14403797E-10
  -13.9200001       6.90954682E-10
  -13.9099998       7.28428595E-10
  -13.8999996       5.82062398E-10
  -13.8900003       2.45390208E-10
  -13.8800001      -2.38841169E-10
  -13.8699999      -7.78448417E-10
  -13.8599997      -1.24480626E-09
  -13.8500004      -1.49858026E-09
  -13.8400002      -1.42416534E-09
  -13.8299999      -9.65558744E-10
  -13.8199997      -1.54415952E-10
  -13.8100004       8.78884798E-10
  -13.8000002       1.91777549E-09
  -13.7900000       2.69735545E-09
  -13.7799997       2.96293323E-09
  -13.7700005       2.53816212E-09
  -13.7600002       1.38685863E-09
  -13.7500000      -3.48989310E-10
  -13.7399998      -2.34976727E-09
  -13.7299995      -4.16487289E-09
  -13.7200003      -5.30237676E-09
  -13.7100000      -5.34674705E-09
  -13.6999998      -4.07944745E-09
  -13.6899996      -1.57166258E-09
  -13.6800003       1.78011172E-09
  -13.6700001       5.29540101E-09
  -13.6599998       8.13136669E-09
  -13.6499996       9.46774481E-09
  -13.6400003       8.71856276E-09
  -13.6300001       5.72064973E-09
  -13.6199999       8.46208215E-10
  -13.6099997      -5.00258324E-09
  -13.6000004      -1.05354294E-08
  -13.5900002      -1.43382364E-08
  -13.5799999      -1.52115884E-08
  -13.5699997      -1.25078330E-08
  -13.5600004      -6.37927267E-09
  -13.5500002       2.14071827E-09
  -13.5400000       1.12705276E-08
  -13.5299997       1.88251885E-08
  -13.5200005       2.27155716E-08
  -13.5100002       2.14949321E-08
  -13.5000000       1.48174450E-08
  -13.4899998       3.67652442E-09
  -13.4799995      -9.67055058E-09
  -13.4700003      -2.21160477E-08
  -13.4600000      -3.03919414E-08
  -13.4499998      -3.18939755E-08
  -13.4399996      -2.54416843E-08
  -13.4300003      -1.17662653E-08
  -13.4200001       6.43808029E-09
  -13.4099998       2.49702872E-08
  -13.3999996       3.90323258E-08
  -13.3900003       4.44120509E-08
  -13.3800001       3.86625061E-08
  -13.3699999       2.19663772E-08
  -13.3599997      -2.58234323E-09
  -13.3500004      -2.94278841E-08
  -13.3400002      -5.17075875E-08
  -13.3299999      -6.28973496E-08
  -13.3199997      -5.85768056E-08
  -13.3100004      -3.78656395E-08
  -13.3000002      -4.11280299E-09
  -13.2900000       3.54362513E-08
  -13.2799997       7.10364674E-08
  -13.2700005       9.26744974E-08
  -13.2600002       9.26599029E-08
  -13.2500000       6.79491947E-08
  -13.2399998       2.15669171E-08
  -13.2299995      -3.73591895E-08
  -13.2200003      -9.51370325E-08
  -13.2100000      -1.36432931E-07
  -13.1999998      -1.48011537E-07
  -13.1899996      -1.22447531E-07
  -13.1800003      -6.08620994E-08
  -13.1700001       2.61388600E-08
  -13.1599998       1.19804483E-07
  -13.1499996       1.96829802E-07
  -13.1400003       2.34607910E-07
  -13.1300001       2.17063814E-07
  -13.1199999       1.39701370E-07
  -13.1099997       1.25044410E-08
  -13.1000004      -1.40326748E-07
  -13.0900002      -2.84189781E-07
  -13.0799999      -3.81020925E-07
  -13.0699997      -3.98123547E-07
  -13.0600004      -3.17017538E-07
  -13.0500002      -1.40180717E-07
  -13.0400000       1.06238119E-07
  -13.0299997       3.74956443E-07
  -13.0200005       6.05488253E-07
  -13.0100002       7.36351637E-07
  -13.0000000       7.19277693E-07
  -12.9899998       5.32370564E-07
  -12.9799995       1.89015537E-07
  -12.9700003      -2.60087347E-07
  -12.9600000      -7.33115371E-07
  -12.9499998      -1.13114891E-06
  -12.9399996      -1.35777964E-06
  -12.9300003      -1.34049867E-06
  -12.9200001      -1.04923163E-06
  -12.9099998      -5.07543518E-07
  -12.8999996       2.06744929E-07
  -12.8900003       9.72678095E-07
  -12.8800001       1.64760218E-06
  -12.8699999       2.09500899E-06
  -12.8599997       2.21309574E-06
  -12.8500004       1.95774533E-06
  -12.8400002       1.35445691E-06
  -12.8299999       4.95938309E-07
  -12.8199997      -4.74831751E-07
  -12.8100004      -1.39290228E-06
  -12.8000002      -2.10503481E-06
  -12.7900000      -2.50125345E-06
  -12.7799997      -2.53691110E-06
  -12.7700005      -2.23989377E-06
  -12.7600002      -1.70094177E-06
  -12.7500000      -1.04910407E-06
  -12.7399998      -4.18057397E-07
  -12.7299995       8.85063614E-08
  -12.7200003       4.23670230E-07
  -12.7100000       6.09122822E-07
  -12.6999998       7.28363887E-07
  -12.6899996       9.02162981E-07
  -12.6800003       1.25167730E-06
  -12.6700001       1.85800263E-06
  -12.6599998       2.72824786E-06
  -12.6499996       3.77709534E-06
  -12.6400003       4.82943369E-06
  -12.6300001       5.64479569E-06
  -12.6199999       5.95921665E-06
  -12.6099997       5.53597420E-06
  -12.6000004       4.21457207E-06
  -12.5900002       1.94778590E-06
  -12.5799999      -1.18049729E-06
  -12.5699997      -4.95932954E-06
  -12.5600004      -9.07427147E-06
  -12.5500002      -1.31439110E-05
  -12.5400000      -1.67605613E-05
  -12.5299997      -1.95266130E-05
  -12.5200005      -2.10806575E-05
  -12.5100002      -2.11117167E-05
  -12.5000000      -1.93642063E-05
  -12.4899998      -1.56396891E-05
  -12.4799995      -9.80250115E-06
  -12.4700003      -1.79486608E-06
  -12.4600000       8.33663489E-06
  -12.4499998       2.04064072E-05
  -12.4399996       3.40549013E-05
  -12.4300003       4.87243597E-05
  -12.4200001       6.36564000E-05
  -12.4099998       7.79196853E-05
  -12.3999996       9.04703556E-05
  -12.3900003       1.00241065E-04
  -12.3800001       1.06247775E-04
  -12.3699999       1.07699234E-04
  -12.3599997       1.04092374E-04
  -12.3500004       9.52794944E-05
  -12.3400002       8.14977102E-05
  -12.3299999       6.33582895E-05
  -12.3199997       4.17997544E-05
  -12.3100004       1.80137504E-05
  -12.3000002      -6.64533854E-06
  -12.2900000      -3.07564405E-05
  -12.2799997      -5.29257450E-05
  -12.2700005      -7.18742158E-05
  -12.2600002      -8.65171678E-05
  -12.2500000      -9.60353791E-05
  -12.2399998      -9.99361582E-05
  -12.2299995      -9.80999612E-05
  -12.2200003      -9.08052098E-05
  -12.2100000      -7.87224344E-05
  -12.1999998      -6.28698181E-05
  -12.1899996      -4.45269070E-05
  -12.1800003      -2.51108122E-05
  -12.1700001      -6.02797354E-06
  -12.1599998       1.14775612E-05
  -12.1499996       2.64540158E-05
  -12.1400003       3.83257720E-05
  -12.1300001       4.69140759E-05
  -12.1199999       5.23894087E-05
  -12.1099997       5.51650555E-05
  -12.1000004       5.57547319E-05
  -12.0900002       5.46264964E-05
  -12.0799999       5.20868853E-05
  -12.0699997       4.82232463E-05
  -12.0600004       4.29188003E-05
  -12.0500002       3.59376027E-05
  -12.0400000       2.70591372E-05
  -12.0299997       1.62291144E-05
  -12.0200005       3.68771111E-06
  -12.0100002      -9.95965547E-06
  -12.0000000      -2.37513887E-05
  -11.9899998      -3.64629632E-05
  -11.9799995      -4.67692662E-05
  -11.9700003      -5.34449828E-05
  -11.9600000      -5.55631632E-05
  -11.9499998      -5.26525037E-05
  -11.9399996      -4.47831917E-05
  -11.9300003      -3.25667825E-05
  -11.9200001      -1.70736312E-05
  -11.9099998       3.12594011E-07
  -11.8999996       1.80733587E-05
  -11.8900003       3.47339483E-05
  -11.8800001       4.90143248E-05
  -11.8699999       5.99341947E-05
  -11.8599997       6.68666326E-05
  -11.8500004       6.95457202E-05
  -11.8400002       6.80404846E-05
  -11.8299999       6.27094851E-05
  -11.8199997       5.41472509E-05
  -11.8100004       4.31283406E-05
  -11.8000002       3.05489557E-05
  -11.7900000       1.73625631E-05
  -11.7799997       4.50633979E-06
  -11.7700005      -7.18072897E-06
  -11.7600002      -1.70411658E-05
  -11.7500000      -2.46707550E-05
  -11.7399998      -2.99625699E-05
  -11.7299995      -3.31085212E-05
  -11.7200003      -3.45501030E-05
  -11.7100000      -3.48801914E-05
  -11.6999998      -3.47096902E-05
  -11.6899996      -3.45227054E-05
  -11.6800003      -3.45496373E-05
  -11.6700001      -3.46866727E-05
  -11.6599998      -3.44829496E-05
  -11.6499996      -3.32040108E-05
  -11.6400003      -2.99650419E-05
  -11.6300001      -2.39131368E-05
  -11.6199999      -1.44269852E-05
  -11.6099997      -1.29773332E-06
  -11.6000004       1.51433960E-05
  -11.5900002       3.39770377E-05
  -11.5799999       5.37408050E-05
  -11.5699997       7.25665013E-05
  -11.5600004       8.83935791E-05
  -11.5500002       9.92308560E-05
  -11.5400000       1.03430400E-04
  -11.5299997       9.99344411E-05
  -11.5200005       8.84587425E-05
  -11.5100002       6.95835406E-05
  -11.5000000       4.47353341E-05
  -11.4899998       1.60577638E-05
  -11.4799995      -1.38144078E-05
  -11.4700003      -4.20497672E-05
  -11.4600000      -6.59443322E-05
  -11.4499998      -8.32316582E-05
  -11.4399996      -9.23374319E-05
  -11.4300003      -9.25457498E-05
  -11.4200001      -8.40576322E-05
  -11.4099998      -6.79386358E-05
  -11.3999996      -4.59676085E-05
  -11.3900003      -2.04109219E-05
  -11.3800001       6.24631639E-06
  -11.3699999       3.15785692E-05
  -11.3599997       5.34768114E-05
  -11.3500004       7.03581754E-05
  -11.3400002       8.13087463E-05
  -11.3299999       8.61457956E-05
  -11.3199997       8.53920938E-05
  -11.3100004       8.01615970E-05
  -11.3000002       7.19650925E-05
  -11.2900000       6.24559252E-05
  -11.2799997       5.31487494E-05
  -11.2700005       4.51560918E-05
  -11.2600002       3.89931520E-05
  -11.2500000       3.44976761E-05
  -11.2399998       3.08951421E-05
  -11.2299995       2.70117871E-05
  -11.2200003       2.16029293E-05
  -11.2100000       1.37307188E-05
  -11.1999998       3.10311657E-06
  -11.1899996      -9.71654208E-06
  -11.1800003      -2.32982566E-05
  -11.1700001      -3.55576558E-05
  -11.1599998      -4.41608536E-05
  -11.1499996      -4.70363120E-05
  -11.1400003      -4.28713101E-05
  -11.1300001      -3.14640201E-05
  -11.1199999      -1.38314672E-05
  -11.1099997       7.96690438E-06
  -11.1000004       3.12543561E-05
  -11.0900002       5.33043603E-05
  -11.0799999       7.18995288E-05
  -11.0699997       8.57280829E-05
  -11.0600004       9.45065985E-05
  -11.0500002       9.87960084E-05
  -11.0400000       9.95711453E-05
  -11.0299997       9.76837109E-05
  -11.0200005       9.34000491E-05
  -11.0100002       8.61819208E-05
  -11.0000000       7.48111997E-05
  -10.9899998       5.78539511E-05
  -10.9799995       3.43466891E-05
  -10.9700003       4.50085190E-06
  -10.9600000      -2.98099294E-05
  -10.9499998      -6.49764843E-05
  -10.9399996      -9.60891703E-05
  -10.9300003      -1.17835159E-04
  -10.9200001      -1.25670631E-04
  -10.9099998      -1.16981675E-04
  -10.8999996      -9.19210652E-05
  -10.8900003      -5.36678490E-05
  -10.8800001      -7.99033660E-06
  -10.8699999       3.78317709E-05
  -10.8599997       7.65001096E-05
  -10.8500004       1.02260528E-04
  -10.8400002       1.12158181E-04
  -10.8299999       1.06670537E-04
  -10.8199997       8.95505800E-05
  -10.8100004       6.69046130E-05
  -10.8000002       4.57177666E-05
  -10.7900000       3.21765983E-05
  -10.7799997       3.01882064E-05
  -10.7700005       4.04464845E-05
  -10.7600002       6.02623368E-05
  -10.7500000       8.41912697E-05
  -10.7399998       1.05304593E-04
  -10.7299995       1.16804957E-04
  -10.7200003       1.13616639E-04
  -10.7100000       9.35981807E-05
  -10.6999998       5.81208624E-05
  -10.6899996       1.19051747E-05
  -10.6800003      -3.78298573E-05
  -10.6700001      -8.27084004E-05
  -10.6599998      -1.14744667E-04
  -10.6499996      -1.27784486E-04
  -10.6400003      -1.18571297E-04
  -10.6300001      -8.72567398E-05
  -10.6199999      -3.72935865E-05
  -10.6099997       2.52323462E-05
  -10.6000004       9.26757421E-05
  -10.5900002       1.57093935E-04
  -10.5799999       2.11463834E-04
  -10.5699997       2.50645768E-04
  -10.5600004       2.71948898E-04
  -10.5500002       2.75236176E-04
  -10.5400000       2.62597168E-04
  -10.5299997       2.37694359E-04
  -10.5200005       2.04941796E-04
  -10.5100002       1.68691709E-04
  -10.5000000       1.32584333E-04
  -10.4899998       9.91636844E-05
  -10.4799995       6.97902215E-05
  -10.4700003       4.48095998E-05
  -10.4600000       2.38807170E-05
  -10.4499998       6.34323033E-06
  -10.4399996      -8.48340096E-06
  -10.4300003      -2.11346196E-05
  -10.4200001      -3.19756000E-05
  -10.4099998      -4.12688933E-05
  -10.3999996      -4.92568943E-05
  -10.3900003      -5.61845518E-05
  -10.3800001      -6.22243024E-05
  -10.3699999      -6.73212344E-05
  -10.3599997      -7.10304448E-05
  -10.3500004      -7.24466954E-05
  -10.3400002      -7.03149271E-05
  -10.3299999      -6.33551463E-05
  -10.3199997      -5.07534132E-05
  -10.3100004      -3.26888694E-05
  -10.3000002      -1.07149453E-05
  -10.2900000       1.21826997E-05
  -10.2799997       3.19607061E-05
  -10.2700005       4.43153112E-05
  -10.2600002       4.57556562E-05
  -10.2500000       3.46934903E-05
  -10.2399998       1.22412066E-05
  -10.2299995      -1.75504811E-05
  -10.2200003      -4.81593270E-05
  -10.2100000      -7.17267030E-05
  -10.1999998      -8.06393073E-05
  -10.1899996      -6.91983732E-05
  -10.1800003      -3.49732945E-05
  -10.1700001       2.04978260E-05
  -10.1599998       9.18373989E-05
  -10.1499996       1.70754385E-04
  -10.1400003       2.47533608E-04
  -10.1300001       3.12722870E-04
  -10.1199999       3.58627905E-04
  -10.1099997       3.80307349E-04
  -10.1000004       3.75926349E-04
  -10.0900002       3.46516812E-04
  -10.0799999       2.95345846E-04
  -10.0699997       2.27167053E-04
  -10.0600004       1.47597500E-04
  -10.0500002       6.27491754E-05
  -10.0400000      -2.09095069E-05
  -10.0299997      -9.66173538E-05
  -10.0200005      -1.57521848E-04
  -10.0100002      -1.97189715E-04
  -10.0000000      -2.10468963E-04
  -9.98999977      -1.94572276E-04
  -9.97999954      -1.50100837E-04
  -9.97000027      -8.16573447E-05
  -9.96000004       2.25554459E-06
  -9.94999981       9.01934545E-05
  -9.93999958       1.69495179E-04
  -9.93000031       2.28451201E-04
  -9.92000008       2.58434593E-04
  -9.90999985       2.55485618E-04
  -9.89999962       2.20960050E-04
  -9.89000034       1.61085991E-04
  -9.88000011       8.55561811E-05
  -9.86999989       5.52985603E-06
  -9.85999966      -6.84461629E-05
  -9.85000038      -1.28100553E-04
  -9.84000015      -1.68343453E-04
  -9.82999992      -1.87319296E-04
  -9.81999969      -1.85764715E-04
  -9.81000042      -1.66013182E-04
  -9.80000019      -1.31046021E-04
  -9.78999996      -8.39085114E-05
  -9.77999973      -2.76259670E-05
  -9.77000046       3.44644832E-05
  -9.76000023       9.82275378E-05
  -9.75000000       1.58422044E-04
  -9.73999977       2.08848563E-04
  -9.72999954       2.43064918E-04
  -9.72000027       2.55568681E-04
  -9.71000004       2.43155999E-04
  -9.69999981       2.06066383E-04
  -9.68999958       1.48546431E-04
  -9.68000031       7.86061355E-05
  -9.67000008       6.95085919E-06
  -9.65999985      -5.47111704E-05
  -9.64999962      -9.56330405E-05
  -9.64000034      -1.07858148E-04
  -9.63000011      -8.75607439E-05
  -9.61999989      -3.56794153E-05
  -9.60999966       4.22121520E-05
  -9.60000038       1.36707880E-04
  -9.59000015       2.35866770E-04
  -9.57999992       3.26797599E-04
  -9.56999969       3.97339114E-04
  -9.56000042       4.37672483E-04
  -9.55000019       4.41719341E-04
  -9.53999996       4.08171094E-04
  -9.52999973       3.40980361E-04
  -9.52000046       2.49150151E-04
  -9.51000023       1.45715880E-04
  -9.50000000       4.59400944E-05
  -9.48999977      -3.50804403E-05
  -9.47999954      -8.50112920E-05
  -9.47000027      -9.65670552E-05
  -9.46000004      -6.89618464E-05
  -9.44999981      -8.12970666E-06
  -9.43999958       7.44159552E-05
  -9.43000031       1.63885023E-04
  -9.42000008       2.45172065E-04
  -9.40999985       3.05790338E-04
  -9.39999962       3.38093116E-04
  -9.39000034       3.40289873E-04
  -9.38000011       3.16095917E-04
  -9.36999989       2.73223792E-04
  -9.35999966       2.21216658E-04
  -9.35000038       1.69252584E-04
  -9.34000015       1.24475278E-04
  -9.32999992       9.11723910E-05
  -9.31999969       7.08102307E-05
  -9.31000042       6.26612673E-05
  -9.30000019       6.46216722E-05
  -9.28999996       7.38505987E-05
  -9.27999973       8.70475851E-05
  -9.27000046       1.00431258E-04
  -9.26000023       1.09682980E-04
  -9.25000000       1.10181441E-04
  -9.23999977       9.77425952E-05
  -9.22999954       6.98316580E-05
  -9.22000027       2.69284046E-05
  -9.21000004      -2.64715873E-05
  -9.19999981      -8.17503897E-05
  -9.18999958      -1.27276013E-04
  -9.18000031      -1.50667765E-04
  -9.17000008      -1.41737342E-04
  -9.15999985      -9.53095587E-05
  -9.14999962      -1.30540720E-05
  -9.14000034       9.63214407E-05
  -9.13000011       2.18702960E-04
  -9.11999989       3.37648729E-04
  -9.10999966       4.38061834E-04
  -9.10000038       5.09385776E-04
  -9.09000015       5.47383097E-04
  -9.07999992       5.54005266E-04
  -9.06999969       5.35487838E-04
  -9.06000042       4.99396469E-04
  -9.05000019       4.51699656E-04
  -9.03999996       3.94925359E-04
  -9.02999973       3.28065827E-04
  -9.02000046       2.48259690E-04
  -9.01000023       1.53617526E-04
  -9.00000000       4.61031232E-05
  -8.98999977      -6.66956257E-05
  -8.97999954      -1.71732652E-04
  -8.97000027      -2.52787198E-04
  -8.96000004      -2.94303667E-04
  -8.94999981      -2.85648421E-04
  -8.93999958      -2.24433010E-04
  -8.93000031      -1.17792362E-04
  -8.92000008       1.88788290E-05
  -8.90999985       1.65433434E-04
  -8.89999962       3.01718508E-04
  -8.89000034       4.12171299E-04
  -8.88000011       4.88937367E-04
  -8.86999989       5.32670761E-04
  -8.85999966       5.50916477E-04
  -8.85000038       5.54728438E-04
  -8.84000015       5.54685073E-04
  -8.82999992       5.57578576E-04
  -8.81999969       5.64747490E-04
  -8.81000042       5.72420540E-04
  -8.80000019       5.73758618E-04
  -8.78999996       5.61751309E-04
  -8.77999973       5.31918486E-04
  -8.77000046       4.83929965E-04
  -8.76000023       4.21707868E-04
  -8.75000000       3.52137111E-04
  -8.73999977       2.82975030E-04
  -8.72999954       2.20766175E-04
  -8.72000027       1.69473249E-04
  -8.71000004       1.30192217E-04
  -8.69999981       1.01877988E-04
  -8.68999958       8.26323085E-05
  -8.68000031       7.09439628E-05
  -8.67000008       6.63633255E-05
  -8.65999985       6.93841575E-05
  -8.64999962       8.06707612E-05
  -8.64000034       1.00054131E-04
  -8.63000011       1.25812381E-04
  -8.61999989       1.54621594E-04
  -8.60999966       1.82269359E-04
  -8.60000038       2.04888536E-04
  -8.59000015       2.20236456E-04
  -8.57999992       2.28505363E-04
  -8.56999969       2.32321967E-04
  -8.56000042       2.35908024E-04
  -8.55000019       2.43699818E-04
  -8.53999996       2.58936401E-04
  -8.52999973       2.82732246E-04
  -8.52000046       3.13948258E-04
  -8.51000023       3.49851616E-04
  -8.50000000       3.87235486E-04
  -8.48999977       4.23487596E-04
  -8.47999954       4.57133836E-04
  -8.47000027       4.87619604E-04
  -8.46000004       5.14444255E-04
  -8.44999981       5.36081498E-04
  -8.43999958       5.49267745E-04
  -8.43000031       5.49144461E-04
  -8.42000008       5.30427729E-04
  -8.40999985       4.89349535E-04
  -8.39999962       4.25742764E-04
  -8.39000034       3.44475207E-04
  -8.38000011       2.55559280E-04
  -8.36999989       1.72651839E-04
  -8.35999966       1.10197048E-04
  -8.35000038       7.99514819E-05
  -8.34000015       8.79048239E-05
  -8.32999992       1.32552130E-04
  -8.31999969       2.05092394E-04
  -8.31000042       2.91545817E-04
  -8.30000019       3.76184908E-04
  -8.28999996       4.45272890E-04
  -8.27999973       4.90031554E-04
  -8.27000046       5.08038851E-04
  -8.26000023       5.02789044E-04
  -8.25000000       4.81747586E-04
  -8.23999977       4.53694433E-04
  -8.22999954       4.26308252E-04
  -8.22000027       4.04762686E-04
  -8.21000004       3.91656562E-04
  -8.19999981       3.88049491E-04
  -8.18999958       3.94939532E-04
  -8.18000031       4.14357026E-04
  -8.17000008       4.49419458E-04
  -8.15999985       5.03139105E-04
  -8.14999962       5.76330000E-04
  -8.14000034       6.65412459E-04
  -8.13000011       7.61088158E-04
  -8.11999989       8.48669792E-04
  -8.10999966       9.10345465E-04
  -8.10000038       9.29008471E-04
  -8.09000015       8.92694516E-04
  -8.07999992       7.98361725E-04
  -8.06999969       6.53832394E-04
  -8.06000042       4.77187888E-04
  -8.05000019       2.93617195E-04
  -8.03999996       1.30457134E-04
  -8.02999973       1.16836591E-05
  -8.02000046      -4.67370701E-05
  -8.01000023      -3.94927811E-05
  -8.00000000       2.79793167E-05
  -7.98999977       1.41762241E-04
  -7.98000002       2.83274159E-04
  -7.96999979       4.33460053E-04
  -7.96000004       5.76225924E-04
  -7.94999981       7.00352946E-04
  -7.94000006       7.99706206E-04
  -7.92999983       8.72120261E-04
  -7.92000008       9.17718804E-04
  -7.90999985       9.37489094E-04
  -7.90000010       9.32687952E-04
  -7.88999987       9.05206893E-04
  -7.88000011       8.58552172E-04
  -7.86999989       7.98780995E-04
  -7.86000013       7.34696223E-04
  -7.84999990       6.76859752E-04
  -7.84000015       6.35451288E-04
  -7.82999992       6.17500278E-04
  -7.82000017       6.24370878E-04
  -7.80999994       6.50442438E-04
  -7.80000019       6.83656428E-04
  -7.78999996       7.08064414E-04
  -7.78000021       7.07881001E-04
  -7.76999998       6.72017399E-04
  -7.76000023       5.97827719E-04
  -7.75000000       4.92931984E-04
  -7.73999977       3.74464551E-04
  -7.73000002       2.65787938E-04
  -7.71999979       1.91418498E-04
  -7.71000004       1.71412932E-04
  -7.69999981       2.16621498E-04
  -7.69000006       3.25985544E-04
  -7.67999983       4.86503443E-04
  -7.67000008       6.75795600E-04
  -7.65999985       8.66563176E-04
  -7.65000010       1.03181612E-03
  -7.63999987       1.14965648E-03
  -7.63000011       1.20664376E-03
  -7.61999989       1.19921938E-03
  -7.61000013       1.13320060E-03
  -7.59999990       1.02178776E-03
  -7.59000015       8.82771332E-04
  -7.57999992       7.35629932E-04
  -7.57000017       5.99035178E-04
  -7.55999994       4.89006576E-04
  -7.55000019       4.17706877E-04
  -7.53999996       3.92725458E-04
  -7.53000021       4.16683702E-04
  -7.51999998       4.87086800E-04
  -7.51000023       5.96479164E-04
  -7.50000000       7.33036082E-04
  -7.48999977       8.81722546E-04
  -7.48000002       1.02603366E-03
  -7.46999979       1.15014764E-03
  -7.46000004       1.24115380E-03
  -7.44999981       1.29092531E-03
  -7.44000006       1.29722606E-03