  -16.0000000       0.00000000    
  -15.9899998       0.00000000    
  -15.9799995       0.00000000    
  -15.9700003       0.00000000    
  -15.9600000       0.00000000    
  -15.9499998       0.00000000    
  -15.9399996       0.00000000    
  -15.9300003       0.00000000    
  -15.9200001       0.00000000    
  -15.9099998       0.00000000    
  -15.8999996       4.28748285E-40
  -15.8900003       7.88320069E-38
  -15.8800001       1.98731350E-36
  -15.8699999       2.69653037E-35
  -15.8599997       2.52372760E-34
  -15.8500004       1.81136406E-33
  -15.8400002       1.05633846E-32
  -15.8299999       5.18776102E-32
  -15.8199997       2.19754249E-31
  -15.8100004       8.16542857E-31
  -15.8000002       2.69376831E-30
  -15.7900000       7.95880092E-30
  -15.7799997       2.11836917E-29
  -15.7700005       5.09643735E-29
  -15.7600002       1.10884405E-28
  -15.7500000       2.17493102E-28
  -15.7399998       3.81142258E-28
  -15.7299995       5.84716809E-28
  -15.7200003       7.47888912E-28
  -15.7100000       6.83491256E-28
  -15.6999998       6.94433523E-29
  -15.6899996      -1.51869995E-27
  -15.6800003      -4.45357048E-27
  -15.6700001      -8.72689702E-27
  -15.6599998      -1.34443962E-26
  -15.6499996      -1.62543634E-26
  -15.6400003      -1.29855827E-26
  -15.6300001       2.04014086E-27
  -15.6199999       3.44099494E-26
  -15.6099997       8.61435122E-26
  -15.6000004       1.50119195E-25
  -15.5900002       2.03182676E-25
  -15.5799999       2.00599649E-25
  -15.5699997       7.72437746E-26
  -15.5600004      -2.36367256E-25
  -15.5500002      -7.74620783E-25
  -15.5400000      -1.47095945E-24
  -15.5299997      -2.07829547E-24
  -15.5200005      -2.11506447E-24
  -15.5100002      -9.07085911E-25
  -15.5000000       2.18896654E-24
  -15.4899998       7.32464450E-24
  -15.4799995       1.35113224E-23
  -15.4700003       1.80221837E-23
  -15.4600000       1.63045338E-23
  -15.4499998       2.99644851E-24
  -15.4399996      -2.54933118E-23
  -15.4300003      -6.69579141E-23
  -15.4200001      -1.09081162E-22
  -15.4099998      -1.27282126E-22
  -15.3999996      -8.80577913E-23
  -15.3900003       3.91866560E-23
  -15.3800001       2.61289134E-22
  -15.3699999       5.35801849E-22
  -15.3599997       7.51576133E-22
  -15.3500004       7.31951949E-22
  -15.3400002       2.78231468E-22
  -15.3299999      -7.36465900E-22
  -15.3199997      -2.23227855E-21
  -15.3100004      -3.78653962E-21
  -15.3000002      -4.57147666E-21
  -15.2900000      -3.46493882E-21
  -15.2799997       5.75310982E-22
  -15.2700005       7.85007326E-21
  -15.2600002       1.70874884E-20
  -15.2500000       2.47641542E-20
  -15.2399998       2.51093922E-20
  -15.2299995       1.14158663E-20
  -15.2200003      -2.09129418E-20
  -15.2100000      -6.97838839E-20
  -15.1999998      -1.21622782E-19
  -15.1899996      -1.49042191E-19
  -15.1800003      -1.14611147E-19
  -15.1700001       1.60122602E-20
  -15.1599998       2.51078267E-19
  -15.1499996       5.44937127E-19
  -15.1400003       7.77935449E-19
  -15.1300001       7.62860858E-19
  -15.1199999       2.97074602E-19
  -15.1099997      -7.31700292E-19
  -15.1000004      -2.20353512E-18
  -15.0900002      -3.64242200E-18
  -15.0799999      -4.19852188E-18
  -15.0699997      -2.83395014E-18
  -15.0600004       1.23179642E-18
  -15.0500002       7.86820485E-18
  -15.0400000       1.53854932E-17
  -15.0299997       2.02690551E-17
  -15.0200005       1.77445246E-17
  -15.0100002       3.48757916E-18
  -15.0000000      -2.36216065E-17
  -14.9899998      -5.84637294E-17
  -14.9799995      -8.78499560E-17
  -14.9700003      -9.17898437E-17
  -14.9600000      -4.94009302E-17
  -14.9499998       5.04471515E-17
  -14.9399996       1.96177251E-16
  -14.9300003       3.43596745E-16
  -14.9200001       4.16444066E-16
  -14.9099998       3.24257077E-16
  -14.8999996      -1.20233533E-19
  -14.8900003      -5.49860384E-16
  -14.8800001      -1.19789316E-15
  -14.8699999      -1.68181017E-15
  -14.8599997      -1.64786904E-15
  -14.8500004      -7.69654529E-16
  -14.8400002       1.07105664E-15
  -14.8299999       3.59269406E-15
  -14.8199997       6.00006418E-15
  -14.8100004       7.05216508E-15
  -14.8000002       5.38877618E-15
  -14.7900000       1.12658161E-16
  -14.7799997      -8.50145878E-15
  -14.7700005      -1.84358364E-14
  -14.7600002      -2.58480083E-14
  -14.7500000      -2.57980418E-14
  -14.7399998      -1.39041881E-14
  -14.7299995       1.13205327E-14
  -14.7200003       4.61498210E-14
  -14.7100000       8.04148279E-14
  -14.6999998       9.85143702E-14
  -14.6899996       8.34118609E-14
  -14.6800003       2.34147350E-14
  -14.6700001      -7.98168294E-14
  -14.6599998      -2.04929281E-13
  -14.6499996      -3.09838526E-13
  -14.6400003      -3.39137979E-13
  -14.6300001      -2.40986240E-13
  -14.6199999       9.07255889E-15
  -14.6099997       3.84107297E-13
  -14.6000004       7.91686649E-13
  -14.5900002       1.08031834E-12
  -14.5799999       1.07348321E-12
  -14.5699997       6.30067884E-13
  -14.5600004      -2.81468940E-13
  -14.5500002      -1.51924155E-12
  -14.5400000      -2.74497330E-12
  -14.5299997      -3.46943719E-12
  -14.5200005      -3.17827232E-12
  -14.5100002      -1.52316050E-12
  -14.5000000       1.46902672E-12
  -14.4899998       5.24354692E-12
  -14.4799995       8.70483113E-12
  -14.4700003       1.04063182E-11
  -14.4600000       8.95328169E-12
  -14.4499998       3.55109974E-12
  -14.4399996      -5.45083379E-12
  -14.4300003      -1.62263189E-11
  -14.4200001      -2.55577400E-11
  -14.4099998      -2.94692500E-11
  -14.3999996      -2.43824769E-11
  -14.3900003      -8.56736123E-12
  -14.3800001       1.65310803E-11
  -14.3699999       4.56158479E-11
  -14.3599997       6.99895350E-11
  -14.3500004       7.93764429E-11
  -14.3400002       6.49523352E-11
  -14.3299999       2.29347739E-11
  -14.3199997      -4.23295392E-11
  -14.3100004      -1.17024140E-10
  -14.3000002      -1.79315465E-10
  -14.2900000      -2.04023201E-10
  -14.2799997      -1.69965417E-10
  -14.2700005      -6.83546067E-11
  -14.2600002       9.02419320E-11
  -14.2500000       2.73146145E-10
  -14.2399998       4.29226432E-10
  -14.2299995       4.99713049E-10
  -14.2200003       4.34785929E-10
  -14.2100000       2.12260487E-10
  -14.1999998      -1.47032261E-10
  -14.1899996      -5.73039449E-10
  -14.1800003      -9.54019974E-10
  -14.1700001      -1.15927967E-09
  -14.1599998      -1.07417375E-09
  -14.1499996      -6.39825637E-10
  -14.1400003       1.13435726E-10
  -14.1300001       1.05082409E-09
  -14.1199999       1.94540273E-09
  -14.1099997       2.52129562E-09
  -14.1000004       2.52265187E-09
  -14.0900002       1.79423010E-09
  -14.0799999       3.52605001E-10
  -14.0699997      -1.57521862E-09
  -14.0600004      -3.56487506E-09
  -14.0500002      -5.06782349E-09
  -14.0400000      -5.53758950E-09
  -14.0299997      -4.58513627E-09
  -14.0200005      -2.12577289E-09
  -14.0100002       1.52587221E-09
  -14.0000000       5.65108671E-09
  -13.9899998       9.23368848E-09
  -13.9799995       1.11726033E-08
  -13.9700003       1.05644098E-08
  -13.9600000       6.99298752E-09
  -13.9499998       7.48469675E-10
  -13.9399996      -7.09896630E-09
  -13.9300003      -1.48204551E-08
  -13.9200001      -2.03521164E-08
  -13.9099998      -2.17749001E-08
  -13.8999996      -1.78532638E-08
  -13.8900003      -8.50038795E-09
  -13.8800001       4.96851804E-09
  -13.8699999       1.99034833E-08
  -13.8599997       3.27517427E-08
  -13.8500004       3.98099438E-08
  -13.8400002       3.81587562E-08
  -13.8299999       2.65679301E-08
  -13.8199997       6.12837647E-09
  -13.8100004      -1.96046859E-08
  -13.8000002      -4.50836488E-08
  -13.7900000      -6.38418598E-08
  -13.7799997      -6.99939307E-08
  -13.7700005      -5.98452488E-08
  -13.7600002      -3.32091474E-08
  -13.7500000       5.96141181E-09
  -13.7399998       4.99068058E-08
  -13.7299995       8.84298643E-08
  -13.7200003       1.11111838E-07
  -13.7100000       1.09932671E-07
  -13.6999998       8.16766317E-08
  -13.6899996       2.94644344E-08
  -13.6800003      -3.71181414E-08
  -13.6700001      -1.03535704E-07
  -13.6599998      -1.53307226E-07
  -13.6499996      -1.71929088E-07
  -13.6400003      -1.50826295E-07
  -13.6300001      -9.03091149E-08
  -13.6199999      -6.34670760E-10
  -13.6099997       9.93512472E-08
  -13.6000004       1.85950839E-07
  -13.5900002       2.36060529E-07
  -13.5799999       2.33126457E-07
  -13.5699997       1.72127244E-07
  -13.5600004       6.21774561E-08
  -13.5500002      -7.42018855E-08
  -13.5400000      -2.05341919E-07
  -13.5299997      -2.97513651E-07
  -13.5200005      -3.23331108E-07
  -13.5100002      -2.69446900E-07
  -13.5000000      -1.41478893E-07
  -13.4899998       3.53997756E-08
  -13.4799995       2.20823225E-07
  -13.4700003       3.67954385E-07
  -13.4600000       4.34790906E-07
  -13.4499998       3.95435279E-07
  -13.4399996       2.48450107E-07
  -13.4300003       1.98677732E-08
  -13.4200001      -2.40464715E-07
  -13.4099998      -4.68973440E-07
  -13.3999996      -6.02998796E-07
  -13.3900003      -5.96777738E-07
  -13.3800001      -4.34897288E-07
  -13.3699999      -1.39589631E-07
  -13.3599997       2.30593784E-07
  -13.3500004       5.91305309E-07
  -13.3400002       8.50484412E-07
  -13.3299999       9.30336000E-07
  -13.3199997       7.88210912E-07
  -13.3100004       4.31151392E-07
  -13.3000002      -8.01294533E-08
  -13.2900000      -6.39931272E-07
  -13.2799997      -1.11815427E-06
  -13.2700005      -1.38907217E-06
  -13.2600002      -1.36220285E-06
  -13.2500000      -1.00804971E-06
  -13.2399998      -3.71966991E-07
  -13.2299995       4.28441894E-07
  -13.2200003       1.22350230E-06
  -13.2100000       1.82622261E-06
  -13.1999998       2.07481094E-06
  -13.1899996       1.87357864E-06
  -13.1800003       1.22228687E-06
  -13.1700001       2.25762946E-07
  -13.1599998      -9.20461105E-07
  -13.1499996      -1.96739438E-06
  -13.1400003      -2.66601728E-06
  -13.1300001      -2.82566521E-06
  -13.1199999      -2.36388246E-06
  -13.1099997      -1.33507353E-06
  -13.1000004       7.07670722E-08
  -13.0900002       1.56153385E-06
  -13.0799999       2.80341465E-06
  -13.0699997       3.49600032E-06
  -13.0600004       3.44530622E-06
  -13.0500002       2.61704872E-06
  -13.0400000       1.15588114E-06
  -13.0299997      -6.36592972E-07
  -13.0200005      -2.36279107E-06
  -13.0100002      -3.61726711E-06
  -13.0000000      -4.08268852E-06
  -12.9899998      -3.61109983E-06
  -12.9799995      -2.26985571E-06
  -12.9700003      -3.38737095E-07
  -12.9600000       1.74434138E-06
  -12.9499998       3.47933269E-06
  -12.9399996       4.42130613E-06
  -12.9300003       4.29196507E-06
  -12.9200001       3.05805702E-06
  -12.9099998       9.55516839E-07
  -12.8999996      -1.55006171E-06
  -12.8900003      -3.86122974E-06
  -12.8800001      -5.38492031E-06
  -12.8699999      -5.67668940E-06
  -12.8599997      -4.55863756E-06
  -12.8500004      -2.18082027E-06
  -12.8400002       9.92324772E-07
  -12.8299999       4.27208897E-06
  -12.8199997       6.89531180E-06
  -12.8100004       8.20156311E-06
  -12.8000002       7.79667062E-06
  -12.7900000       5.66225890E-06
  -12.7799997       2.18147238E-06
  -12.7700005      -1.93050437E-06
  -12.7600002      -5.78009849E-06
  -12.7500000      -8.50093966E-06
  -12.7399998      -9.46437922E-06
  -12.7299995      -8.44368515E-06
  -12.7200003      -5.68865244E-06
  -12.7100000      -1.88654860E-06
  -12.6999998       1.98832799E-06
  -12.6899996       4.90654884E-06
  -12.6800003       6.04482329E-06
  -12.6700001       5.01370323E-06
  -12.6599998       1.99271244E-06
  -12.6499996      -2.26738575E-06
  -12.6400003      -6.58554063E-06
  -12.6300001      -9.61045498E-06
  -12.6199999      -1.01447813E-05
  -12.6099997      -7.45920352E-06
  -12.6000004      -1.51980555E-06
  -12.5900002       6.93165202E-06
  -12.5799999       1.64730445E-05
  -12.5699997       2.52607588E-05
  -12.5600004       3.14003446E-05
  -12.5500002       3.33481912E-05
  -12.5400000       3.02525914E-05
  -12.5299997       2.21535265E-05
  -12.5200005       9.99139502E-06
  -12.5100002      -4.58115710E-06
  -12.5000000      -1.95434313E-05
  -12.4899998      -3.29278992E-05
  -12.4799995      -4.32196794E-05
  -12.4700003      -4.96393404E-05
  -12.4600000      -5.22414193E-05
  -12.4499998      -5.18054330E-05
  -12.4399996      -4.95472814E-05
  -12.4300003      -4.67243190E-05
  -12.4200001      -4.42353630E-05
  -12.4099998      -4.23206257E-05
  -12.3999996      -4.04441307E-05
  -12.3900003      -3.73977527E-05
  -12.3800001      -3.16115111E-05
  -12.3699999      -2.16022145E-05
  -12.3599997      -6.45481214E-06
  -12.3500004       1.37832139E-05
  -12.3400002       3.78994482E-05
  -12.3299999       6.35718898E-05
  -12.3199997       8.76911072E-05
  -12.3100004       1.06897423E-04
  -12.3000002       1.18229778E-04
  -12.2900000       1.19752222E-04
  -12.2799997       1.11021582E-04
  -12.2700005       9.32868061E-05
  -12.2600002       6.93618931E-05
  -12.2500000       4.31797052E-05
  -12.2399998       1.91004383E-05
  -12.2299995       1.10187864E-06
  -12.2200003      -7.99196641E-06
  -12.2100000      -7.08855214E-06
  -12.1999998       2.91189849E-06
  -12.1899996       1.92356256E-05
  -12.1800003       3.77257966E-05
  -12.1700001       5.36204061E-05
  -12.1599998       6.24735912E-05
  -12.1499996       6.10422649E-05
  -12.1400003       4.79612281E-05
  -12.1300001       2.40664504E-05
  -12.1199999      -7.70655879E-06
  -12.1099997      -4.28382700E-05
  -12.1000004      -7.60583571E-05
  -12.0900002      -1.02332888E-04
  -12.0799999      -1.17806754E-04
  -12.0699997      -1.20509307E-04
  -12.0600004      -1.10679073E-04
  -12.0500002      -9.06443238E-05
  -12.0400000      -6.42919476E-05
  -12.0299997      -3.62467254E-05
  -12.0200005      -1.09458142E-05
  -12.0100002       8.18635453E-06
  -12.0000000       1.92849220E-05
  -11.9899998       2.22047183E-05
  -11.9799995       1.82798976E-05
  -11.9700003       9.76652154E-06
  -11.9600000      -8.73210752E-07
  -11.9499998      -1.16519977E-05
  -11.9399996      -2.15262771E-05
  -11.9300003      -3.05367503E-05
  -11.9200001      -3.95958195E-05
  -11.9099998      -4.99943490E-05
  -11.8999996      -6.27773552E-05
  -11.8900003      -7.81743802E-05
  -11.8800001      -9.52562987E-05
  -11.8699999      -1.11928850E-04
  -11.8599997      -1.25281163E-04
  -11.8500004      -1.32210131E-04
  -11.8400002      -1.30164190E-04
  -11.8299999      -1.17814358E-04
  -11.8199997      -9.54762581E-05
  -11.8100004      -6.51685696E-05
  -11.8000002      -3.02862463E-05
  -11.7900000       5.03604133E-06
  -11.7799997       3.67177272E-05
  -11.7700005       6.14946912E-05
  -11.7600002       7.74740838E-05
  -11.7500000       8.43629314E-05
  -11.7399998       8.33371232E-05
  -11.7299995       7.66073135E-05
  -11.7200003       6.68094217E-05
  -11.7100000       5.63817775E-05
  -11.6999998       4.70818741E-05
  -11.6899996       3.97477270E-05
  -11.6800003       3.43371903E-05
  -11.6700001       3.02032950E-05
  -11.6599998       2.65053986E-05
  -11.6499996       2.26280026E-05
  -11.6400003       1.84875480E-05
  -11.6300001       1.46467228E-05
  -11.6199999       1.22132888E-05
  -11.6099997       1.25597498E-05
  -11.6000004       1.69452633E-05
  -11.5900002       2.61420555E-05
  -11.5799999       4.01615725E-05
  -11.5699997       5.81456407E-05
  -11.5600004       7.84445729E-05
  -11.5500002       9.88602842E-05
  -11.5400000       1.16998235E-04
  -11.5299997       1.30654909E-04
  -11.5200005       1.38168252E-04
  -11.5100002       1.38674441E-04
  -11.5000000       1.32238070E-04
  -11.4899998       1.19846809E-04
  -11.4799995       1.03282036E-04
  -11.4700003       8.48885829E-05
  -11.4600000       6.72730239E-05
  -11.4499998       5.29617937E-05
  -11.4399996       4.40525000E-05
  -11.4300003       4.18946584E-05
  -11.4200001       4.68409125E-05
  -11.4099998       5.81117201E-05
  -11.3999996       7.38124872E-05
  -11.3900003       9.11277821E-05
  -11.3800001       1.06691637E-04
  -11.3699999       1.17098643E-04
  -11.3599997       1.19484364E-04
  -11.3500004       1.12075570E-04
  -11.3400002       9.45994616E-05
  -11.3299999       6.84542974E-05
  -11.3199997       3.65817141E-05
  -11.3100004       3.03876482E-06
  -11.3000002      -2.76675582E-05
  -11.2900000      -5.13631021E-05
  -11.2799997      -6.49526337E-05
  -11.2700005      -6.69743749E-05
  -11.2600002      -5.78441322E-05
  -11.2500000      -3.97351723E-05
  -11.2399998      -1.61202370E-05
  -11.2299995       8.92228854E-06
  -11.2200003       3.14835925E-05
  -11.2100000       4.85109776E-05
  -11.1999998       5.82610373E-05
  -11.1899996       6.04345405E-05
  -11.1800003       5.59870932E-05
  -11.1700001       4.66875281E-05
  -11.1599998       3.45529952E-05
  -11.1499996       2.13120220E-05
  -11.1400003       8.03011426E-06
  -11.1300001      -5.01753675E-06
  -11.1199999      -1.82103304E-05
  -11.1099997      -3.22364831E-05
  -11.1000004      -4.76416353E-05
  -11.0900002      -6.43987005E-05
  -11.0799999      -8.16156171E-05
  -11.0699997      -9.74602808E-05
  -11.0600004      -1.09328888E-04
  -11.0500002      -1.14229551E-04
  -11.0400000      -1.09309760E-04
  -11.0299997      -9.24318520E-05
  -11.0200005      -6.26963811E-05
  -11.0100002      -2.08259717E-05
  -11.0000000       3.06548573E-05
  -10.9899998       8.74824691E-05
  -10.9799995       1.43971920E-04
  -10.9700003       1.93577274E-04
  -10.9600000       2.29656362E-04
  -10.9499998       2.46373704E-04
  -10.9399996       2.39642992E-04
  -10.9300003       2.07981415E-04
  -10.9200001       1.53126355E-04
  -10.9099998       8.02660943E-05
  -10.8999996      -2.23428037E-06
  -10.8900003      -8.36658146E-05
  -10.8800001      -1.52326669E-04
  -10.8699999      -1.97240573E-04
  -10.8599997      -2.09989172E-04
  -10.8500004      -1.86336241E-04
  -10.8400002      -1.27310268E-04
  -10.8299999      -3.94723102E-05
  -10.8199997       6.57752898E-05
  -10.8100004       1.73804961E-04
  -10.8000002       2.69076263E-04
  -10.7900000       3.37750651E-04
  -10.7799997       3.70117195E-04
  -10.7700005       3.62341700E-04
  -10.7600002       3.17160506E-04
  -10.7500000       2.43342874E-04
  -10.7399998       1.53998801E-04
  -10.7299995       6.40599756E-05
  -10.7200003      -1.25514616E-05
  -10.7100000      -6.54730538E-05
  -10.6999998      -8.96327547E-05
  -10.6899996      -8.58033600E-05
  -10.6800003      -5.98909173E-05
  -10.6700001      -2.11601746E-05
  -10.6599998       2.01538405E-05
  -10.6499996       5.52610509E-05
  -10.6400003       7.86773016E-05
  -10.6300001       8.91010568E-05
  -10.6199999       8.91344680E-05
  -10.6099997       8.39785935E-05
  -10.6000004       7.94977823E-05
  -10.5900002       8.02083232E-05
  -10.5799999       8.77576458E-05
  -10.5699997       1.00320423E-04
  -10.5600004       1.13082948E-04
  -10.5500002       1.19685872E-04
  -10.5400000       1.14229129E-04
  -10.5299997       9.32827970E-05
  -10.5200005       5.73382131E-05
  -10.5100002       1.12756234E-05
  -10.5000000      -3.63201507E-05
  -10.4899998      -7.48653474E-05
  -10.4799995      -9.41097169E-05
  -10.4700003      -8.65412876E-05
  -10.4600000      -4.92924846E-05
  -10.4499998       1.48992240E-05
  -10.4399996       9.78934913E-05
  -10.4300003       1.87459431E-04
  -10.4200001       2.69403215E-04
  -10.4099998       3.30058858E-04
  -10.3999996       3.58646474E-04
  -10.3900003       3.49069887E-04
  -10.3800001       3.00873740E-04
  -10.3699999       2.19261594E-04
  -10.3599997       1.14247021E-04
  -10.3500004      -8.66386813E-07
  -10.3400002      -1.11414076E-04
  -10.3299999      -2.03432952E-04
  -10.3199997      -2.65600596E-04
  -10.3100004      -2.90828320E-04
  -10.3000002      -2.77320592E-04
  -10.2900000      -2.28951045E-04
  -10.2799997      -1.54857335E-04
  -10.2700005      -6.82351310E-05
  -10.2600002       1.55763555E-05
  -10.2500000       8.14921295E-05
  -10.2399998       1.17206655E-04
  -10.2299995       1.15404924E-04
  -10.2200003       7.52108681E-05
  -10.2100000       2.52287509E-06
  -10.1999998      -9.09169175E-05
  -10.1899996      -1.89610699E-04
  -10.1800003      -2.77174549E-04
  -10.1700001      -3.39412421E-04
  -10.1599998      -3.66940396E-04
  -10.1499996      -3.56786331E-04
  -10.1400003      -3.12614720E-04
  -10.1300001      -2.43545233E-04
  -10.1199999      -1.61866716E-04
  -10.1099997      -8.02098584E-05
  -10.1000004      -8.85992358E-06
  -10.0900002       4.61631716E-05
  -10.0799999       8.38447086E-05
  -10.0699997       1.07635831E-04
  -10.0600004       1.23864971E-04
  -10.0500002       1.39585914E-04
  -10.0400000       1.60466967E-04
  -10.0299997       1.89276165E-04
  -10.0200005       2.25326730E-04
  -10.0100002       2.64965667E-04
  -10.0000000       3.02900764E-04
  -9.98999977       3.33943550E-04
  -9.97999954       3.54650721E-04
  -9.97000027       3.64394771E-04
  -9.96000004       3.65566550E-04
  -9.94999981       3.62856052E-04
  -9.93999958       3.61806335E-04
  -9.93000031       3.67031258E-04
  -9.92000008       3.80577898E-04
  -9.90999985       4.00887191E-04
  -9.89999962       4.22669167E-04
  -9.89000034       4.37796232E-04
  -9.88000011       4.37077601E-04
  -9.86999989       4.12560359E-04
  -9.85999966       3.59857309E-04
  -9.85000038       2.79955246E-04
  -9.84000015       1.80027069E-04
  -9.82999992       7.29507010E-05
  -9.81999969      -2.45050687E-05
  -9.81000042      -9.45767388E-05
  -9.80000019      -1.21966652E-04
  -9.78999996      -9.71726040E-05
  -9.77999973      -1.89502534E-05
  -9.77000046       1.04704741E-04
  -9.76000023       2.57389998E-04
  -9.75000000       4.16897761E-04
  -9.73999977       5.59131673E-04
  -9.72999954       6.62555103E-04
  -9.72000027       7.12222245E-04
  -9.71000004       7.02500227E-04
  -9.69999981       6.37868245E-04
  -9.68999958       5.31623547E-04
  -9.68000031       4.02821373E-04
  -9.67000008       2.72199337E-04
  -9.65999985       1.58068942E-04
  -9.64999962       7.31311593E-05
  -9.64000034       2.28921490E-05
  -9.63000011       5.90257059E-06
  -9.61999989       1.55433427E-05
  -9.60999966       4.26851548E-05
  -9.60000038       7.83685537E-05
  -9.59000015       1.15735515E-04
  -9.57999992       1.50760403E-04
  -9.56999969       1.81766503E-04
  -9.56000042       2.08129451E-04
  -9.55000019       2.28823337E-04
  -9.53999996       2.41475980E-04
  -9.52999973       2.42368056E-04
  -9.52000046       2.27420489E-04
  -9.51000023       1.93808752E-04
  -9.50000000       1.41566372E-04
  -9.48999977       7.45008147E-05
  -9.47999954      -3.80696683E-08
  -9.47000027      -7.25927239E-05
  -9.46000004      -1.33842506E-04
  -9.44999981      -1.76936956E-04
  -9.43999958      -1.99113681E-04
  -9.43000031      -2.02005918E-04
  -9.42000008      -1.90486797E-04
  -9.40999985      -1.70423620E-04
  -9.39999962      -1.46138293E-04
  -9.39000034      -1.18531185E-04
  -9.38000011      -8.46442272E-05
  -9.36999989      -3.89593988E-05
  -9.35999966       2.38994853E-05
  -9.35000038       1.05956693E-04
  -9.34000015       2.03348172E-04
  -9.32999992       3.05532565E-04
  -9.31999969       3.96820164E-04
  -9.31000042       4.60039359E-04
  -9.30000019       4.81399737E-04
  -9.28999996       4.55102243E-04
  -9.27999973       3.86178755E-04
  -9.27000046       2.90473981E-04
  -9.26000023       1.91501065E-04
  -9.25000000       1.14860472E-04
  -9.23999977       8.17123946E-05
  -9.22999954       1.03158767E-04
  -9.22000027       1.77194204E-04
  -9.21000004       2.89164134E-04
  -9.19999981       4.15637332E-04
  -9.18999958       5.30581689E-04
  -9.18000031       6.12049131E-04
  -9.17000008       6.47451088E-04
  -9.15999985       6.35976554E-04
  -9.14999962       5.87618561E-04
  -9.14000034       5.19335212E-04
  -9.13000011       4.49723739E-04
  -9.11999989       3.93965456E-04
  -9.10999966       3.60578531E-04
  -9.10000038       3.50796094E-04
  -9.09000015       3.60425096E-04
  -9.07999992       3.83176521E-04
  -9.06999969       4.13998525E-04
  -9.06000042       4.51044034E-04
  -9.05000019       4.95519431E-04
  -9.03999996       5.49558783E-04
  -9.02999973       6.13109209E-04
  -9.02000046       6.81272883E-04
  -9.01000023       7.43454846E-04
  -9.00000000       7.85017677E-04
  -8.98999977       7.91184139E-04
  -8.97999954       7.52004504E-04
  -8.97000027       6.66660955E-04
  -8.96000004       5.45456132E-04
  -8.94999981       4.08516993E-04
  -8.93999958       2.81331217E-04
  -8.93000031       1.88332939E-04
  -8.92000008       1.46483129E-04
  -8.90999985       1.60865748E-04
  -8.89999962       2.23694908E-04
  -8.89000034       3.17009341E-04
  -8.88000011       4.18102893E-04
  -8.86999989       5.05841046E-04
  -8.85999966       5.65771363E-04
  -8.85000038       5.92436758E-04
  -8.84000015       5.88369730E-04
  -8.82999992       5.60490764E-04
  -8.81999969       5.15586173E-04
  -8.81000042       4.56842303E-04
  -8.80000019       3.82938946E-04
  -8.78999996       2.90123280E-04
  -8.77999973       1.76403468E-04
  -8.77000046       4.60235133E-05
  -8.76000023      -8.79074869E-05
  -8.75000000      -2.04190888E-04
  -8.73999977      -2.78041232E-04
  -8.72999954      -2.88168405E-04
  -8.72000027      -2.24143194E-04
  -8.71000004      -9.13851181E-05
  -8.69999981       8.82827953E-05
  -8.68999958       2.81153072E-04
  -8.68000031       4.50127147E-04
  -8.67000008       5.64637710E-04
  -8.65999985       6.08840259E-04
  -8.64999962       5.85396076E-04
  -8.64000034       5.13606938E-04
  -8.63000011       4.22567973E-04
  -8.61999989       3.41701380E-04
  -8.60999966       2.91912438E-04
  -8.60000038       2.80333712E-04
  -8.59000015       3.00281332E-04
  -8.57999992       3.36126715E-04
  -8.56999969       3.70992057E-04
  -8.56000042       3.94170173E-04
  -8.55000019       4.05340048E-04
  -8.53999996       4.13938484E-04
  -8.52999973       4.33983747E-04
  -8.52000046       4.76488582E-04
  -8.51000023       5.42642258E-04
  -8.50000000       6.20758277E-04
  -8.48999977       6.88612228E-04
  -8.47999954       7.20719632E-04
  -8.47000027       6.98108517E-04
  -8.46000004       6.16987178E-04
  -8.44999981       4.92869876E-04
  -8.43999958       3.58199090E-04
  -8.43000031       2.53780803E-04
  -8.42000008       2.16619548E-04
  -8.40999985       2.68152042E-04
  -8.39999962       4.06904437E-04
  -8.39000034       6.08178962E-04
  -8.38000011       8.31002137E-04
  -8.36999989       1.03008910E-03
  -8.35999966       1.16886711E-03
  -8.35000038       1.22928456E-03
  -8.34000015       1.21531799E-03
  -8.32999992       1.14932342E-03
  -8.31999969       1.06286886E-03
  -8.31000042       9.85512161E-04
  -8.30000019       9.35520220E-04
  -8.28999996       9.15604527E-04
  -8.27999973       9.14758886E-04
  -8.27000046       9.14997829E-04
  -8.26000023       9.00061568E-04
  -8.25000000       8.62613146E-04
  -8.23999977       8.07245029E-04
  -8.22999954       7.48384220E-04
  -8.22000027       7.04222359E-04
  -8.21000004       6.89294713E-04
  -8.19999981       7.08729844E-04
  -8.18999958       7.56383815E-04
  -8.18000031       8.17419786E-04
  -8.17000008       8.74091813E-04
  -8.15999985       9.12271033E-04
  -8.14999962       9.26082488E-04
  -8.14000034       9.18933190E-04
  -8.13000011       9.00792307E-04
  -8.11999989       8.83156608E-04
  -8.10999966       8.74027202E-04
  -8.10000038       8.75083148E-04
  -8.09000015       8.82140012E-04
  -8.07999992       8.88427137E-04
  -8.06999969       8.88903625E-04
  -8.06000042       8.83341301E-04
  -8.05000019       8.76489386E-04
  -8.03999996       8.75047990E-04
  -8.02999973       8.82801192E-04
  -8.02000046       8.96350946E-04
  -8.01000023       9.03904671E-04
  -8.00000000       8.88407987E-04
  -7.98999977       8.34406237E-04
  -7.98000002       7.36151822E-04
  -7.96999979       6.03483175E-04
  -7.96000004       4.62441938E-04
  -7.94999981       3.49402922E-04
  -7.94000006       3.00050393E-04
  -7.92999983       3.36842641E-04
  -7.92000008       4.59671573E-04
  -7.90999985       6.43679930E-04
  -7.90000010       8.45789851E-04
  -7.88999987       1.01824035E-03
  -7.88000011       1.12457469E-03
  -7.86999989       1.15221902E-03
  -7.86000013       1.11670222E-03
  -7.84999990       1.05547416E-03
  -7.84000015       1.01317163E-03
  -7.82999992       1.02361944E-03
  -7.82000017       1.09542918E-03
  -7.80999994       1.20705785E-03
  -7.80000019       1.31383829E-03
  -7.78999996       1.36496045E-03
  -7.78000021       1.32436305E-03
  -7.76999998       1.18758495E-03
  -7.76000023       9.87678417E-04
  -7.75000000       7.87063793E-04
  -7.73999977       6.57414901E-04
  -7.73000002       6.54362142E-04
  -7.71999979       7.96175620E-04
  -7.71000004       1.05461513E-03
  -7.69999981       1.36202027E-03
  -7.69000006       1.63287518E-03
  -7.67999983       1.79263146E-03
  -7.67000008       1.80360104E-03
  -7.65999985       1.67843117E-03
  -7.65000010       1.47591659E-03
  -7.63999987       1.28023489E-03
  -7.63000011       1.17080414E-03
  -7.61999989       1.19357475E-03
  -7.61000013       1.34427752E-03
  -7.59999990       1.56995491E-03
  -7.59000015       1.78848591E-03
  -7.57999992       1.91917468E-03
  -7.57000017       1.91327231E-03
  -7.55999994       1.77315308E-03
  -7.55000019       1.55287748E-03
  -7.53999996       1.33963255E-03
  -7.53000021       1.22256705E-03
  -7.51999998       1.26026198E-03
  -7.51000023       1.45869527E-03
  -7.50000000       1.76782801E-03
  -7.48999977       2.09821016E-03
  -7.48000002       2.35172361E-03
  -7.46999979       2.45543383E-03
  -7.46000004       2.38641421E-03
  -7.44999981       2.17871997E-03
  -7.44000006       1.91021874E-03