  -16.0000000       0.00000000    
  -15.9899998       0.00000000    
  -15.9799995       0.00000000    
  -15.9700003       0.00000000    
  -15.9600000       0.00000000    
  -15.9499998       0.00000000    
  -15.9399996       0.00000000    
  -15.9300003       0.00000000    
  -15.9200001       0.00000000    
  -15.9099998       2.41611881E-41
  -15.8999996       8.15856985E-40
  -15.8900003       1.20259869E-38
  -15.8800001       7.59973091E-38
  -15.8699999       1.37834923E-37
  -15.8599997      -1.14258989E-36
  -15.8500004      -9.55150575E-36
  -15.8400002      -3.16594263E-35
  -15.8299999      -1.69463051E-35
  -15.8199997       3.64599892E-34
  -15.8100004       2.17480634E-33
  -15.8000002       7.44929578E-33
  -15.7900000       1.74792586E-32
  -15.7799997       2.57833137E-32
  -15.7700005       2.66921614E-33
  -15.7600002      -1.27782419E-31
  -15.7500000      -5.15708415E-31
  -15.7399998      -1.43788923E-30
  -15.7299995      -3.46464678E-30
  -15.7200003      -7.91012681E-30
  -15.7100000      -1.75931624E-29
  -15.6999998      -3.70948913E-29
  -15.6899996      -6.97260367E-29
  -15.6800003      -1.05899509E-28
  -15.6700001      -9.76729232E-29
  -15.6599998       7.67075628E-29
  -15.6499996       6.29454717E-28
  -15.6400003       1.79306139E-27
  -15.6300001       3.56648869E-27
  -15.6199999       5.22010985E-27
  -15.6099997       4.68482998E-27
  -15.6000004      -1.68890228E-27
  -15.5900002      -1.80941087E-26
  -15.5799999      -4.59227611E-26
  -15.5699997      -7.78476414E-26
  -15.5600004      -9.12224268E-26
  -15.5500002      -4.60666481E-26
  -15.5400000       1.04095546E-25
  -15.5299997       3.80909697E-25
  -15.5200005       7.29982645E-25
  -15.5100002       9.68148774E-25
  -15.5000000       7.70710991E-25
  -15.4899998      -2.44538228E-25
  -15.4799995      -2.29313898E-24
  -15.4700003      -5.07772646E-24
  -15.4600000      -7.44821246E-24
  -15.4499998      -7.32037992E-24
  -15.4399996      -2.16307396E-24
  -15.4300003       9.74308299E-24
  -15.4200001       2.74123516E-23
  -15.4099998       4.52950237E-23
  -15.3999996       5.26454435E-23
  -15.3900003       3.54823671E-23
  -15.3800001      -1.80190519E-23
  -15.3699999      -1.09222223E-22
  -15.3599997      -2.20223913E-22
  -15.3500004      -3.08634774E-22
  -15.3400002      -3.10525137E-22
  -15.3299999      -1.54805849E-22
  -15.3199997       2.10571058E-22
  -15.3100004       7.83556226E-22
  -15.3000002       1.46967993E-21
  -15.2900000       2.04813191E-21
  -15.2799997       2.15409141E-21
  -15.2700005       1.29951256E-21
  -15.2600002      -1.02786784E-21
  -15.2500000      -5.13186568E-21
  -15.2399998      -1.06972887E-20
  -15.2299995      -1.62323452E-20
  -15.2200003      -1.85625792E-20
  -15.2100000      -1.28167500E-20
  -15.1999998       6.44734377E-21
  -15.1899996       4.23707824E-20
  -15.1800003       9.11275606E-20
  -15.1700001       1.36661624E-19
  -15.1599998       1.47787836E-19
  -15.1499996       8.21775246E-20
  -15.1400003      -9.82140493E-20
  -15.1300001      -3.98765730E-19
  -15.1199999      -7.56412106E-19
  -15.1099997      -1.01223849E-18
  -15.1000004      -9.17772503E-19
  -15.0900002      -2.02409067E-19
  -15.0799999       1.28395285E-18
  -15.0699997       3.37291684E-18
  -15.0600004       5.39525577E-18
  -15.0500002       6.13671069E-18
  -15.0400000       4.07525129E-18
  -15.0299997      -2.00421871E-18
  -15.0200005      -1.20638601E-17
  -15.0100002      -2.38103890E-17
  -15.0000000      -3.21606499E-17
  -14.9899998      -2.98434920E-17
  -14.9799995      -9.68160396E-18
  -14.9700003       3.14254782E-17
  -14.9600000       8.77180967E-17
  -14.9499998       1.40995569E-16
  -14.9399996       1.61047301E-16
  -14.9300003       1.12770764E-16
  -14.9200001      -2.90100943E-17
  -14.9099998      -2.59368000E-16
  -14.8999996      -5.24505512E-16
  -14.8900003      -7.15066485E-16
  -14.8800001      -6.83183688E-16
  -14.8699999      -2.90580132E-16
  -14.8599997       5.15875887E-16
  -14.8500004       1.62091952E-15
  -14.8400002       2.68630316E-15
  -14.8299999       3.17023828E-15
  -14.8199997       2.45846040E-15
  -14.8100004       1.13505088E-16
  -14.8000002      -3.80440952E-15
  -14.7900000      -8.45437222E-15
  -14.7799997      -1.21271655E-14
  -14.7700005      -1.25120785E-14
  -14.7600002      -7.40446048E-15
  -14.7500000       4.21499688E-15
  -14.7399998       2.10104761E-14
  -14.7299995       3.85144594E-14
  -14.7200003       4.93219764E-14
  -14.7100000       4.47162245E-14
  -14.6999998       1.77962215E-14
  -14.6899996      -3.24559512E-14
  -14.6800003      -9.74527330E-14
  -14.6700001      -1.57444126E-13
  -14.6599998      -1.83963481E-13
  -14.6499996      -1.47335635E-13
  -14.6400003      -2.86702933E-14
  -14.6300001       1.66456516E-13
  -14.6199999       3.97568561E-13
  -14.6099997       5.88140702E-13
  -14.6000004       6.38868624E-13
  -14.5900002       4.56991216E-13
  -14.5799999      -2.56001626E-15
  -14.5699997      -6.95307906E-13
  -14.5600004      -1.46136239E-12
  -14.5500002      -2.03356667E-12
  -14.5400000      -2.09232479E-12
  -14.5299997      -1.36687916E-12
  -14.5200005       2.35787708E-13
  -14.5100002       2.51261793E-12
  -14.5000000       4.90766759E-12
  -14.4899998       6.56608578E-12
  -14.4799995       6.52652411E-12
  -14.4700003       4.03812270E-12
  -14.4600000      -1.06529228E-12
  -14.4499998      -8.05105028E-12
  -14.4399996      -1.51764955E-11
  -14.4300003      -1.99059397E-11
  -14.4200001      -1.95089691E-11
  -14.4099998      -1.19732124E-11
  -14.3999996       2.97711140E-12
  -14.3900003       2.30854311E-11
  -14.3800001       4.33632991E-11
  -14.3699999       5.67869293E-11
  -14.3599997       5.59803939E-11
  -14.3500004       3.56582784E-11
  -14.3400002      -4.75119900E-12
  -14.3299999      -5.91531546E-11
  -14.3199997      -1.14421722E-10
  -14.3100004      -1.52313329E-10
  -14.3000002      -1.53799667E-10
  -14.2900000      -1.05181100E-10
  -14.2799997      -4.52025526E-12
  -14.2700005       1.33658612E-10
  -14.2600002       2.77549289E-10
  -14.2500000       3.82665427E-10
  -14.2399998       4.02100131E-10
  -14.2299995       3.00887176E-10
  -14.2200003       7.10800932E-11
  -14.2100000      -2.57104421E-10
  -14.1999998      -6.12864759E-10
  -14.1899996      -8.94520791E-10
  -14.1800003      -9.91880356E-10
  -14.1700001      -8.17930557E-10
  -14.1599998      -3.42625150E-10
  -14.1499996       3.81155857E-10
  -14.1400003       1.20971344E-09
  -14.1300001       1.92615168E-09
  -14.1199999       2.28511721E-09
  -14.1099997       2.07839013E-09
  -14.1000004       1.20707533E-09
  -14.0900002      -2.59550353E-10
  -14.0799999      -2.05954964E-09
  -14.0699997      -3.76425424E-09
  -14.0600004      -4.85967577E-09
  -14.0500002      -4.87331997E-09
  -14.0400000      -3.52056806E-09
  -14.0299997      -8.32887981E-10
  -14.0200005       2.77345169E-09
  -14.0100002       6.52192433E-09
  -14.0000000       9.40825018E-09
  -13.9899998       1.04280238E-08
  -13.9799995       8.85667806E-09
  -13.9700003       4.51473881E-09
  -13.9600000      -2.05921813E-09
  -13.9499998      -9.59629887E-09
  -13.9399996      -1.62838010E-08
  -13.9300003      -2.01412877E-08
  -13.9200001      -1.95224814E-08
  -13.9099998      -1.36313139E-08
  -13.8999996      -2.91381430E-09
  -13.8900003       1.08063833E-08
  -13.8800001       2.45372451E-08
  -13.8699999       3.46839144E-08
  -13.8599997       3.78874141E-08
  -13.8500004       3.19629692E-08
  -13.8400002       1.67039200E-08
  -13.8299999      -5.69048009E-09
  -13.8199997      -3.07487831E-08
  -13.8100004      -5.24904671E-08
  -13.8000002      -6.47288374E-08
  -13.7900000      -6.26619396E-08
  -13.7799997      -4.43768791E-08
  -13.7700005      -1.18494796E-08
  -13.7600002       2.89160607E-08
  -13.7500000       6.87926658E-08
  -13.7399998       9.74159420E-08
  -13.7299995       1.05708935E-07
  -13.7200003       8.84750122E-08
  -13.7100000       4.63744350E-08
  -13.6999998      -1.33460309E-08
  -13.6899996      -7.77656908E-08
  -13.6800003      -1.30858652E-07
  -13.6700001      -1.57285001E-07
  -13.6599998      -1.46569860E-07
  -13.6499996      -9.66001608E-08
  -13.6400003      -1.53884532E-08
  -13.6300001       7.96347592E-08
  -13.6199999       1.64976910E-07
  -13.6099997       2.16566917E-07
  -13.6000004       2.16185853E-07
  -13.5900002       1.57229977E-07
  -13.5799999       4.81356146E-08
  -13.5699997      -8.78085800E-08
  -13.5600004      -2.16732843E-07
  -13.5500002      -3.01961308E-07
  -13.5400000      -3.13668721E-07
  -13.5299997      -2.38049751E-07
  -13.5200005      -8.34273024E-08
  -13.5100002       1.18803172E-07
  -13.5000000       3.19385862E-07
  -13.4899998       4.62032403E-07
  -13.4799995       4.97726489E-07
  -13.4700003       3.99130272E-07
  -13.4600000       1.71228422E-07
  -13.4499998      -1.45173445E-07
  -13.4399996      -4.79022049E-07
  -13.4300003      -7.43430803E-07
  -13.4200001      -8.56327119E-07
  -13.4099998      -7.62737500E-07
  -13.3999996      -4.53090081E-07
  -13.3900003       2.77637167E-08
  -13.3800001       5.84357281E-07
  -13.3699999       1.08791335E-06
  -13.3599997       1.40441375E-06
  -13.3500004       1.42761269E-06
  -13.3400002       1.10922031E-06
  -13.3299999       4.78304457E-07
  -13.3199997      -3.56223723E-07
  -13.3100004      -1.22259291E-06
  -13.3000002      -1.92057223E-06
  -13.2900000      -2.26666180E-06
  -13.2799997      -2.14006764E-06
  -13.2700005      -1.51823156E-06
  -13.2600002      -4.92162940E-07
  -13.2500000       7.44153283E-07
  -13.2399998       1.93013420E-06
  -13.2299995       2.79426808E-06
  -13.2200003       3.11723852E-06
  -13.2100000       2.78778316E-06
  -13.1999998       1.83708551E-06
  -13.1899996       4.41581136E-07
  -13.1800003      -1.10899543E-06
  -13.1700001      -2.47316393E-06
  -13.1599998      -3.33596631E-06
  -13.1499996      -3.48591334E-06
  -13.1400003      -2.87151875E-06
  -13.1300001      -1.62197080E-06
  -13.1199999      -2.43209222E-08
  -13.1099997       1.54007603E-06
  -13.1000004       2.68664098E-06
  -13.0900002       3.12498742E-06
  -13.0799999       2.73828755E-06
  -13.0699997       1.62298068E-06
  -13.0600004       7.57255876E-08
  -13.0500002      -1.47294804E-06
  -13.0400000      -2.56513613E-06
  -13.0299997      -2.83763325E-06
  -13.0200005      -2.12898271E-06
  -13.0100002      -5.42267912E-07
  -13.0000000       1.55660382E-06
  -12.9899998       3.61041725E-06
  -12.9799995       4.99972566E-06
  -12.9700003       5.20138474E-06
  -12.9600000       3.93845494E-06
  -12.9499998       1.28227873E-06
  -12.9399996      -2.32369962E-06
  -12.9300003      -6.13164184E-06
  -12.9200001      -9.23995322E-06
  -12.9099998      -1.07968499E-05
  -12.8999996      -1.02112936E-05
  -12.8900003      -7.32036870E-06
  -12.8800001      -2.46901709E-06
  -12.8699999       3.52374627E-06
  -12.8599997       9.51223774E-06
  -12.8500004       1.42577737E-05
  -12.8400002       1.66987647E-05
  -12.8299999       1.61957360E-05
  -12.8199997       1.26924642E-05
  -12.8100004       6.75148794E-06
  -12.8000002      -5.49558365E-07
  -12.7900000      -7.84159147E-06
  -12.7799997      -1.37588413E-05
  -12.7700005      -1.72369291E-05
  -12.7600002      -1.77433358E-05
  -12.7500000      -1.53836663E-05
  -12.7399998      -1.08560671E-05
  -12.7299995      -5.26318036E-06
  -12.7200003       1.72748642E-07
  -12.7100000       4.41999100E-06
  -12.6999998       6.89222725E-06
  -12.6899996       7.57947009E-06
  -12.6800003       7.01654153E-06
  -12.6700001       6.09270319E-06
  -12.6599998       5.74964133E-06
  -12.6499996       6.64867548E-06
  -12.6400003       8.90232332E-06
  -12.6300001       1.19547840E-05
  -12.6199999       1.46615312E-05
  -12.6099997       1.55671132E-05
  -12.6000004       1.33246240E-05
  -12.5900002       7.15458054E-06
  -12.5799999      -2.78186872E-06
  -12.5699997      -1.52121493E-05
  -12.5600004      -2.78602456E-05
  -12.5500002      -3.78449367E-05
  -12.5400000      -4.23048295E-05
  -12.5299997      -3.91198992E-05
  -12.5200005      -2.75590810E-05
  -12.5100002      -8.68201823E-06
  -12.5000000       1.46348784E-05
  -12.4899998       3.80993770E-05
  -12.4799995       5.67837196E-05
  -12.4700003       6.61402883E-05
  -12.4600000       6.30385985E-05
  -12.4499998       4.65855483E-05
  -12.4399996       1.85220433E-05
  -12.4300003      -1.69278992E-05
  -12.4200001      -5.37609230E-05
  -12.4099998      -8.53286037E-05
  -12.3999996      -1.05672916E-04
  -12.3900003      -1.10774257E-04
  -12.3800001      -9.94290531E-05
  -12.3699999      -7.35454960E-05
  -12.3599997      -3.77716860E-05
  -12.3500004       1.47927437E-06
  -12.3400002       3.74009651E-05
  -12.3299999       6.42575105E-05
  -12.3199997       7.86050150E-05
  -12.3100004       7.99842528E-05
  -12.3000002       7.09157321E-05
  -12.2900000       5.61896959E-05
  -12.2799997       4.16112562E-05
  -12.2700005       3.24947359E-05
  -12.2600002       3.22689120E-05
  -12.2500000       4.15367795E-05
  -12.2399998       5.78324943E-05
  -12.2299995       7.61557749E-05
  -12.2200003       9.01774401E-05
  -12.2100000       9.38433877E-05
  -12.1999998       8.29985074E-05
  -12.1899996       5.66339404E-05
  -12.1800003       1.74373054E-05
  -12.1700001      -2.85195638E-05
  -12.1599998      -7.29218955E-05
  -12.1499996      -1.06952022E-04
  -12.1400003      -1.23249571E-04
  -12.1300001      -1.17649215E-04
  -12.1199999      -9.02905012E-05
  -12.1099997      -4.58252180E-05
  -12.1000004       7.35501089E-06
  -12.0900002       5.87302384E-05
  -12.0799999       9.77721138E-05
  -12.0699997       1.16122843E-04
  -12.0600004       1.09364541E-04
  -12.0500002       7.79938200E-05
  -12.0400000       2.73861551E-05
  -12.0299997      -3.32487725E-05
  -12.0200005      -9.27029614E-05
  -12.0100002      -1.40011107E-04
  -12.0000000      -1.66626516E-04
  -11.9899998      -1.68080136E-04
  -11.9799995      -1.44785721E-04
  -11.9700003      -1.01839847E-04
  -11.9600000      -4.78810362E-05
  -11.9499998       6.73148634E-06
  -11.9399996       5.20210888E-05
  -11.9300003       8.03327348E-05
  -11.9200001       8.77102138E-05
  -11.9099998       7.44475401E-05
  -11.8999996       4.47370403E-05
  -11.8900003       5.53489099E-06
  -11.8800001      -3.50705268E-05
  -11.8699999      -6.96054267E-05
  -11.8599997      -9.26832581E-05
  -11.8500004      -1.01894111E-04
  -11.8400002      -9.79502074E-05
  -11.8299999      -8.41067522E-05
  -11.8199997      -6.50464135E-05
  -11.8100004      -4.55344743E-05
  -11.8000002      -2.91925298E-05
  -11.7900000      -1.76932026E-05
  -11.7799997      -1.05596691E-05
  -11.7700005      -5.59177533E-06
  -11.7600002       2.23630678E-07
  -11.7500000       9.58544661E-06
  -11.7399998       2.38556859E-05
  -11.7299995       4.24330319E-05
  -11.7200003       6.27074187E-05
  -11.7100000       8.06247481E-05
  -11.6999998       9.17256693E-05
  -11.6899996       9.23910775E-05
  -11.6800003       8.09635385E-05
  -11.6700001       5.84356821E-05
  -11.6599998       2.84994803E-05
  -11.6499996      -3.09139182E-06
  -11.6400003      -2.97194638E-05
  -11.6300001      -4.53887478E-05
  -11.6199999      -4.61437048E-05
  -11.6099997      -3.10738942E-05
  -11.6000004      -2.64838309E-06
  -11.5900002       3.37196834E-05
  -11.5799999       7.07951694E-05
  -11.5699997       1.01081503E-04
  -11.5600004       1.18464712E-04
  -11.5500002       1.19563178E-04
  -11.5400000       1.04472128E-04
  -11.5299997       7.67319434E-05
  -11.5200005       4.25295584E-05
  -11.5100002       9.31970771E-06
  -11.5000000      -1.58157964E-05
  -11.4899998      -2.76955125E-05
  -11.4799995      -2.41097678E-05
  -11.4700003      -6.20462288E-06
  -11.4600000       2.18889927E-05
  -11.4499998       5.40721012E-05
  -11.4399996       8.36850813E-05
  -11.4300003       1.04967912E-04
  -11.4200001       1.14235889E-04
  -11.4099998       1.10514688E-04
  -11.3999996       9.55182913E-05
  -11.3900003       7.30169340E-05
  -11.3800001       4.77866088E-05
  -11.3699999       2.44231196E-05
  -11.3599997       6.31979265E-06
  -11.3500004      -4.95212771E-06
  -11.3400002      -9.73969691E-06
  -11.3299999      -9.90322860E-06
  -11.3199997      -8.06122898E-06
  -11.3100004      -6.71783937E-06
  -11.3000002      -7.51948528E-06
  -11.2900000      -1.08337235E-05
  -11.2799997      -1.57402355E-05
  -11.2700005      -2.04028365E-05
  -11.2600002      -2.26873635E-05
  -11.2500000      -2.08319052E-05
  -11.2399998      -1.39766489E-05
  -11.2299995      -2.41678072E-06
  -11.2200003       1.24673161E-05
  -11.2100000       2.85522365E-05
  -11.1999998       4.34635513E-05
  -11.1899996       5.50669574E-05
  -11.1800003       6.18286285E-05
  -11.1700001       6.29735368E-05
  -11.1599998       5.84446716E-05
  -11.1499996       4.87299731E-05
  -11.1400003       3.46558481E-05
  -11.1300001       1.72381679E-05
  -11.1199999      -2.36144456E-06
  -11.1099997      -2.27864984E-05
  -11.1000004      -4.24098107E-05
  -11.0900002      -5.93233999E-05
  -11.0799999      -7.14736088E-05
  -11.0699997      -7.69716789E-05
  -11.0600004      -7.45389989E-05
  -11.0500002      -6.39780628E-05
  -11.0400000      -4.65186567E-05
  -11.0299997      -2.48913802E-05
  -11.0200005      -3.03178581E-06
  -11.0100002       1.45914310E-05
  -11.0000000       2.39248038E-05
  -10.9899998       2.23614679E-05
  -10.9799995       9.60725538E-06
  -10.9700003      -1.18634507E-05
  -10.9600000      -3.69406225E-05
  -10.9499998      -5.86597271E-05
  -10.9399996      -6.95424023E-05
  -10.9300003      -6.32632728E-05
  -10.9200001      -3.63026375E-05
  -10.9099998       1.07958822E-05
  -10.8999996       7.29010717E-05
  -10.8900003       1.40716831E-04
  -10.8800001       2.02177413E-04
  -10.8699999       2.44625291E-04
  -10.8599997       2.57384061E-04
  -10.8500004       2.34207720E-04
  -10.8400002       1.75060442E-04
  -10.8299999       8.67747003E-05
  -10.8199997      -1.76574831E-05
  -10.8100004      -1.21123863E-04
  -10.8000002      -2.05427699E-04
  -10.7900000      -2.54743150E-04
  -10.7799997      -2.58785236E-04
  -10.7700005      -2.15016902E-04
  -10.7600002      -1.29397507E-04
  -10.7500000      -1.54805530E-05
  -10.7399998       1.07978783E-04
  -10.7299995       2.20425005E-04
  -10.7200003       3.03220440E-04
  -10.7100000       3.42936168E-04
  -10.6999998       3.33587057E-04
  -10.6899996       2.77431885E-04
  -10.6800003       1.84273871E-04
  -10.6700001       6.94992559E-05
  -10.6599998      -4.86895151E-05
  -10.6499996      -1.52294291E-04
  -10.6400003      -2.26275908E-04
  -10.6300001      -2.60650617E-04
  -10.6199999      -2.51707970E-04
  -10.6099997      -2.02292664E-04
  -10.6000004      -1.21214340E-04
  -10.5900002      -2.19151407E-05
  -10.5799999       7.94418447E-05
  -10.5699997       1.66278114E-04
  -10.5600004       2.24073694E-04
  -10.5500002       2.42722948E-04
  -10.5400000       2.18422938E-04
  -10.5299997       1.54719906E-04
  -10.5200005       6.23935775E-05
  -10.5100002      -4.19824573E-05
  -10.5000000      -1.38715099E-04
  -10.4899998      -2.08517013E-04
  -10.4799995      -2.36239881E-04
  -10.4700003      -2.14036496E-04
  -10.4600000      -1.43218262E-04
  -10.4499998      -3.43181455E-05
  -10.4399996       9.47378066E-05
  -10.4300003       2.22001327E-04
  -10.4200001       3.25689849E-04
  -10.4099998       3.88266490E-04
  -10.3999996       3.99527111E-04
  -10.3900003       3.58075427E-04
  -10.3800001       2.70987832E-04
  -10.3699999       1.51912624E-04
  -10.3599997       1.81948417E-05
  -10.3500004      -1.12231646E-04
  -10.3400002      -2.23514129E-04
  -10.3299999      -3.03688343E-04
  -10.3199997      -3.45522072E-04
  -10.3100004      -3.46576329E-04
  -10.3000002      -3.08813760E-04
  -10.2900000      -2.38063978E-04
  -10.2799997      -1.43498430E-04
  -10.2700005      -3.70615999E-05
  -10.2600002       6.73441100E-05
  -10.2500000       1.55137459E-04
  -10.2399998       2.12875006E-04
  -10.2299995       2.30425940E-04
  -10.2200003       2.03066040E-04
  -10.2100000       1.32902773E-04
  -10.1999998       2.90907137E-05
  -10.1899996      -9.34418567E-05
  -10.1800003      -2.16626911E-04
  -10.1700001      -3.22697655E-04
  -10.1599998      -3.97592608E-04
  -10.1499996      -4.33437002E-04
  -10.1400003      -4.29458654E-04
  -10.1300001      -3.91156791E-04
  -10.1199999      -3.28074268E-04
  -10.1099997      -2.50946323E-04
  -10.1000004      -1.69160252E-04
  -10.0900002      -8.92988974E-05
  -10.0799999      -1.51047916E-05
  -10.0699997       5.13520281E-05
  -10.0600004       1.07993394E-04
  -10.0500002       1.51439293E-04
  -10.0400000       1.76857109E-04
  -10.0299997       1.79248789E-04
  -10.0200005       1.55852380E-04
  -10.0100002       1.08783563E-04
  -10.0000000       4.67801947E-05
  -9.98999977      -1.49393154E-05
  -9.97999954      -5.71481396E-05
  -9.97000027      -6.10788993E-05
  -9.96000004      -1.37961151E-05
  -9.94999981       8.70837248E-05
  -9.93999958       2.30873135E-04
  -9.93000031       3.94529081E-04
  -9.92000008       5.46750845E-04
  -9.90999985       6.54619478E-04
  -9.89999962       6.91155088E-04
  -9.89000034       6.41844585E-04
  -9.88000011       5.08429657E-04
  -9.86999989       3.08983464E-04
  -9.85999966       7.43001583E-05
  -9.85000038      -1.58413604E-04
  -9.84000015      -3.52920702E-04
  -9.82999992      -4.80638322E-04
  -9.81999969      -5.25206444E-04
  -9.81000042      -4.84217890E-04
  -9.80000019      -3.68180830E-04
  -9.78999996      -1.97424350E-04
  -9.77999973       2.03057721E-06
  -9.77000046       2.02658106E-04
  -9.76000023       3.79009871E-04
  -9.75000000       5.10429265E-04
  -9.73999977       5.82939945E-04
  -9.72999954       5.90455136E-04
  -9.72000027       5.35357685E-04
  -9.71000004       4.28313448E-04
  -9.69999981       2.87050672E-04
  -9.68999958       1.33903595E-04
  -9.68000031      -7.79513994E-06
  -9.67000008      -1.17956661E-04
  -9.65999985      -1.83697543E-04
  -9.64999962      -2.01937044E-04
  -9.64000034      -1.79741721E-04
  -9.63000011      -1.32088084E-04
  -9.61999989      -7.74888249E-05
  -9.60999966      -3.26581830E-05
  -9.60000038      -7.80155915E-06
  -9.59000015      -4.01841953E-06
  -9.57999992      -1.36889257E-05
  -9.56999969      -2.37538679E-05
  -9.56000042      -2.08131987E-05
  -9.55000019       3.68659789E-06
  -9.53999996       4.99789712E-05
  -9.52999973       1.09456007E-04
  -9.52000046       1.67313381E-04
  -9.51000023       2.07446588E-04
  -9.50000000       2.17857800E-04
  -9.48999977       1.94625303E-04
  -9.47999954       1.42993347E-04
  -9.47000027       7.51929911E-05
  -9.46000004       5.82584244E-06
  -9.44999981      -5.34224382E-05
  -9.43999958      -9.76882657E-05
  -9.43000031      -1.29902808E-04
  -9.42000008      -1.58396142E-04
  -9.40999985      -1.92030857E-04
  -9.39999962      -2.34804524E-04
  -9.39000034      -2.82193854E-04
  -9.38000011      -3.20969295E-04
  -9.36999989      -3.32949450E-04
  -9.35999966      -3.01629363E-04
  -9.35000038      -2.19380716E-04
  -9.34000015      -9.24718770E-05
  -9.32999992       5.82791763E-05
  -9.31999969       2.01976509E-04
  -9.31000042       3.06178030E-04
  -9.30000019       3.46858025E-04
  -9.28999996       3.16452992E-04
  -9.27999973       2.27081589E-04
  -9.27000046       1.07531814E-04
  -9.26000023      -5.31170372E-06
  -9.25000000      -7.79793700E-05
  -9.23999977      -9.11272582E-05
  -9.22999954      -4.58410941E-05
  -9.22000027       3.66880849E-05
  -9.21000004       1.22149679E-04
  -9.19999981       1.74541798E-04
  -9.18999958       1.68286191E-04
  -9.18000031       9.69965040E-05
  -9.17000008      -2.40392019E-05
  -9.15999985      -1.62498851E-04
  -9.14999962      -2.79236381E-04
  -9.14000034      -3.40649072E-04
  -9.13000011      -3.29102681E-04
  -9.11999989      -2.48024327E-04
  -9.10999966      -1.20124991E-04
  -9.10000038       2.04491917E-05
  -9.09000015       1.39227457E-04
  -9.07999992       2.11979641E-04
  -9.06999969       2.31266837E-04
  -9.06000042       2.07023433E-04
  -9.05000019       1.61345175E-04
  -9.03999996       1.19635399E-04
  -9.02999973       1.01397454E-04
  -9.02000046       1.13889946E-04
  -9.01000023       1.50659180E-04
  -9.00000000       1.95108893E-04
  -8.98999977       2.27458528E-04
  -8.97999954       2.32330844E-04
  -8.97000027       2.04167241E-04
  -8.96000004       1.48659004E-04
  -8.94999981       7.99861227E-05
  -8.93999958       1.52404937E-05
  -8.93000031      -3.16198748E-05
  -8.92000008      -5.39280263E-05
  -8.90999985      -5.31276164E-05
  -8.89999962      -3.62434112E-05
  -8.89000034      -1.13697224E-05
  -8.88000011       1.66858372E-05
  -8.86999989       4.86009703E-05
  -8.85999966       8.95510020E-05
  -8.85000038       1.45417041E-04
  -8.84000015       2.17842418E-04
  -8.82999992       3.00397456E-04
  -8.81999969       3.77795252E-04
  -8.81000042       4.28961968E-04
  -8.80000019       4.33236244E-04
  -8.78999996       3.77651100E-04
  -8.77999973       2.62661750E-04
  -8.77000046       1.04080216E-04
  -8.76000023      -6.97628057E-05
  -8.75000000      -2.24942181E-04
  -8.73999977      -3.30807205E-04
  -8.72999954      -3.67954461E-04
  -8.72000027      -3.32781521E-04
  -8.71000004      -2.37313157E-04
  -8.69999981      -1.04642786E-04
  -8.68999958       3.81960926E-05
  -8.68000031       1.67366277E-04
  -8.67000008       2.67041440E-04
  -8.65999985       3.30658862E-04
  -8.64999962       3.58860416E-04
  -8.64000034       3.55658209E-04
  -8.63000011       3.24930967E-04
  -8.61999989       2.68994598E-04
  -8.60999966       1.89859144E-04
  -8.60000038       9.23786502E-05
  -8.59000015      -1.25739325E-05
  -8.57999992      -1.07022890E-04
  -8.56999969      -1.68284198E-04
  -8.56000042      -1.74767090E-04
  -8.55000019      -1.13500471E-04
  -8.53999996       1.33844051E-05
  -8.52999973       1.86036137E-04
  -8.52000046       3.69845657E-04
  -8.51000023       5.23778668E-04
  -8.50000000       6.11813273E-04
  -8.48999977       6.13828830E-04
  -8.47999954       5.32157603E-04
  -8.47000027       3.91282520E-04
  -8.46000004       2.30445992E-04
  -8.44999981       9.14438715E-05
  -8.43999958       5.68209225E-06
  -8.43000031      -1.50333844E-05
  -8.42000008       1.92696698E-05
  -8.40999985       8.22538714E-05
  -8.39999962       1.42509583E-04
  -8.39000034       1.76310845E-04
  -8.38000011       1.77050053E-04
  -8.36999989       1.57665709E-04
  -8.35999966       1.44962527E-04
  -8.35000038       1.67813865E-04
  -8.34000015       2.43686503E-04
  -8.32999992       3.68783774E-04
  -8.31999969       5.15978085E-04
  -8.31000042       6.41938590E-04
  -8.30000019       7.01423211E-04
  -8.28999996       6.63864834E-04
  -8.27999973       5.26214601E-04
  -8.27000046       3.17035679E-04
  -8.26000023       8.97641439E-05
  -8.25000000      -9.31206232E-05
  -8.23999977      -1.79922034E-04
  -8.22999954      -1.46813079E-04
  -8.22000027      -6.17638170E-06
  -8.21000004       1.96910318E-04
  -8.19999981       3.99067998E-04
  -8.18999958       5.39094966E-04
  -8.18000031       5.77558414E-04
  -8.17000008       5.08805271E-04
  -8.15999985       3.61354556E-04
  -8.14999962       1.86737700E-04
  -8.14000034       4.09252170E-05
  -8.13000011      -3.49487455E-05
  -8.11999989      -2.77195959E-05
  -8.10999966       4.53107423E-05
  -8.10000038       1.45043014E-04
  -8.09000015       2.26834207E-04
  -8.07999992       2.58015236E-04
  -8.06999969       2.30005040E-04
  -8.06000042       1.60516429E-04
  -8.05000019       8.52031226E-05
  -8.03999996       4.21805453E-05
  -8.02999973       5.56124032E-05
  -8.02000046       1.24927465E-04
  -8.01000023       2.24061689E-04
  -8.00000000       3.11219745E-04
  -7.98999977       3.45505076E-04
  -7.98000002       3.03973677E-04
  -7.96999979       1.92331616E-04
  -7.96000004       4.47908169E-05
  -7.94999981      -8.73041718E-05
  -7.94000006      -1.54110530E-04
  -7.92999983      -1.26273721E-04
  -7.92000008      -6.99131033E-06
  -7.90999985       1.67704318E-04
  -7.90000010       3.40964063E-04
  -7.88999987       4.55308822E-04
  -7.88000011       4.73649561E-04
  -7.86999989       3.93304974E-04
  -7.86000013       2.47626769E-04
  -7.84999990       9.43706036E-05
  -7.84000015      -5.11356029E-06
  -7.82999992      -8.30803219E-06
  -7.82000017       9.26974608E-05
  -7.80999994       2.67963595E-04
  -7.80000019       4.60254872E-04
  -7.78999996       6.05519628E-04
  -7.78000021       6.55714772E-04
  -7.76999998       5.95509890E-04
  -7.76000023       4.46715974E-04
  -7.75000000       2.58930464E-04
  -7.73999977       9.01209933E-05
  -7.73000002      -1.53040182E-05
  -7.71999979      -4.24487043E-05
  -7.71000004      -9.74216891E-06
  -7.69999981       4.08231172E-05
  -7.69000006       6.31283765E-05
  -7.67999983       2.82614237E-05
  -7.67000008      -6.09320232E-05
  -7.65999985      -1.68266037E-04
  -7.65000010      -2.36813474E-04
  -7.63999987      -2.11305640E-04
  -7.63000011      -6.18962149E-05
  -7.61999989       2.00055787E-04
  -7.61000013       5.20858855E-04
  -7.59999990       8.19359208E-04
  -7.59000015       1.01312075E-03
  -7.57999992       1.04676711E-03
  -7.57000017       9.12175339E-04
  -7.55999994       6.52867544E-04
  -7.55000019       3.50519549E-04
  -7.53999996       9.79653996E-05
  -7.53000021      -3.19360624E-05
  -7.51999998      -1.05730005E-05
  -7.51000023       1.37648211E-04
  -7.50000000       3.45147098E-04
  -7.48999977       5.26054821E-04
  -7.48000002       6.07165915E-04
  -7.46999979       5.53837104E-04
  -7.46000004       3.81616934E-04
  -7.44999981       1.49628147E-04
  -7.44000006      -6.16322868E-05