  -16.0000000       0.00000000    
  -15.9899998       0.00000000    
  -15.9799995       0.00000000    
  -15.9700003       0.00000000    
  -15.9600000       0.00000000    
  -15.9499998       0.00000000    
  -15.9399996       0.00000000    
  -15.9300003       0.00000000    
  -15.9200001       0.00000000    
  -15.9099998       0.00000000    
  -15.8999996       5.11263745E-41
  -15.8900003       9.93383284E-40
  -15.8800001       2.26863775E-38
  -15.8699999       4.05252153E-37
  -15.8599997       4.92402918E-36
  -15.8500004       4.36765200E-35
  -15.8400002       3.03229673E-34
  -15.8299999       1.73054368E-33
  -15.8199997       8.39842151E-33
  -15.8100004       3.54999705E-32
  -15.8000002       1.32990870E-31
  -15.7900000       4.47246495E-31
  -15.7799997       1.36312450E-30
  -15.7700005       3.79159069E-30
  -15.7600002       9.67255056E-30
  -15.7500000       2.27002802E-29
  -15.7399998       4.90719487E-29
  -15.7299995       9.76296440E-29
  -15.7200003       1.78118415E-28
  -15.7100000       2.95653550E-28
  -15.6999998       4.39501739E-28
  -15.6899996       5.65956614E-28
  -15.6800003       5.79499657E-28
  -15.6700001       3.23776798E-28
  -15.6599998      -3.97890073E-28
  -15.6499996      -1.74926632E-27
  -15.6400003      -3.72204412E-27
  -15.6300001      -5.94944951E-27
  -15.6199999      -7.54589444E-27
  -15.6099997      -7.10692801E-27
  -15.6000004      -3.03202618E-27
  -15.5900002       5.72707663E-27
  -15.5799999       1.85824183E-26
  -15.5699997       3.22940734E-26
  -15.5600004       4.07467488E-26
  -15.5500002       3.63392967E-26
  -15.5400000       1.34024463E-26
  -15.5299997      -2.70043759E-26
  -15.5200005      -7.30951427E-26
  -15.5100002      -1.02606947E-25
  -15.5000000      -9.05817177E-26
  -15.4899998      -2.52157401E-26
  -15.4799995       7.32433993E-26
  -15.4700003       1.42249790E-25
  -15.4600000       9.08447226E-26
  -15.4499998      -1.51324710E-25
  -15.4399996      -5.55526992E-25
  -15.4300003      -9.18899991E-25
  -15.4200001      -8.52715646E-25
  -15.4099998       9.91823846E-26
  -15.3999996       2.18001691E-24
  -15.3900003       5.03382793E-24
  -15.3800001       7.39206529E-24
  -15.3699999       7.11295683E-24
  -15.3599997       1.84646858E-24
  -15.3500004      -9.59901096E-24
  -15.3400002      -2.55147735E-23
  -15.3299999      -4.00007257E-23
  -15.3199997      -4.32924372E-23
  -15.3100004      -2.47163485E-23
  -15.3000002       2.16340638E-23
  -15.2900000       9.00405711E-23
  -15.2799997       1.58467982E-22
  -15.2700005       1.90336574E-22
  -15.2600002       1.45963602E-22
  -15.2500000       3.04299406E-24
  -15.2399998      -2.20442775E-22
  -15.2299995      -4.53224748E-22
  -15.2200003      -5.81691289E-22
  -15.2100000      -4.92664613E-22
  -15.1999998      -1.40710622E-22
  -15.1899996       3.87763682E-22
  -15.1800003       8.57302124E-22
  -15.1700001       9.54786955E-22
  -15.1599998       4.60358272E-22
  -15.1499996      -5.30392763E-22
  -15.1400003      -1.44980669E-21
  -15.1300001      -1.32389177E-21
  -15.1199999       8.17405048E-22
  -15.1099997       5.20237798E-21
  -15.1000004       1.04974050E-20
  -15.0900002       1.33856774E-20
  -15.0799999       9.12791140E-21
  -15.0699997      -6.49910234E-21
  -15.0600004      -3.40509772E-20
  -15.0500002      -6.70678235E-20
  -15.0400000      -9.03813597E-20
  -15.0299997      -8.22494634E-20
  -15.0200005      -2.17820857E-20
  -15.0100002       9.88730214E-20
  -15.0000000       2.61089763E-19
  -14.9899998       4.11491077E-19
  -14.9799995       4.66507945E-19
  -14.9700003       3.35340520E-19
  -14.9600000      -3.93587528E-20
  -14.9499998      -6.33242534E-19
  -14.9399996      -1.30421609E-18
  -14.9300003      -1.79312636E-18
  -14.9200001      -1.78074946E-18
  -14.9099998      -1.00324435E-18
  -14.8999996       5.99142065E-19
  -14.8900003       2.75404698E-18
  -14.8800001       4.81995372E-18
  -14.8699999       5.90041042E-18
  -14.8599997       5.12568670E-18
  -14.8500004       2.04571960E-18
  -14.8400002      -2.99980627E-18
  -14.8299999      -8.71627012E-18
  -14.8199997      -1.30564760E-17
  -14.8100004      -1.38463822E-17
  -14.8000002      -9.70975953E-18
  -14.7900000      -9.70800777E-19
  -14.7799997       9.90901824E-18
  -14.7700005       1.87593297E-17
  -14.7600002       2.11327044E-17
  -14.7500000       1.44357277E-17
  -14.7399998      -2.57031835E-20
  -14.7299995      -1.61683518E-17
  -14.7200003      -2.43853225E-17
  -14.7100000      -1.52439940E-17
  -14.6999998       1.51553021E-17
  -14.6899996       6.01352298E-17
  -14.6800003       1.00428911E-16
  -14.6700001       1.07650549E-16
  -14.6599998       5.41258520E-17
  -14.6499996      -7.27200218E-17
  -14.6400003      -2.56187206E-16
  -14.6300001      -4.43076370E-16
  -14.6199999      -5.49798075E-16
  -14.6099997      -4.84765055E-16
  -14.6000004      -1.83917799E-16
  -14.5900002       3.50745597E-16
  -14.5799999       1.02476820E-15
  -14.5699997       1.65214581E-15
  -14.5600004       1.99217088E-15
  -14.5500002       1.81842833E-15
  -14.5400000       1.00176766E-15
  -14.5299997      -4.21358128E-16
  -14.5200005      -2.22426384E-15
  -14.5100002      -4.02557406E-15
  -14.5000000      -5.37824883E-15
  -14.4899998      -5.88020987E-15
  -14.4799995      -5.26020632E-15
  -14.4700003      -3.40029984E-15
  -14.4600000      -2.89624017E-16
  -14.4499998       4.04621413E-15
  -14.4399996       9.55326618E-15
  -14.4300003       1.60035000E-14
  -14.4200001       2.26610384E-14
  -14.4099998       2.78474448E-14
  -14.3999996       2.86443063E-14
  -14.3900003       2.10824485E-14
  -14.3800001       1.15039494E-15
  -14.3699999      -3.32604360E-14
  -14.3599997      -7.97766258E-14
  -14.3500004      -1.29168174E-13
  -14.3400002      -1.64467506E-13
  -14.3299999      -1.62974411E-13
  -14.3199997      -1.02054880E-13
  -14.3100004       3.15285619E-14
  -14.3000002       2.30702420E-13
  -14.2900000       4.59270913E-13
  -14.2799997       6.49952423E-13
  -14.2700005       7.13624526E-13
  -14.2600002       5.61781849E-13
  -14.2500000       1.39926644E-13
  -14.2399998      -5.35727875E-13
  -14.2299995      -1.35063542E-12
  -14.2200003      -2.08783858E-12
  -14.2100000      -2.45933634E-12
  -14.1999998      -2.17669676E-12
  -14.1899996      -1.05185500E-12
  -14.1800003       8.95604337E-13
  -14.1700001       3.36012273E-12
  -14.1599998       5.73969604E-12
  -14.1499996       7.22297569E-12
  -14.1400003       6.98062571E-12
  -14.1300001       4.43393542E-12
  -14.1199999      -4.62436133E-13
  -14.1099997      -7.01357115E-12
  -14.1000004      -1.37484043E-11
  -14.0900002      -1.86246452E-11
  -14.0799999      -1.94872989E-11
  -14.0699997      -1.47142264E-11
  -14.0600004      -3.90007601E-12
  -14.0500002       1.16284499E-11
  -14.0400000       2.86814513E-11
  -14.0299997       4.26156298E-11
  -14.0200005       4.83160942E-11
  -14.0100002       4.16101563E-11
  -14.0000000       2.07991471E-11
  -13.9899998      -1.21285863E-11
  -13.9799995      -5.10595385E-11
  -13.9700003      -8.64314245E-11
  -13.9600000      -1.07113339E-10
  -13.9499998      -1.03239001E-10
  -13.9399996      -6.93943097E-11
  -13.9300003      -7.30957742E-12
  -13.9200001       7.28512320E-11
  -13.9099998       1.53313626E-10
  -13.8999996       2.11885468E-10
  -13.8900003       2.27149674E-10
  -13.8800001       1.84628854E-10
  -13.8699999       8.23909413E-11
  -13.8599997      -6.56046467E-11
  -13.8500004      -2.29843006E-10
  -13.8400002      -3.69954734E-10
  -13.8299999      -4.43385939E-10
  -13.8199997      -4.16457702E-10
  -13.8100004      -2.75262174E-10
  -13.8000002      -3.33867343E-11
  -13.7900000       2.66252131E-10
  -13.7799997       5.57095592E-10
  -13.7700005       7.62040375E-10
  -13.7600002       8.11812950E-10
  -13.7500000       6.64666600E-10
  -13.7399998       3.22373989E-10
  -13.7299995      -1.62418287E-10
  -13.7200003      -6.90969171E-10
  -13.7100000      -1.13621579E-09
  -13.6999998      -1.37107359E-09
  -13.6899996      -1.30155031E-09
  -13.6800003      -8.96693053E-10
  -13.6700001      -2.06878001E-10
  -13.6599998       6.36364350E-10
  -13.6499996       1.44197465E-09
  -13.6400003       2.00016159E-09
  -13.6300001       2.13454854E-09
  -13.6199999       1.75348969E-09
  -13.6099997       8.86622331E-10
  -13.6000004      -3.05522690E-10
  -13.5900002      -1.55564905E-09
  -13.5799999      -2.54619636E-09
  -13.5699997      -2.98773406E-09
  -13.5600004      -2.70107514E-09
  -13.5500002      -1.68101755E-09
  -13.5400000      -1.21294100E-10
  -13.5299997       1.61207470E-09
  -13.5200005       3.05933168E-09
  -13.5100002       3.78318088E-09
  -13.5000000       3.49552032E-09
  -13.4899998       2.16038432E-09
  -13.4799995       4.01919435E-11
  -13.4700003      -2.33656916E-09
  -13.4600000      -4.28906555E-09
  -13.4499998      -5.15927834E-09
  -13.4399996      -4.50794690E-09
  -13.4300003      -2.27834662E-09
  -13.4200001       1.12410603E-09
  -13.4099998       4.87253571E-09
  -13.3999996       7.88709187E-09
  -13.3900003       9.10370090E-09
  -13.3800001       7.78301068E-09
  -13.3699999       3.77894338E-09
  -13.3599997      -2.31461295E-09
  -13.3500004      -9.19890386E-09
  -13.3400002      -1.51058082E-08
  -13.3299999      -1.82002573E-08
  -13.3199997      -1.70658510E-08
  -13.3100004      -1.11556444E-08
  -13.3000002      -1.08294740E-09
  -13.2900000       1.13478604E-08
  -13.2799997       2.34155930E-08
  -13.2700005       3.20333271E-08
  -13.2600002       3.44730147E-08
  -13.2500000       2.91029973E-08
  -13.2399998       1.59544502E-08
  -13.2299995      -3.04662007E-09
  -13.2200003      -2.42821745E-08
  -13.2100000      -4.30848139E-08
  -13.1999998      -5.47189849E-08
  -13.1899996      -5.55056623E-08
  -13.1800003      -4.38383303E-08
  -13.1700001      -2.08346496E-08
  -13.1599998       9.57592761E-09
  -13.1499996       4.12195007E-08
  -13.1400003       6.68489832E-08
  -13.1300001       7.97216231E-08
  -13.1199999       7.52662572E-08
  -13.1099997       5.24620205E-08
  -13.1000004       1.45671430E-08
  -13.0900002      -3.10630064E-08
  -13.0799999      -7.41557429E-08
  -13.0699997      -1.03567430E-07
  -13.0600004      -1.09844954E-07
  -13.0500002      -8.77779982E-08
  -13.0400000      -3.83392162E-08
  -13.0299997       3.05422532E-08
  -13.0200005       1.04742533E-07
  -13.0100002       1.66306421E-07
  -13.0000000       1.97111092E-07
  -12.9899998       1.83173242E-07
  -12.9799995       1.18684277E-07
  -12.9700003       8.77863116E-09
  -12.9600000      -1.29814282E-07
  -12.9499998      -2.70710956E-07
  -12.9399996      -3.82338527E-07
  -12.9300003      -4.34245777E-07
  -12.9200001      -4.04049757E-07
  -12.9099998      -2.83496746E-07
  -12.8999996      -8.21313719E-08
  -12.8900003       1.72545853E-07
  -12.8800001       4.38849014E-07
  -12.8699999       6.68136011E-07
  -12.8599997       8.14162718E-07
  -12.8500004       8.42605971E-07
  -12.8400002       7.38599795E-07
  -12.8299999       5.10450604E-07
  -12.8199997       1.88497069E-07
  -12.8100004      -1.80799418E-07
  -12.8000002      -5.44269369E-07
  -12.7900000      -8.52764060E-07
  -12.7799997      -1.07058918E-06
  -12.7700005      -1.18127241E-06
  -12.7600002      -1.18817184E-06
  -12.7500000      -1.10976384E-06
  -12.7399998      -9.70896167E-07
  -12.7299995      -7.92481785E-07
  -12.7200003      -5.82692167E-07
  -12.7100000      -3.32487872E-07
  -12.6999998      -1.73100112E-08
  -12.6899996       3.94841123E-07
  -12.6800003       9.30483395E-07
  -12.6700001       1.59592275E-06
  -12.6599998       2.36453798E-06
  -12.6499996       3.16974115E-06
  -12.6400003       3.90616879E-06
  -12.6300001       4.43983936E-06
  -12.6199999       4.62595972E-06
  -12.6099997       4.33128253E-06
  -12.6000004       3.45688045E-06
  -12.5900002       1.95719349E-06
  -12.5799999      -1.47820288E-07
  -12.5699997      -2.76887499E-06
  -12.5600004      -5.75142894E-06
  -12.5500002      -8.88557588E-06
  -12.5400000      -1.19189099E-05
  -12.5299997      -1.45697259E-05
  -12.5200005      -1.65390666E-05
  -12.5100002      -1.75217701E-05
  -12.5000000      -1.72182208E-05
  -12.4899998      -1.53494257E-05
  -12.4799995      -1.16778165E-05
  -12.4700003      -6.03469061E-06
  -12.4600000       1.64707558E-06
  -12.4499998       1.12991829E-05
  -12.4399996       2.26892280E-05
  -12.4300003       3.54044096E-05
  -12.4200001       4.88541154E-05
  -12.4099998       6.22952357E-05
  -12.3999996       7.48802777E-05
  -12.3900003       8.57237756E-05
  -12.3800001       9.39789315E-05
  -12.3699999       9.89140026E-05
  -12.3599997       9.99779586E-05
  -12.3500004       9.68471431E-05
  -12.3400002       8.94484765E-05
  -12.3299999       7.79595139E-05
  -12.3199997       6.27895934E-05
  -12.3100004       4.45492005E-05
  -12.3000002       2.40145164E-05
  -12.2900000       2.09275959E-06
  -12.2799997      -2.02100273E-05
  -12.2700005      -4.18206400E-05
  -12.2600002      -6.16348407E-05
  -12.2500000      -7.85636512E-05
  -12.2399998      -9.15939308E-05
  -12.2299995      -9.98629330E-05
  -12.2200003      -1.02741207E-04
  -12.2100000      -9.99128388E-05
  -12.1999998      -9.14384800E-05
  -12.1899996      -7.77865425E-05
  -12.1800003      -5.98213592E-05
  -12.1700001      -3.87441141E-05
  -12.1599998      -1.59909905E-05
  -12.1499996       6.89830858E-06
  -12.1400003       2.84223443E-05
  -12.1300001       4.72483698E-05
  -12.1199999       6.23124652E-05
  -12.1099997       7.28772138E-05
  -12.1000004       7.85444281E-05
  -12.0900002       7.92302089E-05
  -12.0799999       7.51171101E-05
  -12.0699997       6.66015039E-05
  -12.0600004       5.42519010E-05
  -12.0500002       3.87875771E-05
  -12.0400000       2.10769795E-05
  -12.0299997       2.14589613E-06
  -12.0200005      -1.68215101E-05
  -12.0100002      -3.45074113E-05
  -12.0000000      -4.95251406E-05
  -11.9899998      -6.05287751E-05
  -11.9799995      -6.63594910E-05
  -11.9700003      -6.62079838E-05
  -11.9600000      -5.97635299E-05
  -11.9499998      -4.73172986E-05
  -11.9399996      -2.97927400E-05
  -11.9300003      -8.68750067E-06
  -11.9200001       1.40722723E-05
  -11.9099998       3.63472573E-05
  -11.8999996       5.60376757E-05
  -11.8900003       7.13335685E-05
  -11.8800001       8.09229823E-05
  -11.8699999       8.41267101E-05
  -11.8599997       8.09426783E-05
  -11.8500004       7.19994641E-05
  -11.8400002       5.84344962E-05
  -11.8299999       4.17232732E-05
  -11.8199997       2.34906020E-05
  -11.8100004       5.33270077E-06
  -11.8000002      -1.13285405E-05
  -11.7900000      -2.53481630E-05
  -11.7799997      -3.59167861E-05
  -11.7700005      -4.25819562E-05
  -11.7600002      -4.52421300E-05
  -11.7500000      -4.41223856E-05
  -11.7399998      -3.97372787E-05
  -11.7299995      -3.28416063E-05
  -11.7200003      -2.43665017E-05
  -11.7100000      -1.53377605E-05
  -11.6999998      -6.77619028E-06
  -11.6899996       4.14777105E-07
  -11.6800003       5.56245141E-06
  -11.6700001       8.32208934E-06
  -11.6599998       8.73862518E-06
  -11.6499996       7.25590780E-06
  -11.6400003       4.66331994E-06
  -11.6300001       1.98026214E-06
  -11.6199999       2.91211990E-07
  -11.6099997       5.55315125E-07
  -11.6000004       3.42230760E-06
  -11.5900002       9.08876063E-06
  -11.5799999       1.72242999E-05
  -11.5699997       2.69869524E-05
  -11.5600004       3.71313472E-05
  -11.5500002       4.61962009E-05
  -11.5400000       5.27413977E-05
  -11.5299997       5.55935694E-05
  -11.5200005       5.40549881E-05
  -11.5100002       4.80354101E-05
  -11.5000000       3.80800448E-05
  -11.4899998       2.52863938E-05
  -11.4799995       1.11252348E-05
  -11.4700003      -2.79932692E-06
  -11.4600000      -1.50026290E-05
  -11.4499998      -2.43346876E-05
  -11.4399996      -3.01167129E-05
  -11.4300003      -3.21766529E-05
  -11.4200001      -3.07859082E-05
  -11.4099998      -2.65230028E-05
  -11.3999996      -2.01064195E-05
  -11.3900003      -1.22435640E-05
  -11.3800001      -3.53408768E-06
  -11.3699999       5.55393126E-06
  -11.3599997       1.46415778E-05
  -11.3500004       2.33599803E-05
  -11.3400002       3.12771263E-05
  -11.3299999       3.78718942E-05
  -11.3199997       4.25805665E-05
  -11.3100004       4.49142790E-05
  -11.3000002       4.46172671E-05
  -11.2900000       4.18141899E-05
  -11.2799997       3.70890120E-05
  -11.2700005       3.14510216E-05
  -11.2600002       2.61736041E-05
  -11.2500000       2.25301919E-05
  -11.2399998       2.14875763E-05
  -11.2299995       2.34379931E-05
  -11.2200003       2.80498425E-05
  -11.2100000       3.42907442E-05
  -11.1999998       4.06323816E-05
  -11.1899996       4.53958310E-05
  -11.1800003       4.71542189E-05
  -11.1700001       4.50892912E-05
  -11.1599998       3.92070651E-05
  -11.1499996       3.03535708E-05
  -11.1400003       2.00253216E-05
  -11.1300001       1.00244024E-05
  -11.1199999       2.04932053E-06
  -11.1099997      -2.67255814E-06
  -11.1000004      -3.62093510E-06
  -11.0900002      -1.03767752E-06
  -11.0799999       4.19560001E-06
  -11.0699997       1.08061013E-05
  -11.0600004       1.74248453E-05
  -11.0500002       2.28472782E-05
  -11.0400000       2.62029462E-05
  -11.0299997       2.70175751E-05
  -11.0200005       2.51904730E-05
  -11.0100002       2.09350346E-05
  -11.0000000       1.47311330E-05
  -10.9899998       7.31550290E-06
  -10.9799995      -2.99723553E-07
  -10.9700003      -6.82409564E-06
  -10.9600000      -1.07608330E-05
  -10.9499998      -1.06001280E-05
  -10.9399996      -5.13940176E-06
  -10.9300003       6.12076337E-06
  -10.9200001       2.26093543E-05
  -10.9099998       4.24782957E-05
  -10.8999996       6.26747642E-05
  -10.8900003       7.93528889E-05
  -10.8800001       8.85946938E-05
  -10.8699999       8.73107711E-05
  -10.8599997       7.41141921E-05
  -10.8500004       4.99326525E-05
  -10.8400002       1.81593077E-05
  -10.8299999      -1.57618451E-05
  -10.8199997      -4.52845416E-05
  -10.8100004      -6.40720464E-05
  -10.8000002      -6.73942559E-05
  -10.7900000      -5.32896920E-05
  -10.7799997      -2.32075054E-05
  -10.7700005       1.80479583E-05
  -10.7600002       6.30933573E-05
  -10.7500000       1.03323749E-04
  -10.7399998       1.30579574E-04
  -10.7299995       1.38781848E-04
  -10.7200003       1.25200895E-04
  -10.7100000       9.11027091E-05
  -10.6999998       4.16476214E-05
  -10.6899996      -1.49348289E-05
  -10.6800003      -6.87337888E-05
  -10.6700001      -1.09849192E-04
  -10.6599998      -1.30086060E-04
  -10.6499996      -1.24361395E-04
  -10.6400003      -9.15940909E-05
  -10.6300001      -3.49404108E-05
  -10.6199999       3.86551110E-05
  -10.6099997       1.19517397E-04
  -10.6000004       1.96738722E-04
  -10.5900002       2.59881373E-04
  -10.5799999       3.00615182E-04
  -10.5699997       3.14024306E-04
  -10.5600004       2.99363805E-04
  -10.5500002       2.60131550E-04
  -10.5400000       2.03433723E-04
  -10.5299997       1.38746705E-04
  -10.5200005       7.62898853E-05
  -10.5100002       2.52998361E-05
  -10.5000000      -7.48318007E-06
  -10.4899998      -1.88476552E-05
  -10.4799995      -9.49052446E-06
  -10.4700003       1.62958368E-05
  -10.4600000       5.15339088E-05
  -10.4499998       8.78661886E-05
  -10.4399996       1.16996358E-04
  -10.4300003       1.32012196E-04
  -10.4200001       1.28392552E-04
  -10.4099998       1.04588151E-04
  -10.3999996       6.21560976E-05
  -10.3900003       5.49763990E-06
  -10.3800001      -5.87172108E-05
  -10.3699999      -1.22351732E-04
  -10.3599997      -1.76760092E-04
  -10.3500004      -2.13842301E-04
  -10.3400002      -2.27131648E-04
  -10.3299999      -2.12820218E-04
  -10.3199997      -1.70584928E-04
  -10.3100004      -1.04043575E-04
  -10.3000002      -2.06734276E-05
  -10.2900000       6.89173103E-05
  -10.2799997       1.52361143E-04
  -10.2700005       2.17393870E-04
  -10.2600002       2.53910839E-04
  -10.2500000       2.55823630E-04
  -10.2399998       2.22316390E-04
  -10.2299995       1.58193769E-04
  -10.2200003       7.31960317E-05
  -10.2100000      -1.96141445E-05
  -10.1999998      -1.06074156E-04
  -10.1899996      -1.73292123E-04
  -10.1800003      -2.11677150E-04
  -10.1700001      -2.16236775E-04
  -10.1599998      -1.86940248E-04
  -10.1499996      -1.28179541E-04
  -10.1400003      -4.75662309E-05
  -10.1300001       4.55728514E-05
  -10.1199999       1.41626733E-04
  -10.1099997       2.31779573E-04
  -10.1000004       3.08622257E-04
  -10.0900002       3.66353634E-04
  -10.0799999       4.00752207E-04
  -10.0699997       4.09135973E-04
  -10.0600004       3.90470144E-04
  -10.0500002       3.45657318E-04
  -10.0400000       2.77902989E-04
  -10.0299997       1.92946434E-04
  -10.0200005       9.89256223E-05
  -10.0100002       5.71819555E-06
  -10.0000000      -7.62510390E-05
  -9.98999977      -1.37570212E-04
  -9.97999954      -1.71455875E-04
  -9.97000027      -1.75046895E-04
  -9.96000004      -1.50041174E-04
  -9.94999981      -1.02479746E-04
  -9.93999958      -4.16829644E-05
  -9.93000031       2.14508927E-05
  -9.92000008       7.64224460E-05
  -9.90999985       1.14962320E-04
  -9.89999962       1.32342713E-04
  -9.89000034       1.27930456E-04
  -9.88000011       1.04925588E-04
  -9.86999989       6.94087867E-05
  -9.85999966       2.89535819E-05
  -9.85000038      -8.88174054E-06
  -9.84000015      -3.78854638E-05
  -9.82999992      -5.41271984E-05
  -9.81999969      -5.63841277E-05
  -9.81000042      -4.60540614E-05
  -9.80000019      -2.66348088E-05
  -9.78999996      -2.90184585E-06
  -9.77999973       2.00624509E-05
  -9.77000046       3.78347831E-05
  -9.76000023       4.74701592E-05
  -9.75000000       4.80526760E-05
  -9.73999977       4.08841443E-05
  -9.72999954       2.92599652E-05
  -9.72000027       1.78423270E-05
  -9.71000004       1.17159725E-05
  -9.69999981       1.52887824E-05
  -9.68999958       3.12561933E-05
  -9.68000031       5.98650622E-05
  -9.67000008       9.86728992E-05
  -9.65999985       1.42900957E-04
  -9.64999962       1.86343663E-04
  -9.64000034       2.22653034E-04
  -9.63000011       2.46707408E-04
  -9.61999989       2.55732477E-04
  -9.60999966       2.49887933E-04
  -9.60000038       2.32159684E-04
  -9.59000015       2.07575285E-04
  -9.57999992       1.81939336E-04
  -9.56999969       1.60416646E-04
  -9.56000042       1.46333972E-04
  -9.55000019       1.40509394E-04
  -9.53999996       1.41271536E-04
  -9.52999973       1.45136772E-04
  -9.52000046       1.47931336E-04
  -9.51000023       1.46028397E-04
  -9.50000000       1.37352647E-04
  -9.48999977       1.21890676E-04
  -9.47999954       1.01605103E-04
  -9.47000027       7.98326582E-05
  -9.46000004       6.03929511E-05
  -9.44999981       4.67003738E-05
  -9.43999958       4.11375077E-05
  -9.43000031       4.48299179E-05
  -9.42000008       5.78058316E-05
  -9.40999985       7.93839572E-05
  -9.39999962       1.08562148E-04
  -9.39000034       1.44203936E-04
  -9.38000011       1.84928271E-04
  -9.36999989       2.28760517E-04
  -9.35999966       2.72737932E-04
  -9.35000038       3.12725460E-04
  -9.34000015       3.43653839E-04
  -9.32999992       3.60251608E-04
  -9.31999969       3.58147285E-04
  -9.31000042       3.35045508E-04
  -9.30000019       2.91592645E-04
  -9.28999996       2.31593804E-04
  -9.27999973       1.61421020E-04
  -9.27000046       8.87091519E-05
  -9.26000023       2.06884852E-05
  -9.25000000      -3.73426374E-05
  -9.23999977      -8.29095516E-05
  -9.22999954      -1.16304727E-04
  -9.22000027      -1.39579788E-04
  -9.21000004      -1.54918453E-04
  -9.19999981      -1.62968616E-04
  -9.18999958      -1.61773612E-04
  -9.18000031      -1.46780789E-04
  -9.17000008      -1.12062073E-04
  -9.15999985      -5.24614334E-05
  -9.14999962       3.39739709E-05
  -9.14000034       1.44086895E-04
  -9.13000011       2.68938224E-04
  -9.11999989       3.94738483E-04
  -9.10999966       5.05263219E-04
  -9.10000038       5.85158181E-04
  -9.09000015       6.23235828E-04
  -9.07999992       6.14840013E-04
  -9.06999969       5.62625821E-04
  -9.06000042       4.75581881E-04
  -9.05000019       3.66656721E-04
  -9.03999996       2.49761069E-04
  -9.02999973       1.37062991E-04
  -9.02000046       3.73286566E-05
  -9.01000023      -4.43517310E-05
  -9.00000000      -1.05627572E-04
  -8.98999977      -1.45344136E-04
  -8.97999954      -1.62181226E-04
  -8.97000027      -1.54142996E-04
  -8.96000004      -1.19180113E-04
  -8.94999981      -5.67198767E-05
  -8.93999958       3.05514041E-05
  -8.93000031       1.35500610E-04
  -8.92000008       2.46660202E-04
  -8.90999985       3.49913986E-04
  -8.89999962       4.31452499E-04
  -8.89000034       4.81178315E-04
  -8.88000011       4.95485612E-04
  -8.86999989       4.78446367E-04
  -8.85999966       4.40892793E-04
  -8.85000038       3.97548429E-04
  -8.84000015       3.63000727E-04
  -8.82999992       3.47709254E-04
  -8.81999969       3.55259399E-04
  -8.81000042       3.81685561E-04
  -8.80000019       4.17033472E-04
  -8.78999996       4.48621722E-04
  -8.77999973       4.64939629E-04
  -8.77000046       4.58956696E-04
  -8.76000023       4.29865322E-04
  -8.75000000       3.82832804E-04
  -8.73999977       3.27011105E-04
  -8.72999954       2.72597652E-04
  -8.72000027       2.27982222E-04
  -8.71000004       1.97880538E-04
  -8.69999981       1.82918535E-04
  -8.68999958       1.80563817E-04
  -8.68000031       1.86824822E-04
  -8.67000008       1.97921865E-04
  -8.65999985       2.11251725E-04
  -8.64999962       2.25351105E-04
  -8.64000034       2.39050045E-04
  -8.63000011       2.50392390E-04
  -8.61999989       2.56023864E-04
  -8.60999966       2.51555670E-04
  -8.60000038       2.32975508E-04
  -8.59000015       1.98675261E-04
  -8.57999992       1.51298125E-04
  -8.56999969       9.85451406E-05
  -8.56000042       5.23644667E-05
  -8.55000019       2.64906903E-05
  -8.53999996       3.29151808E-05
  -8.52999973       7.83219220E-05
  -8.52000046       1.61638876E-04
  -8.51000023       2.73569894E-04
  -8.50000000       3.98371834E-04
  -8.48999977       5.17428678E-04
  -8.47999954       6.13591750E-04
  -8.47000027       6.75009680E-04
  -8.46000004       6.97349547E-04
  -8.44999981       6.83846127E-04
  -8.43999958       6.43328065E-04
  -8.43000031       5.87003073E-04
  -8.42000008       5.25125011E-04
  -8.40999985       4.64611774E-04
  -8.39999962       4.08260588E-04
  -8.39000034       3.55592638E-04
  -8.38000011       3.04773595E-04
  -8.36999989       2.54716258E-04
  -8.35999966       2.06486104E-04
  -8.35000038       1.63479126E-04
  -8.34000015       1.30375687E-04
  -8.32999992       1.11379617E-04
  -8.31999969       1.08536995E-04
  -8.31000042       1.20884448E-04
  -8.30000019       1.44825579E-04
  -8.28999996       1.75618479E-04
  -8.27999973       2.09384743E-04
  -8.27000046       2.44804134E-04
  -8.26000023       2.83744681E-04
  -8.25000000       3.30468902E-04
  -8.23999977       3.89605295E-04
  -8.22999954       4.63581702E-04
  -8.22000027       5.50476892E-04
  -8.21000004       6.43166248E-04
  -8.19999981       7.30227213E-04
  -8.18999958       7.98465742E-04
  -8.18000031       8.36355030E-04
  -8.17000008       8.37325177E-04
  -8.15999985       8.01846443E-04
  -8.14999962       7.37610972E-04
  -8.14000034       6.57714147E-04
  -8.13000011       5.77362138E-04
  -8.11999989       5.10091602E-04
  -8.10999966       4.64617420E-04
  -8.10000038       4.43194236E-04
  -8.09000015       4.41884389E-04
  -8.07999992       4.52519598E-04
  -8.06999969       4.65644116E-04
  -8.06000042       4.73475462E-04
  -8.05000019       4.71989828E-04
  -8.03999996       4.61582473E-04
  -8.02999973       4.46247781E-04
  -8.02000046       4.31695866E-04
  -8.01000023       4.23121906E-04
  -8.00000000       4.23395395E-04
  -7.98999977       4.32239351E-04
  -7.98000002       4.46605060E-04
  -7.96999979       4.62044409E-04
  -7.96000004       4.74570843E-04
  -7.94999981       4.82373551E-04
  -7.94000006       4.86813020E-04
  -7.92999983       4.92369290E-04
  -7.92000008       5.05536678E-04
  -7.90999985       5.32964652E-04
  -7.90000010       5.79354994E-04
  -7.88999987       6.45687454E-04
  -7.88000011       7.28255312E-04
  -7.86999989       8.18787201E-04
  -7.86000013       9.05656896E-04
  -7.84999990       9.75929899E-04
  -7.84000015       1.01779425E-03
  -7.82999992       1.02284120E-03
  -7.82000017       9.87701816E-04
  -7.80999994       9.14698350E-04
  -7.80000019       8.11402628E-04
  -7.78999996       6.89245528E-04
  -7.78000021       5.61536406E-04
  -7.76999998       4.41369804E-04
  -7.76000023       3.39885009E-04
  -7.75000000       2.65208306E-04
  -7.73999977       2.22179719E-04
  -7.73000002       2.12721279E-04
  -7.71999979       2.36522348E-04
  -7.71000004       2.91653181E-04
  -7.69999981       3.74806055E-04
  -7.69000006       4.81075927E-04
  -7.67999983       6.03452499E-04
  -7.67000008       7.32401269E-04
  -7.65999985       8.55985214E-04
  -7.65000010       9.60859121E-04
  -7.63999987       1.03418797E-03
  -7.63000011       1.06617960E-03
  -7.61999989       1.05260022E-03
  -7.61000013       9.96502233E-04
  -7.59999990       9.08493064E-04
  -7.59000015       8.05216318E-04
  -7.57999992       7.06227729E-04
  -7.57000017       6.29944552E-04
  -7.55999994       5.89686737E-04
  -7.55000019       5.90873649E-04
  -7.53999996       6.30158815E-04
  -7.53000021       6.96758623E-04
  -7.51999998       7.75592343E-04
  -7.51000023       8.51327437E-04
  -7.50000000       9.12172371E-04
  -7.48999977       9.52351838E-04
  -7.48000002       9.72634298E-04
  -7.46999979       9.78890690E-04
  -7.46000004       9.79276840E-04
  -7.44999981       9.81031219E-04
  -7.44000006       9.87949083E-04