  -16.0000000       0.00000000    
  -15.9899998       0.00000000    
  -15.9799995       0.00000000    
  -15.9700003       0.00000000    
  -15.9600000       0.00000000    
  -15.9499998       0.00000000    
  -15.9399996       0.00000000    
  -15.9300003       0.00000000    
  -15.9200001       0.00000000    
  -15.9099998       0.00000000    
  -15.8999996       0.00000000    
  -15.8900003       4.49787122E-37
  -15.8800001       8.74189550E-36
  -15.8699999       9.08286921E-35
  -15.8599997       6.76402592E-34
  -15.8500004       4.03587912E-33
  -15.8400002       2.02457816E-32
  -15.8299999       8.71366162E-32
  -15.8199997       3.24441331E-31
  -15.8100004       1.04798152E-30
  -15.8000002       2.93191049E-30
  -15.7900000       7.04339815E-30
  -15.7799997       1.41878128E-29
  -15.7700005       2.24241982E-29
  -15.7600002       2.12899067E-29
  -15.7500000      -1.76066093E-29
  -15.7399998      -1.49563591E-28
  -15.7299995      -4.52259340E-28
  -15.7200003      -9.83047029E-28
  -15.7100000      -1.66865382E-27
  -15.6999998      -2.11936110E-27
  -15.6899996      -1.43194384E-27
  -15.6800003       1.82156438E-27
  -15.6700001       9.07156992E-27
  -15.6599998       2.03182374E-26
  -15.6499996       3.17492633E-26
  -15.6400003       3.33265475E-26
  -15.6300001       8.82209112E-27
  -15.6199999      -5.77746936E-26
  -15.6099997      -1.66031407E-25
  -15.6000004      -2.74585422E-25
  -15.5900002      -2.81309697E-25
  -15.5799999      -3.64963940E-26
  -15.5699997       5.73337105E-25
  -15.5600004       1.45004181E-24
  -15.5500002       2.06057825E-24
  -15.5400000       1.32766986E-24
  -15.5299997      -2.07491954E-24
  -15.5200005      -8.70749006E-24
  -15.5100002      -1.65723031E-23
  -15.5000000      -1.91761799E-23
  -15.4899998      -5.14333326E-24
  -15.4799995       3.79787301E-23
  -15.4700003       1.13285866E-22
  -15.4600000       1.97740065E-22
  -15.4499998       2.25424463E-22
  -15.4399996       8.56961248E-23
  -15.4300003      -3.42247468E-22
  -15.4200001      -1.09989485E-21
  -15.4099998      -2.00850540E-21
  -15.3999996      -2.52602481E-21
  -15.3900003      -1.71257992E-21
  -15.3800001       1.53698983E-21
  -15.3699999       7.85271232E-21
  -15.3599997       1.63424345E-20
  -15.3500004       2.34378347E-20
  -15.3400002       2.23416394E-20
  -15.3299999       4.13143758E-21
  -15.3199997      -3.84411575E-20
  -15.3100004      -1.04157180E-19
  -15.3000002      -1.74937623E-19
  -15.2900000      -2.09724575E-19
  -15.2799997      -1.46931045E-19
  -15.2700005       7.74757460E-20
  -15.2600002       4.92129037E-19
  -15.2500000       1.03681589E-18
  -15.2399998       1.51112518E-18
  -15.2299995       1.55826962E-18
  -15.2200003       7.26906832E-19
  -15.2100000      -1.35293589E-18
  -15.1999998      -4.67758477E-18
  -15.1899996      -8.52404658E-18
  -15.1800003      -1.12004573E-17
  -15.1700001      -1.01193041E-17
  -15.1599998      -2.43649668E-18
  -15.1499996       1.36054709E-17
  -15.1400003       3.67619578E-17
  -15.1300001       6.08537718E-17
  -15.1199999       7.38475484E-17
  -15.1099997       5.92882035E-17
  -15.1000004       1.26721475E-18
  -15.0900002      -1.06797666E-16
  -15.0799999      -2.51076792E-16
  -15.0699997      -3.87843496E-16
  -15.0600004      -4.41750578E-16
  -15.0500002      -3.18847289E-16
  -15.0400000       6.08109702E-17
  -15.0299997       7.12339621E-16
  -15.0200005       1.52857641E-15
  -15.0100002       2.23959429E-15
  -15.0000000       2.42181649E-15
  -14.9899998       1.58882279E-15
  -14.9799995      -6.20846563E-16
  -14.9700003      -4.17982977E-15
  -14.9600000      -8.40460649E-15
  -14.9499998      -1.18098543E-14
  -14.9399996      -1.22383581E-14
  -14.9300003      -7.39518039E-15
  -14.9200001       4.18832720E-15
  -14.9099998       2.19190595E-14
  -14.8999996       4.20245402E-14
  -14.8900003       5.71427332E-14
  -14.8800001       5.72659189E-14
  -14.8699999       3.24816976E-14
  -14.8599997      -2.25789744E-14
  -14.8500004      -1.03499403E-13
  -14.8400002      -1.91870825E-13
  -14.8299999      -2.54606259E-13
  -14.8199997      -2.49204113E-13
  -14.8100004      -1.36230884E-13
  -14.8000002       1.02098478E-13
  -14.7900000       4.41644171E-13
  -14.7799997       8.02019096E-13
  -14.7700005       1.04765946E-12
  -14.7600002       1.01248046E-12
  -14.7500000       5.50922047E-13
  -14.7399998      -3.91308595E-13
  -14.7299995      -1.70525096E-12
  -14.7200003      -3.07422404E-12
  -14.7100000      -3.98945373E-12
  -14.6999998      -3.85075912E-12
  -14.6899996      -2.15567213E-12
  -14.6800003       1.25346012E-12
  -14.6700001       5.95313122E-12
  -14.6599998       1.08113032E-11
  -14.6499996       1.40719467E-11
  -14.6400003       1.37207017E-11
  -14.6300001       8.12426081E-12
  -14.6199999      -3.17323663E-12
  -14.6099997      -1.87273860E-11
  -14.6000004      -3.48514273E-11
  -14.5900002      -4.59550072E-11
  -14.5799999      -4.57396482E-11
  -14.5699997      -2.91821949E-11
  -14.5600004       5.08543901E-12
  -14.5500002       5.27043478E-11
  -14.5400000       1.02710035E-10
  -14.5299997       1.38659501E-10
  -14.5200005       1.42177478E-10
  -14.5100002       9.86255799E-11
  -14.5000000       3.71759004E-12
  -14.4899998      -1.30890535E-10
  -14.4799995      -2.75398815E-10
  -14.4700003      -3.85106197E-10
  -14.4600000      -4.10005807E-10
  -14.4499998      -3.09753390E-10
  -14.4399996      -7.08076167E-11
  -14.4300003       2.79344575E-10
  -14.4200001       6.66743161E-10
  -14.4099998       9.79169634E-10
  -14.3999996       1.08990827E-09
  -14.3900003       8.94313512E-10
  -14.3800001       3.51223134E-10
  -14.3699999      -4.82921869E-10
  -14.3599997      -1.44082257E-09
  -14.3500004      -2.26281260E-09
  -14.3400002      -2.65084799E-09
  -14.3299999      -2.35121100E-09
  -14.3199997      -1.24776689E-09
  -14.3100004       5.61140134E-10
  -14.3000002       2.73143552E-09
  -14.2900000       4.71053552E-09
  -14.2799997       5.85017412E-09
  -14.2700005       5.57972557E-09
  -14.2600002       3.60165187E-09
  -14.2500000       5.36359256E-11
  -14.2399998      -4.42169901E-09
  -14.2299995      -8.74437589E-09
  -14.2200003      -1.16148859E-08
  -14.2100000      -1.18513039E-08
  -14.1999998      -8.77027961E-09
  -14.1899996      -2.50532040E-09
  -14.1800003       5.84922377E-09
  -14.1700001       1.43511780E-08
  -14.1599998       2.06022985E-08
  -14.1499996       2.23596182E-08
  -14.1400003       1.82273379E-08
  -14.1300001       8.23678814E-09
  -14.1199999      -5.88303184E-09
  -14.1099997      -2.08870325E-08
  -14.1000004      -3.26807523E-08
  -14.0900002      -3.73643125E-08
  -14.0799999      -3.24105471E-08
  -14.0699997      -1.76483450E-08
  -14.0600004       4.27933511E-09
  -14.0500002       2.82138899E-08
  -14.0400000       4.75796860E-08
  -14.0299997       5.60921123E-08
  -14.0200005       4.96670047E-08
  -14.0100002       2.79920229E-08
  -14.0000000      -4.76951767E-09
  -13.9899998      -4.04996747E-08
  -13.9799995      -6.89201727E-08
  -13.9700003      -8.03324056E-08
  -13.9600000      -6.86368082E-08
  -13.9499998      -3.37703945E-08
  -13.9399996       1.72660659E-08
  -13.9300003       7.13345756E-08
  -13.9200001       1.12088401E-07
  -13.9099998       1.24362600E-07
  -13.8999996       9.89636604E-08
  -13.8900003       3.65029322E-08
  -13.8800001      -5.10207201E-08
  -13.8699999      -1.41733537E-07
  -13.8599997      -2.08572374E-07
  -13.8500004      -2.26310306E-07
  -13.8400002      -1.79278814E-07
  -13.8299999      -6.76788545E-08
  -13.8199997       8.95598617E-08
  -13.8100004       2.56754248E-07
  -13.8000002       3.88513769E-07
  -13.7900000       4.40706827E-07
  -13.7799997       3.82927539E-07
  -13.7700005       2.09256029E-07
  -13.7600002      -5.59075026E-08
  -13.7500000      -3.59290823E-07
  -13.7399998      -6.28203111E-07
  -13.7299995      -7.86659143E-07
  -13.7200003      -7.74855550E-07
  -13.7100000      -5.67313407E-07
  -13.6999998      -1.84701491E-07
  -13.6899996       3.04658982E-07
  -13.6800003       7.95432300E-07
  -13.6700001       1.16692593E-06
  -13.6599998       1.31161914E-06
  -13.6499996       1.16407864E-06
  -13.6400003       7.22849222E-07
  -13.6300001       5.88003353E-08
  -13.6199999      -6.93893298E-07
  -13.6099997      -1.36392794E-06
  -13.6000004      -1.78153334E-06
  -13.5900002      -1.82116571E-06
  -13.5799999      -1.43773764E-06
  -13.5699997      -6.86345629E-07
  -13.5600004       2.81425059E-07
  -13.5500002       1.24624762E-06
  -13.5400000       1.97016470E-06
  -13.5299997       2.25554459E-06
  -13.5200005       1.99963119E-06
  -13.5100002       1.23001109E-06
  -13.5000000       1.09701134E-07
  -13.4899998      -1.09270525E-06
  -13.4799995      -2.06369873E-06
  -13.4700003      -2.52360928E-06
  -13.4600000      -2.30456590E-06
  -13.4499998      -1.40690668E-06
  -13.4399996      -1.67090377E-08
  -13.4300003       1.52448229E-06
  -13.4200001       2.79493770E-06
  -13.4099998       3.39797884E-06
  -13.3999996       3.07247024E-06
  -13.3900003       1.77974164E-06
  -13.3800001      -2.58837758E-07
  -13.3699999      -2.58918817E-06
  -13.3599997      -4.61685067E-06
  -13.3500004      -5.74727255E-06
  -13.3400002      -5.54250573E-06
  -13.3299999      -3.85506019E-06
  -13.3199997      -9.01441183E-07
  -13.3100004       2.75030334E-06
  -13.3000002       6.28496264E-06
  -13.2900000       8.81913093E-06
  -13.2799997       9.61635760E-06
  -13.2700005       8.28692191E-06
  -13.2600002       4.91962419E-06
  -13.2500000       1.05532152E-07
  -13.2399998      -5.16240061E-06
  -13.2299995      -9.69947905E-06
  -13.2200003      -1.24053986E-05
  -13.2100000      -1.25418210E-05
  -13.1999998      -9.94091533E-06
  -13.1899996      -5.08613357E-06
  -13.1800003       9.65644290E-07
  -13.1700001       6.81318215E-06
  -13.1599998       1.10442097E-05
  -13.1499996       1.25952092E-05
  -13.1400003       1.10466399E-05
  -13.1300001       6.77173739E-06
  -13.1199999       8.88256920E-07
  -13.1099997      -4.99043108E-06
  -13.1000004      -9.15635701E-06
  -13.0900002      -1.02674867E-05
  -13.0799999      -7.75117769E-06
  -13.0699997      -2.03820491E-06
  -13.0600004       5.45124294E-06
  -13.0500002       1.25907636E-05
  -13.0400000       1.70530348E-05
  -13.0299997       1.69273681E-05
  -13.0200005       1.12993603E-05
  -13.0100002       6.36803577E-07
  -13.0000000      -1.31401048E-05
  -12.9899998      -2.69578886E-05
  -12.9799995      -3.72230897E-05
  -12.9700003      -4.06660656E-05
  -12.9600000      -3.52057177E-05
  -12.9499998      -2.06210570E-05
  -12.9399996       1.15775026E-06
  -12.9300003       2.62501744E-05
  -12.9200001       4.95187160E-05
  -12.9099998       6.56347693E-05
  -12.8999996       7.02950492E-05
  -12.8900003       6.13104567E-05
  -12.8800001       3.92966140E-05
  -12.8699999       7.76884008E-06
  -12.8599997      -2.74277591E-05
  -12.8500004      -5.92684337E-05
  -12.8400002      -8.10493439E-05
  -12.8299999      -8.79089421E-05
  -12.8199997      -7.80133778E-05
  -12.8100004      -5.31063997E-05
  -12.8000002      -1.82577387E-05
  -12.7900000       1.91744330E-05
  -12.7799997       5.11618164E-05
  -12.7700005       7.08490625E-05
  -12.7600002       7.41916592E-05
  -12.7500000       6.09852214E-05
  -12.7399998       3.50083792E-05
  -12.7299995       3.20209028E-06
  -12.7200003      -2.59612170E-05
  -12.7100000      -4.45591286E-05
  -12.6999998      -4.72617758E-05
  -12.6899996      -3.28282622E-05
  -12.6800003      -4.65530729E-06
  -12.6700001       2.98139148E-05
  -12.6599998       6.07435941E-05
  -12.6499996       7.82788702E-05
  -12.6400003       7.50984400E-05
  -12.6300001       4.85278288E-05
  -12.6199999       1.66316499E-06
  -12.6099997      -5.68387914E-05
  -12.6000004      -1.14347204E-04
  -12.5900002      -1.56933456E-04
  -12.5799999      -1.72570741E-04
  -12.5699997      -1.54130510E-04
  -12.5600004      -1.01454076E-04
  -12.5500002      -2.19547437E-05
  -12.5400000       7.04788035E-05
  -12.5299997       1.58120747E-04
  -12.5200005       2.23063224E-04
  -12.5100002       2.51101446E-04
  -12.5000000       2.34973413E-04
  -12.4899998       1.76191155E-04
  -12.4799995       8.49961871E-05
  -12.4700003      -2.16124190E-05
  -12.4600000      -1.23386431E-04
  -12.4499998      -2.01117145E-04
  -12.4399996      -2.40748355E-04
  -12.4300003      -2.36375854E-04
  -12.4200001      -1.91434578E-04
  -12.4099998      -1.17782292E-04
  -12.3999996      -3.28744936E-05
  -12.3900003       4.43249519E-05
  -12.3800001       9.77473901E-05
  -12.3699999       1.17901342E-04
  -12.3599997       1.03956023E-04
  -12.3500004       6.37218618E-05
  -12.3400002       1.15223993E-05
  -12.3299999      -3.55392731E-05
  -12.3199997      -6.20195133E-05
  -12.3100004      -5.81934582E-05
  -12.3000002      -2.27237124E-05
  -12.2900000       3.67501161E-05
  -12.2799997       1.05293169E-04
  -12.2700005       1.64266021E-04
  -12.2600002       1.95983317E-04
  -12.2500000       1.88314618E-04
  -12.2399998       1.38085539E-04
  -12.2299995       5.23982235E-05
  -12.2200003      -5.25252726E-05
  -12.2100000      -1.54781083E-04
  -12.1999998      -2.31745202E-04
  -12.1899996      -2.65407783E-04
  -12.1800003      -2.46804004E-04
  -12.1700001      -1.78445916E-04
  -12.1599998      -7.41086988E-05
  -12.1499996       4.40573094E-05
  -12.1400003       1.50475826E-04
  -12.1300001       2.22031944E-04
  -12.1199999       2.43518924E-04
  -12.1099997       2.11334729E-04
  -12.1000004       1.34502785E-04
  -12.0900002       3.27065645E-05
  -12.0799999      -6.82681421E-05
  -12.0699997      -1.42659788E-04
  -12.0600004      -1.71004023E-04
  -12.0500002      -1.45057042E-04
  -12.0400000      -7.01565805E-05
  -12.0299997       3.56166529E-05
  -12.0200005       1.45371640E-04
  -12.0100002       2.29593628E-04
  -12.0000000       2.63188122E-04
  -11.9899998       2.31745973E-04
  -11.9799995       1.35531023E-04
  -11.9700003      -9.81663015E-06
  -11.9600000      -1.76130139E-04
  -11.9499998      -3.28568625E-04
  -11.9399996      -4.33215115E-04
  -11.9300003      -4.64730343E-04
  -11.9200001      -4.12319845E-04
  -11.9099998      -2.82621273E-04
  -11.8999996      -9.87901076E-05
  -11.8900003       1.04088613E-04
  -11.8800001       2.86303431E-04
  -11.8699999       4.11950576E-04
  -11.8599997       4.56642010E-04
  -11.8500004       4.12774185E-04
  -11.8400002       2.91174802E-04
  -11.8299999       1.18747172E-04
  -11.8199997      -6.73811010E-05
  -11.8100004      -2.27918325E-04
  -11.8000002      -3.29901202E-04
  -11.7900000      -3.53750365E-04
  -11.7799997      -2.97344726E-04
  -11.7700005      -1.76238085E-04
  -11.7600002      -2.00027625E-05
  -11.7500000       1.34461239E-04
  -11.7399998       2.51148624E-04
  -11.7299995       3.02880333E-04
  -11.7200003       2.77208397E-04
  -11.7100000       1.79029958E-04
  -11.6999998       2.93869125E-05
  -11.6899996      -1.39226395E-04
  -11.6800003      -2.89969146E-04
  -11.6700001      -3.89591587E-04
  -11.6599998      -4.15477873E-04
  -11.6499996      -3.60304053E-04
  -11.6400003      -2.33375409E-04
  -11.6300001      -5.84487279E-05
  -11.6199999       1.31397406E-04
  -11.6099997       3.00671934E-04
  -11.6000004       4.18654265E-04
  -11.5900002       4.65348508E-04
  -11.5799999       4.35030903E-04
  -11.5699997       3.36770841E-04
  -11.5600004       1.91967731E-04
  -11.5500002       2.95619939E-05
  -11.5400000      -1.19980410E-04
  -11.5299997      -2.30625970E-04
  -11.5200005      -2.85485468E-04
  -11.5100002      -2.79425905E-04
  -11.5000000      -2.19213485E-04
  -11.4899998      -1.21341858E-04
  -11.4799995      -8.14692066E-06
  -11.4700003       9.69024768E-05
  -11.4600000       1.73765773E-04
  -11.4499998       2.09388309E-04
  -11.4399996       1.99672184E-04
  -11.4300003       1.49632193E-04
  -11.4200001       7.18676674E-05
  -11.4099998      -1.62272991E-05
  -11.3999996      -9.59130775E-05
  -11.3900003      -1.50561726E-04
  -11.3800001      -1.68539074E-04
  -11.3699999      -1.45084501E-04
  -11.3599997      -8.29631172E-05
  -11.3500004       8.12748476E-06
  -11.3400002       1.13230868E-04
  -11.3299999       2.14583124E-04
  -11.3199997       2.94454745E-04
  -11.3100004       3.37963342E-04
  -11.3000002       3.35454970E-04
  -11.2900000       2.84113397E-04
  -11.2799997       1.88557344E-04
  -11.2700005       6.03207045E-05
  -11.2600002      -8.37344196E-05
  -11.2500000      -2.23860698E-04
  -11.2399998      -3.40371189E-04
  -11.2299995      -4.16636991E-04
  -11.2200003      -4.41656361E-04
  -11.2100000      -4.11768007E-04
  -11.1999998      -3.31212883E-04
  -11.1899996      -2.11442821E-04
  -11.1800003      -6.92932590E-05
  -11.1700001       7.56603185E-05
  -11.1599998       2.04101205E-04
  -11.1499996       2.99811567E-04
  -11.1400003       3.51888739E-04
  -11.1300001       3.56008473E-04
  -11.1199999       3.14598350E-04
  -11.1099997       2.35988162E-04
  -11.1000004       1.32776127E-04
  -11.0900002       1.97553290E-05
  -11.0799999      -8.82294917E-05
  -11.0699997      -1.78173344E-04
  -11.0600004      -2.40328882E-04
  -11.0500002      -2.69047130E-04
  -11.0400000      -2.63043563E-04
  -11.0299997      -2.25163894E-04
  -11.0200005      -1.61757009E-04
  -11.0100002      -8.17621694E-05
  -11.0000000       4.39650466E-06
  -10.9899998       8.60267755E-05
  -10.9799995       1.53411704E-04
  -10.9700003       1.98975511E-04
  -10.9600000       2.18243091E-04
  -10.9499998       2.10450715E-04
  -10.9399996       1.78680857E-04
  -10.9300003       1.29445194E-04
  -10.9200001       7.17260336E-05
  -10.9099998       1.55884136E-05
  -10.8999996      -2.94291385E-05
  -10.8900003      -5.58769461E-05
  -10.8800001      -5.96328755E-05
  -10.8699999      -4.05913452E-05
  -10.8599997      -2.67566338E-06
  -10.8500004       4.68282924E-05
  -10.8400002       9.84964572E-05
  -10.8299999       1.42335266E-04
  -10.8199997       1.69433624E-04
  -10.8100004       1.73439825E-04
  -10.8000002       1.51649103E-04
  -10.7900000       1.05556086E-04
  -10.7799997       4.08034975E-05
  -10.7700005      -3.34704528E-05
  -10.7600002      -1.05820909E-04
  -10.7500000      -1.64101002E-04
  -10.7399998      -1.97308924E-04
  -10.7299995      -1.97451867E-04
  -10.7200003      -1.61156757E-04
  -10.7100000      -9.07368812E-05
  -10.6999998       5.55399038E-06
  -10.6899996       1.14263690E-04
  -10.6800003       2.18514513E-04
  -10.6700001       3.00640444E-04
  -10.6599998       3.45309090E-04
  -10.6499996       3.42573680E-04
  -10.6400003       2.90219527E-04
  -10.6300001       1.94826614E-04
  -10.6199999       7.11716057E-05
  -10.6099997      -6.00812164E-05
  -10.6000004      -1.76069225E-04
  -10.5900002      -2.56120897E-04
  -10.5799999      -2.85941380E-04
  -10.5699997      -2.60662462E-04
  -10.5600004      -1.86019286E-04
  -10.5500002      -7.73043430E-05
  -10.5400000       4.37532690E-05
  -10.5299997       1.53545174E-04
  -10.5200005       2.31579354E-04
  -10.5100002       2.64785253E-04
  -10.5000000       2.50137819E-04
  -10.4899998       1.94995344E-04
  -10.4799995       1.15084666E-04
  -10.4700003       3.06301590E-05
  -10.4600000      -3.84339219E-05
  -10.4499998      -7.70164334E-05
  -10.4399996      -7.81112976E-05
  -10.4300003      -4.39934265E-05
  -10.4200001       1.48468089E-05
  -10.4099998       8.26832184E-05
  -10.3999996       1.42638324E-04
  -10.3900003       1.80818679E-04
  -10.3800001       1.89477301E-04
  -10.3699999       1.68468192E-04
  -10.3599997       1.24723025E-04
  -10.3500004       6.99939410E-05
  -10.3400002       1.75340647E-05
  -10.3299999      -2.13780277E-05
  -10.3199997      -4.01757607E-05
  -10.3100004      -3.83507650E-05
  -10.3000002      -2.11514380E-05
  -10.2900000       2.18467721E-06
  -10.2799997       2.11201186E-05
  -10.2700005       2.66865991E-05
  -10.2600002       1.38001787E-05
  -10.2500000      -1.75150908E-05
  -10.2399998      -6.22162624E-05
  -10.2299995      -1.11521600E-04
  -10.2200003      -1.54982481E-04
  -10.2100000      -1.82802731E-04
  -10.1999998      -1.87870508E-04
  -10.1899996      -1.67107821E-04
  -10.1800003      -1.21956102E-04
  -10.1700001      -5.80329142E-05
  -10.1599998       1.58472376E-05
  -10.1499996       8.90281008E-05
  -10.1400003       1.50502732E-04
  -10.1300001       1.90374310E-04
  -10.1199999       2.01197676E-04
  -10.1099997       1.79150098E-04
  -10.1000004       1.24959290E-04
  -10.0900002       4.44498692E-05
  -10.0799999      -5.14996063E-05
  -10.0699997      -1.47813305E-04
  -10.0600004      -2.27030556E-04
  -10.0500002      -2.72022997E-04
  -10.0400000      -2.69292796E-04
  -10.0299997      -2.12251354E-04
  -10.0200005      -1.03694329E-04
  -10.0100002       4.33106361E-05
  -10.0000000       2.06673998E-04
  -9.98999977       3.58775171E-04
  -9.97999954       4.71726205E-04
  -9.97000027       5.23392519E-04
  -9.96000004       5.02797135E-04
  -9.94999981       4.13501053E-04
  -9.93999958       2.73896760E-04
  -9.93000031       1.14032693E-04
  -9.92000008      -3.05565336E-05
  -9.90999985      -1.26719562E-04
  -9.89999962      -1.51418630E-04
  -9.89000034      -9.73863207E-05
  -9.88000011       2.48109536E-05
  -9.86999989       1.88971680E-04
  -9.85999966       3.59315600E-04
  -9.85000038       4.98974987E-04
  -9.84000015       5.78819832E-04
  -9.82999992       5.84380352E-04
  -9.81999969       5.19087596E-04
  -9.81000042       4.02999547E-04
  -9.80000019       2.67360097E-04
  -9.78999996       1.46436752E-04
  -9.77999973       6.87915090E-05
  -9.77000046       5.02657349E-05
  -9.76000023       9.04695626E-05
  -9.75000000       1.73598819E-04
  -9.73999977       2.73230951E-04
  -9.72999954       3.59702535E-04
  -9.72000027       4.08030464E-04
  -9.71000004       4.04270802E-04
  -9.69999981       3.48713365E-04
  -9.68999958       2.55225023E-04
  -9.68000031       1.47108673E-04
  -9.67000008       5.07453333E-05
  -9.65999985      -1.12090593E-05
  -9.64999962      -2.53015896E-05
  -9.64000034       9.86098985E-06
  -9.63000011       8.38917185E-05
  -9.61999989       1.77705064E-04
  -9.60999966       2.68385309E-04
  -9.60000038       3.34484357E-04
  -9.59000015       3.60443752E-04
  -9.57999992       3.39223945E-04
  -9.56999969       2.72799545E-04
  -9.56000042       1.70759158E-04
  -9.55000019       4.76699424E-05
  -9.53999996      -7.99646223E-05
  -9.52999973      -1.96414330E-04
  -9.52000046      -2.88638519E-04
  -9.51000023      -3.47295485E-04
  -9.50000000      -3.67026310E-04
  -9.48999977      -3.46346293E-04
  -9.47999954      -2.87462870E-04
  -9.47000027      -1.96184003E-04
  -9.46000004      -8.18685512E-05
  -9.44999981       4.28097519E-05
  -9.43999958       1.62582393E-04
  -9.43000031       2.61015259E-04
  -9.42000008       3.22668784E-04
  -9.40999985       3.35742661E-04
  -9.39999962       2.94709258E-04
  -9.39000034       2.02299168E-04
  -9.38000011       7.02262187E-05
  -9.36999989      -8.17556211E-05
  -9.35999966      -2.28522957E-04
  -9.35000038      -3.43628955E-04
  -9.34000015      -4.04003309E-04
  -9.32999992      -3.94358125E-04
  -9.31999969      -3.10339965E-04
  -9.31000042      -1.59688585E-04
  -9.30000019       3.89228189E-05
  -9.28999996       2.59177992E-04
  -9.27999973       4.71865438E-04
  -9.27000046       6.50073518E-04
  -9.26000023       7.73727661E-04
  -9.25000000       8.32539983E-04
  -9.23999977       8.26840929E-04
  -9.22999954       7.66288838E-04
  -9.22000027       6.66953914E-04
  -9.21000004       5.47626463E-04
  -9.19999981       4.26301238E-04
  -9.18999958       3.17630329E-04
  -9.18000031       2.31766157E-04
  -9.17000008       1.74558634E-04
  -9.15999985       1.48666106E-04
  -9.14999962       1.54911439E-04
  -9.14000034       1.93228087E-04
  -9.13000011       2.62780988E-04
  -9.11999989       3.61224345E-04
  -9.10999966       4.83445154E-04
  -9.10000038       6.20402745E-04
  -9.09000015       7.58720911E-04
  -9.07999992       8.81502579E-04
  -9.06999969       9.70471941E-04
  -9.06000042       1.00912433E-03
  -9.05000019       9.86205647E-04
  -9.03999996       8.98666563E-04
  -9.02999973       7.53299391E-04
  -9.02000046       5.66535280E-04
  -9.01000023       3.62303952E-04
  -9.00000000       1.68298837E-04
  -8.98999977       1.13533297E-05
  -8.97999954      -8.71737866E-05
  -8.97000027      -1.15114053E-04
  -8.96000004      -7.16071154E-05
  -8.94999981       3.27587622E-05
  -8.93999958       1.77790149E-04
  -8.93000031       3.37166479E-04
  -8.92000008       4.82924981E-04
  -8.90999985       5.90161071E-04
  -8.89999962       6.41122111E-04
  -8.89000034       6.27981033E-04
  -8.88000011       5.53805730E-04
  -8.86999989       4.31565451E-04
  -8.85999966       2.81383109E-04
  -8.85000038       1.26584229E-04
  -8.84000015      -1.06616453E-05
  -8.82999992      -1.13228954E-04
  -8.81999969      -1.71688938E-04
  -8.81000042      -1.85254132E-04
  -8.80000019      -1.60944328E-04
  -8.78999996      -1.11314854E-04
  -8.77999973      -5.13950727E-05
  -8.77000046       4.40105941E-06
  -8.76000023       4.47287930E-05
  -8.75000000       6.27392947E-05
  -8.73999977       5.64336187E-05
  -8.72999954       2.81900975E-05
  -8.72000027      -1.61416210E-05
  -8.71000004      -6.82295577E-05
  -8.69999981      -1.18166929E-04
  -8.68999958      -1.55361995E-04
  -8.68000031      -1.69622319E-04
  -8.67000008      -1.52622408E-04
  -8.65999985      -9.97360403E-05
  -8.64999962      -1.18978614E-05
  -8.64000034       1.03120517E-04
  -8.63000011       2.30724298E-04
  -8.61999989       3.51300230E-04
  -8.60999966       4.43828176E-04
  -8.60000038       4.90684935E-04
  -8.59000015       4.82457137E-04
  -8.57999992       4.21320059E-04
  -8.56999969       3.21734231E-04
  -8.56000042       2.07869656E-04
  -8.55000019       1.08126929E-04
  -8.53999996       4.80794042E-05
  -8.52999973       4.37945710E-05
  -8.52000046       9.75414077E-05
  -8.51000023       1.97287314E-04
  -8.50000000       3.20283492E-04
  -8.48999977       4.39765688E-04
  -8.47999954       5.32774779E-04
  -8.47000027       5.86684677E-04
  -8.46000004       6.02382352E-04
  -8.44999981       5.93090779E-04
  -8.43999958       5.79227053E-04
  -8.43000031       5.80990221E-04
  -8.42000008       6.11136318E-04
  -8.40999985       6.70349749E-04
  -8.39999962       7.46765523E-04
  -8.39000034       8.19818175E-04
  -8.38000011       8.67146417E-04
  -8.36999989       8.72257282E-04
  -8.35999966       8.30401084E-04
  -8.35000038       7.50702573E-04
  -8.34000015       6.53842522E-04
  -8.32999992       5.66049421E-04
  -8.31999969       5.11353777E-04
  -8.31000042       5.04582422E-04
  -8.30000019       5.47263364E-04
  -8.28999996       6.27607340E-04
  -8.27999973       7.24386773E-04
  -8.27000046       8.13308987E-04
  -8.26000023       8.73789657E-04
  -8.25000000       8.94063676E-04
  -8.23999977       8.73278652E-04
  -8.22999954       8.20301182E-04
  -8.22000027       7.50036561E-04
  -8.21000004       6.78744458E-04
  -8.19999981       6.19931263E-04
  -8.18999958       5.81936911E-04
  -8.18000031       5.67544135E-04
  -8.17000008       5.75153856E-04
  -8.15999985       6.00586878E-04
  -8.14999962       6.38557307E-04
  -8.14000034       6.83265738E-04
  -8.13000011       7.28167535E-04
  -8.11999989       7.65496108E-04
  -8.10999966       7.86318386E-04
  -8.10000038       7.81679293E-04
  -8.09000015       7.44842691E-04
  -8.07999992       6.74000359E-04
  -8.06999969       5.74394304E-04
  -8.06000042       4.58787224E-04
  -8.05000019       3.45677108E-04
  -8.03999996       2.55429244E-04
  -8.02999973       2.05306627E-04
  -8.02000046       2.04899494E-04
  -8.01000023       2.53455481E-04
  -8.00000000       3.40052648E-04
  -7.98999977       4.46634454E-04
  -7.98000002       5.52961137E-04
  -7.96999979       6.41868566E-04
  -7.96000004       7.03140162E-04
  -7.94999981       7.34818517E-04
  -7.94000006       7.41721538E-04
  -7.92999983       7.31945387E-04
  -7.92000008       7.12843728E-04
  -7.90999985       6.88106054E-04
  -7.90000010       6.57062279E-04
  -7.88999987       6.16411329E-04
  -7.88000011       5.63558831E-04
  -7.86999989       5.00062713E-04
  -7.86000013       4.33586945E-04
  -7.84999990       3.77315358E-04
  -7.84000015       3.46770947E-04
  -7.82999992       3.55044147E-04
  -7.82000017       4.08141379E-04
  -7.80999994       5.02233743E-04
  -7.80000019       6.23967033E-04
  -7.78999996       7.53899454E-04
  -7.78000021       8.71978351E-04
  -7.76999998       9.63185099E-04
  -7.76000023       1.02137926E-03
  -7.75000000       1.05001859E-03
  -7.73999977       1.05958118E-03
  -7.73000002       1.06275070E-03
  -7.71999979       1.06926973E-03
  -7.71000004       1.08248019E-03
  -7.69999981       1.09889626E-03
  -7.69000006       1.11095351E-03
  -7.67999983       1.11178285E-03
  -7.67000008       1.09997857E-03
  -7.65999985       1.08224910E-03
  -7.65000010       1.07258826E-03
  -7.63999987       1.08794170E-03
  -7.63000011       1.14177528E-03
  -7.61999989       1.23790745E-03
  -7.61000013       1.36706338E-03
  -7.59999990       1.50777621E-03
  -7.59000015       1.63173547E-03
  -7.57999992       1.71204726E-03
  -7.57000017       1.73170946E-03
  -7.55999994       1.68937875E-03
  -7.55000019       1.60034082E-03
  -7.53999996       1.49219471E-03
  -7.53000021       1.39659946E-03
  -7.51999998       1.33980904E-03
  -7.51000023       1.33514660E-03
  -7.50000000       1.37988233E-03
  -7.48999977       1.45740143E-03
  -7.48000002       1.54368998E-03
  -7.46999979       1.61567144E-03
  -7.46000004       1.65837444E-03
  -7.44999981       1.66847394E-03
  -7.44000006       1.65322167E-03