  -16.0000000       0.00000000    
  -15.9899998       0.00000000    
  -15.9799995       0.00000000    
  -15.9700003       0.00000000    
  -15.9600000       0.00000000    
  -15.9499998       0.00000000    
  -15.9399996       0.00000000    
  -15.9300003       0.00000000    
  -15.9200001       0.00000000    
  -15.9099998       0.00000000    
  -15.8999996       0.00000000    
  -15.8900003      -1.50427148E-39
  -15.8800001      -3.05448789E-38
  -15.8699999      -5.61010490E-37
  -15.8599997      -7.20826639E-36
  -15.8500004      -6.23068427E-35
  -15.8400002      -3.86884946E-34
  -15.8299999      -1.82499906E-33
  -15.8199997      -6.76865810E-33
  -15.8100004      -1.99944845E-32
  -15.8000002      -4.62324691E-32
  -15.7900000      -7.57952645E-32
  -15.7799997      -4.14993940E-32
  -15.7700005       2.79062476E-31
  -15.7600002       1.45120646E-30
  -15.7500000       4.69880714E-30
  -15.7399998       1.23238542E-29
  -15.7299995       2.78630905E-29
  -15.7200003       5.45377318E-29
  -15.7100000       8.83470228E-29
  -15.6999998       9.97421725E-29
  -15.6899996      -1.98062099E-31
  -15.6800003      -3.96726089E-28
  -15.6700001      -1.35671239E-27
  -15.6599998      -3.04296931E-27
  -15.6499996      -5.00308105E-27
  -15.6400003      -5.29891814E-27
  -15.6300001       3.05636897E-28
  -15.6199999       1.78330251E-26
  -15.6099997       5.11034294E-26
  -15.6000004       9.23122320E-26
  -15.5900002       1.08338841E-25
  -15.5799999       3.15151596E-26
  -15.5699997      -2.25693450E-25
  -15.5600004      -7.06056543E-25
  -15.5500002      -1.27924850E-24
  -15.5400000      -1.48452953E-24
  -15.5299997      -4.68344944E-25
  -15.5200005       2.76189985E-24
  -15.5100002       8.53161904E-24
  -15.5000000       1.51100863E-23
  -15.4899998       1.72497216E-23
  -15.4799995       5.98369377E-24
  -15.4700003      -2.82981383E-23
  -15.4600000      -8.77465447E-23
  -15.4499998      -1.54441837E-22
  -15.4399996      -1.78596569E-22
  -15.4300003      -7.91834469E-23
  -15.4200001       2.27296777E-22
  -15.4099998       7.58526439E-22
  -15.3999996       1.36649510E-21
  -15.3900003       1.64995380E-21
  -15.3800001       9.65670256E-22
  -15.3699999      -1.35277190E-21
  -15.3599997      -5.49847794E-21
  -15.3500004      -1.04836152E-20
  -15.3400002      -1.35235766E-20
  -15.3299999      -1.00792297E-20
  -15.3199997       4.75449199E-21
  -15.3100004       3.30813664E-20
  -15.3000002       6.96591024E-20
  -15.2900000       9.77720246E-20
  -15.2799997       8.88404321E-20
  -15.2700005       9.80613811E-21
  -15.2600002      -1.59015560E-19
  -15.2500000      -3.97383563E-19
  -15.2399998      -6.19114548E-19
  -15.2299995      -6.64149207E-19
  -15.2200003      -3.30736536E-19
  -15.2100000       5.35851168E-19
  -15.1999998       1.90268002E-18
  -15.1899996       3.39771095E-18
  -15.1800003       4.23119261E-18
  -15.1700001       3.30102347E-18
  -15.1599998      -4.23464387E-19
  -15.1499996      -7.23177705E-18
  -15.1400003      -1.58712798E-17
  -15.1300001      -2.29719388E-17
  -15.1199999      -2.32100709E-17
  -15.1099997      -1.07097200E-17
  -15.1000004       1.81279444E-17
  -15.0900002       6.08261242E-17
  -15.0799999       1.05407314E-16
  -15.0699997       1.29487621E-16
  -15.0600004       1.04264588E-16
  -15.0500002       4.89062141E-18
  -15.0400000      -1.73578994E-16
  -15.0299997      -3.98974912E-16
  -15.0200005      -5.91536364E-16
  -15.0100002      -6.30256146E-16
  -15.0000000      -3.84487339E-16
  -14.9899998       2.27770945E-16
  -14.9799995       1.16586483E-15
  -14.9700003       2.20271659E-15
  -14.9600000       2.90915139E-15
  -14.9499998       2.72517519E-15
  -14.9399996       1.13992106E-15
  -14.9300003      -2.03621448E-15
  -14.9200001      -6.37747581E-15
  -14.9099998      -1.06502001E-14
  -14.8999996      -1.28728230E-14
  -14.8900003      -1.07534017E-14
  -14.8800001      -2.53109750E-15
  -14.8699999       1.19192003E-14
  -14.8599997       3.00589089E-14
  -14.8500004       4.62332029E-14
  -14.8400002       5.23189212E-14
  -14.8299999       3.98079532E-14
  -14.8199997       3.22234627E-15
  -14.8100004      -5.58712249E-14
  -14.8000002      -1.25626831E-13
  -14.7900000      -1.83241362E-13
  -14.7799997      -1.98463926E-13
  -14.7700005      -1.42020049E-13
  -14.7600002       1.98086045E-15
  -14.7500000       2.22684460E-13
  -14.7399998       4.73097256E-13
  -14.7299995       6.70390176E-13
  -14.7200003       7.10526635E-13
  -14.7100000       4.98366702E-13
  -14.6999998      -1.11469477E-14
  -14.6899996      -7.71494847E-13
  -14.6800003      -1.61862689E-12
  -14.6700001      -2.27762319E-12
  -14.6599998      -2.41425304E-12
  -14.6499996      -1.73215153E-12
  -14.6400003      -9.94982159E-14
  -14.6300001       2.32888817E-12
  -14.6199999       5.04096244E-12
  -14.6099997       7.19612304E-12
  -14.6000004       7.78452476E-12
  -14.5900002       5.91399455E-12
  -14.5799999       1.17441386E-12
  -14.5699997      -6.01825621E-12
  -14.5600004      -1.42275211E-11
  -14.5500002      -2.10784393E-11
  -14.5400000      -2.36955039E-11
  -14.5299997      -1.94823793E-11
  -14.5200005      -7.10673577E-12
  -14.5100002       1.25671530E-11
  -14.5000000       3.59314488E-11
  -14.4899998       5.67969699E-11
  -14.4799995       6.74658662E-11
  -14.4700003       6.06844228E-11
  -14.4600000       3.21450332E-11
  -14.4499998      -1.70859125E-11
  -14.4399996      -7.90229202E-11
  -14.4300003      -1.38890843E-10
  -14.4200001      -1.77442838E-10
  -14.4099998      -1.75449918E-10
  -14.3999996      -1.19653454E-10
  -14.3900003      -8.79076412E-12
  -14.3800001       1.42148196E-10
  -14.3699999       3.01287911E-10
  -14.3599997       4.24154573E-10
  -14.3500004       4.63060063E-10
  -14.3400002       3.80262460E-10
  -14.3299999       1.62065569E-10
  -14.3199997      -1.70064782E-10
  -14.3100004      -5.55493818E-10
  -14.3000002      -9.00675035E-10
  -14.2900000      -1.09665987E-09
  -14.2799997      -1.04582409E-09
  -14.2700005      -6.92563340E-10
  -14.2600002      -5.02143847E-11
  -14.2500000       7.84419973E-10
  -14.2399998       1.63617886E-09
  -14.2299995       2.27972441E-09
  -14.2200003       2.48856025E-09
  -14.2100000       2.09628248E-09
  -14.1999998       1.05604481E-09
  -14.1899996      -5.18476817E-10
  -14.1800003      -2.34597941E-09
  -14.1700001      -4.01373246E-09
  -14.1599998      -5.05674835E-09
  -14.1499996      -5.06785192E-09
  -14.1400003      -3.81576282E-09
  -14.1300001      -1.34151257E-09
  -14.1199999       1.99652073E-09
  -14.1099997       5.55075008E-09
  -14.1000004       8.49219006E-09
  -14.0900002       9.98465755E-09
  -14.0799999       9.39227807E-09
  -14.0699997       6.47281428E-09
  -14.0600004       1.50502943E-09
  -14.0500002      -4.69306549E-09
  -14.0400000      -1.08768781E-08
  -14.0299997      -1.56103237E-08
  -14.0200005      -1.75822805E-08
  -14.0100002      -1.59368039E-08
  -14.0000000      -1.05369233E-08
  -13.9899998      -2.08828244E-09
  -13.9799995       7.92474797E-09
  -13.9700003       1.74960793E-08
  -13.9600000       2.45057539E-08
  -13.9499998       2.71940124E-08
  -13.9399996       2.45922998E-08
  -13.9300003       1.68028702E-08
  -13.9200001       5.04778930E-09
  -13.9099998      -8.53990922E-09
  -13.8999996      -2.13470379E-08
  -13.8900003      -3.08389865E-08
  -13.8800001      -3.51149048E-08
  -13.8699999      -3.33229870E-08
  -13.8599997      -2.58305661E-08
  -13.8500004      -1.41047938E-08
  -13.8400002      -3.35170225E-10
  -13.8299999       1.31003643E-08
  -13.8199997       2.41797693E-08
  -13.8100004       3.16411750E-08
  -13.8000002       3.51359120E-08
  -13.7900000       3.50932545E-08
  -13.7799997       3.23491527E-08
  -13.7700005       2.76695715E-08
  -13.7600002       2.13418012E-08
  -13.7500000       1.29975968E-08
  -13.7399998       1.76834991E-09
  -13.7299995      -1.32316371E-08
  -13.7200003      -3.22143521E-08
  -13.7100000      -5.40352509E-08
  -13.6999998      -7.57749277E-08
  -13.6899996      -9.28089037E-08
  -13.6800003      -9.94817455E-08
  -13.6700001      -9.03407766E-08
  -13.6599998      -6.17077589E-08
  -13.6499996      -1.32234712E-08
  -13.6400003       5.10664613E-08
  -13.6300001       1.22476422E-07
  -13.6199999       1.88537285E-07
  -13.6099997       2.34948530E-07
  -13.6000004       2.48356713E-07
  -13.5900002       2.19444459E-07
  -13.5799999       1.45661730E-07
  -13.5699997       3.29187699E-08
  -13.5600004      -1.04291544E-07
  -13.5500002      -2.44582878E-07
  -13.5400000      -3.63036065E-07
  -13.5299997      -4.35700883E-07
  -13.5200005      -4.44397898E-07
  -13.5100002      -3.80827714E-07
  -13.5000000      -2.49053102E-07
  -13.4899998      -6.56916015E-08
  -13.4799995       1.42396587E-07
  -13.4700003       3.42610434E-07
  -13.4600000       5.02480134E-07
  -13.4499998       5.95732899E-07
  -13.4399996       6.07263246E-07
  -13.4300003       5.35889797E-07
  -13.4200001       3.94232586E-07
  -13.4099998       2.05678816E-07
  -13.3999996      -9.02684039E-10
  -13.3900003      -1.97461688E-07
  -13.3800001      -3.62531864E-07
  -13.3699999      -4.84969860E-07
  -13.3599997      -5.64625736E-07
  -13.3500004      -6.09667381E-07
  -13.3400002      -6.31199100E-07
  -13.3299999      -6.36653795E-07
  -13.3199997      -6.23974756E-07
  -13.3100004      -5.78644574E-07
  -13.3000002      -4.75095334E-07
  -13.2900000      -2.83000247E-07
  -13.2799997       2.23861463E-08
  -13.2700005       4.48005608E-07
  -13.2600002       9.72027351E-07
  -13.2500000       1.53757458E-06
  -13.2399998       2.05404558E-06
  -13.2299995       2.40754798E-06
  -13.2200003       2.47996786E-06
  -13.2100000       2.17398633E-06
  -13.1999998       1.43943737E-06
  -13.1899996       2.95279420E-07
  -13.1800003      -1.15850514E-06
  -13.1700001      -2.74343188E-06
  -13.1599998      -4.22130825E-06
  -13.1499996      -5.32794593E-06
  -13.1400003      -5.81712357E-06
  -13.1300001      -5.50748427E-06
  -13.1199999      -4.32361594E-06
  -13.1099997      -2.32285993E-06
  -13.1000004       2.98622354E-07
  -13.0900002       3.22350274E-06
  -13.0799999       6.05335708E-06
  -13.0699997       8.36555591E-06
  -13.0600004       9.77796844E-06
  -13.0500002       1.00106554E-05
  -13.0400000       8.93394827E-06
  -13.0299997       6.59453372E-06
  -13.0200005       3.21498464E-06
  -13.0100002      -8.33130400E-07
  -13.0000000      -5.07785717E-06
  -12.9899998      -9.00893519E-06
  -12.9799995      -1.21432404E-05
  -12.9700003      -1.40836573E-05
  -12.9600000      -1.45635049E-05
  -12.9499998      -1.34719994E-05
  -12.9399996      -1.08600498E-05
  -12.9300003      -6.92908088E-06
  -12.9200001      -2.00770887E-06
  -12.9099998       3.47835953E-06
  -12.8999996       9.03888122E-06
  -12.8900003       1.41518767E-05
  -12.8800001       1.82967979E-05
  -12.8699999       2.09898826E-05
  -12.8599997       2.18237856E-05
  -12.8500004       2.05121341E-05
  -12.8400002       1.69367049E-05
  -12.8299999       1.11913860E-05
  -12.8199997       3.61377943E-06
  -12.8100004      -5.20614049E-06
  -12.8000002      -1.44498990E-05
  -12.7900000      -2.31325230E-05
  -12.7799997      -3.02017415E-05
  -12.7700005      -3.46656379E-05
  -12.7600002      -3.57324461E-05
  -12.7500000      -3.29409158E-05
  -12.7399998      -2.62581652E-05
  -12.7299995      -1.61249136E-05
  -12.7200003      -3.43561373E-06
  -12.7100000       1.05484078E-05
  -12.6999998       2.43428367E-05
  -12.6899996       3.64208026E-05
  -12.6800003       4.54023830E-05
  -12.6700001       5.02239855E-05
  -12.6599998       5.02622461E-05
  -12.6499996       4.53957073E-05
  -12.6400003       3.59992991E-05
  -12.6300001       2.28787503E-05
  -12.6199999       7.16181330E-06
  -12.6099997      -9.83105110E-06
  -12.6000004      -2.67138239E-05
  -12.5900002      -4.21420846E-05
  -12.5799999      -5.48910393E-05
  -12.5699997      -6.39051796E-05
  -12.5600004      -6.83290054E-05
  -12.5500002      -6.75330448E-05
  -12.5400000      -6.11491487E-05
  -12.5299997      -4.91232349E-05
  -12.5200005      -3.17844351E-05
  -12.5100002      -9.91792331E-06
  -12.5000000       1.51806425E-05
  -12.4899998       4.16965377E-05
  -12.4799995       6.73591712E-05
  -12.4700003       8.95940830E-05
  -12.4600000       1.05765226E-04
  -12.4499998       1.13489521E-04
  -12.4399996       1.10986162E-04
  -12.4300003       9.74077193E-05
  -12.4200001       7.30931424E-05
  -12.4099998       3.96868199E-05
  -12.3999996       8.31076505E-08
  -12.3900003      -4.18183881E-05
  -12.3800001      -8.15302265E-05
  -12.3699999      -1.14518756E-04
  -12.3599997      -1.36795337E-04
  -12.3500004      -1.45468119E-04
  -12.3400002      -1.39165670E-04
  -12.3299999      -1.18260527E-04
  -12.3199997      -8.48513155E-05
  -12.3100004      -4.25016406E-05
  -12.3000002       4.22539779E-06
  -12.2900000       5.03632327E-05
  -12.2799997       9.11731986E-05
  -12.2700005       1.22711950E-04
  -12.2600002       1.42250501E-04
  -12.2500000       1.48490217E-04
  -12.2399998       1.41560799E-04
  -12.2299995       1.22825892E-04
  -12.2200003       9.45546344E-05
  -12.2100000       5.95367819E-05
  -12.1999998       2.07195008E-05
  -12.1899996      -1.90723149E-05
  -12.1800003      -5.72995195E-05
  -12.1700001      -9.17579673E-05
  -12.1599998      -1.20546327E-04
  -12.1499996      -1.42005301E-04
  -12.1400003      -1.54684545E-04
  -12.1300001      -1.57380156E-04
  -12.1199999      -1.49259082E-04
  -12.1099997      -1.30053930E-04
  -12.1000004      -1.00281322E-04
  -12.0900002      -6.14180026E-05
  -12.0799999      -1.59676201E-05
  -12.0699997       3.26330337E-05
  -12.0600004       8.02863360E-05
  -12.0500002       1.22663172E-04
  -12.0400000       1.55728500E-04
  -12.0299997       1.76275076E-04
  -12.0200005       1.82367774E-04
  -12.0100002       1.73613706E-04
  -12.0000000       1.51204265E-04
  -11.9899998       1.17719159E-04
  -11.9799995       7.67292513E-05
  -11.9700003       3.22730593E-05
  -11.9600000      -1.16955325E-05
  -11.9499998      -5.17896005E-05
  -11.9399996      -8.55224935E-05
  -11.9300003      -1.11448011E-04
  -11.9200001      -1.29105596E-04
  -11.9099998      -1.38808638E-04
  -11.8999996      -1.41342593E-04
  -11.8900003      -1.37651252E-04
  -11.8800001      -1.28583415E-04
  -11.8699999      -1.14750124E-04
  -11.8599997      -9.65116633E-05
  -11.8500004      -7.40809119E-05
  -11.8400002      -4.77029243E-05
  -11.8299999      -1.78552727E-05
  -11.8199997       1.45878103E-05
  -11.8100004       4.82729774E-05
  -11.8000002       8.13919032E-05
  -11.7900000       1.11812005E-04
  -11.7799997       1.37291092E-04
  -11.7700005       1.55736154E-04
  -11.7600002       1.65459263E-04
  -11.7500000       1.65386198E-04
  -11.7399998       1.55183909E-04
  -11.7299995       1.35290669E-04
  -11.7200003       1.06850668E-04
  -11.7100000       7.15725037E-05
  -11.6999998       3.15429206E-05
  -11.6899996      -1.09682433E-05
  -11.6800003      -5.36783446E-05
  -11.6700001      -9.44140556E-05
  -11.6599998      -1.31176581E-04
  -11.6499996      -1.62157550E-04
  -11.6400003      -1.85727215E-04
  -11.6300001      -2.00425202E-04
  -11.6199999      -2.04984666E-04
  -11.6099997      -1.98411319E-04
  -11.6000004      -1.80123301E-04
  -11.5900002      -1.50135747E-04
  -11.5799999      -1.09254535E-04
  -11.5699997      -5.92278520E-05
  -11.5600004      -2.80183463E-06
  -11.5500002       5.63652902E-05
  -11.5400000       1.13952141E-04
  -11.5299997       1.65376259E-04
  -11.5200005       2.06303579E-04
  -11.5100002       2.33189421E-04
  -11.5000000       2.43758826E-04
  -11.4899998       2.37334214E-04
  -11.4799995       2.14941057E-04
  -11.4700003       1.79159906E-04
  -11.4600000       1.33742171E-04
  -11.4499998       8.30540084E-05
  -11.4399996       3.14491263E-05
  -11.4300003      -1.73129993E-05
  -11.4200001      -6.04958950E-05
  -11.4099998      -9.65864019E-05
  -11.3999996      -1.25240273E-04
  -11.3900003      -1.47002167E-04
  -11.3800001      -1.62876779E-04
  -11.3699999      -1.73858993E-04
  -11.3599997      -1.80535819E-04
  -11.3500004      -1.82852673E-04
  -11.3400002      -1.80094707E-04
  -11.3299999      -1.71081323E-04
  -11.3199997      -1.54521113E-04
  -11.3100004      -1.29437729E-04
  -11.3000002      -9.55624128E-05
  -11.2900000      -5.35994332E-05
  -11.2799997      -5.30322905E-06
  -11.2700005       4.66484489E-05
  -11.2600002       9.89538821E-05
  -11.2500000       1.48091029E-04
  -11.2399998       1.90738356E-04
  -11.2299995       2.24129704E-04
  -11.2200003       2.46282609E-04
  -11.2100000       2.56076106E-04
  -11.1999998       2.53191014E-04
  -11.1899996       2.37957662E-04
  -11.1800003       2.11171180E-04
  -11.1700001       1.73933164E-04
  -11.1599998       1.27561361E-04
  -11.1499996       7.35814901E-05
  -11.1400003       1.37872003E-05
  -11.1300001      -4.96690263E-05
  -11.1199999      -1.14201350E-04
  -11.1099997      -1.76777568E-04
  -11.1000004      -2.33997824E-04
  -11.0900002      -2.82273861E-04
  -11.0799999      -3.18094622E-04
  -11.0699997      -3.38345591E-04
  -11.0600004      -3.40638886E-04
  -11.0500002      -3.23608663E-04
  -11.0400000      -2.87133153E-04
  -11.0299997      -2.32454608E-04
  -11.0200005      -1.62181779E-04
  -11.0100002      -8.01716888E-05
  -11.0000000       8.70194708E-06
  -10.9899998       9.88770698E-05
  -10.9799995       1.84504155E-04
  -10.9700003       2.59888155E-04
  -10.9600000       3.19934945E-04
  -10.9499998       3.60561156E-04
  -10.9399996       3.79027944E-04
  -10.9300003       3.74163530E-04
  -10.9200001       3.46451852E-04
  -10.9099998       2.97978258E-04
  -10.8999996       2.32241946E-04
  -10.8900003       1.53859422E-04
  -10.8800001       6.81943420E-05
  -10.8699999      -1.90473347E-05
  -10.8599997      -1.02220612E-04
  -10.8500004      -1.76115689E-04
  -10.8400002      -2.36285166E-04
  -10.8299999      -2.79315049E-04
  -10.8199997      -3.03034292E-04
  -10.8100004      -3.06656730E-04
  -10.8000002      -2.90844386E-04
  -10.7900000      -2.57677108E-04
  -10.7799997      -2.10512153E-04
  -10.7700005      -1.53723609E-04
  -10.7600002      -9.23254120E-05
  -10.7500000      -3.15024299E-05
  -10.7399998       2.39043966E-05
  -10.7299995       6.98941803E-05
  -10.7200003       1.03711413E-04
  -10.7100000       1.24093873E-04
  -10.6999998       1.31318186E-04
  -10.6899996       1.27030478E-04
  -10.6800003       1.13888251E-04
  -10.6700001       9.50753674E-05
  -10.6599998       7.37772061E-05
  -10.6499996       5.27107732E-05
  -10.6400003       3.37929778E-05
  -10.6300001       1.80015031E-05
  -10.6199999       5.44185377E-06
  -10.6099997      -4.40942222E-06
  -10.6000004      -1.23517875E-05
  -10.5900002      -1.90865794E-05
  -10.5799999      -2.49122040E-05
  -10.5699997      -2.95611571E-05
  -10.5600004      -3.22169726E-05
  -10.5500002      -3.17066006E-05
  -10.5400000      -2.68224103E-05
  -10.5299997      -1.66971931E-05
  -10.5200005      -1.14295631E-06
  -10.5100002       1.91282343E-05
  -10.5000000       4.24565551E-05
  -10.4899998       6.63764004E-05
  -10.4799995       8.79225772E-05
  -10.4700003       1.04040497E-04
  -10.4600000       1.12019668E-04
  -10.4499998       1.09869281E-04
  -10.4399996       9.65722720E-05
  -10.4300003       7.21854376E-05
  -10.4200001       3.77890938E-05
  -10.4099998      -4.67907603E-06
  -10.3999996      -5.26527037E-05
  -10.3900003      -1.03172642E-04
  -10.3800001      -1.53088302E-04
  -10.3699999      -1.99206799E-04
  -10.3599997      -2.38398221E-04
  -10.3500004      -2.67685245E-04
  -10.3400002      -2.84352427E-04
  -10.3299999      -2.86103023E-04
  -10.3199997      -2.71271041E-04
  -10.3100004      -2.39070185E-04
  -10.3000002      -1.89837971E-04
  -10.2900000      -1.25218517E-04
  -10.2799997      -4.82282885E-05
  -10.2700005       3.68362053E-05
  -10.2600002       1.24663478E-04
  -10.2500000       2.09348422E-04
  -10.2399998       2.84924899E-04
  -10.2299995       3.45943816E-04
  -10.2200003       3.88022891E-04
  -10.2100000       4.08296270E-04
  -10.1999998       4.05706378E-04
  -10.1899996       3.81098886E-04
  -10.1800003       3.37104982E-04
  -10.1700001       2.77819519E-04
  -10.1599998       2.08307174E-04
  -10.1499996       1.33993119E-04
  -10.1400003       6.00146413E-05
  -10.1300001      -9.37548248E-06
  -10.1199999      -7.12595356E-05
  -10.1099997      -1.24277052E-04
  -10.1000004      -1.68567189E-04
  -10.0900002      -2.05426535E-04
  -10.0799999      -2.36735461E-04
  -10.0699997      -2.64260831E-04
  -10.0600004      -2.88983429E-04
  -10.0500002      -3.10608390E-04
  -10.0400000      -3.27391695E-04
  -10.0299997      -3.36354686E-04
  -10.0200005      -3.33871722E-04
  -10.0100002      -3.16526362E-04
  -10.0000000      -2.82055378E-04
  -9.98999977      -2.30164806E-04
  -9.97999954      -1.63015473E-04
  -9.97000027      -8.52382364E-05
  -9.96000004      -3.44077785E-06
  -9.94999981       7.47187514E-05
  -9.93999958       1.41716111E-04
  -9.93000031       1.91367479E-04
  -9.92000008       2.19816109E-04
  -9.90999985       2.26106655E-04
  -9.89999962       2.12246669E-04
  -9.89000034       1.82766278E-04
  -9.88000011       1.43890386E-04
  -9.86999989       1.02507169E-04
  -9.85999966       6.51404043E-05
  -9.85000038       3.71066017E-05
  -9.84000015       2.19751164E-05
  -9.82999992       2.13681833E-05
  -9.81999969       3.50623013E-05
  -9.81000042       6.13002630E-05
  -9.80000019       9.72043126E-05
  -9.78999996       1.39194599E-04
  -9.77999973       1.83353084E-04
  -9.77000046       2.25714975E-04
  -9.76000023       2.62503920E-04
  -9.75000000       2.90342286E-04
  -9.73999977       3.06461501E-04
  -9.72999954       3.08915740E-04
  -9.72000027       2.96776911E-04
  -9.71000004       2.70268676E-04
  -9.69999981       2.30795413E-04
  -9.68999958       1.80836971E-04
  -9.68000031       1.23709193E-04
  -9.67000008       6.32228039E-05
  -9.65999985       3.29861109E-06
  -9.64999962      -5.23953640E-05
  -9.64000034      -1.00730038E-04
  -9.63000011      -1.39297728E-04
  -9.61999989      -1.66496480E-04
  -9.60999966      -1.81548399E-04
  -9.60000038      -1.84494507E-04
  -9.59000015      -1.76197325E-04
  -9.57999992      -1.58355004E-04
  -9.56999969      -1.33496898E-04
  -9.56000042      -1.04905339E-04
  -9.55000019      -7.64040597E-05
  -9.53999996      -5.19787573E-05
  -9.52999973      -3.52436473E-05
  -9.52000046      -2.88291994E-05
  -9.51000023      -3.38185127E-05
  -9.50000000      -4.93839871E-05
  -9.48999977      -7.27573497E-05
  -9.47999954      -9.96029776E-05
  -9.47000027      -1.24768922E-04
  -9.46000004      -1.43286117E-04
  -9.44999981      -1.51404092E-04
  -9.43999958      -1.47417653E-04
  -9.43000031      -1.32069355E-04
  -9.42000008      -1.08402790E-04
  -9.40999985      -8.10748897E-05
  -9.39999962      -5.52730926E-05
  -9.39000034      -3.54911208E-05
  -9.38000011      -2.44619732E-05
  -9.36999989      -2.25143540E-05
  -9.35999966      -2.75154180E-05
  -9.35000038      -3.54155127E-05
  -9.34000015      -4.12584850E-05
  -9.32999992      -4.04055645E-05
  -9.31999969      -2.96719500E-05
  -9.31000042      -8.10521487E-06
  -9.30000019       2.27671317E-05
  -9.28999996       5.92558390E-05
  -9.27999973       9.62901759E-05
  -9.27000046       1.28453728E-04
  -9.26000023       1.51025888E-04
  -9.25000000       1.60802098E-04
  -9.23999977       1.56541995E-04
  -9.22999954       1.38998395E-04
  -9.22000027       1.10580790E-04
  -9.21000004       7.47795857E-05
  -9.19999981       3.55077464E-05
  -9.18999958      -3.49581796E-06
  -9.18000031      -3.90998321E-05
  -9.17000008      -6.90072920E-05
  -9.15999985      -9.17852449E-05
  -9.14999962      -1.06746862E-04
  -9.14000034      -1.13754104E-04
  -9.13000011      -1.13010865E-04
  -9.11999989      -1.04904364E-04
  -9.10999966      -8.99323568E-05
  -9.10000038      -6.87288994E-05
  -9.09000015      -4.21742297E-05
  -9.07999992      -1.15477551E-05
  -9.06999969       2.13384646E-05
  -9.06000042       5.40975998E-05
  -9.05000019       8.38793130E-05
  -9.03999996       1.07663553E-04
  -9.02999973       1.22712940E-04
  -9.02000046       1.27099993E-04
  -9.01000023       1.20177770E-04
  -9.00000000       1.02846658E-04
  -8.98999977       7.75018707E-05
  -8.97999954       4.76230671E-05
  -8.97000027       1.70732510E-05
  -8.96000004      -1.07242322E-05
  -8.94999981      -3.35008299E-05
  -8.93999958      -5.05287171E-05
  -8.93000031      -6.25412795E-05
  -8.92000008      -7.11948160E-05
  -8.90999985      -7.82352727E-05
  -8.89999962      -8.46506446E-05
  -8.89000034      -9.01195745E-05
  -8.88000011      -9.29875387E-05
  -8.86999989      -9.08311049E-05
  -8.85999966      -8.14589730E-05
  -8.85000038      -6.40188518E-05
  -8.84000015      -3.98002339E-05
  -8.82999992      -1.23845330E-05
  -8.81999969       1.30108274E-05
  -8.81000042       3.08760718E-05
  -8.80000019       3.70631387E-05
  -8.78999996       3.02203207E-05
  -8.77999973       1.24963162E-05
  -8.77000046      -1.07985343E-05
  -8.76000023      -3.25608635E-05
  -8.75000000      -4.59308103E-05
  -8.73999977      -4.63819961E-05
  -8.72999954      -3.31883639E-05
  -8.72000027      -9.75428156E-06
  -8.71000004       1.73588887E-05
  -8.69999981       4.04540151E-05
  -8.68999958       5.31526166E-05
  -8.68000031       5.24983479E-05
  -8.67000008       4.00113822E-05
  -8.65999985       2.13177900E-05
  -8.64999962       4.43625959E-06
  -8.64000034      -2.75232719E-06
  -8.63000011       4.95127506E-06
  -8.61999989       2.83265563E-05
  -8.60999966       6.33631644E-05
  -8.60000038       1.02375154E-04
  -8.59000015       1.36230577E-04
  -8.57999992       1.56967217E-04
  -8.56999969       1.59952993E-04
  -8.56000042       1.44922204E-04
  -8.55000019       1.15614377E-04
  -8.53999996       7.82223651E-05
  -8.52999973       3.92517904E-05
  -8.52000046       3.56704527E-06
  -8.51000023      -2.67062442E-05
  -8.50000000      -5.20955982E-05
  -8.48999977      -7.46380247E-05
  -8.47999954      -9.61987971E-05
  -8.47000027      -1.16967007E-04
  -8.46000004      -1.34763963E-04
  -8.44999981      -1.45480546E-04
  -8.43999958      -1.44515696E-04
  -8.43000031      -1.28687156E-04
  -8.42000008      -9.78772368E-05
  -8.40999985      -5.57423373E-05
  -8.39999962      -9.13553959E-06
  -8.39000034       3.36470257E-05
  -8.38000011       6.52488889E-05
  -8.36999989       8.14675223E-05
  -8.35999966       8.25320167E-05
  -8.35000038       7.29795574E-05
  -8.34000015       6.01384163E-05
  -8.32999992       5.17013650E-05
  -8.31999969       5.31852093E-05
  -8.31000042       6.61101949E-05
  -8.30000019       8.74861507E-05
  -8.28999996       1.10748355E-04
  -8.27999973       1.27803578E-04
  -8.27000046       1.31492649E-04
  -8.26000023       1.17669792E-04
  -8.25000000       8.62686793E-05
  -8.23999977       4.10997709E-05
  -8.22999954      -1.14363947E-05
  -8.22000027      -6.41900115E-05
  -8.21000004      -1.10992951E-04
  -8.19999981      -1.47729777E-04
  -8.18999958      -1.72503132E-04
  -8.18000031      -1.85017547E-04
  -8.17000008      -1.85597717E-04
  -8.15999985      -1.74362067E-04
  -8.14999962      -1.50958629E-04
  -8.14000034      -1.14990944E-04
  -8.13000011      -6.69341607E-05
  -8.11999989      -9.10007202E-06
  -8.10999966       5.38474778E-05
  -8.10000038       1.15173563E-04
  -8.09000015       1.67192848E-04
  -8.07999992       2.02936513E-04
  -8.06999969       2.17833585E-04
  -8.06000042       2.10831946E-04
  -8.05000019       1.84556498E-04
  -8.03999996       1.44431397E-04
  -8.02999973       9.70561232E-05
  -8.02000046       4.83892618E-05
  -8.01000023       2.35836387E-06
  -8.00000000      -3.96454561E-05
  -7.98999977      -7.82551942E-05
  -7.98000002      -1.14838302E-04
  -7.96999979      -1.49953979E-04
  -7.96000004      -1.82173419E-04
  -7.94999981      -2.07745630E-04
  -7.94000006      -2.21284281E-04
  -7.92999983      -2.17279929E-04
  -7.92000008      -1.91942556E-04
  -7.90999985      -1.44754275E-04
  -7.90000010      -7.92045976E-05
  -7.88999987      -2.44933540E-06
  -7.88000011       7.60160401E-05
  -7.86999989       1.46273786E-04
  -7.86000013       1.99937364E-04
  -7.84999990       2.31616956E-04
  -7.84000015       2.39569359E-04
  -7.82999992       2.25485011E-04
  -7.82000017       1.93624801E-04
  -7.80999994       1.49671323E-04
  -7.80000019       9.96627568E-05
  -7.78999996       4.92521576E-05
  -7.78000021       3.34514789E-06
  -7.76999998      -3.40005608E-05
  -7.76000023      -5.96121245E-05
  -7.75000000      -7.13439949E-05
  -7.73999977      -6.83759281E-05
  -7.73000002      -5.15719221E-05
  -7.71999979      -2.37038512E-05
  -7.71000004       1.06650978E-05
  -7.69999981       4.57483693E-05
  -7.69000006       7.55060100E-05
  -7.67999983       9.48048182E-05
  -7.67000008       1.00459489E-04
  -7.65999985       9.18552832E-05
  -7.65000010       7.09710439E-05
  -7.63999987       4.18046911E-05
  -7.63000011       9.38593439E-06
  -7.61999989      -2.13230978E-05
  -7.61000013      -4.63293145E-05
  -7.59999990      -6.30973809E-05
  -7.59000015      -7.05707935E-05
  -7.57999992      -6.88318614E-05
  -7.57000017      -5.86112219E-05
  -7.55999994      -4.08709020E-05
  -7.55000019      -1.66114114E-05
  -7.53999996       1.30691396E-05
  -7.53000021       4.67542523E-05
  -7.51999998       8.24830859E-05
  -7.51000023       1.17667732E-04
  -7.50000000       1.49230211E-04
  -7.48999977       1.73936292E-04
  -7.48000002       1.88822727E-04
  -7.46999979       1.91586965E-04
  -7.46000004       1.80840841E-04
  -7.44999981       1.56202659E-04
  -7.44000006       1.18278469E-04