  -16.0000000       0.00000000    
  -15.9899998       0.00000000    
  -15.9799995       0.00000000    
  -15.9700003       0.00000000    
  -15.9600000       0.00000000    
  -15.9499998       0.00000000    
  -15.9399996       0.00000000    
  -15.9300003       0.00000000    
  -15.9200001       0.00000000    
  -15.9099998       0.00000000    
  -15.8999996       0.00000000    
  -15.8900003      -9.63202432E-37
  -15.8800001      -2.35112315E-35
  -15.8699999      -2.91818080E-34
  -15.8599997      -2.43992587E-33
  -15.8500004      -1.53710742E-32
  -15.8400002      -7.73979687E-32
  -15.8299999      -3.22619597E-31
  -15.8199997      -1.13743617E-30
  -15.8100004      -3.43250444E-30
  -15.8000002      -8.89238343E-30
  -15.7900000      -1.95976447E-29
  -15.7799997      -3.55519506E-29
  -15.7700005      -4.77119743E-29
  -15.7600002      -2.43435002E-29
  -15.7500000       1.07688457E-28
  -15.7399998       4.74992295E-28
  -15.7299995       1.23469751E-27
  -15.7200003       2.47192646E-27
  -15.7100000       3.97671870E-27
  -15.6999998       4.91275994E-27
  -15.6899996       3.51838050E-27
  -15.6800003      -2.83220189E-27
  -15.6700001      -1.67345547E-26
  -15.6599998      -3.86603443E-26
  -15.6499996      -6.39002663E-26
  -15.6400003      -7.99324036E-26
  -15.6300001      -6.68258494E-26
  -15.6199999      -3.32412735E-27
  -15.6099997       1.21553321E-25
  -15.6000004       2.97756091E-25
  -15.5900002       4.97158483E-25
  -15.5799999       7.01148990E-25
  -15.5699997       9.41198919E-25
  -15.5600004       1.29252789E-24
  -15.5500002       1.70885692E-24
  -15.5400000       1.59736109E-24
  -15.5299997      -7.87490900E-25
  -15.5200005      -8.62789557E-24
  -15.5100002      -2.54252978E-23
  -15.5000000      -5.11099762E-23
  -15.4899998      -7.48225355E-23
  -15.4799995      -6.66492675E-23
  -15.4700003       2.44045670E-23
  -15.4600000       2.53667451E-22
  -15.4499998       6.32244879E-22
  -15.4399996       1.04533930E-21
  -15.4300003       1.16615826E-21
  -15.4200001       4.39503011E-22
  -15.4099998      -1.75122072E-21
  -15.3999996      -5.62927386E-21
  -15.3900003      -1.02914508E-20
  -15.3800001      -1.29567552E-20
  -15.3699999      -8.80185361E-21
  -15.3599997       7.74661914E-21
  -15.3500004       3.95184148E-20
  -15.3400002       8.10280279E-20
  -15.3299999       1.12716955E-19
  -15.3199997       9.92009856E-20
  -15.3100004      -2.63169834E-21
  -15.3000002      -2.20753050E-19
  -15.2900000      -5.30981349E-19
  -15.2799997      -8.17333958E-19
  -15.2700005      -8.55106127E-19
  -15.2600002      -3.51976388E-19
  -15.2500000       9.22321582E-19
  -15.2399998       2.91762091E-18
  -15.2299995       5.05584578E-18
  -15.2200003       6.09047171E-18
  -15.2100000       4.26671671E-18
  -15.1999998      -2.03946529E-18
  -15.1899996      -1.31703027E-17
  -15.1800003      -2.67846459E-17
  -15.1700001      -3.68564152E-17
  -15.1599998      -3.40437265E-17
  -15.1499996      -8.39497332E-18
  -15.1400003       4.52378029E-17
  -15.1300001       1.20020373E-16
  -15.1199999       1.90957530E-16
  -15.1099997       2.14141126E-16
  -15.1000004       1.36254130E-16
  -15.0900002      -8.29080812E-17
  -15.0799999      -4.37379491E-16
  -15.0699997      -8.41744497E-16
  -15.0600004      -1.11591096E-15
  -15.0500002      -1.00995349E-15
  -15.0400000      -2.85448277E-16
  -15.0299997       1.14883036E-15
  -15.0200005       3.07963498E-15
  -15.0100002       4.87792214E-15
  -15.0000000       5.52427053E-15
  -14.9899998       3.85351752E-15
  -14.9799995      -9.55605101E-16
  -14.9700003      -8.72792998E-15
  -14.9600000      -1.76957820E-14
  -14.9499998      -2.42948260E-14
  -14.9399996      -2.37101107E-14
  -14.9300003      -1.13901969E-14
  -14.9200001       1.45885247E-14
  -14.9099998       5.09117386E-14
  -14.8999996       8.72673990E-14
  -14.8900003       1.06795588E-13
  -14.8800001       8.98803127E-14
  -14.8699999       2.15202476E-14
  -14.8599997      -9.90125340E-14
  -14.8500004      -2.49323565E-13
  -14.8400002      -3.80358993E-13
  -14.8299999      -4.22815483E-13
  -14.8199997      -3.06232877E-13
  -14.8100004       1.06650511E-14
  -14.8000002       5.05598655E-13
  -14.7900000       1.06721153E-12
  -14.7799997       1.49425730E-12
  -14.7700005       1.53293610E-12
  -14.7600002       9.56332886E-13
  -14.7500000      -3.26105435E-13
  -14.7399998      -2.15998660E-12
  -14.7299995      -4.08427979E-12
  -14.7200003      -5.36552833E-12
  -14.7100000      -5.16089558E-12
  -14.6999998      -2.80553228E-12
  -14.6899996       1.83342187E-12
  -14.6800003       8.04807870E-12
  -14.6700001       1.41715337E-11
  -14.6599998       1.77849523E-11
  -14.6499996       1.63155964E-11
  -14.6400003       7.96534019E-12
  -14.6300001      -7.24759705E-12
  -14.6199999      -2.66893591E-11
  -14.6099997      -4.49665999E-11
  -14.6000004      -5.47716872E-11
  -14.5900002      -4.88089569E-11
  -14.5799999      -2.25190595E-11
  -14.5699997       2.30988041E-11
  -14.5600004       7.95829444E-11
  -14.5500002       1.31095065E-10
  -14.5400000       1.57241553E-10
  -14.5299997       1.38647663E-10
  -14.5200005       6.42962905E-11
  -14.5100002      -6.13702630E-11
  -14.5000000      -2.14232368E-10
  -14.4899998      -3.51717461E-10
  -14.4799995      -4.20977753E-10
  -14.4700003      -3.73576003E-10
  -14.4600000      -1.83767015E-10
  -14.4499998       1.34794703E-10
  -14.4399996       5.20264609E-10
  -14.4300003       8.67398653E-10
  -14.4200001       1.04869879E-09
  -14.4099998       9.49919698E-10
  -14.3999996       5.12378806E-10
  -14.3900003      -2.30142919E-10
  -14.3800001      -1.13398324E-09
  -14.3699999      -1.95933314E-09
  -14.3599997      -2.41971998E-09
  -14.3500004      -2.26118013E-09
  -14.3400002      -1.35344158E-09
  -14.3299999       2.33445985E-10
  -14.3199997       2.19604757E-09
  -14.3100004       4.03049594E-09
  -14.3000002       5.13820986E-09
  -14.2900000       4.98916863E-09
  -14.2799997       3.30501826E-09
  -14.2700005       2.08523296E-10
  -14.2600002      -3.71629638E-09
  -14.2500000      -7.49367768E-09
  -14.2399998      -9.96364413E-09
  -14.2299995      -1.00940207E-08
  -14.2200003      -7.32279481E-09
  -14.2100000      -1.83089699E-09
  -14.1999998       5.35409628E-09
  -14.1899996       1.24907649E-08
  -14.1800003       1.75005237E-08
  -14.1700001       1.85211881E-08
  -14.1599998       1.45023815E-08
  -14.1499996       5.66895020E-09
  -14.1400003      -6.31322106E-09
  -14.1300001      -1.85732620E-08
  -14.1199999      -2.76726357E-08
  -14.1099997      -3.05200345E-08
  -14.1000004      -2.53342467E-08
  -14.0900002      -1.23726176E-08
  -14.0799999       5.83164717E-09
  -14.0699997       2.48710883E-08
  -14.0600004       3.94808275E-08
  -14.0500002       4.49566357E-08
  -14.0400000       3.86066574E-08
  -14.0299997       2.08064392E-08
  -14.0200005      -4.71400252E-09
  -14.0100002      -3.15405870E-08
  -14.0000000      -5.21284562E-08
  -13.9899998      -5.98865668E-08
  -13.9799995      -5.12356486E-08
  -13.9700003      -2.70183911E-08
  -13.9600000       7.24093008E-09
  -13.9499998       4.24443805E-08
  -13.9399996       6.82264272E-08
  -13.9300003       7.59063923E-08
  -13.9200001       6.12759834E-08
  -13.9099998       2.63659246E-08
  -13.8999996      -2.04549497E-08
  -13.8900003      -6.62673614E-08
  -13.8800001      -9.69533716E-08
  -13.8699999      -1.01286020E-07
  -13.8599997      -7.46200541E-08
  -13.8500004      -2.10432543E-08
  -13.8400002       4.68168331E-08
  -13.8299999       1.10526166E-07
  -13.8199997       1.50585166E-07
  -13.8100004       1.52000709E-07
  -13.8000002       1.09152616E-07
  -13.7900000       2.84718826E-08
  -13.7799997      -7.20603168E-08
  -13.7700005      -1.66760486E-07
  -13.7600002      -2.28660298E-07
  -13.7500000      -2.36912683E-07
  -13.7399998      -1.83185776E-07
  -13.7299995      -7.51600595E-08
  -13.7200003       6.40971365E-08
  -13.7100000       2.01048323E-07
  -13.6999998       2.99877229E-07
  -13.6899996       3.31949508E-07
  -13.6800003       2.84038293E-07
  -13.6700001       1.62968021E-07
  -13.6599998      -4.84604845E-09
  -13.6499996      -1.79187808E-07
  -13.6400003      -3.15937939E-07
  -13.6300001      -3.78648423E-07
  -13.6199999      -3.48745118E-07
  -13.6099997      -2.31485089E-07
  -13.6000004      -5.57682434E-08
  -13.5900002       1.32537849E-07
  -13.5799999       2.82346093E-07
  -13.5699997       3.51267516E-07
  -13.5600004       3.17996381E-07
  -13.5500002       1.89618120E-07
  -13.5400000       1.43230727E-09
  -13.5299997      -1.91233866E-07
  -13.5200005      -3.27568728E-07
  -13.5100002      -3.58623453E-07
  -13.5000000      -2.62824727E-07
  -13.4899998      -5.51101316E-08
  -13.4799995       2.13508443E-07
  -13.4700003       4.66786901E-07
  -13.4600000       6.22519053E-07
  -13.4499998       6.15704494E-07
  -13.4399996       4.19526344E-07
  -13.4300003       5.80038915E-08
  -13.4200001      -3.94164573E-07
  -13.4099998      -8.25994391E-07
  -13.3999996      -1.11647500E-06
  -13.3900003      -1.16677302E-06
  -13.3800001      -9.30130852E-07
  -13.3699999      -4.30918163E-07
  -13.3599997       2.33671429E-07
  -13.3500004       9.11719098E-07
  -13.3400002       1.43170678E-06
  -13.3299999       1.64686617E-06
  -13.3199997       1.47750961E-06
  -13.3100004       9.39397978E-07
  -13.3000002       1.48750217E-07
  -13.2900000      -7.00053135E-07
  -13.2799997      -1.38083476E-06
  -13.2700005      -1.69573173E-06
  -13.2600002      -1.53372628E-06
  -13.2500000      -9.10977064E-07
  -13.2399998       2.04408757E-08
  -13.2299995       1.00143882E-06
  -13.2200003       1.72864929E-06
  -13.2100000       1.93723895E-06
  -13.1999998       1.48282004E-06
  -13.1899996       3.99299466E-07
  -13.1800003      -1.08649965E-06
  -13.1700001      -2.59279909E-06
  -13.1599998      -3.66927884E-06
  -13.1499996      -3.91391268E-06
  -13.1400003      -3.09173652E-06
  -13.1300001      -1.22323672E-06
  -13.1199999       1.38533221E-06
  -13.1099997       4.18472428E-06
  -13.1000004       6.49549293E-06
  -13.0900002       7.66856192E-06
  -13.0799999       7.25613745E-06
  -13.0699997       5.14894191E-06
  -13.0600004       1.64024573E-06
  -13.0500002      -2.60727916E-06
  -13.0400000      -6.69246447E-06
  -13.0299997      -9.67912547E-06
  -13.0200005      -1.08255254E-05
  -13.0100002      -9.78234675E-06
  -13.0000000      -6.70506415E-06
  -12.9899998      -2.24468590E-06
  -12.9799995       2.58993941E-06
  -12.9700003       6.67165432E-06
  -12.9600000       9.04056105E-06
  -12.9499998       9.16320732E-06
  -12.9399996       7.09420328E-06
  -12.9300003       3.48960862E-06
  -12.9200001      -5.42925363E-07
  -12.9099998      -3.72950262E-06
  -12.8999996      -4.98413283E-06
  -12.8900003      -3.74069077E-06
  -12.8800001      -1.69573838E-07
  -12.8699999       4.79129858E-06
  -12.8599997       9.61796832E-06
  -12.8500004       1.25666011E-05
  -12.8400002       1.21442745E-05
  -12.8299999       7.56864256E-06
  -12.8199997      -9.07760125E-07
  -12.8100004      -1.19094611E-05
  -12.8000002      -2.31351441E-05
  -12.7900000      -3.18195780E-05
  -12.7799997      -3.53697178E-05
  -12.7700005      -3.20313229E-05
  -12.7600002      -2.14212159E-05
  -12.7500000      -4.77959566E-06
  -12.7399998       1.51457707E-05
  -12.7299995       3.45875997E-05
  -12.7200003       4.95314416E-05
  -12.7100000       5.66079725E-05
  -12.6999998       5.38992135E-05
  -12.6899996       4.14593851E-05
  -12.6800003       2.14074498E-05
  -12.6700001      -2.45647971E-06
  -12.6599998      -2.54458137E-05
  -12.6499996      -4.30242617E-05
  -12.6400003      -5.18476700E-05
  -12.6300001      -5.05597527E-05
  -12.6199999      -4.01376201E-05
  -12.6099997      -2.36830838E-05
  -12.6000004      -5.68645237E-06
  -12.5900002       9.07879348E-06
  -12.5799999       1.67728067E-05
  -12.5699997       1.55189391E-05
  -12.5600004       5.97804228E-06
  -12.5500002      -8.70161148E-06
  -12.5400000      -2.35816788E-05
  -12.5299997      -3.31410192E-05
  -12.5200005      -3.27201087E-05
  -12.5100002      -1.98540729E-05
  -12.5000000       4.84829388E-06
  -12.4899998       3.75314085E-05
  -12.4799995       7.17195144E-05
  -12.4700003       9.96461895E-05
  -12.4600000       1.14011658E-04
  -12.4499998       1.09771070E-04
  -12.4399996       8.55242833E-05
  -12.4300003       4.41474585E-05
  -12.4200001      -7.53289987E-06
  -12.4099998      -6.00056264E-05
  -12.3999996      -1.03037128E-04
  -12.3900003      -1.27909050E-04
  -12.3800001      -1.29422784E-04
  -12.3699999      -1.07192296E-04
  -12.3599997      -6.58923673E-05
  -12.3500004      -1.43606530E-05
  -12.3400002       3.62816900E-05
  -12.3299999       7.50878608E-05
  -12.3199997       9.37660807E-05
  -12.3100004       8.86012276E-05
  -12.3000002       6.13475277E-05
  -12.2900000       1.88508493E-05
  -12.2799997      -2.85450496E-05
  -12.2700005      -6.94606424E-05
  -12.2600002      -9.42420666E-05
  -12.2500000      -9.73609058E-05
  -12.2399998      -7.88557372E-05
  -12.2299995      -4.44309298E-05
  -12.2200003      -4.14132501E-06
  -12.2100000       3.00646698E-05
  -12.1999998       4.73806140E-05
  -12.1899996       4.10278044E-05
  -12.1800003       1.02688600E-05
  -12.1700001      -3.89907473E-05
  -12.1599998      -9.52307892E-05
  -12.1499996      -1.43803118E-04
  -12.1400003      -1.70341897E-04
  -12.1300001      -1.64313809E-04
  -12.1199999      -1.21855541E-04
  -12.1099997      -4.71803978E-05
  -12.1000004       4.78500697E-05
  -12.0900002       1.45970713E-04
  -12.0799999       2.28120785E-04
  -12.0699997       2.77621672E-04
  -12.0600004       2.83968140E-04
  -12.0500002       2.45338626E-04
  -12.0400000       1.69204999E-04
  -12.0299997       7.08537918E-05
  -12.0200005      -2.98843352E-05
  -12.0100002      -1.12973474E-04
  -12.0000000      -1.62593627E-04
  -11.9899998      -1.70623302E-04
  -11.9799995      -1.38369593E-04
  -11.9700003      -7.61331103E-05
  -11.9600000      -6.99095779E-07
  -11.9499998       6.86670610E-05
  -11.9399996       1.14787341E-04
  -11.9300003       1.26632483E-04
  -11.9200001       1.01922880E-04
  -11.9099998       4.76551395E-05
  -11.8999996      -2.15738582E-05
  -11.8900003      -8.70567310E-05
  -11.8800001      -1.30464337E-04
  -11.8699999      -1.38284129E-04
  -11.8599997      -1.05168947E-04
  -11.8500004      -3.54104195E-05
  -11.8400002       5.78132385E-05
  -11.8299999       1.55251211E-04
  -11.8199997       2.35816464E-04
  -11.8100004       2.81281304E-04
  -11.8000002       2.80366774E-04
  -11.7900000       2.31303304E-04
  -11.7799997       1.42292105E-04
  -11.7700005       2.97724819E-05
  -11.7600002      -8.51052100E-05
  -11.7500000      -1.81005831E-04
  -11.7399998      -2.40926500E-04
  -11.7299995      -2.55711609E-04
  -11.7200003      -2.25810290E-04
  -11.7100000      -1.60920390E-04
  -11.6999998      -7.76355737E-05
  -11.6899996       4.35114680E-06
  -11.6800003       6.66274136E-05
  -11.6700001       9.60539182E-05
  -11.6599998       8.75025144E-05
  -11.6499996       4.47654311E-05
  -11.6400003      -2.05265424E-05
  -11.6300001      -9.17000943E-05
  -11.6199999      -1.50902735E-04
  -11.6099997      -1.83164506E-04
  -11.6000004      -1.79761046E-04
  -11.5900002      -1.40148550E-04
  -11.5799999      -7.20642347E-05
  -11.5699997       1.02068252E-05
  -11.5600004       8.89975781E-05
  -11.5500002       1.47148734E-04
  -11.5400000       1.71763939E-04
  -11.5299997       1.57010843E-04
  -11.5200005       1.05365361E-04
  -11.5100002       2.70424971E-05
  -11.5000000      -6.22437801E-05
  -11.4899998      -1.44684716E-04
  -11.4799995      -2.04188007E-04
  -11.4700003      -2.29756857E-04
  -11.4600000      -2.17701891E-04
  -11.4499998      -1.72217857E-04
  -11.4399996      -1.04225226E-04
  -11.4300003      -2.87666153E-05
  -11.4200001       3.84320156E-05
  -11.4099998       8.44445894E-05
  -11.3999996       1.01883597E-04
  -11.3900003       9.02877437E-05
  -11.3800001       5.58733773E-05
  -11.3699999       9.74895465E-06
  -11.3599997      -3.49503571E-05
  -11.3500004      -6.63047322E-05
  -11.3400002      -7.64490105E-05
  -11.3299999      -6.33403761E-05
  -11.3199997      -3.10557443E-05
  -11.3100004       1.14168379E-05
  -11.3000002       5.25622672E-05
  -11.2900000       8.12871222E-05
  -11.2799997       8.96967904E-05
  -11.2700005       7.50221952E-05
  -11.2600002       4.02418773E-05
  -11.2500000      -6.72290025E-06
  -11.2399998      -5.50071345E-05
  -11.2299995      -9.34733907E-05
  -11.2200003      -1.13382222E-04
  -11.2100000      -1.10408786E-04
  -11.1999998      -8.55347971E-05
  -11.1899996      -4.46383892E-05
  -11.1800003       3.06884954E-06
  -11.1700001       4.73313339E-05
  -11.1599998       7.92799838E-05
  -11.1499996       9.34110649E-05
  -11.1400003       8.86609487E-05
  -11.1300001       6.83690887E-05
  -11.1199999       3.92029579E-05
  -11.1099997       9.36607012E-06
  -11.1000004      -1.34377824E-05
  -11.0900002      -2.37843506E-05
  -11.0799999      -1.96502351E-05
  -11.0699997      -2.66018128E-06
  -11.0600004       2.25317435E-05
  -11.0500002       4.95166823E-05
  -11.0400000       7.17172661E-05
  -11.0299997       8.39017666E-05
  -11.0200005       8.32952574E-05
  -11.0100002       7.00802484E-05
  -11.0000000       4.72334796E-05
  -10.9899998       1.97921727E-05
  -10.9799995      -6.25132907E-06
  -10.9700003      -2.51791025E-05
  -10.9600000      -3.26623813E-05
  -10.9499998      -2.65744475E-05
  -10.9399996      -7.38893823E-06
  -10.9300003       2.18726473E-05
  -10.9200001       5.61153174E-05
  -10.9099998       8.89890725E-05
  -10.8999996       1.13938841E-04
  -10.8900003       1.25346793E-04
  -10.8800001       1.19606273E-04
  -10.8699999       9.59534009E-05
  -10.8599997       5.68855212E-05
  -10.8500004       8.02764316E-06
  -10.8400002      -4.26205661E-05
  -10.8299999      -8.60158398E-05
  -10.8199997      -1.13805065E-04
  -10.8100004      -1.20157405E-04
  -10.8000002      -1.03303260E-04
  -10.7900000      -6.63788596E-05
  -10.7799997      -1.72669806E-05
  -10.7700005       3.26853442E-05
  -10.7600002       7.09331944E-05
  -10.7500000       8.65764887E-05
  -10.7399998       7.31636173E-05
  -10.7299995       3.07602822E-05
  -10.7200003      -3.33225726E-05
  -10.7100000      -1.05488005E-04
  -10.6999998      -1.68461120E-04
  -10.6899996      -2.05085875E-04
  -10.6800003      -2.02499054E-04
  -10.6700001      -1.55689529E-04
  -10.6599998      -6.95083436E-05
  -10.6499996       4.15038303E-05
  -10.6400003       1.55614893E-04
  -10.6300001       2.48304423E-04
  -10.6199999       2.97650869E-04
  -10.6099997       2.89482152E-04
  -10.6000004       2.21056020E-04
  -10.5900002       1.02330923E-04
  -10.5799999      -4.55738045E-05
  -10.5699997      -1.94471751E-04
  -10.5600004      -3.14888224E-04
  -10.5500002      -3.82240280E-04
  -10.5400000      -3.82025290E-04
  -10.5299997      -3.12852295E-04
  -10.5200005      -1.86653706E-04
  -10.5100002      -2.60741672E-05
  -10.5000000       1.40321485E-04
  -10.4899998       2.83901434E-04
  -10.4799995       3.81565624E-04
  -10.4700003       4.19894845E-04
  -10.4600000       3.97049473E-04
  -10.4499998       3.22174921E-04
  -10.4399996       2.12645347E-04
  -10.4300003       8.99312872E-05
  -10.4200001      -2.48928209E-05
  -10.4099998      -1.15012117E-04
  -10.3999996      -1.70370724E-04
  -10.3900003      -1.88467326E-04
  -10.3800001      -1.73532913E-04
  -10.3699999      -1.34523289E-04
  -10.3599997      -8.25545139E-05
  -10.3500004      -2.84261023E-05
  -10.3400002       1.92628195E-05
  -10.3299999       5.51334451E-05
  -10.3199997       7.71666892E-05
  -10.3100004       8.61512890E-05
  -10.3000002       8.47421252E-05
  -10.2900000       7.64401921E-05
  -10.2799997       6.47329798E-05
  -10.2700005       5.25193282E-05
  -10.2600002       4.18306845E-05
  -10.2500000       3.37852944E-05
  -10.2399998       2.86858049E-05
  -10.2299995       2.61890109E-05
  -10.2200003       2.55139093E-05
  -10.2100000       2.56861549E-05
  -10.1999998       2.58223245E-05
  -10.1899996       2.54323695E-05
  -10.1800003       2.46761338E-05
  -10.1700001       2.44742441E-05
  -10.1599998       2.63712027E-05
  -10.1499996       3.20954787E-05
  -10.1400003       4.28551321E-05
  -10.1300001       5.85229427E-05
  -10.1199999       7.69631515E-05
  -10.1099997       9.37886289E-05
  -10.1000004       1.02782127E-04
  -10.0900002       9.70636465E-05
  -10.0799999       7.08664302E-05
  -10.0699997       2.15545915E-05
  -10.0600004      -4.86523422E-05
  -10.0500002      -1.31820983E-04
  -10.0400000      -2.14758271E-04
  -10.0299997      -2.80940614E-04
  -10.0200005      -3.13699333E-04
  -10.0100002      -3.00059590E-04
  -10.0000000      -2.34356936E-04
  -9.98999977      -1.20684497E-04
  -9.97999954       2.65999352E-05
  -9.97000027       1.84673845E-04
  -9.96000004       3.26180714E-04
  -9.94999981       4.24567726E-04
  -9.93999958       4.59700095E-04
  -9.93000031       4.22473182E-04
  -9.92000008       3.17309983E-04
  -9.90999985       1.61880016E-04
  -9.89999962      -1.59932679E-05
  -9.89000034      -1.83618627E-04
  -9.88000011      -3.09787109E-04
  -9.86999989      -3.70815949E-04
  -9.85999966      -3.55003431E-04
  -9.85000038      -2.64596776E-04
  -9.84000015      -1.14956398E-04
  -9.82999992       6.87773281E-05
  -9.81999969       2.56692030E-04
  -9.81000042       4.19674558E-04
  -9.80000019       5.34414896E-04
  -9.78999996       5.86945040E-04
  -9.77999973       5.74209844E-04
  -9.77000046       5.03615476E-04
  -9.76000023       3.90885369E-04
  -9.75000000       2.56808940E-04
  -9.73999977       1.23554826E-04
  -9.72999954       1.11716872E-05
  -9.72000027      -6.52465533E-05
  -9.71000004      -9.74300419E-05
  -9.69999981      -8.47005867E-05
  -9.68999958      -3.36332560E-05
  -9.68000031       4.32896413E-05
  -9.67000008       1.29844775E-04
  -9.65999985       2.08776284E-04
  -9.64999962       2.64677888E-04
  -9.64000034       2.86610215E-04
  -9.63000011       2.69997574E-04
  -9.61999989       2.17416440E-04
  -9.60999966       1.38055009E-04
  -9.60000038       4.58715804E-05
  -9.59000015      -4.32378620E-05
  -9.57999992      -1.14705457E-04
  -9.56999969      -1.58293406E-04
  -9.56000042      -1.70153682E-04
  -9.55000019      -1.53453177E-04
  -9.53999996      -1.17393254E-04
  -9.52999973      -7.48328384E-05
  -9.52000046      -3.90670866E-05
  -9.51000023      -2.05320885E-05
  -9.50000000      -2.42371389E-05
  -9.48999977      -4.85592900E-05
  -9.47999954      -8.57082050E-05
  -9.47000027      -1.23762351E-04
  -9.46000004      -1.49789950E-04
  -9.44999981      -1.53295885E-04
  -9.43999958      -1.29145454E-04
  -9.43000031      -7.92285573E-05
  -9.42000008      -1.24196222E-05
  -9.40999985       5.72105746E-05
  -9.39999962       1.13558177E-04
  -9.39000034       1.42314631E-04
  -9.38000011       1.34573827E-04
  -9.36999989       8.93587421E-05
  -9.35999966       1.44350352E-05
  -9.35000038      -7.48402890E-05
  -9.34000015      -1.58440176E-04
  -9.32999992      -2.15750799E-04
  -9.31999969      -2.29927944E-04
  -9.31000042      -1.91559724E-04
  -9.30000019      -1.00814519E-04
  -9.28999996       3.24074135E-05
  -9.27999973       1.90343097E-04
  -9.27000046       3.50823713E-04
  -9.26000023       4.91532439E-04
  -9.25000000       5.94119716E-04
  -9.23999977       6.47305627E-04
  -9.22999954       6.48380199E-04
  -9.22000027       6.02918502E-04
  -9.21000004       5.22952119E-04
  -9.19999981       4.24165133E-04
  -9.18999958       3.22834385E-04
  -9.18000031       2.33187529E-04
  -9.17000008       1.65635603E-04
  -9.15999985       1.26038518E-04
  -9.14999962       1.15876719E-04
  -9.14000034       1.33015070E-04
  -9.13000011       1.72697415E-04
  -9.11999989       2.28493082E-04
  -9.10999966       2.93071789E-04
  -9.10000038       3.58834135E-04
  -9.09000015       4.18507290E-04
  -9.07999992       4.65795107E-04
  -9.06999969       4.96072054E-04
  -9.06000042       5.06983779E-04
  -9.05000019       4.98738489E-04
  -9.03999996       4.73897322E-04
  -9.02999973       4.36606089E-04
  -9.02000046       3.91418173E-04
  -9.01000023       3.42053361E-04
  -9.00000000       2.90531607E-04
  -8.98999977       2.37052969E-04
  -8.97999954       1.80761577E-04
  -8.97000027       1.21198420E-04
  -8.96000004       5.99331725E-05
  -8.94999981       1.69468433E-06
  -8.93999958      -4.56148373E-05
  -8.93000031      -7.23255216E-05
  -8.92000008      -6.96489515E-05
  -8.90999985      -3.28975111E-05
  -8.89999962       3.57323406E-05
  -8.89000034       1.25850042E-04
  -8.88000011       2.19749258E-04
  -8.86999989       2.95584556E-04
  -8.85999966       3.32239404E-04
  -8.85000038       3.14679375E-04
  -8.84000015       2.38308028E-04
  -8.82999992       1.11006921E-04
  -8.81999969      -4.78803631E-05
  -8.81000042      -2.11519640E-04
  -8.80000019      -3.51565017E-04
  -8.78999996      -4.44603356E-04
  -8.77999973      -4.77369322E-04
  -8.77000046      -4.49379615E-04
  -8.76000023      -3.72370763E-04
  -8.75000000      -2.66825373E-04
  -8.73999977      -1.56660637E-04
  -8.72999954      -6.35926626E-05
  -8.72000027      -2.66120855E-06
  -8.71000004       2.00646955E-05
  -8.69999981       7.30720967E-06
  -8.68999958      -3.16250771E-05
  -8.68000031      -8.41001456E-05
  -8.67000008      -1.37372801E-04
  -8.65999985      -1.80869436E-04
  -8.64999962      -2.07173696E-04
  -8.64000034      -2.11893814E-04
  -8.63000011      -1.92984211E-04
  -8.61999989      -1.50189444E-04
  -8.60999966      -8.50599536E-05
  -8.60000038      -1.56422459E-06
  -8.59000015       9.31166142E-05
  -8.57999992       1.88279853E-04
  -8.56999969       2.70493561E-04
  -8.56000042       3.25742614E-04
  -8.55000019       3.42630578E-04
  -8.53999996       3.15812475E-04
  -8.52999973       2.48545228E-04
  -8.52000046       1.53330649E-04
  -8.51000023       5.01053328E-05
  -8.50000000      -3.78375917E-05
  -8.48999977      -8.92602766E-05
  -8.47999954      -9.02803513E-05
  -8.47000027      -3.80316887E-05
  -8.46000004       5.84428381E-05
  -8.44999981       1.80420189E-04
  -8.43999958       3.04288202E-04
  -8.43000031       4.07572370E-04
  -8.42000008       4.74499771E-04
  -8.40999985       4.99542977E-04
  -8.39999962       4.87997808E-04
  -8.39000034       4.53542365E-04
  -8.38000011       4.13612113E-04
  -8.36999989       3.84042680E-04
  -8.35999966       3.74588155E-04
  -8.35000038       3.86587955E-04
  -8.34000015       4.13349539E-04
  -8.32999992       4.42967837E-04
  -8.31999969       4.62585711E-04
  -8.31000042       4.62717609E-04
  -8.30000019       4.40316420E-04
  -8.28999996       3.99713434E-04
  -8.27999973       3.51247931E-04
  -8.27000046       3.08099843E-04
  -8.26000023       2.82340508E-04
  -8.25000000       2.81387271E-04
  -8.23999977       3.05864669E-04
  -8.22999954       3.49415583E-04
  -8.22000027       4.00428835E-04
  -8.21000004       4.45130077E-04
  -8.19999981       4.71151754E-04
  -8.18999958       4.70632949E-04
  -8.18000031       4.42089164E-04
  -8.17000008       3.90650850E-04
  -8.15999985       3.26697103E-04
  -8.14999962       2.63289956E-04
  -8.14000034       2.13062362E-04
  -8.13000011       1.85293000E-04
  -8.11999989       1.83816359E-04
  -8.10999966       2.06202807E-04
  -8.10000038       2.44356401E-04
  -8.09000015       2.86376016E-04
  -8.07999992       3.19263287E-04
  -8.06999969       3.31885502E-04
  -8.06000042       3.17544444E-04
  -8.05000019       2.75575556E-04
  -8.03999996       2.11603154E-04
  -8.02999973       1.36370902E-04
  -8.02000046       6.33896925E-05
  -8.01000023       5.93063714E-06
  -8.00000000      -2.59399458E-05
  -7.98999977      -2.75805742E-05
  -7.98000002      -7.17672208E-07
  -7.96999979       4.71055755E-05
  -7.96000004       1.04421124E-04
  -7.94999981       1.58580922E-04
  -7.94000006       1.98660971E-04
  -7.92999983       2.17815788E-04
  -7.92000008       2.14544649E-04
  -7.90999985       1.92636668E-04
  -7.90000010       1.59909541E-04
  -7.88999987       1.26145213E-04
  -7.88000011       1.00782265E-04
  -7.86999989       9.09147493E-05
  -7.86000013       1.00000696E-04
  -7.84999990       1.27457592E-04
  -7.84000015       1.69099061E-04
  -7.82999992       2.18208355E-04
  -7.82000017       2.66975694E-04
  -7.80999994       3.08034389E-04
  -7.80000019       3.35883611E-04
  -7.78999996       3.48030211E-04
  -7.78000021       3.45696841E-04
  -7.76999998       3.33943201E-04
  -7.76000023       3.21060943E-04
  -7.75000000       3.17178376E-04
  -7.73999977       3.32163443E-04
  -7.73000002       3.73138435E-04
  -7.71999979       4.42141900E-04
  -7.71000004       5.34603023E-04
  -7.69999981       6.39244274E-04
  -7.69000006       7.39757379E-04
  -7.67999983       8.18143599E-04
  -7.67000008       8.59084481E-04
  -7.65999985       8.54278042E-04
  -7.65000010       8.05501302E-04
  -7.63999987       7.25353893E-04
  -7.63000011       6.35176781E-04
  -7.61999989       5.60414570E-04
  -7.61000013       5.24466624E-04
  -7.59999990       5.42608905E-04
  -7.59000015       6.17670186E-04
  -7.57999992       7.38753180E-04
  -7.57000017       8.83480534E-04
  -7.55999994       1.02325680E-03
  -7.55000019       1.13016227E-03
  -7.53999996       1.18361891E-03
  -7.53000021       1.17503479E-03
  -7.51999998       1.10924058E-03
  -7.51000023       1.00248191E-03
  -7.50000000       8.77732702E-04
  -7.48999977       7.58822775E-04
  -7.48000002       6.65106287E-04
  -7.46999979       6.08080707E-04
  -7.46000004       5.90621610E-04
  -7.44999981       6.08596951E-04
  -7.44000006       6.53887109E-04