  -16.0000000       0.00000000    
  -15.9899998       0.00000000    
  -15.9799995       0.00000000    
  -15.9700003       0.00000000    
  -15.9600000       0.00000000    
  -15.9499998       0.00000000    
  -15.9399996       0.00000000    
  -15.9300003       0.00000000    
  -15.9200001       0.00000000    
  -15.9099998       0.00000000    
  -15.8999996       0.00000000    
  -15.8900003      -4.26176482E-39
  -15.8800001      -8.64161089E-38
  -15.8699999      -1.13745921E-36
  -15.8599997      -1.13128833E-35
  -15.8500004      -8.51999683E-35
  -15.8400002      -4.93670250E-34
  -15.8299999      -2.26121436E-33
  -15.8199997      -8.42775230E-33
  -15.8100004      -2.64313431E-32
  -15.8000002      -7.34903728E-32
  -15.7900000      -1.97963146E-31
  -15.7799997      -5.73190324E-31
  -15.7700005      -1.83190375E-30
  -15.7600002      -5.99045500E-30
  -15.7500000      -1.83932223E-29
  -15.7399998      -5.05383457E-29
  -15.7299995      -1.21439152E-28
  -15.7200003      -2.50545551E-28
  -15.7100000      -4.29587100E-28
  -15.6999998      -5.60765800E-28
  -15.6899996      -3.68620680E-28
  -15.6800003       6.50900573E-28
  -15.6700001       3.08828895E-27
  -15.6599998       7.05215688E-27
  -15.6499996       1.10140374E-26
  -15.6400003       1.03294317E-26
  -15.6300001      -3.38525252E-27
  -15.6199999      -3.96273491E-26
  -15.6099997      -1.00112618E-25
  -15.6000004      -1.62247290E-25
  -15.5900002      -1.59550656E-25
  -15.5799999       2.54887091E-26
  -15.5699997       5.28100665E-25
  -15.5600004       1.39507083E-24
  -15.5500002       2.39329236E-24
  -15.5400000       2.78132259E-24
  -15.5299997       1.19633458E-24
  -15.5200005      -4.07491741E-24
  -15.5100002      -1.41259713E-23
  -15.5000000      -2.75980937E-23
  -15.4899998      -3.83040626E-23
  -15.4799995      -3.34774046E-23
  -15.4700003       5.15828494E-24
  -15.4600000       9.46561836E-23
  -15.4499998       2.36260812E-22
  -15.4399996       3.93828520E-22
  -15.4300003       4.72222387E-22
  -15.4200001       3.11151278E-22
  -15.4099998      -2.82288889E-22
  -15.3999996      -1.43825989E-21
  -15.3900003      -3.05668965E-21
  -15.3800001      -4.59689510E-21
  -15.3699999      -4.91726886E-21
  -15.3599997      -2.33251018E-21
  -15.3500004       4.89702232E-21
  -15.3400002       1.74730886E-20
  -15.3299999       3.34025839E-20
  -15.3199997       4.62330664E-20
  -15.3100004       4.42208978E-20
  -15.3000002       1.20090033E-20
  -15.2900000      -6.35263854E-20
  -15.2799997      -1.82518604E-19
  -15.2700005      -3.18082973E-19
  -15.2600002      -4.04484754E-19
  -15.2500000      -3.37253116E-19
  -15.2399998       2.55483275E-21
  -15.2299995       6.90527273E-19
  -15.2200003       1.66956325E-18
  -15.2100000       2.65251159E-18
  -15.1999998       3.06790122E-18
  -15.1899996       2.12259301E-18
  -15.1800003      -9.45483157E-19
  -15.1700001      -6.39648221E-18
  -15.1599998      -1.33744244E-17
  -15.1499996      -1.93752467E-17
  -15.1400003      -2.01753487E-17
  -15.1300001      -1.06659629E-17
  -15.1199999       1.30912499E-17
  -15.1099997       5.06900051E-17
  -15.1000004       9.38976852E-17
  -15.0900002       1.24515908E-16
  -15.0799999       1.15842754E-16
  -15.0699997       3.98590676E-17
  -15.0600004      -1.19128077E-16
  -15.0500002      -3.46510353E-16
  -15.0400000      -5.81112459E-16
  -15.0299997      -7.10367463E-16
  -15.0200005      -5.88033089E-16
  -15.0100002      -8.21939001E-17
  -15.0000000       8.48446116E-16
  -14.9899998       2.06764491E-15
  -14.9799995       3.19956383E-15
  -14.9700003       3.63956674E-15
  -14.9600000       2.68326189E-15
  -14.9499998      -2.07411026E-16
  -14.9399996      -5.03567906E-15
  -14.9300003      -1.09055433E-14
  -14.9200001      -1.58357519E-14
  -14.9099998      -1.69550297E-14
  -14.8999996      -1.12330189E-14
  -14.8900003       3.24924401E-15
  -14.8800001       2.57305045E-14
  -14.8699999       5.14268126E-14
  -14.8599997       7.11551112E-14
  -14.8500004       7.26715576E-14
  -14.8400002       4.41523107E-14
  -14.8299999      -2.04511463E-14
  -14.8199997      -1.15423716E-13
  -14.8100004      -2.18885308E-13
  -14.8000002      -2.92753912E-13
  -14.7900000      -2.89518111E-13
  -14.7799997      -1.66706519E-13
  -14.7700005       9.28225392E-14
  -14.7600002       4.60077939E-13
  -14.7500000       8.46919811E-13
  -14.7399998       1.11021695E-12
  -14.7299995       1.08033103E-12
  -14.7200003       6.14807304E-13
  -14.7100000      -3.31576075E-13
  -14.6999998      -1.64013876E-12
  -14.6899996      -2.99296850E-12
  -14.6800003      -3.89788375E-12
  -14.6700001      -3.79266757E-12
  -14.6599998      -2.22552163E-12
  -14.6499996       9.22180409E-13
  -14.6400003       5.23637947E-12
  -14.6300001       9.68004236E-12
  -14.6199999       1.26946422E-11
  -14.6099997       1.25397115E-11
  -14.6000004       7.84766262E-12
  -14.5900002      -1.71849514E-12
  -14.5799999      -1.49018037E-11
  -14.5699997      -2.86262802E-11
  -14.5600004      -3.83299434E-11
  -14.5500002      -3.89619413E-11
  -14.5400000      -2.65530722E-11
  -14.5299997      -2.90189354E-14
  -14.5200005       3.72772438E-11
  -14.5100002       7.70567082E-11
  -14.5000000       1.06951191E-10
  -14.4899998       1.13209948E-10
  -14.4799995       8.47968015E-11
  -14.4700003       1.80714298E-11
  -14.4600000      -7.93348304E-11
  -14.4499998      -1.87030946E-10
  -14.4399996      -2.74080980E-10
  -14.4300003      -3.05436759E-10
  -14.4200001      -2.51869192E-10
  -14.4099998      -1.01290129E-10
  -14.3999996       1.31770997E-10
  -14.3900003       4.02181233E-10
  -14.3800001       6.38694264E-10
  -14.3699999       7.58071050E-10
  -14.3599997       6.87242707E-10
  -14.3500004       3.88904214E-10
  -14.3400002      -1.16479770E-10
  -14.3299999      -7.40119244E-10
  -14.3199997      -1.33224654E-09
  -14.3100004      -1.71000591E-09
  -14.3000002      -1.70288528E-09
  -14.2900000      -1.20652666E-09
  -14.2799997      -2.30871433E-10
  -14.2700005       1.07320164E-09
  -14.2600002       2.42197151E-09
  -14.2500000       3.44770323E-09
  -14.2399998       3.78349974E-09
  -14.2299995       3.16775428E-09
  -14.2200003       1.54235280E-09
  -14.2100000      -8.85007012E-10
  -14.1999998      -3.63992103E-09
  -14.1899996      -6.05491390E-09
  -14.1800003      -7.41202610E-09
  -14.1700001      -7.12804704E-09
  -14.1599998      -4.93903096E-09
  -14.1499996      -1.03287268E-09
  -14.1400003       3.91594401E-09
  -14.1300001       8.83619666E-09
  -14.1199999       1.24712853E-08
  -14.1099997       1.36752174E-08
  -14.1000004       1.17274386E-08
  -14.0900002       6.58569199E-09
  -14.0799999      -9.99148320E-10
  -14.0699997      -9.55608126E-09
  -14.0600004      -1.71614545E-08
  -14.0500002      -2.18570531E-08
  -14.0400000      -2.21299761E-08
  -14.0299997      -1.73388734E-08
  -14.0200005      -7.97209321E-09
  -14.0100002       4.34546354E-09
  -14.0000000       1.71238881E-08
  -13.9899998       2.75168155E-08
  -13.9799995       3.29617400E-08
  -13.9700003       3.18048237E-08
  -13.9600000       2.37555682E-08
  -13.9499998       1.00483089E-08
  -13.9399996      -6.74729117E-09
  -13.9300003      -2.32406858E-08
  -13.9200001      -3.59517500E-08
  -13.9099998      -4.20919513E-08
  -13.8999996      -4.02089952E-08
  -13.8900003      -3.05354817E-08
  -13.8800001      -1.49505617E-08
  -13.8699999       3.44280737E-09
  -13.8599997       2.10260964E-08
  -13.8500004       3.44865363E-08
  -13.8400002       4.15478532E-08
  -13.8299999       4.14273416E-08
  -13.8199997       3.49052804E-08
  -13.8100004       2.39938256E-08
  -13.8000002       1.13001990E-08
  -13.7900000      -7.35175198E-10
  -13.7799997      -1.05051230E-08
  -13.7700005      -1.76060748E-08
  -13.7600002      -2.27895107E-08
  -13.7500000      -2.74904242E-08
  -13.7399998      -3.30591554E-08
  -13.7299995      -3.99293434E-08
  -13.7200003      -4.70047077E-08
  -13.7100000      -5.15199119E-08
  -13.6999998      -4.95233330E-08
  -13.6899996      -3.69611364E-08
  -13.6800003      -1.11510579E-08
  -13.6700001       2.77291523E-08
  -13.6599998       7.55985354E-08
  -13.6499996       1.24304051E-07
  -13.6400003       1.62596024E-07
  -13.6300001       1.78251156E-07
  -13.6199999       1.61026122E-07
  -13.6099997       1.05827645E-07
  -13.6000004       1.52981379E-08
  -13.5900002      -9.89924729E-08
  -13.5799999      -2.17350589E-07
  -13.5699997      -3.14955429E-07
  -13.5600004      -3.66714289E-07
  -13.5500002      -3.53106060E-07
  -13.5400000      -2.65736219E-07
  -13.5299997      -1.11185024E-07
  -13.5200005       8.80764546E-08
  -13.5100002       2.96387356E-07
  -13.5000000       4.71108706E-07
  -13.4899998       5.71355940E-07
  -13.4799995       5.67503037E-07
  -13.4700003       4.49284215E-07
  -13.4600000       2.30376799E-07
  -13.4499998      -5.20574623E-08
  -13.4399996      -3.43353946E-07
  -13.4300003      -5.82046766E-07
  -13.4200001      -7.13253030E-07
  -13.4099998      -7.01832278E-07
  -13.3999996      -5.42162979E-07
  -13.3900003      -2.61874050E-07
  -13.3800001       8.19327468E-08
  -13.3699999       4.13760802E-07
  -13.3599997       6.56105385E-07
  -13.3500004       7.47692297E-07
  -13.3400002       6.59351713E-07
  -13.3299999       4.03504828E-07
  -13.3199997       3.44312383E-08
  -13.3100004      -3.61540486E-07
  -13.3000002      -6.84420286E-07
  -13.2900000      -8.43830492E-07
  -13.2799997      -7.81985420E-07
  -13.2700005      -4.90831610E-07
  -13.2600002      -1.87345446E-08
  -13.2500000       5.35783101E-07
  -13.2399998       1.04286983E-06
  -13.2299995       1.36933579E-06
  -13.2200003       1.40996065E-06
  -13.2100000       1.11502402E-06
  -13.1999998       5.07305117E-07
  -13.1899996      -3.16240005E-07
  -13.1800003      -1.19968786E-06
  -13.1700001      -1.95798452E-06
  -13.1599998      -2.41559587E-06
  -13.1499996      -2.44574335E-06
  -13.1400003      -2.00134855E-06
  -13.1300001      -1.13021758E-06
  -13.1199999       2.97926874E-08
  -13.1099997       1.27547298E-06
  -13.1000004       2.37810400E-06
  -13.0900002       3.13002965E-06
  -13.0799999       3.38769200E-06
  -13.0699997       3.10135238E-06
  -13.0600004       2.32455955E-06
  -13.0500002       1.20102970E-06
  -13.0400000      -6.80986432E-08
  -13.0299997      -1.26891644E-06
  -13.0200005      -2.22060612E-06
  -13.0100002      -2.81139182E-06
  -13.0000000      -3.01582440E-06
  -12.9899998      -2.88929550E-06
  -12.9799995      -2.54154588E-06
  -12.9700003      -2.09654513E-06
  -12.9600000      -1.65003075E-06
  -12.9499998      -1.23708298E-06
  -12.9399996      -8.19941988E-07
  -12.9300003      -3.01193637E-07
  -12.9200001       4.39377828E-07
  -12.9099998       1.49290668E-06
  -12.8999996       2.86837599E-06
  -12.8900003       4.45420255E-06
  -12.8800001       6.00829298E-06
  -12.8699999       7.18449610E-06
  -12.8599997       7.59477916E-06
  -12.8500004       6.89704302E-06
  -12.8400002       4.89053082E-06
  -12.8299999       1.59644742E-06
  -12.8199997      -2.69801467E-06
  -12.8100004      -7.44809677E-06
  -12.8000002      -1.19178867E-05
  -12.7900000      -1.52975863E-05
  -12.7799997      -1.68522129E-05
  -12.7700005      -1.60732598E-05
  -12.7600002      -1.28014881E-05
  -12.7500000      -7.29237763E-06
  -12.7399998      -2.05789519E-07
  -12.7299995       7.48380126E-06
  -12.7200003       1.46435541E-05
  -12.7100000       2.01771672E-05
  -12.6999998       2.32209641E-05
  -12.6899996       2.33015999E-05
  -12.6800003       2.04223088E-05
  -12.6700001       1.50584719E-05
  -12.6599998       8.06197932E-06
  -12.6499996       4.93291168E-07
  -12.6400003      -6.58398312E-06
  -12.6300001      -1.23024620E-05
  -12.6199999      -1.61415446E-05
  -12.6099997      -1.79967919E-05
  -12.6000004      -1.81536689E-05
  -12.5900002      -1.71729116E-05
  -12.5799999      -1.57152499E-05
  -12.5699997      -1.43478701E-05
  -12.5600004      -1.33799795E-05
  -12.5500002      -1.27689391E-05
  -12.5400000      -1.21224211E-05
  -12.5299997      -1.07994465E-05
  -12.5200005      -8.08904588E-06
  -12.5100002      -3.42527665E-06
  -12.5000000       3.41371265E-06
  -12.4899998       1.21738613E-05
  -12.4799995       2.20987004E-05
  -12.4700003       3.20232866E-05
  -12.4600000       4.05759783E-05
  -12.4499998       4.64492950E-05
  -12.4399996       4.86826066E-05
  -12.4300003       4.68930957E-05
  -12.4200001       4.13996531E-05
  -12.4099998       3.32052405E-05
  -12.3999996       2.38332686E-05
  -12.3900003       1.50455653E-05
  -12.3800001       8.49683329E-06
  -12.3699999       5.39665280E-06
  -12.3599997       6.25105804E-06
  -12.3500004       1.07408905E-05
  -12.3400002       1.77663478E-05
  -12.3299999       2.56522708E-05
  -12.3199997       3.24741923E-05
  -12.3100004       3.64387997E-05
  -12.3000002       3.62400133E-05
  -12.2900000       3.13164419E-05
  -12.2799997       2.19566846E-05
  -12.2700005       9.23142579E-06
  -12.2600002      -5.23149811E-06
  -12.2500000      -1.95791999E-05
  -12.2399998      -3.21002044E-05
  -12.2299995      -4.15456852E-05
  -12.2200003      -4.73365835E-05
  -12.2100000      -4.96137545E-05
  -12.1999998      -4.91236533E-05
  -12.1899996      -4.69694205E-05
  -12.1800003      -4.42875789E-05
  -12.1700001      -4.19277712E-05
  -12.1599998      -4.02125406E-05
  -12.1499996      -3.88364715E-05
  -12.1400003      -3.69324953E-05
  -12.1300001      -3.32949639E-05
  -12.1199999      -2.67122286E-05
  -12.1099997      -1.63346613E-05
  -12.1000004      -1.99280885E-06
  -12.0900002       1.56119131E-05
  -12.0799999       3.48966823E-05
  -12.0699997       5.35821855E-05
  -12.0600004       6.90464585E-05
  -12.0500002       7.87834870E-05
  -12.0400000       8.08775221E-05
  -12.0299997       7.43971177E-05
  -12.0200005       5.96262216E-05
  -12.0100002       3.80803722E-05
  -12.0000000       1.22983311E-05
  -11.9899998      -1.45553468E-05
  -11.9799995      -3.92029688E-05
  -11.9700003      -5.87841023E-05
  -11.9600000      -7.13025001E-05
  -11.9499998      -7.59053873E-05
  -11.9399996      -7.29453241E-05
  -11.9300003      -6.38193014E-05
  -11.9200001      -5.06247234E-05
  -11.9099998      -3.57084391E-05
  -11.8999996      -2.12043669E-05
  -11.8900003      -8.65478705E-06
  -11.8800001       1.21069002E-06
  -11.8699999       8.50060405E-06
  -11.8599997       1.39970625E-05
  -11.8500004       1.88476315E-05
  -11.8400002       2.41899725E-05
  -11.8299999       3.07977352E-05
  -11.8199997       3.88286644E-05
  -11.8100004       4.77305839E-05
  -11.8000002       5.63241811E-05
  -11.7900000       6.30412978E-05
  -11.7799997       6.62632738E-05
  -11.7700005       6.46829212E-05
  -11.7600002       5.76099046E-05
  -11.7500000       4.51536980E-05
  -11.7399998       2.82464771E-05
  -11.7299995       8.50385459E-06
  -11.7200003      -1.20437771E-05
  -11.7100000      -3.12900411E-05
  -11.6999998      -4.73898472E-05
  -11.6899996      -5.90269774E-05
  -11.6800003      -6.55622207E-05
  -11.6700001      -6.70405498E-05
  -11.6599998      -6.40674043E-05
  -11.6499996      -5.75921476E-05
  -11.6400003      -4.86547033E-05
  -11.6300001      -3.81560785E-05
  -11.6199999      -2.67043088E-05
  -11.6099997      -1.45670592E-05
  -11.6000004      -1.73549324E-06
  -11.5900002       1.19225360E-05
  -11.5799999       2.64627633E-05
  -11.5699997       4.16715229E-05
  -11.5600004       5.69311414E-05
  -11.5500002       7.11821704E-05
  -11.5400000       8.29995115E-05
  -11.5299997       9.07743670E-05
  -11.5200005       9.29708913E-05
  -11.5100002       8.84096517E-05
  -11.5000000       7.65232617E-05
  -11.4899998       5.75334889E-05
  -11.4799995       3.25130823E-05
  -11.4700003       3.31644151E-06
  -11.4600000      -2.76131905E-05
  -11.4499998      -5.75302402E-05
  -11.4399996      -8.37210246E-05
  -11.4300003      -1.03832092E-04
  -11.4200001      -1.16140945E-04
  -11.4099998      -1.19729244E-04
  -11.3999996      -1.14536495E-04
  -11.3900003      -1.01294674E-04
  -11.3800001      -8.13650040E-05
  -11.3699999      -5.65148184E-05
  -11.3599997      -2.86805353E-05
  -11.3500004       2.38721896E-07
  -11.3400002       2.85235001E-05
  -11.3299999       5.46974334E-05
  -11.3199997       7.75182489E-05
  -11.3100004       9.59224490E-05
  -11.3000002       1.08962435E-04
  -11.2900000       1.15777046E-04
  -11.2799997       1.15626775E-04
  -11.2700005       1.08005173E-04
  -11.2600002       9.28124864E-05
  -11.2500000       7.05525017E-05
  -11.2399998       4.24963109E-05
  -11.2299995       1.07520054E-05
  -11.2200003      -2.18092246E-05
  -11.2100000      -5.17939552E-05
  -11.1999998      -7.56816735E-05
  -11.1899996      -9.03234395E-05
  -11.1800003      -9.34619457E-05
  -11.1700001      -8.41749061E-05
  -11.1599998      -6.31474322E-05
  -11.1499996      -3.27039452E-05
  -11.1400003       3.42837916E-06
  -11.1300001       4.06027684E-05
  -11.1199999       7.39125389E-05
  -11.1099997       9.89207401E-05
  -11.1000004       1.12336733E-04
  -11.0900002       1.12523136E-04
  -11.0799999       9.97450697E-05
  -11.0699997       7.61187475E-05
  -11.0600004       4.52682725E-05
  -11.0500002       1.17497257E-05
  -11.0400000      -1.96603760E-05
  -11.0299997      -4.46945742E-05
  -11.0200005      -6.02243745E-05
  -11.0100002      -6.46925400E-05
  -11.0000000      -5.82844623E-05
  -10.9899998      -4.28191270E-05
  -10.9799995      -2.13849653E-05
  -10.9700003       2.21404412E-06
  -10.9600000       2.41081925E-05
  -10.9499998       4.10003413E-05
  -10.9399996       5.06883407E-05
  -10.9300003       5.23865892E-05
  -10.9200001       4.67947320E-05
  -10.9099998       3.59033729E-05
  -10.8999996       2.25709591E-05
  -10.8900003       9.94643051E-06
  -10.8800001       8.40850873E-07
  -10.8699999      -2.83687541E-06
  -10.8599997      -4.73330260E-07
  -10.8500004       7.10551467E-06
  -10.8400002       1.77740458E-05
  -10.8299999       2.85117312E-05
  -10.8199997       3.60024751E-05
  -10.8100004       3.73179064E-05
  -10.8000002       3.05535286E-05
  -10.7900000       1.52912999E-05
  -10.7799997      -7.20811340E-06
  -10.7700005      -3.41300838E-05
  -10.7600002      -6.15340396E-05
  -10.7500000      -8.50114520E-05
  -10.7399998      -1.00454170E-04
  -10.7299995      -1.04790088E-04
  -10.7200003      -9.65469299E-05
  -10.7100000      -7.61363553E-05
  -10.6999998      -4.58029426E-05
  -10.6899996      -9.24578671E-06
  -10.6800003       2.90176995E-05
  -10.6700001       6.44276442E-05
  -10.6599998       9.31531758E-05
  -10.6499996       1.12716567E-04
  -10.6400003       1.22355385E-04
  -10.6300001       1.23057456E-04
  -10.6199999       1.17264732E-04
  -10.6099997       1.08304906E-04
  -10.6000004       9.96605959E-05
  -10.5900002       9.42179831E-05
  -10.5799999       9.36417418E-05
  -10.5699997       9.80011537E-05
  -10.5600004       1.05726343E-04
  -10.5500002       1.13911628E-04
  -10.5400000       1.18915705E-04
  -10.5299997       1.17148695E-04
  -10.5200005       1.05895102E-04
  -10.5100002       8.40085413E-05
  -10.5000000       5.23322306E-05
  -10.4899998       1.37465022E-05
  -10.4799995      -2.71861081E-05
  -10.4700003      -6.49297726E-05
  -10.4600000      -9.39182282E-05
  -10.4499998      -1.09560468E-04
  -10.4399996      -1.09119523E-04
  -10.4300003      -9.22927866E-05
  -10.4200001      -6.13749144E-05
  -10.4099998      -2.09623067E-05
  -10.3999996       2.27546625E-05
  -10.3900003       6.29861970E-05
  -10.3800001       9.34435229E-05
  -10.3699999       1.09344757E-04
  -10.3599997       1.08145468E-04
  -10.3500004       8.98682847E-05
  -10.3400002       5.69848307E-05
  -10.3299999       1.38893956E-05
  -10.3199997      -3.39199760E-05
  -10.3100004      -8.07865363E-05
  -10.3000002      -1.21783567E-04
  -10.2900000      -1.53385030E-04
  -10.2799997      -1.73808497E-04
  -10.2700005      -1.82992531E-04
  -10.2600002      -1.82246615E-04
  -10.2500000      -1.73675973E-04
  -10.2399998      -1.59524396E-04
  -10.2299995      -1.41586614E-04
  -10.2200003      -1.20818273E-04
  -10.2100000      -9.72224443E-05
  -10.1999998      -7.00259116E-05
  -10.1899996      -3.80936872E-05
  -10.1800003      -4.76583693E-07
  -10.1700001       4.30418331E-05
  -10.1599998       9.15326600E-05
  -10.1499996       1.42747580E-04
  -10.1400003       1.93236177E-04
  -10.1300001       2.38744746E-04
  -10.1199999       2.74826627E-04
  -10.1099997       2.97548773E-04
  -10.1000004       3.04157322E-04
  -10.0900002       2.93572142E-04
  -10.0799999       2.66611838E-04
  -10.0699997       2.25902899E-04
  -10.0600004       1.75486275E-04
  -10.0500002       1.20191660E-04
  -10.0400000       6.48925561E-05
  -10.0299997       1.37780553E-05
  -10.0200005      -3.02257886E-05
  -10.0100002      -6.57787677E-05
  -10.0000000      -9.31329123E-05
  -9.98999977      -1.13820417E-04
  -9.97999954      -1.30081651E-04
  -9.97000027      -1.44145495E-04
  -9.96000004      -1.57510673E-04
  -9.94999981      -1.70387444E-04
  -9.93999958      -1.81439798E-04
  -9.93000031      -1.87917991E-04
  -9.92000008      -1.86196019E-04
  -9.90999985      -1.72640430E-04
  -9.89999962      -1.44651858E-04
  -9.89000034      -1.01659847E-04
  -9.88000011      -4.58304894E-05
  -9.86999989       1.77224047E-05
  -9.85999966       8.13482620E-05
  -9.85000038       1.35895156E-04
  -9.84000015       1.72231797E-04
  -9.82999992       1.82992866E-04
  -9.81999969       1.64204117E-04
  -9.81000042       1.16433403E-04
  -9.80000019       4.51816486E-05
  -9.78999996      -3.96351352E-05
  -9.77999973      -1.25081424E-04
  -9.77000046      -1.97258836E-04
  -9.76000023      -2.43660194E-04
  -9.75000000      -2.55381165E-04
  -9.73999977      -2.28764140E-04
  -9.72999954      -1.66153433E-04
  -9.72000027      -7.56106674E-05
  -9.71000004       3.03594607E-05
  -9.69999981       1.36836330E-04
  -9.68999958       2.28890960E-04
  -9.68000031       2.93944497E-04
  -9.67000008       3.23675544E-04
  -9.65999985       3.15175450E-04
  -9.64999962       2.71201163E-04
  -9.64000034       1.99537433E-04
  -9.63000011       1.11628608E-04
  -9.61999989       2.07425546E-05
  -9.60999966      -6.00225248E-05
  -9.60000038      -1.19584838E-04
  -9.59000015      -1.50329070E-04
  -9.57999992      -1.48991545E-04
  -9.56999969      -1.16905736E-04
  -9.56000042      -5.96222162E-05
  -9.55000019       1.40080410E-05
  -9.53999996       9.31437171E-05
  -9.52999973       1.66478887E-04
  -9.52000046       2.23792813E-04
  -9.51000023       2.57334817E-04
  -9.50000000       2.62874673E-04
  -9.48999977       2.40283669E-04
  -9.47999954       1.93562359E-04
  -9.47000027       1.30294371E-04
  -9.46000004       6.05803907E-05
  -9.44999981      -4.41902284E-06
  -9.43999958      -5.41356894E-05
  -9.43000031      -8.02013528E-05
  -9.42000008      -7.77593523E-05
  -9.40999985      -4.62601638E-05
  -9.39999962       1.04063683E-05
  -9.39000034       8.44830356E-05
  -9.38000011       1.65539968E-04
  -9.36999989       2.42095513E-04
  -9.35999966       3.03384149E-04
  -9.35000038       3.40963074E-04
  -9.34000015       3.49881215E-04
  -9.32999992       3.29223549E-04
  -9.31999969       2.81972112E-04
  -9.31000042       2.14261119E-04
  -9.30000019       1.34216927E-04
  -9.28999996       5.06370707E-05
  -9.27999973      -2.82366254E-05
  -9.27000046      -9.56543008E-05
  -9.26000023      -1.46903418E-04
  -9.25000000      -1.79468290E-04
  -9.23999977      -1.92891952E-04
  -9.22999954      -1.88468213E-04
  -9.22000027      -1.68881583E-04
  -9.21000004      -1.37865165E-04
  -9.19999981      -9.98845426E-05
  -9.18999958      -5.98065490E-05
  -9.18000031      -2.24983505E-05
  -9.17000008       7.67156143E-06
  -9.15999985       2.74003305E-05
  -9.14999962       3.49912625E-05
  -9.14000034       3.07304945E-05
  -9.13000011       1.69636023E-05
  -9.11999989      -2.21171786E-06
  -9.10999966      -2.16292337E-05
  -9.10000038      -3.60016711E-05
  -9.09000015      -4.09375061E-05
  -9.07999992      -3.38000355E-05
  -9.06999969      -1.42129729E-05
  -9.06000042       1.58970743E-05
  -9.05000019       5.27151133E-05
  -9.03999996       9.12928226E-05
  -9.02999973       1.26455954E-04
  -9.02000046       1.53660818E-04
  -9.01000023       1.69640320E-04
  -9.00000000       1.72757878E-04
  -8.98999977       1.63073608E-04
  -8.97999954       1.42190635E-04
  -8.97000027       1.12973859E-04
  -8.96000004       7.92152205E-05
  -8.94999981       4.52798085E-05
  -8.93999958       1.57252416E-05
  -8.93000031      -5.13085797E-06
  -8.92000008      -1.37049210E-05
  -8.90999985      -7.67004258E-06
  -8.89999962       1.35762421E-05
  -8.89000034       4.86158860E-05
  -8.88000011       9.39969977E-05
  -8.86999989       1.44566075E-04
  -8.85999966       1.94129170E-04
  -8.85000038       2.36337466E-04
  -8.84000015       2.65631970E-04
  -8.82999992       2.78065447E-04
  -8.81999969       2.71854922E-04
  -8.81000042       2.47591350E-04
  -8.80000019       2.08116573E-04
  -8.78999996       1.58143448E-04
  -8.77999973       1.03720384E-04
  -8.77000046       5.16236541E-05
  -8.76000023       8.71846078E-06
  -8.75000000      -1.87106762E-05
  -8.73999977      -2.56731455E-05
  -8.72999954      -9.21139053E-06
  -8.72000027       3.09144380E-05
  -8.71000004       9.17456928E-05
  -8.69999981       1.67035076E-04
  -8.68999958       2.47707794E-04
  -8.68000031       3.22934036E-04
  -8.67000008       3.81719263E-04
  -8.65999985       4.14751994E-04
  -8.64999962       4.16130206E-04
  -8.64000034       3.84562212E-04
  -8.63000011       3.23727727E-04
  -8.61999989       2.41674235E-04
  -8.60999966       1.49361003E-04
  -8.60000038       5.86784918E-05
  -8.59000015      -1.96021210E-05
  -8.57999992      -7.74954897E-05
  -8.56999969      -1.10757574E-04
  -8.56000042      -1.19013399E-04
  -8.55000019      -1.05165076E-04
  -8.53999996      -7.43549608E-05
  -8.52999973      -3.28207134E-05
  -8.52000046       1.30722456E-05
  -8.51000023       5.74738224E-05
  -8.50000000       9.53809140E-05
  -8.48999977       1.22790443E-04
  -8.47999954       1.36844945E-04
  -8.47000027       1.36081595E-04
  -8.46000004       1.20776487E-04
  -8.44999981       9.32507028E-05
  -8.43999958       5.79308289E-05
  -8.43000031       2.09774080E-05
  -8.42000008      -1.05883337E-05
  -8.40999985      -3.01570490E-05
  -8.39999962      -3.29314898E-05
  -8.39000034      -1.70864514E-05
  -8.38000011       1.56602418E-05
  -8.36999989       6.02770160E-05
  -8.35999966       1.09442939E-04
  -8.35000038       1.55131944E-04
  -8.34000015       1.90357343E-04
  -8.32999992       2.10627215E-04
  -8.31999969       2.14746309E-04
  -8.31000042       2.04790762E-04
  -8.30000019       1.85313460E-04
  -8.28999996       1.62046199E-04
  -8.27999973       1.40476972E-04
  -8.27000046       1.24679937E-04
  -8.26000023       1.16666291E-04
  -8.25000000       1.16350406E-04
  -8.23999977       1.22045800E-04
  -8.22999954       1.31273453E-04
  -8.22000027       1.41613476E-04
  -8.21000004       1.51361572E-04
  -8.19999981       1.59840842E-04
  -8.18999958       1.67336708E-04
  -8.18000031       1.74725297E-04
  -8.17000008       1.82934164E-04
  -8.15999985       1.92399209E-04
  -8.14999962       2.02666342E-04
  -8.14000034       2.12245272E-04
  -8.13000011       2.18768881E-04
  -8.11999989       2.19449226E-04
  -8.10999966       2.11759019E-04
  -8.10000038       1.94209366E-04
  -8.09000015       1.67049977E-04
  -8.07999992       1.32702058E-04
  -8.06999969       9.57597222E-05
  -8.06000042       6.24734312E-05
  -8.05000019       3.97485637E-05
  -8.03999996       3.38259815E-05
  -8.02999973       4.89258018E-05
  -8.02000046       8.61853187E-05
  -8.01000023       1.43180150E-04
  -8.00000000       2.14188098E-04
  -7.98999977       2.91164761E-04
  -7.98000002       3.65206477E-04
  -7.96999979       4.28141677E-04
  -7.96000004       4.73864173E-04
  -7.94999981       4.99107759E-04
  -7.94000006       5.03539515E-04
  -7.92999983       4.89255704E-04
  -7.92000008       4.59925621E-04
  -7.90999985       4.19891556E-04
  -7.90000010       3.73483199E-04
  -7.88999987       3.24658788E-04
  -7.88000011       2.76918669E-04
  -7.86999989       2.33314888E-04
  -7.86000013       1.96360255E-04
  -7.84999990       1.67728533E-04
  -7.84000015       1.47800194E-04
  -7.82999992       1.35266804E-04
  -7.82000017       1.27078878E-04
  -7.80999994       1.18964381E-04
  -7.80000019       1.06550011E-04
  -7.78999996       8.68572752E-05
  -7.78000021       5.97231738E-05
  -7.76999998       2.86042432E-05
  -7.76000023       3.32823191E-07
  -7.75000000      -1.63053701E-05
  -7.73999977      -1.29072296E-05
  -7.73000002       1.59241954E-05
  -7.71999979       7.04826161E-05
  -7.71000004       1.45122758E-04
  -7.69999981       2.29078723E-04
  -7.69000006       3.08826187E-04
  -7.67999983       3.71366303E-04
  -7.67000008       4.07481188E-04
  -7.65999985       4.13979025E-04
  -7.65000010       3.94237926E-04
  -7.63999987       3.56893899E-04
  -7.63000011       3.13105498E-04
  -7.61999989       2.73282058E-04
  -7.61000013       2.44317373E-04
  -7.59999990       2.28171193E-04
  -7.59000015       2.22162576E-04
  -7.57999992       2.20743867E-04
  -7.57000017       2.18033616E-04
  -7.55999994       2.10158629E-04
  -7.55000019       1.96577661E-04
  -7.53999996       1.79982380E-04
  -7.53000021       1.64919838E-04
  -7.51999998       1.55760004E-04
  -7.51000023       1.54865920E-04
  -7.50000000       1.61712524E-04
  -7.48999977       1.73303517E-04
  -7.48000002       1.85706100E-04
  -7.46999979       1.96056353E-04
  -7.46000004       2.04179247E-04
  -7.44999981       2.13095598E-04
  -7.44000006       2.28107951E-04