  -16.0000000       0.00000000    
  -15.9899998       0.00000000    
  -15.9799995       0.00000000    
  -15.9700003       0.00000000    
  -15.9600000       0.00000000    
  -15.9499998       0.00000000    
  -15.9399996       0.00000000    
  -15.9300003       0.00000000    
  -15.9200001       0.00000000    
  -15.9099998       0.00000000    
  -15.8999996       0.00000000    
  -15.8900003      -6.52926612E-40
  -15.8800001      -2.04875595E-38
  -15.8699999      -3.37536456E-37
  -15.8599997      -3.52625777E-36
  -15.8500004      -2.56260839E-35
  -15.8400002      -1.36552541E-34
  -15.8299999      -5.41818728E-34
  -15.8199997      -1.52543516E-33
  -15.8100004      -2.18817667E-33
  -15.8000002       5.69085945E-33
  -15.7900000       5.78099306E-32
  -15.7799997       2.68369804E-31
  -15.7700005       9.32620573E-31
  -15.7600002       2.68585450E-30
  -15.7500000       6.66488445E-30
  -15.7399998       1.44983961E-29
  -15.7299995       2.77900406E-29
  -15.7200003       4.66381179E-29
  -15.7100000       6.68175093E-29
  -15.6999998       7.57188747E-29
  -15.6899996       4.81212134E-29
  -15.6800003      -5.56376485E-29
  -15.6700001      -2.84639181E-28
  -15.6599998      -6.78939272E-28
  -15.6499996      -1.22935286E-27
  -15.6400003      -1.80782807E-27
  -15.6300001      -2.06959893E-27
  -15.6199999      -1.35534874E-27
  -15.6099997       1.32283817E-27
  -15.6000004       7.04746377E-27
  -15.5900002       1.62853216E-26
  -15.5799999       2.75267066E-26
  -15.5699997       3.54230902E-26
  -15.5600004       2.92847786E-26
  -15.5500002      -6.18121284E-27
  -15.5400000      -8.51964724E-26
  -15.5299997      -2.08037560E-25
  -15.5200005      -3.41745539E-25
  -15.5100002      -4.01700397E-25
  -15.5000000      -2.50233902E-25
  -15.4899998       2.64725425E-25
  -15.4799995       1.21145310E-24
  -15.4700003       2.42062777E-24
  -15.4600000       3.32838165E-24
  -15.4499998       2.93313512E-24
  -15.4399996       3.16021222E-26
  -15.4300003      -6.12386844E-24
  -15.4200001      -1.47623328E-23
  -15.4099998      -2.24637183E-23
  -15.3999996      -2.27243485E-23
  -15.3900003      -7.30546966E-24
  -15.3800001       2.96783073E-23
  -15.3699999       8.49492754E-23
  -15.3599997       1.38564339E-22
  -15.3500004       1.50424630E-22
  -15.3400002       6.76032149E-23
  -15.3299999      -1.51299445E-22
  -15.3199997      -4.94245970E-22
  -15.3100004      -8.47752893E-22
  -15.3000002      -9.70487937E-22
  -15.2900000      -5.29575326E-22
  -15.2799997       7.61053975E-22
  -15.2700005       2.89190582E-21
  -15.2600002       5.25827810E-21
  -15.2500000       6.46389102E-21
  -15.2399998       4.46503249E-21
  -15.2299995      -2.70354269E-21
  -15.2200003      -1.55333646E-20
  -15.2100000      -3.12490838E-20
  -15.1999998      -4.24096276E-20
  -15.1899996      -3.71886348E-20
  -15.1800003      -2.73917649E-21
  -15.1700001       6.76200311E-20
  -15.1599998       1.64398631E-19
  -15.1499996       2.52776443E-19
  -15.1400003       2.70706514E-19
  -15.1300001       1.41894175E-19
  -15.1199999      -1.91125289E-19
  -15.1099997      -7.16160256E-19
  -15.1000004      -1.29767154E-18
  -15.0900002      -1.64925028E-18
  -15.0799999      -1.37008324E-18
  -15.0699997      -7.72371819E-20
  -15.0600004       2.36341693E-18
  -15.0500002       5.55831292E-18
  -15.0400000       8.37671992E-18
  -15.0299997       8.98086617E-18
  -15.0200005       5.26490410E-18
  -15.0100002      -4.22201256E-18
  -15.0000000      -1.89978025E-17
  -14.9899998      -3.54291813E-17
  -14.9799995      -4.62595033E-17
  -14.9700003      -4.16746364E-17
  -14.9600000      -1.24659526E-17
  -14.9499998       4.48354391E-17
  -14.9399996       1.22074243E-16
  -14.9300003       1.95281911E-16
  -14.9200001       2.25450895E-16
  -14.9099998       1.67282350E-16
  -14.8999996      -1.30039236E-17
  -14.8900003      -3.13423525E-16
  -14.8800001      -6.73021040E-16
  -14.8699999      -9.61534543E-16
  -14.8599997      -9.95213738E-16
  -14.8500004      -5.88133409E-16
  -14.8400002       3.62476421E-16
  -14.8299999       1.77516549E-15
  -14.8199997       3.30435409E-15
  -14.8100004       4.33133474E-15
  -14.8000002       4.07377193E-15
  -14.7900000       1.83619252E-15
  -14.7799997      -2.62611321E-15
  -14.7700005      -8.72435465E-15
  -14.7600002      -1.47930137E-14
  -14.7500000      -1.81749808E-14
  -14.7399998      -1.57887805E-14
  -14.7299995      -5.20962236E-15
  -14.7200003       1.39082742E-14
  -14.7100000       3.84842474E-14
  -14.6999998       6.13547570E-14
  -14.6899996       7.19714070E-14
  -14.6800003       5.89088985E-14
  -14.6700001       1.41266427E-14
  -14.6599998      -6.18343199E-14
  -14.6499996      -1.55364260E-13
  -14.6400003      -2.38233830E-13
  -14.6300001      -2.71174413E-13
  -14.6199999      -2.13837425E-13
  -14.6099997      -4.04368582E-14
  -14.6000004       2.42278013E-13
  -14.5900002       5.80722157E-13
  -14.5799999       8.71423701E-13
  -14.5699997       9.76129550E-13
  -14.5600004       7.58219659E-13
  -14.5500002       1.36741177E-13
  -14.5400000      -8.54369635E-13
  -14.5299997      -2.02238139E-12
  -14.5200005      -3.01162502E-12
  -14.5100002      -3.35986100E-12
  -14.5000000      -2.62241054E-12
  -14.4899998      -5.48695366E-13
  -14.4799995       2.73135919E-12
  -14.4700003       6.57704837E-12
  -14.4600000       9.83767755E-12
  -14.4499998       1.10439349E-11
  -14.4399996       8.80458120E-12
  -14.4300003       2.35292276E-12
  -14.4200001      -7.89269778E-12
  -14.4099998      -1.99547063E-11
  -14.3999996      -3.03266683E-11
  -14.3900003      -3.45713944E-11
  -14.3800001      -2.85114120E-11
  -14.3699999      -9.83121657E-12
  -14.3599997       2.03138322E-11
  -14.3500004       5.62557882E-11
  -14.3400002       8.79430834E-11
  -14.3299999       1.02667930E-10
  -14.3199997       8.84204238E-11
  -14.3100004       3.83328196E-11
  -14.3000002      -4.49162860E-11
  -14.2900000      -1.46288662E-10
  -14.2799997      -2.38747438E-10
  -14.2700005      -2.87866564E-10
  -14.2600002      -2.60689192E-10
  -14.2500000      -1.37371808E-10
  -14.2399998       7.73354505E-11
  -14.2299995       3.46720014E-10
  -14.2200003       6.02792816E-10
  -14.2100000       7.57621466E-10
  -14.1999998       7.25210503E-10
  -14.1899996       4.50260024E-10
  -14.1800003      -6.33877950E-11
  -14.1700001      -7.34075412E-10
  -14.1599998      -1.40274703E-09
  -14.1499996      -1.85848603E-09
  -14.1400003      -1.88890237E-09
  -14.1300001      -1.34692402E-09
  -14.1199999      -2.17634299E-10
  -14.1099997       1.33617284E-09
  -14.1000004       2.97058023E-09
  -14.0900002       4.21282964E-09
  -14.0799999       4.56907445E-09
  -14.0699997       3.66979114E-09
  -14.0600004       1.41819900E-09
  -14.0500002      -1.90344962E-09
  -14.0400000      -5.61397684E-09
  -14.0299997      -8.72908767E-09
  -14.0200005      -1.01742064E-08
  -14.0100002      -9.08009756E-09
  -14.0000000      -5.09312459E-09
  -13.9899998       1.38941403E-09
  -13.9799995       9.14764264E-09
  -13.9700003       1.62920113E-08
  -13.9600000       2.06487343E-08
  -13.9499998       2.03184136E-08
  -13.9399996       1.42837528E-08
  -13.9300003       2.90033553E-09
  -13.9200001      -1.18974990E-08
  -13.9099998      -2.67962399E-08
  -13.8999996      -3.77364344E-08
  -13.8900003      -4.08882812E-08
  -13.8800001      -3.37617045E-08
  -13.8699999      -1.61638436E-08
  -13.8599997       9.29461930E-09
  -13.8500004       3.73714144E-08
  -13.8400002       6.11206303E-08
  -13.8299999       7.34566683E-08
  -13.8199997       6.90360835E-08
  -13.8100004       4.59964333E-08
  -13.8000002       7.05397518E-09
  -13.7900000      -4.04439291E-08
  -13.7799997      -8.56944666E-08
  -13.7700005      -1.16721168E-07
  -13.7600002      -1.23322039E-07
  -13.7500000      -1.00000015E-07
  -13.7399998      -4.80966200E-08
  -13.7299995       2.35486954E-08
  -13.7200003       9.97941711E-08
  -13.7100000       1.62189565E-07
  -13.6999998       1.93231813E-07
  -13.6899996       1.80946344E-07
  -13.6800003       1.22653461E-07
  -13.6700001       2.68480278E-08
  -13.6599998      -8.75252297E-08
  -13.6499996      -1.94535417E-07
  -13.6400003      -2.66917908E-07
  -13.6300001      -2.82742377E-07
  -13.6199999      -2.31528446E-07
  -13.6099997      -1.18201484E-07
  -13.6000004       3.63567274E-08
  -13.5900002       1.98689676E-07
  -13.5799999       3.29677761E-07
  -13.5699997       3.93645877E-07
  -13.5600004       3.67633078E-07
  -13.5500002       2.48523406E-07
  -13.5400000       5.60137323E-08
  -13.5299997      -1.69789686E-07
  -13.5200005      -3.76146716E-07
  -13.5100002      -5.09488018E-07
  -13.5000000      -5.28744295E-07
  -13.4899998      -4.17029980E-07
  -13.4799995      -1.88561060E-07
  -13.4700003       1.11473447E-07
  -13.4600000       4.14855492E-07
  -13.4499998       6.44987608E-07
  -13.4399996       7.35317144E-07
  -13.4300003       6.47309548E-07
  -13.4200001       3.83369212E-07
  -13.4099998      -9.14171139E-09
  -13.3999996      -4.44825986E-07
  -13.3900003      -8.17602199E-07
  -13.3800001      -1.02526133E-06
  -13.3699999      -9.95803020E-07
  -13.3599997      -7.09061453E-07
  -13.3500004      -2.07605439E-07
  -13.3400002       4.07033099E-07
  -13.3299999       9.93436970E-07
  -13.3199997       1.40149598E-06
  -13.3100004       1.50910091E-06
  -13.3000002       1.25564702E-06
  -13.2900000       6.63576941E-07
  -13.2799997      -1.58643886E-07
  -13.2700005      -1.03468290E-06
  -13.2600002      -1.75709999E-06
  -13.2500000      -2.13528097E-06
  -13.2399998      -2.04364255E-06
  -13.2299995      -1.45819070E-06
  -13.2200003      -4.71410488E-07
  -13.2100000       7.19979084E-07
  -13.1999998       1.85359090E-06
  -13.1899996       2.65889162E-06
  -13.1800003       2.92111372E-06
  -13.1700001       2.53652479E-06
  -13.1599998       1.54508575E-06
  -13.1499996       1.31084704E-07
  -13.1400003      -1.41053272E-06
  -13.1300001      -2.73627120E-06
  -13.1199999      -3.53156588E-06
  -13.1099997      -3.58608804E-06
  -13.1000004      -2.84881639E-06
  -13.0900002      -1.44859109E-06
  -13.0799999       3.26703884E-07
  -13.0699997       2.08970778E-06
  -13.0600004       3.43988086E-06
  -13.0500002       4.05741503E-06
  -13.0400000       3.78271056E-06
  -13.0299997       2.66148436E-06
  -13.0200005       9.42642544E-07
  -13.0100002      -9.73392957E-07
  -13.0000000      -2.62632875E-06
  -12.9899998      -3.60763943E-06
  -12.9799995      -3.66590098E-06
  -12.9700003      -2.77910794E-06
  -12.9600000      -1.17337561E-06
  -12.9499998       7.20858111E-07
  -12.9399996       2.36905612E-06
  -12.9300003       3.26834925E-06
  -12.9200001       3.08699146E-06
  -12.9099998       1.77164975E-06
  -12.8999996      -4.08630143E-07
  -12.8900003      -2.89980972E-06
  -12.8800001      -4.98052623E-06
  -12.8699999      -5.93807681E-06
  -12.8599997      -5.26330541E-06
  -12.8500004      -2.81573716E-06
  -12.8400002       1.08737083E-06
  -12.8299999       5.68990345E-06
  -12.8199997       9.93128924E-06
  -12.8100004       1.26752775E-05
  -12.8000002       1.29855953E-05
  -12.7900000       1.03841076E-05
  -12.7799997       5.02490821E-06
  -12.7700005      -2.26770385E-06
  -12.7600002      -1.01204068E-05
  -12.7500000      -1.68767729E-05
  -12.7399998      -2.09564296E-05
  -12.7299995      -2.12286377E-05
  -12.7200003      -1.73115641E-05
  -12.7100000      -9.71976988E-06
  -12.6999998       1.86429872E-07
  -12.6899996       1.04515848E-05
  -12.6800003       1.89297079E-05
  -12.6700001       2.37573950E-05
  -12.6599998       2.37889344E-05
  -12.6499996       1.88901995E-05
  -12.6400003       1.00162833E-05
  -12.6300001      -9.55064138E-07
  -12.6199999      -1.16064639E-05
  -12.6099997      -1.95014945E-05
  -12.6000004      -2.27294586E-05
  -12.5900002      -2.03516611E-05
  -12.5799999      -1.26454343E-05
  -12.5699997      -1.08526638E-06
  -12.5600004       1.19414490E-05
  -12.5500002       2.36268006E-05
  -12.5400000       3.13374730E-05
  -12.5299997       3.31822048E-05
  -12.5200005       2.84250964E-05
  -12.5100002       1.76507692E-05
  -12.5000000       2.64149367E-06
  -12.4899998      -1.40095181E-05
  -12.4799995      -2.94646870E-05
  -12.4700003      -4.12624322E-05
  -12.4600000      -4.78505790E-05
  -12.4499998      -4.89088852E-05
  -12.4399996      -4.53817520E-05
  -12.4300003      -3.92069232E-05
  -12.4200001      -3.27956477E-05
  -12.4099998      -2.83799382E-05
  -12.3999996      -2.73785063E-05
  -12.3900003      -2.99361527E-05
  -12.3800001      -3.47589666E-05
  -12.3699999      -3.93056434E-05
  -12.3599997      -4.03156228E-05
  -12.3500004      -3.45747321E-05
  -12.3400002      -1.97568861E-05
  -12.3299999       4.84886641E-06
  -12.3199997       3.79044104E-05
  -12.3100004       7.60063194E-05
  -12.3000002       1.14126626E-04
  -12.2900000       1.46450009E-04
  -12.2799997       1.67455015E-04
  -12.2700005       1.73022985E-04
  -12.2600002       1.61339922E-04
  -12.2500000       1.33388690E-04
  -12.2399998       9.29075250E-05
  -12.2299995       4.58003415E-05
  -12.2200003      -8.98710823E-07
  -12.2100000      -4.03057820E-05
  -12.1999998      -6.69547517E-05
  -12.1899996      -7.77911628E-05
  -12.1800003      -7.26870785E-05
  -12.1700001      -5.43718197E-05
  -12.1599998      -2.77982163E-05
  -12.1499996       9.14989243E-07
  -12.1400003       2.57340962E-05
  -12.1300001       4.18857599E-05
  -12.1199999       4.67096797E-05
  -12.1099997       4.00186764E-05
  -12.1000004       2.39104247E-05
  -12.0900002       2.10026383E-06
  -12.0799999      -2.10493581E-05
  -12.0699997      -4.15637624E-05
  -12.0600004      -5.67104689E-05
  -12.0500002      -6.54805626E-05
  -12.0400000      -6.86013591E-05
  -12.0299997      -6.81021702E-05
  -12.0200005      -6.65652988E-05
  -12.0100002      -6.62689999E-05
  -12.0000000      -6.84526676E-05
  -11.9899998      -7.28993618E-05
  -11.9799995      -7.79480397E-05
  -11.9700003      -8.09368285E-05
  -11.9600000      -7.89677506E-05
  -11.9499998      -6.97990690E-05
  -11.9399996      -5.26350086E-05
  -11.9300003      -2.86025843E-05
  -11.9200001      -7.76725699E-07
  -11.9099998       2.62785379E-05
  -11.8999996       4.73698128E-05
  -11.8900003       5.77542960E-05
  -11.8800001       5.42027774E-05
  -11.8699999       3.58058714E-05
  -11.8599997       4.33584091E-06
  -11.8500004      -3.59288933E-05
  -11.8400002      -7.88934994E-05
  -11.8299999      -1.17716518E-04
  -11.8199997      -1.46043589E-04
  -11.8100004      -1.59154282E-04
  -11.8000002      -1.54790614E-04
  -11.7900000      -1.33504174E-04
  -11.7799997      -9.84618600E-05
  -11.7700005      -5.47635536E-05
  -11.7600002      -8.42567442E-06
  -11.7500000       3.47499808E-05
  -11.7399998       7.01854951E-05
  -11.7299995       9.52119008E-05
  -11.7200003       1.09305096E-04
  -11.7100000       1.13850481E-04
  -11.6999998       1.11519272E-04
  -11.6899996       1.05423285E-04
  -11.6800003       9.82592537E-05
  -11.6700001       9.16486970E-05
  -11.6599998       8.58268468E-05
  -11.6499996       7.97467874E-05
  -11.6400003       7.15633068E-05
  -11.6300001       5.93683217E-05
  -11.6199999       4.19883618E-05
  -11.6099997       1.96371711E-05
  -11.6000004      -5.75203967E-06
  -11.5900002      -3.06185357E-05
  -11.5799999      -5.02979565E-05
  -11.5699997      -5.98876068E-05
  -11.5600004      -5.52831043E-05
  -11.5500002      -3.41726445E-05
  -11.5400000       3.22447659E-06
  -11.5299997       5.38449531E-05
  -11.5200005       1.11986650E-04
  -11.5100002       1.70028419E-04
  -11.5000000       2.19564332E-04
  -11.4899998       2.52771861E-04
  -11.4799995       2.63781956E-04
  -11.4700003       2.49806908E-04
  -11.4600000       2.11810344E-04
  -11.4499998       1.54570633E-04
  -11.4399996       8.60868822E-05
  -11.4300003       1.63896730E-05
  -11.4200001      -4.40686599E-05
  -11.4099998      -8.61792942E-05
  -11.3999996      -1.03783343E-04
  -11.3900003      -9.48119923E-05
  -11.3800001      -6.17209153E-05
  -11.3699999      -1.11022964E-05
  -11.3599997       4.74848493E-05
  -11.3500004       1.03264218E-04
  -11.3400002       1.46240447E-04
  -11.3299999       1.69049483E-04
  -11.3199997       1.68283208E-04
  -11.3100004       1.45013895E-04
  -11.3000002       1.04412822E-04
  -11.2900000       5.45546354E-05
  -11.2799997       4.67695372E-06
  -11.2700005      -3.67181638E-05
  -11.2600002      -6.35077668E-05
  -11.2500000      -7.29943204E-05
  -11.2399998      -6.61610029E-05
  -11.2299995      -4.71311869E-05
  -11.2200003      -2.20078855E-05
  -11.2100000       2.60230559E-06
  -11.1999998       2.10292637E-05
  -11.1899996       2.96312628E-05
  -11.1800003       2.73371152E-05
  -11.1700001       1.55829821E-05
  -11.1599998      -2.26952875E-06
  -11.1499996      -2.18440655E-05
  -11.1400003      -3.87550790E-05
  -11.1300001      -4.94908563E-05
  -11.1199999      -5.20190843E-05
  -11.1099997      -4.60436750E-05
  -11.1000004      -3.29208706E-05
  -11.0900002      -1.52996072E-05
  -11.0799999       3.42076828E-06
  -11.0699997       1.97191675E-05
  -11.0600004       3.05815665E-05
  -11.0500002       3.40554216E-05
  -11.0400000       2.96624858E-05
  -11.0299997       1.86059006E-05
  -11.0200005       3.71456758E-06
  -11.0100002      -1.09116345E-05
  -11.0000000      -2.05517008E-05
  -10.9899998      -2.07461726E-05
  -10.9799995      -8.28435986E-06
  -10.9700003       1.78866503E-05
  -10.9600000       5.60378649E-05
  -10.9499998       1.01504680E-04
  -10.9399996       1.47118277E-04
  -10.9300003       1.84226461E-04
  -10.9200001       2.04179771E-04
  -10.9099998       2.00040493E-04
  -10.8999996       1.68194107E-04
  -10.8900003       1.09525390E-04
  -10.8800001       2.98740833E-05
  -10.8699999      -6.03972767E-05
  -10.8599997      -1.47729865E-04
  -10.8500004      -2.17420384E-04
  -10.8400002      -2.56074505E-04
  -10.8299999      -2.54035782E-04
  -10.8199997      -2.07337682E-04
  -10.8100004      -1.18785632E-04
  -10.8000002       2.08193342E-06
  -10.7900000       1.40207441E-04
  -10.7799997       2.77233950E-04
  -10.7700005       3.94361996E-04
  -10.7600002       4.75337816E-04
  -10.7500000       5.09028090E-04
  -10.7399998       4.91107756E-04
  -10.7299995       4.24560218E-04
  -10.7200003       3.18927923E-04
  -10.7100000       1.88503152E-04
  -10.6999998       4.98581721E-05
  -10.6899996      -8.07745528E-05
  -10.6800003      -1.89766390E-04
  -10.6700001      -2.67619063E-04
  -10.6599998      -3.09575204E-04
  -10.6499996      -3.15362093E-04
  -10.6400003      -2.88307230E-04
  -10.6300001      -2.34166218E-04
  -10.6199999      -1.59996795E-04
  -10.6099997      -7.33110719E-05
  -10.6000004       1.84196924E-05
  -10.5900002       1.07986511E-04
  -10.5799999       1.88566875E-04
  -10.5699997       2.53939332E-04
  -10.5600004       2.98900821E-04
  -10.5500002       3.19871295E-04
  -10.5400000       3.15539393E-04
  -10.5299997       2.87325267E-04
  -10.5200005       2.39441768E-04
  -10.5100002       1.78430913E-04
  -10.5000000       1.12204070E-04
  -10.4899998       4.87733887E-05
  -10.4799995      -5.03068395E-06
  -10.4700003      -4.45429760E-05
  -10.4600000      -6.77179632E-05
  -10.4499998      -7.49803075E-05
  -10.4399996      -6.85757041E-05
  -10.4300003      -5.16664331E-05
  -10.4200001      -2.74725280E-05
  -10.4099998       1.28603301E-06
  -10.3999996       3.25200272E-05
  -10.3900003       6.45145628E-05
  -10.3800001       9.54697607E-05
  -10.3699999       1.23094535E-04
  -10.3599997       1.44483784E-04
  -10.3500004       1.56397888E-04
  -10.3400002       1.55906571E-04
  -10.3299999       1.41211363E-04
  -10.3199997       1.12376074E-04
  -10.3100004       7.17007351E-05
  -10.3000002       2.35705847E-05
  -10.2900000      -2.62352023E-05
  -10.2799997      -7.16295690E-05
  -10.2700005      -1.07436092E-04
  -10.2600002      -1.30438610E-04
  -10.2500000      -1.40008211E-04
  -10.2399998      -1.38167277E-04
  -10.2299995      -1.29094697E-04
  -10.2200003      -1.18205542E-04
  -10.2100000      -1.11022557E-04
  -10.1999998      -1.12077847E-04
  -10.1899996      -1.24047991E-04
  -10.1800003      -1.47253959E-04
  -10.1700001      -1.79573792E-04
  -10.1599998      -2.16742992E-04
  -10.1499996      -2.52965605E-04
  -10.1400003      -2.81730609E-04
  -10.1300001      -2.96717015E-04
  -10.1199999      -2.92670011E-04
  -10.1099997      -2.66137969E-04
  -10.1000004      -2.15976703E-04
  -10.0900002      -1.43555313E-04
  -10.0799999      -5.26411350E-05
  -10.0699997       5.10080172E-05
  -10.0600004       1.60266951E-04
  -10.0500002       2.67373136E-04
  -10.0400000       3.64652195E-04
  -10.0299997       4.45154379E-04
  -10.0200005       5.03166055E-04
  -10.0100002       5.34608553E-04
  -10.0000000       5.37364336E-04
  -9.98999977       5.11562102E-04
  -9.97999954       4.59807314E-04
  -9.97000027       3.87284876E-04
  -9.96000004       3.01610416E-04
  -9.94999981       2.12305284E-04
  -9.93999958       1.29829292E-04
  -9.93000031       6.42237501E-05
  -9.92000008       2.35615298E-05
  -9.90999985       1.25220731E-05
  -9.89999962       3.14547287E-05
  -9.89000034       7.62322961E-05
  -9.88000011       1.39025418E-04
  -9.86999989       2.09889578E-04
  -9.85999966       2.78817140E-04
  -9.85000038       3.37747013E-04
  -9.84000015       3.82002385E-04
  -9.82999992       4.10765730E-04
  -9.81999969       4.26468992E-04
  -9.81000042       4.33297624E-04
  -9.80000019       4.35285212E-04
  -9.78999996       4.34612826E-04
  -9.77999973       4.30679560E-04
  -9.77000046       4.20276367E-04
  -9.76000023       3.98847827E-04
  -9.75000000       3.62464780E-04
  -9.73999977       3.09875410E-04
  -9.72999954       2.43938193E-04
  -9.72000027       1.71894600E-04
  -9.71000004       1.04274754E-04
  -9.69999981       5.26451913E-05
  -9.68999958       2.67790256E-05
  -9.68000031       3.20374093E-05
  -9.67000008       6.77282878E-05
  -9.65999985       1.26955070E-04
  -9.64999962       1.98053371E-04
  -9.64000034       2.67261581E-04
  -9.63000011       3.21916043E-04
  -9.61999989       3.53308977E-04
  -9.60999966       3.58445162E-04
  -9.60000038       3.40253609E-04
  -9.59000015       3.06256115E-04
  -9.57999992       2.66132382E-04
  -9.56999969       2.28920864E-04
  -9.56000042       2.00667186E-04
  -9.55000019       1.83159093E-04
  -9.53999996       1.74026820E-04
  -9.52999973       1.68055296E-04
  -9.52000046       1.59187664E-04
  -9.51000023       1.42514647E-04
  -9.50000000       1.15598719E-04
  -9.48999977       7.87534227E-05
  -9.47999954       3.42943240E-05
  -9.47000027      -1.48383970E-05
  -9.46000004      -6.64514519E-05
  -9.44999981      -1.19830933E-04
  -9.43999958      -1.75449022E-04
  -9.43000031      -2.33669911E-04
  -9.42000008      -2.92914774E-04
  -9.40999985      -3.48045840E-04
  -9.39999962      -3.89767607E-04
  -9.39000034      -4.05583822E-04
  -9.38000011      -3.82354629E-04
  -9.36999989      -3.09920550E-04
  -9.35999966      -1.84797915E-04
  -9.35000038      -1.27753583E-05
  -9.34000015       1.90558625E-04
  -9.32999992       4.01785335E-04
  -9.31999969       5.93822100E-04
  -9.31000042       7.41297437E-04
  -9.30000019       8.25732190E-04
  -9.28999996       8.39131710E-04
  -9.27999973       7.85045791E-04
  -9.27000046       6.76902418E-04
  -9.26000023       5.34245046E-04
  -9.25000000       3.78108380E-04
  -9.23999977       2.26959470E-04
  -9.22999954       9.43332780E-05
  -9.22000027      -1.13866436E-05
  -9.21000004      -8.54140235E-05
  -9.19999981      -1.24262791E-04
  -9.18999958      -1.23987629E-04
  -9.18000031      -7.99786285E-05
  -9.17000008       1.13669139E-05
  -9.15999985       1.49640517E-04
  -9.14999962       3.27337824E-04
  -9.14000034       5.28197270E-04
  -9.13000011       7.28128420E-04
  -9.11999989       8.99047940E-04
  -9.10999966       1.01486291E-03
  -9.10000038       1.05792831E-03
  -9.09000015       1.02391350E-03
  -9.07999992       9.23339045E-04
  -9.06999969       7.79024325E-04
  -9.06000042       6.20010600E-04
  -9.05000019       4.73751104E-04
  -9.03999996       3.59021069E-04
  -9.02999973       2.81846558E-04
  -9.02000046       2.35778047E-04
  -9.01000023       2.06363446E-04
  -9.00000000       1.78202696E-04
  -8.98999977       1.42024845E-04
  -8.97999954       9.91795241E-05
  -8.97000027       6.18256308E-05
  -8.96000004       4.86420249E-05
  -8.94999981       7.75371955E-05
  -8.93999958       1.57999559E-04
  -8.93000031       2.85957794E-04
  -8.92000008       4.43199649E-04
  -8.90999985       6.01793174E-04
  -8.89999962       7.32127053E-04
  -8.89000034       8.11810605E-04
  -8.88000011       8.32268270E-04
  -8.86999989       8.00612208E-04
  -8.85999966       7.36048387E-04
  -8.85000038       6.62068953E-04
  -8.84000015       5.97284525E-04
  -8.82999992       5.48334559E-04
  -8.81999969       5.07635123E-04
  -8.81000042       4.56982350E-04
  -8.80000019       3.75838426E-04
  -8.78999996       2.51288700E-04
  -8.77999973       8.58681960E-05
  -8.77000046      -9.99397162E-05
  -8.76000023      -2.71903642E-04
  -8.75000000      -3.91888636E-04
  -8.73999977      -4.30137850E-04
  -8.72999954      -3.75710108E-04
  -8.72000027      -2.41237460E-04
  -8.71000004      -6.00263229E-05
  -8.69999981       1.23824138E-04
  -8.68999958       2.69107986E-04
  -8.68000031       3.50374903E-04
  -8.67000008       3.65504529E-04
  -8.65999985       3.35290155E-04
  -8.64999962       2.95097561E-04
  -8.64000034       2.81464629E-04
  -8.63000011       3.18340899E-04
  -8.61999989       4.07849380E-04
  -8.60999966       5.28900942E-04
  -8.60000038       6.44235639E-04
  -8.59000015       7.13474234E-04
  -8.57999992       7.07611500E-04
  -8.56999969       6.19848550E-04
  -8.56000042       4.68936225E-04
  -8.55000019       2.93841411E-04
  -8.53999996       1.41602475E-04
  -8.52999973       5.26136064E-05
  -8.52000046       4.84212323E-05
  -8.51000023       1.26139159E-04
  -8.50000000       2.61161971E-04
  -8.48999977       4.16877738E-04
  -8.47999954       5.57637250E-04
  -8.47000027       6.60214573E-04
  -8.46000004       7.19736447E-04
  -8.44999981       7.48260820E-04
  -8.43999958       7.66998623E-04
  -8.43000031       7.95539177E-04
  -8.42000008       8.42471316E-04
  -8.40999985       9.01128748E-04
  -8.39999962       9.52098111E-04
  -8.39000034       9.71439120E-04
  -8.38000011       9.41305887E-04
  -8.36999989       8.58700718E-04
  -8.35999966       7.38789327E-04
  -8.35000038       6.11295516E-04
  -8.34000015       5.11155929E-04
  -8.32999992       4.66827973E-04
  -8.31999969       4.90564096E-04
  -8.31000042       5.74236270E-04
  -8.30000019       6.92215574E-04
  -8.28999996       8.10175843E-04
  -8.27999973       8.96526501E-04
  -8.27000046       9.32295166E-04
  -8.26000023       9.16012446E-04
  -8.25000000       8.62158020E-04
  -8.23999977       7.94227642E-04
  -8.22999954       7.35461770E-04
  -8.22000027       7.00987235E-04
  -8.21000004       6.94295100E-04
  -8.19999981       7.09002488E-04
  -8.18999958       7.34553032E-04
  -8.18000031       7.62864482E-04
  -8.17000008       7.92633859E-04
  -8.15999985       8.29182623E-04
  -8.14999962       8.79871426E-04
  -8.14000034       9.47308901E-04
  -8.13000011       1.02384470E-03
  -8.11999989       1.09055883E-03
  -8.10999966       1.12215895E-03
  -8.10000038       1.09656435E-03
  -8.09000015       1.00558135E-03
  -8.07999992       8.62028624E-04
  -8.06999969       6.99535420E-04
  -8.06000042       5.63822396E-04
  -8.05000019       4.97684639E-04
  -8.03999996       5.24787756E-04
  -8.02999973       6.38511090E-04
  -8.02000046       8.00809124E-04
  -8.01000023       9.52701666E-04
  -8.00000000       1.03366689E-03
  -7.98999977       1.00353826E-03
  -7.98000002       8.58978834E-04
  -7.96999979       6.37971796E-04
  -7.96000004       4.09732223E-04
  -7.94999981       2.52666359E-04
  -7.94000006       2.27599012E-04
  -7.92999983       3.55664350E-04
  -7.92000008       6.09069539E-04
  -7.90999985       9.18647682E-04
  -7.90000010       1.19616766E-03
  -7.88999987       1.36391178E-03
  -7.88000011       1.38111622E-03
  -7.86999989       1.25768734E-03
  -7.86000013       1.05000415E-03
  -7.84999990       8.40057910E-04
  -7.84000015       7.05357699E-04
  -7.82999992       6.90604735E-04
  -7.82000017       7.91699218E-04
  -7.80999994       9.58240067E-04
  -7.80000019       1.11384667E-03
  -7.78999996       1.18687039E-03
  -7.78000021       1.13992637E-03
  -7.76999998       9.86808795E-04
  -7.76000023       7.89811485E-04
  -7.75000000       6.37733378E-04
  -7.73999977       6.12231437E-04
  -7.73000002       7.54914479E-04
  -7.71999979       1.04778260E-03
  -7.71000004       1.41508610E-03
  -7.69999981       1.74695742E-03
  -7.69000006       1.93704548E-03
  -7.67999983       1.92089227E-03
  -7.67000008       1.70103635E-03
  -7.65999985       1.34922867E-03
  -7.65000010       9.84201673E-04
  -7.63999987       7.32263550E-04
  -7.63000011       6.84354396E-04
  -7.61999989       8.64719215E-04
  -7.61000013       1.22239778E-03
  -7.59999990       1.64866832E-03
  -7.59000015       2.01431965E-03
  -7.57999992       2.21353280E-03
  -7.57000017       2.19884096E-03
  -7.55999994       1.99493812E-03
  -7.55000019       1.68685976E-03
  -7.53999996       1.38735597E-03
  -7.53000021       1.19575753E-03
  -7.51999998       1.16350444E-03
  -7.51000023       1.27877085E-03
  -7.50000000       1.47530471E-03
  -7.48999977       1.66149077E-03
  -7.48000002       1.75812328E-03
  -7.46999979       1.73026766E-03
  -7.46000004       1.60101731E-03
  -7.44999981       1.44196895E-03
  -7.44000006       1.34417473E-03