  -16.0000000       0.00000000    
  -15.9899998       0.00000000    
  -15.9799995       0.00000000    
  -15.9700003       0.00000000    
  -15.9600000       0.00000000    
  -15.9499998       0.00000000    
  -15.9399996       0.00000000    
  -15.9300003       0.00000000    
  -15.9200001       0.00000000    
  -15.9099998       0.00000000    
  -15.8999996      -4.75922997E-41
  -15.8900003      -3.30124338E-39
  -15.8800001      -8.59094722E-38
  -15.8699999      -1.32921576E-36
  -15.8599997      -1.42446913E-35
  -15.8500004      -1.15077499E-34
  -15.8400002      -7.41098357E-34
  -15.8299999      -3.95729071E-33
  -15.8199997      -1.80304376E-32
  -15.8100004      -7.16082065E-32
  -15.8000002      -2.51902515E-31
  -15.7900000      -7.94411778E-31
  -15.7799997      -2.26595965E-30
  -15.7700005      -5.88208082E-30
  -15.7600002      -1.39470430E-29
  -15.7500000      -3.02409159E-29
  -15.7399998      -5.98468045E-29
  -15.7299995      -1.07434006E-28
  -15.7200003      -1.72620355E-28
  -15.7100000      -2.41303831E-28
  -15.6999998      -2.73679267E-28
  -15.6899996      -1.93838132E-28
  -15.6800003       1.07940850E-28
  -15.6700001       7.43751870E-28
  -15.6599998       1.75283564E-27
  -15.6499996       2.98516599E-27
  -15.6400003       3.98362046E-27
  -15.6300001       3.95285296E-27
  -15.6199999       1.93189147E-27
  -15.6099997      -2.75282084E-27
  -15.6000004      -9.82972688E-27
  -15.5900002      -1.75451201E-26
  -15.5799999      -2.27897047E-26
  -15.5699997      -2.23676471E-26
  -15.5600004      -1.52793467E-26
  -15.5500002      -4.71659319E-27
  -15.5400000       2.73493203E-27
  -15.5299997       3.20739520E-27
  -15.5200005       6.82879754E-27
  -15.5100002       4.80514406E-26
  -15.5000000       1.81599799E-25
  -15.4899998       4.47611806E-25
  -15.4799995       7.99193849E-25
  -15.4700003       1.01409894E-24
  -15.4600000       6.55469555E-25
  -15.4499998      -8.17736961E-25
  -15.4399996      -3.70263186E-24
  -15.4300003      -7.48299886E-24
  -15.4200001      -1.02630717E-23
  -15.4099998      -8.67759696E-24
  -15.3999996       1.12164040E-24
  -15.3900003       2.10256959E-23
  -15.3800001       4.74470678E-23
  -15.3699999       6.82990786E-23
  -15.3599997       6.32411297E-23
  -15.3500004       1.01868567E-23
  -15.3400002      -1.00706703E-22
  -15.3299999      -2.48658954E-22
  -15.3199997      -3.68540265E-22
  -15.3100004      -3.55593707E-22
  -15.3000002      -1.01496119E-22
  -15.2900000       4.36061861E-22
  -15.2799997       1.14932667E-21
  -15.2700005       1.72667915E-21
  -15.2600002       1.68982882E-21
  -15.2500000       5.70524654E-22
  -15.2399998      -1.77919562E-21
  -15.2299995      -4.84218889E-21
  -15.2200003      -7.25477141E-21
  -15.2100000      -7.03053761E-21
  -15.1999998      -2.35003729E-21
  -15.1899996       7.16906936E-21
  -15.1800003       1.91780823E-20
  -15.1700001       2.80838384E-20
  -15.1599998       2.62035308E-20
  -15.1499996       7.05403551E-21
  -15.1400003      -2.97719718E-20
  -15.1300001      -7.40698815E-20
  -15.1199999      -1.03884353E-19
  -15.1099997      -9.08311263E-20
  -15.1000004      -1.30561687E-20
  -15.0900002       1.26880084E-19
  -15.0799999       2.86749914E-19
  -15.0699997       3.83071038E-19
  -15.0600004       3.13324849E-19
  -15.0500002       4.54356255E-21
  -15.0400000      -5.23211228E-19
  -15.0299997      -1.10626008E-18
  -15.0200005      -1.43775747E-18
  -15.0100002      -1.15195333E-18
  -15.0000000       2.77782416E-21
  -14.9899998       1.94520062E-18
  -14.9799995       4.09281068E-18
  -14.9700003       5.37048957E-18
  -14.9600000       4.50060699E-18
  -14.9499998       5.84624735E-19
  -14.9399996      -6.16963248E-18
  -14.9300003      -1.38874708E-17
  -14.9200001      -1.90375204E-17
  -14.9099998      -1.73399192E-17
  -14.8999996      -5.60177754E-18
  -14.8900003       1.59720437E-17
  -14.8800001       4.19514011E-17
  -14.8699999       6.15692765E-17
  -14.8599997       6.13280110E-17
  -14.8500004       3.04411961E-17
  -14.8400002      -3.21892637E-17
  -14.8299999      -1.12250328E-16
  -14.8199997      -1.79155237E-16
  -14.8100004      -1.93019023E-16
  -14.8000002      -1.19959082E-16
  -14.7900000       4.78070590E-17
  -14.7799997       2.74839613E-16
  -14.7700005       4.78514429E-16
  -14.7600002       5.46838065E-16
  -14.7500000       3.79932473E-16
  -14.7399998      -5.39323314E-17
  -14.7299995      -6.68719489E-16
  -14.7200003      -1.24549450E-15
  -14.7100000      -1.47636487E-15
  -14.6999998      -1.07461630E-15
  -14.6899996       7.12981116E-17
  -14.6800003       1.75488858E-15
  -14.6700001       3.39604308E-15
  -14.6599998       4.14283857E-15
  -14.6499996       3.15766323E-15
  -14.6400003       3.77288492E-17
  -14.6300001      -4.76893144E-15
  -14.6199999      -9.75501503E-15
  -14.6099997      -1.25532841E-14
  -14.6000004      -1.06447291E-14
  -14.5900002      -2.48403423E-15
  -14.5799999       1.12872765E-14
  -14.5699997       2.70632651E-14
  -14.5600004       3.84944931E-14
  -14.5500002       3.80704650E-14
  -14.5400000       1.99732232E-14
  -14.5299997      -1.65004983E-14
  -14.5200005      -6.42158988E-14
  -14.5100002      -1.07689187E-13
  -14.5000000      -1.25989849E-13
  -14.4899998      -9.92876097E-14
  -14.4799995      -1.78046901E-14
  -14.4700003       1.09610990E-13
  -14.4600000       2.51063195E-13
  -14.4499998       3.54900652E-13
  -14.4399996       3.62511318E-13
  -14.4300003       2.29191367E-13
  -14.4200001      -5.21954475E-14
  -14.4099998      -4.33212223E-13
  -14.3999996      -8.06863528E-13
  -14.3900003      -1.02649042E-12
  -14.3800001      -9.47268522E-13
  -14.3699999      -4.82425027E-13
  -14.3599997       3.42236303E-13
  -14.3500004       1.35697736E-12
  -14.3400002       2.25990559E-12
  -14.3299999       2.68219453E-12
  -14.3199997       2.30030556E-12
  -14.3100004       9.69109775E-13
  -14.3000002      -1.16629048E-12
  -14.2900000      -3.62758933E-12
  -14.2799997      -5.66615548E-12
  -14.2700005      -6.44150271E-12
  -14.2600002      -5.28636423E-12
  -14.2500000      -1.99007390E-12
  -14.2399998       2.99386666E-12
  -14.2299995       8.50955331E-12
  -14.2200003       1.28895688E-11
  -14.2100000       1.43712160E-11
  -14.1999998       1.16559826E-11
  -14.1899996       4.46048710E-12
  -14.1800003      -6.12730353E-12
  -14.1700001      -1.76522390E-11
  -14.1599998      -2.67408960E-11
  -14.1499996      -2.99520929E-11
  -14.1400003      -2.48449369E-11
  -14.1300001      -1.09701293E-11
  -14.1199999       9.54615120E-12
  -14.1099997       3.20931060E-11
  -14.1000004       5.04474899E-11
  -14.0900002       5.83090243E-11
  -14.0799999       5.11542718E-11
  -14.0699997       2.79069996E-11
  -14.0600004      -8.10492125E-12
  -14.0500002      -4.93063958E-11
  -14.0400000      -8.52764942E-11
  -14.0299997      -1.05179837E-10
  -14.0200005      -1.00686535E-10
  -14.0100002      -6.86311910E-11
  -14.0000000      -1.26446683E-11
  -13.9899998       5.68085093E-11
  -13.9799995       1.24180860E-10
  -13.9700003       1.72115558E-10
  -13.9600000       1.85558319E-10
  -13.9499998       1.55756796E-10
  -13.9399996       8.31591671E-11
  -13.9300003      -2.15694650E-11
  -13.9200001      -1.38793366E-10
  -13.9099998      -2.43301490E-10
  -13.8999996      -3.09263698E-10
  -13.8900003      -3.15811016E-10
  -13.8800001      -2.52143584E-10
  -13.8699999      -1.21112814E-10
  -13.8599997       5.95477834E-11
  -13.8500004       2.58811306E-10
  -13.8400002       4.36789882E-10
  -13.8299999       5.51555301E-10
  -13.8199997       5.67423775E-10
  -13.8100004       4.63365901E-10
  -13.8000002       2.39923748E-10
  -13.7900000      -7.70311870E-11
  -13.7799997      -4.37101882E-10
  -13.7700005      -7.71490538E-10
  -13.7600002      -1.00421382E-09
  -13.7500000      -1.06698772E-09
  -13.7399998      -9.15221288E-10
  -13.7299995      -5.41774126E-10
  -13.7200003       1.49834763E-11
  -13.7100000       6.71563694E-10
  -13.6999998       1.30946565E-09
  -13.6899996       1.79422543E-09
  -13.6800003       2.00054662E-09
  -13.6700001       1.83899618E-09
  -13.6599998       1.27898547E-09
  -13.6499996       3.63116731E-10
  -13.6400003      -7.90648158E-10
  -13.6300001      -2.00040962E-09
  -13.6199999      -3.04447223E-09
  -13.6099997      -3.69525566E-09
  -13.6000004      -3.75854370E-09
  -13.5900002      -3.11280268E-09
  -13.5799999      -1.74295689E-09
  -13.5699997       2.37023789E-10
  -13.5600004       2.57813682E-09
  -13.5500002       4.91174168E-09
  -13.5400000       6.78955869E-09
  -13.5299997       7.74852893E-09
  -13.5200005       7.39613260E-09
  -13.5100002       5.50563417E-09
  -13.5000000       2.10438156E-09
  -13.4899998      -2.46646836E-09
  -13.4799995      -7.54334639E-09
  -13.4700003      -1.22003536E-08
  -13.4600000      -1.53841260E-08
  -13.4499998      -1.61125406E-08
  -13.4399996      -1.37070479E-08
  -13.4300003      -8.01158162E-09
  -13.4200001       4.57777427E-10
  -13.4099998       1.04844338E-08
  -13.3999996       2.02779251E-08
  -13.3900003       2.77579879E-08
  -13.3800001       3.09598747E-08
  -13.3699999       2.84876638E-08
  -13.3599997       1.99169001E-08
  -13.3500004       6.04307493E-09
  -13.3400002      -1.11072485E-08
  -13.3299999      -2.85410540E-08
  -13.3199997      -4.28165876E-08
  -13.3100004      -5.07268574E-08
  -13.3000002      -5.00101685E-08
  -13.2900000      -3.99251086E-08
  -13.2799997      -2.15416573E-08
  -13.2700005       2.34668618E-09
  -13.2600002       2.77011907E-08
  -13.2500000       5.00221127E-08
  -13.2399998       6.52703349E-08
  -13.2299995       7.07090493E-08
  -13.2200003       6.54532286E-08
  -13.2100000       5.05778068E-08
  -13.1999998       2.87472695E-08
  -13.1899996       3.46353368E-09
  -13.1800003      -2.18516281E-08
  -13.1700001      -4.46551809E-08
  -13.1599998      -6.36923971E-08
  -13.1499996      -7.88506185E-08
  -13.1400003      -9.04678998E-08
  -13.1300001      -9.83121353E-08
  -13.1199999      -1.00617356E-07
  -13.1099997      -9.36377091E-08
  -13.1000004      -7.21052302E-08
  -13.0900002      -3.07483816E-08
  -13.0799999       3.33201555E-08
  -13.0699997       1.17918205E-07
  -13.0600004       2.13677708E-07
  -13.0500002       3.03453334E-07
  -13.0400000       3.64013488E-07
  -13.0299997       3.70272630E-07
  -13.0200005       3.01602796E-07
  -13.0100002       1.48990281E-07
  -13.0000000      -7.88014773E-08
  -12.9899998      -3.52108515E-07
  -12.9799995      -6.21987908E-07
  -12.9700003      -8.27369092E-07
  -12.9600000      -9.07163496E-07
  -12.9499998      -8.15262069E-07
  -12.9399996      -5.35108711E-07
  -12.9300003      -8.99580712E-08
  -12.9200001       4.54706253E-07
  -12.9099998       9.98715223E-07
  -12.8999996       1.42462306E-06
  -12.8900003       1.62229992E-06
  -12.8800001       1.51572817E-06
  -12.8699999       1.08567895E-06
  -12.8599997       3.82053116E-07
  -12.8500004      -4.78573838E-07
  -12.8400002      -1.33151855E-06
  -12.8299999      -1.99608371E-06
  -12.8199997      -2.31489798E-06
  -12.8100004      -2.19170943E-06
  -12.8000002      -1.61832713E-06
  -12.7900000      -6.83228564E-07
  -12.7799997       4.41731856E-07
  -12.7700005       1.53489589E-06
  -12.7600002       2.37184895E-06
  -12.7500000       2.77530012E-06
  -12.7399998       2.65580366E-06
  -12.7299995       2.03299442E-06
  -12.7200003       1.03148056E-06
  -12.7100000      -1.48225595E-07
  -12.6999998      -1.27688895E-06
  -12.6899996      -2.15005343E-06
  -12.6800003      -2.63406878E-06
  -12.6700001      -2.69250359E-06
  -12.6599998      -2.38585380E-06
  -12.6499996      -1.84467444E-06
  -12.6400003      -1.22374331E-06
  -12.6300001      -6.50524328E-07
  -12.6199999      -1.83330059E-07
  -12.6099997       2.07607414E-07
  -12.6000004       6.29066108E-07
  -12.5900002       1.22520464E-06
  -12.5799999       2.11943052E-06
  -12.5699997       3.35408231E-06
  -12.5600004       4.84618113E-06
  -12.5500002       6.37434050E-06
  -12.5400000       7.60422199E-06
  -12.5299997       8.14963914E-06
  -12.5200005       7.65625555E-06
  -12.5100002       5.88772127E-06
  -12.5000000       2.79206824E-06
  -12.4899998      -1.46980813E-06
  -12.4799995      -6.54269797E-06
  -12.4700003      -1.19398928E-05
  -12.4600000      -1.71359170E-05
  -12.4499998      -2.16667522E-05
  -12.4399996      -2.52127666E-05
  -12.4300003      -2.76436658E-05
  -12.4200001      -2.90143798E-05
  -12.4099998      -2.95132231E-05
  -12.3999996      -2.93758931E-05
  -12.3900003      -2.87874827E-05
  -12.3800001      -2.77976014E-05
  -12.3699999      -2.62704252E-05
  -12.3599997      -2.38829343E-05
  -12.3500004      -2.01733474E-05
  -12.3400002      -1.46305392E-05
  -12.3299999      -6.80700214E-06
  -12.3199997       3.56592886E-06
  -12.3100004       1.64809171E-05
  -12.3000002       3.15912803E-05
  -12.2900000       4.81906900E-05
  -12.2799997       6.52387971E-05
  -12.2700005       8.14307059E-05
  -12.2600002       9.53050330E-05
  -12.2500000       1.05383326E-04
  -12.2399998       1.10331377E-04
  -12.2299995       1.09129978E-04
  -12.2200003       1.01237965E-04
  -12.2100000       8.67255367E-05
  -12.1999998       6.63520841E-05
  -12.1899996       4.15640752E-05
  -12.1800003       1.43948691E-05
  -12.1700001      -1.27373842E-05
  -12.1599998      -3.73185103E-05
  -12.1499996      -5.70771808E-05
  -12.1400003      -7.03196565E-05
  -12.1300001      -7.61974588E-05
  -12.1199999      -7.48490711E-05
  -12.1099997      -6.73760296E-05
  -12.1000004      -5.56442865E-05
  -12.0900002      -4.19395401E-05
  -12.0799999      -2.85397073E-05
  -12.0699997      -1.72918026E-05
  -12.0600004      -9.28545614E-06
  -12.0500002      -4.69895485E-06
  -12.0400000      -2.85742431E-06
  -12.0299997      -2.49442701E-06
  -12.0200005      -2.15858154E-06
  -12.0100002      -6.68388566E-07
  -12.0000000       2.49819345E-06
  -11.9899998       6.98215217E-06
  -11.9799995       1.15553066E-05
  -11.9700003       1.43754360E-05
  -11.9600000       1.34329457E-05
  -11.9499998       7.08609741E-06
  -11.9399996      -5.44617069E-06
  -11.9300003      -2.37608656E-05
  -11.9200001      -4.62075768E-05
  -11.9099998      -7.01150057E-05
  -11.8999996      -9.22661711E-05
  -11.8900003      -1.09518514E-04
  -11.8800001      -1.19426055E-04
  -11.8699999      -1.20717363E-04
  -11.8599997      -1.13516064E-04
  -11.8500004      -9.92530622E-05
  -11.8400002      -8.02955983E-05
  -11.8299999      -5.93882723E-05
  -11.8199997      -3.90471650E-05
  -11.8100004      -2.10575417E-05
  -11.8000002      -6.19642469E-06
  -11.7900000       5.75986360E-06
  -11.7799997       1.57589675E-05
  -11.7700005       2.50134235E-05
  -11.7600002       3.44931359E-05
  -11.7500000       4.45139303E-05
  -11.7399998       5.45382791E-05
  -11.7299995       6.32451556E-05
  -11.7200003       6.88517466E-05
  -11.7100000       6.96014758E-05
  -11.6999998       6.42879022E-05
  -11.6899996       5.26745898E-05
  -11.6800003       3.56987657E-05
  -11.6700001       1.54031077E-05
  -11.6599998      -5.39041093E-06
  -11.6499996      -2.35866337E-05
  -11.6400003      -3.63836079E-05
  -11.6300001      -4.17696865E-05
  -11.6199999      -3.88453082E-05
  -11.6099997      -2.79115466E-05
  -11.6000004      -1.03271605E-05
  -11.5900002       1.18101580E-05
  -11.5799999       3.60674057E-05
  -11.5699997       6.00653548E-05
  -11.5600004       8.17722394E-05
  -11.5500002       9.96590243E-05
  -11.5400000       1.12718750E-04
  -11.5299997       1.20392047E-04
  -11.5200005       1.22463316E-04
  -11.5100002       1.18991658E-04
  -11.5000000       1.10317662E-04
  -11.4899998       9.71497793E-05
  -11.4799995       8.06923053E-05
  -11.4700003       6.27451373E-05
  -11.4600000       4.56941416E-05
  -11.4499998       3.23260210E-05
  -11.4399996       2.54432234E-05
  -11.4300003       2.73131645E-05
  -11.4200001       3.90491950E-05
  -11.4099998       6.00691928E-05
  -11.3999996       8.77960629E-05
  -11.3900003       1.17740768E-04
  -11.3800001       1.44041318E-04
  -11.3699999       1.60429758E-04
  -11.3599997       1.61484873E-04
  -11.3500004       1.43928701E-04
  -11.3400002       1.07668842E-04
  -11.3299999       5.62996938E-05
  -11.3199997      -3.13926034E-06
  -11.3100004      -6.12002259E-05
  -11.3000002      -1.07725842E-04
  -11.2900000      -1.33899754E-04
  -11.2799997      -1.34216345E-04
  -11.2700005      -1.07907668E-04
  -11.2600002      -5.94482699E-05
  -11.2500000       2.05588708E-06
  -11.2399998       6.45376203E-05
  -11.2299995       1.15383133E-04
  -11.2200003       1.44077261E-04
  -11.2100000       1.44481106E-04
  -11.1999998       1.16202791E-04
  -11.1899996       6.47185443E-05
  -11.1800003       1.91424704E-07
  -11.1700001      -6.47518827E-05
  -11.1599998      -1.17769938E-04
  -11.1499996      -1.49433705E-04
  -11.1400003      -1.55115908E-04
  -11.1300001      -1.35713475E-04
  -11.1199999      -9.70701803E-05
  -11.1099997      -4.82926807E-05
  -11.1000004       5.75275863E-07
  -11.0900002       4.09120621E-05
  -11.0799999       6.73220275E-05
  -11.0699997       7.84692966E-05
  -11.0600004       7.68043974E-05
  -11.0500002       6.73478498E-05
  -11.0400000       5.59359432E-05
  -11.0299997       4.74510489E-05
  -11.0200005       4.45233527E-05
  -11.0100002       4.70218329E-05
  -11.0000000       5.24049792E-05
  -10.9899998       5.67513089E-05
  -10.9799995       5.61110573E-05
  -10.9700003       4.77605536E-05
  -10.9600000       3.10099895E-05
  -10.9499998       7.38316930E-06
  -10.9399996      -1.98048729E-05
  -10.9300003      -4.62688804E-05
  -10.9200001      -6.76759519E-05
  -10.9099998      -8.03880321E-05
  -10.8999996      -8.18535627E-05
  -10.8900003      -7.06380742E-05
  -10.8800001      -4.62320422E-05
  -10.8699999      -8.85495047E-06
  -10.8599997       4.05440442E-05
  -10.8500004       1.00000456E-04
  -10.8400002       1.66040380E-04
  -10.8299999       2.33209459E-04
  -10.8199997       2.93938851E-04
  -10.8100004       3.39028891E-04
  -10.8000002       3.58880148E-04
  -10.7900000       3.45366163E-04
  -10.7799997       2.93996272E-04
  -10.7700005       2.05834353E-04
  -10.7600002       8.85943809E-05
  -10.7500000      -4.35492002E-05
  -10.7399998      -1.71629756E-04
  -10.7299995      -2.74873775E-04
  -10.7200003      -3.34488548E-04
  -10.7100000      -3.37484205E-04
  -10.6999998      -2.79680942E-04
  -10.6899996      -1.67174236E-04
  -10.6800003      -1.58368566E-05
  -10.6700001       1.51145636E-04
  -10.6599998       3.07274167E-04
  -10.6499996       4.27491759E-04
  -10.6400003       4.92738734E-04
  -10.6300001       4.93385014E-04
  -10.6199999       4.30852291E-04
  -10.6099997       3.17122496E-04
  -10.6000004       1.72273227E-04
  -10.5900002       2.05861597E-05
  -10.5799999      -1.13948205E-04
  -10.5699997      -2.11812439E-04
  -10.5600004      -2.61021720E-04
  -10.5500002      -2.58530927E-04
  -10.5400000      -2.09843100E-04
  -10.5299997      -1.27067673E-04
  -10.5200005      -2.59960634E-05
  -10.5100002       7.70749830E-05
  -10.5000000       1.68063983E-04
  -10.4899998       2.36860637E-04
  -10.4799995       2.77924206E-04
  -10.4700003       2.89872230E-04
  -10.4600000       2.74472521E-04
  -10.4499998       2.35560496E-04
  -10.4399996       1.78322050E-04
  -10.4300003       1.09138418E-04
  -10.4200001       3.58632642E-05
  -10.4099998      -3.18812963E-05
  -10.3999996      -8.29336714E-05
  -10.3900003      -1.05788517E-04
  -10.3800001      -9.08744842E-05
  -10.3699999      -3.35618060E-05
  -10.3599997       6.29045753E-05
  -10.3500004       1.85611570E-04
  -10.3400002       3.12321383E-04
  -10.3299999       4.14506067E-04
  -10.3199997       4.62892436E-04
  -10.3100004       4.34499030E-04
  -10.3000002       3.19475454E-04
  -10.2900000       1.25789724E-04
  -10.2799997      -1.19892735E-04
  -10.2700005      -3.75948730E-04
  -10.2600002      -5.93763602E-04
  -10.2500000      -7.28297746E-04
  -10.2399998      -7.48735387E-04
  -10.2299995      -6.46449509E-04
  -10.2200003      -4.38044925E-04
  -10.2100000      -1.62442127E-04
  -10.1999998       1.27470557E-04
  -10.1899996       3.76608456E-04
  -10.1800003       5.39915403E-04
  -10.1700001       5.91931341E-04
  -10.1599998       5.31330006E-04
  -10.1499996       3.79457662E-04
  -10.1400003       1.73566179E-04
  -10.1300001      -4.31503722E-05
  -10.1199999      -2.31848564E-04
  -10.1099997      -3.65904067E-04
  -10.1000004      -4.34517657E-04
  -10.0900002      -4.41622717E-04
  -10.0799999      -4.01085388E-04
  -10.0699997      -3.30190378E-04
  -10.0600004      -2.43691014E-04
  -10.0500002      -1.50228705E-04
  -10.0400000      -5.19088753E-05
  -10.0299997       5.33590610E-05
  -10.0200005       1.68072234E-04
  -10.0100002       2.91575852E-04
  -10.0000000       4.18142445E-04
  -9.98999977       5.37331915E-04
  -9.97999954       6.36343379E-04
  -9.97000027       7.03336438E-04
  -9.96000004       7.30423140E-04
  -9.94999981       7.15294038E-04
  -9.93999958       6.61090657E-04
  -9.93000031       5.74887614E-04
  -9.92000008       4.65673220E-04
  -9.90999985       3.42803600E-04
  -9.89999962       2.15528198E-04
  -9.89000034       9.35241915E-05
  -9.88000011      -1.22603005E-05
  -9.86999989      -8.94538389E-05
  -9.85999966      -1.25594714E-04
  -9.85000038      -1.11074070E-04
  -9.84000015      -4.29397842E-05
  -9.82999992       7.18872107E-05
  -9.81999969       2.15611086E-04
  -9.81000042       3.61892889E-04
  -9.80000019       4.81544848E-04
  -9.78999996       5.50305587E-04
  -9.77999973       5.56375948E-04
  -9.77000046       5.05077303E-04
  -9.76000023       4.18618089E-04
  -9.75000000       3.30400740E-04
  -9.73999977       2.75133119E-04
  -9.72999954       2.77597399E-04
  -9.72000027       3.43680062E-04
  -9.71000004       4.56836482E-04
  -9.69999981       5.81606640E-04
  -9.68999958       6.73570728E-04
  -9.68000031       6.92960748E-04
  -9.67000008       6.17772108E-04
  -9.65999985       4.52158827E-04
  -9.64999962       2.27222248E-04
  -9.64000034      -6.36810228E-06
  -9.63000011      -1.91907922E-04
  -9.61999989      -2.82349560E-04
  -9.60999966      -2.53438862E-04
  -9.60000038      -1.10375018E-04
  -9.59000015       1.13886694E-04
  -9.57999992       3.67956120E-04
  -9.56999969       5.95901802E-04
  -9.56000042       7.51399610E-04
  -9.55000019       8.07988516E-04
  -9.53999996       7.62786018E-04
  -9.52999973       6.33287069E-04
  -9.52000046       4.49107669E-04
  -9.51000023       2.41984570E-04
  -9.50000000       3.75412892E-05
  -9.48999977      -1.48704217E-04
  -9.47999954      -3.10450792E-04
  -9.47000027      -4.46121354E-04
  -9.46000004      -5.53335005E-04
  -9.44999981      -6.25125656E-04
  -9.43999958      -6.49788242E-04
  -9.43000031      -6.14602468E-04
  -9.42000008      -5.11969789E-04
  -9.40999985      -3.45372275E-04
  -9.39999962      -1.32453293E-04
  -9.39000034       9.65190266E-05
  -9.38000011       3.04871472E-04
  -9.36999989       4.58730035E-04
  -9.35999966       5.36307169E-04
  -9.35000038       5.34179970E-04
  -9.34000015       4.68366983E-04
  -9.32999992       3.69691174E-04
  -9.31999969       2.74787832E-04
  -9.31000042       2.15531792E-04
  -9.30000019       2.10145285E-04
  -9.28999996       2.58655666E-04
  -9.27999973       3.43933410E-04
  -9.27000046       4.37761453E-04
  -9.26000023       5.09865349E-04
  -9.25000000       5.37052576E-04
  -9.23999977       5.09772042E-04
  -9.22999954       4.34385700E-04
  -9.22000027       3.30867391E-04
  -9.21000004       2.27005527E-04
  -9.19999981       1.51069529E-04
  -9.18999958       1.25076782E-04
  -9.18000031       1.60313764E-04
  -9.17000008       2.55869993E-04
  -9.15999985       3.99989309E-04
  -9.14999962       5.73347497E-04
  -9.14000034       7.53094791E-04
  -9.13000011       9.16650577E-04
  -9.11999989       1.04465091E-03
  -9.10999966       1.12289540E-03
  -9.10000038       1.14344840E-03
  -9.09000015       1.10513321E-03
  -9.07999992       1.01355079E-03
  -9.06999969       8.80584528E-04
  -9.06000042       7.23244564E-04
  -9.05000019       5.61748748E-04
  -9.03999996       4.16923838E-04
  -9.02999973       3.07255425E-04
  -9.02000046       2.46111886E-04
  -9.01000023       2.39708461E-04
  -9.00000000       2.86245282E-04
  -8.98999977       3.76389129E-04
  -8.97999954       4.94965992E-04
  -8.97000027       6.23497996E-04
  -8.96000004       7.43104494E-04
  -8.94999981       8.37303756E-04
  -8.93999958       8.94336146E-04
  -8.93000031       9.08731483E-04
  -8.92000008       8.81912652E-04
  -8.90999985       8.21687398E-04
  -8.89999962       7.40568328E-04
  -8.89000034       6.53040945E-04
  -8.88000011       5.72173623E-04
  -8.86999989       5.06275741E-04
  -8.85999966       4.56527021E-04
  -8.85000038       4.16472089E-04
  -8.84000015       3.73915303E-04
  -8.82999992       3.15080397E-04
  -8.81999969       2.30093196E-04
  -8.81000042       1.18180003E-04
  -8.80000019      -9.26140092E-06
  -8.78999996      -1.29182154E-04
  -8.77999973      -2.11484352E-04
  -8.77000046      -2.26880438E-04
  -8.76000023      -1.55954287E-04
  -8.75000000       3.32378363E-06
  -8.73999977       2.32207749E-04
  -8.72999954       4.93429310E-04
  -8.72000027       7.38927512E-04
  -8.71000004       9.21117549E-04
  -8.69999981       1.00452069E-03
  -8.68999958       9.74322436E-04
  -8.68000031       8.39309127E-04
  -8.67000008       6.28384354E-04
  -8.65999985       3.81926395E-04
  -8.64999962       1.40881632E-04
  -8.64000034      -6.28716152E-05
  -8.63000011      -2.11949402E-04
  -8.61999989      -3.03359499E-04
  -8.60999966      -3.43609951E-04
  -8.60000038      -3.41497333E-04
  -8.59000015      -3.01800232E-04
  -8.57999992      -2.22596384E-04
  -8.56999969      -9.73418719E-05
  -8.56000042       7.92029387E-05
  -8.55000019       3.03831010E-04
  -8.53999996       5.59860840E-04
  -8.52999973       8.16914835E-04
  -8.52000046       1.03642524E-03
  -8.51000023       1.18153146E-03
  -8.50000000       1.22816057E-03
  -8.48999977       1.17332675E-03
  -8.47999954       1.03741046E-03
  -8.47000027       8.59169639E-04
  -8.46000004       6.84787519E-04
  -8.44999981       5.54458587E-04
  -8.43999958       4.91003389E-04
  -8.43000031       4.94397245E-04
  -8.42000008       5.44068345E-04
  -8.40999985       6.08084607E-04
  -8.39999962       6.55895390E-04
  -8.39000034       6.70031470E-04
  -8.38000011       6.52555260E-04
  -8.36999989       6.23976637E-04
  -8.35999966       6.15100202E-04
  -8.35000038       6.54842355E-04
  -8.34000015       7.58513284E-04
  -8.32999992       9.20863822E-04
  -8.31999969       1.11643225E-03
  -8.31000042       1.30705629E-03
  -8.30000019       1.45381689E-03
  -8.28999996       1.52912969E-03
  -8.27999973       1.52472872E-03
  -8.27000046       1.45287253E-03
  -8.26000023       1.34063524E-03
  -8.25000000       1.21965003E-03
  -8.23999977       1.11524144E-03
  -8.22999954       1.03894121E-03
  -8.22000027       9.86951054E-04
  -8.21000004       9.44767729E-04
  -8.19999981       8.95836449E-04
  -8.18999958       8.30623088E-04
  -8.18000031       7.52440246E-04
  -8.17000008       6.77713717E-04
  -8.15999985       6.30582566E-04
  -8.14999962       6.33925258E-04
  -8.14000034       7.00264412E-04
  -8.13000011       8.26022762E-04
  -8.11999989       9.91299166E-04
  -8.10999966       1.16524601E-03
  -8.10000038       1.31506147E-03
  -8.09000015       1.41534640E-03
  -8.07999992       1.45456602E-03
  -8.06999969       1.43656647E-03
  -8.06000042       1.37700199E-03
  -8.05000019       1.29639532E-03
  -8.03999996       1.21265778E-03
  -8.02999973       1.13585906E-03
  -8.02000046       1.06693327E-03
  -8.01000023       1.00032822E-03
  -8.00000000       9.29048518E-04
  -7.98999977       8.49712873E-04
  -7.98000002       7.65448611E-04
  -7.96999979       6.85530191E-04
  -7.96000004       6.22143270E-04
  -7.94999981       5.85886883E-04
  -7.94000006       5.82089240E-04
  -7.92999983       6.09543233E-04
  -7.92000008       6.62091712E-04
  -7.90999985       7.32145563E-04
  -7.90000010       8.14308936E-04
  -7.88999987       9.07224079E-04
  -7.88000011       1.01258804E-03
  -7.86999989       1.13166729E-03
  -7.86000013       1.26094453E-03
  -7.84999990       1.38917379E-03
  -7.84000015       1.49774679E-03
  -7.82999992       1.56496861E-03
  -7.82000017       1.57312932E-03
  -7.80999994       1.51582516E-03
  -7.80000019       1.40249636E-03
  -7.78999996       1.25790341E-03
  -7.78000021       1.11604598E-03
  -7.76999998       1.01020781E-03
  -7.76000023       9.62506921E-04
  -7.75000000       9.76835378E-04
  -7.73999977       1.03807426E-03
  -7.73000002       1.11825729E-03
  -7.71999979       1.18771847E-03
  -7.71000004       1.22720539E-03
  -7.69999981       1.23630406E-03
  -7.69000006       1.23466516E-03
  -7.67999983       1.25508313E-03
  -7.67000008       1.33057625E-03
  -7.65999985       1.48007530E-03
  -7.65000010       1.69817416E-03
  -7.63999987       1.95320020E-03
  -7.63000011       2.19498482E-03
  -7.61999989       2.37014424E-03
  -7.61000013       2.43974547E-03
  -7.59999990       2.39305221E-03
  -7.59000015       2.25217408E-03
  -7.57999992       2.06553587E-03
  -7.57000017       1.89209566E-03
  -7.55999994       1.78170390E-03
  -7.55000019       1.75859814E-03
  -7.53999996       1.81409600E-03
  -7.53000021       1.91134645E-03
  -7.51999998       2.00061197E-03
  -7.51000023       2.03958293E-03
  -7.50000000       2.01115757E-03
  -7.48999977       1.93180412E-03
  -7.48000002       1.84688822E-03
  -7.46999979       1.81411672E-03
  -7.46000004       1.88078533E-03
  -7.44999981       2.06313375E-03
  -7.44000006       2.33578333E-03