  -16.0000000       0.00000000    
  -15.9899998       0.00000000    
  -15.9799995       0.00000000    
  -15.9700003       0.00000000    
  -15.9600000       0.00000000    
  -15.9499998       0.00000000    
  -15.9399996       0.00000000    
  -15.9300003       0.00000000    
  -15.9200001       0.00000000    
  -15.9099998       0.00000000    
  -15.8999996      -1.31197970E-40
  -15.8900003       3.37589616E-40
  -15.8800001       1.31558258E-38
  -15.8699999       4.72732241E-40
  -15.8599997      -1.41550050E-36
  -15.8500004      -1.68624349E-35
  -15.8400002      -1.21261747E-34
  -15.8299999      -6.57023328E-34
  -15.8199997      -2.92390885E-33
  -15.8100004      -1.11857030E-32
  -15.8000002      -3.77722334E-32
  -15.7900000      -1.14291141E-31
  -15.7799997      -3.12082136E-31
  -15.7700005      -7.69798007E-31
  -15.7600002      -1.70734385E-30
  -15.7500000      -3.36511420E-30
  -15.7399998      -5.75102806E-30
  -15.7299995      -8.05011408E-30
  -15.7200003      -7.65877865E-30
  -15.7100000       8.08133746E-31
  -15.6999998       2.54729513E-29
  -15.6899996       7.42881856E-29
  -15.6800003       1.47492566E-28
  -15.6700001       2.25817525E-28
  -15.6599998       2.59936650E-28
  -15.6499996       1.73290675E-28
  -15.6400003      -1.06766551E-28
  -15.6300001      -5.84313856E-28
  -15.6199999      -1.12045221E-27
  -15.6099997      -1.41462703E-27
  -15.6000004      -1.13152188E-27
  -15.5900002      -2.18325706E-28
  -15.5799999       7.01352041E-28
  -15.5699997       2.18250354E-28
  -15.5600004      -3.14627350E-27
  -15.5500002      -9.03874283E-27
  -15.5400000      -1.26571353E-26
  -15.5299997      -3.34331462E-27
  -15.5200005       3.23212090E-26
  -15.5100002       9.98421805E-26
  -15.5000000       1.79082285E-25
  -15.4899998       2.07613522E-25
  -15.4799995       8.25365382E-26
  -15.4700003      -2.97648757E-25
  -15.4600000      -9.39972832E-25
  -15.4499998      -1.63376594E-24
  -15.4399996      -1.86809244E-24
  -15.4300003      -9.04542427E-25
  -15.4200001       1.88458910E-24
  -15.4099998       6.40139168E-24
  -15.3999996       1.11262891E-23
  -15.3900003       1.27939781E-23
  -15.3800001       7.05176253E-24
  -15.3699999      -9.44442420E-24
  -15.3599997      -3.56752247E-23
  -15.3500004      -6.28947061E-23
  -15.3400002      -7.36213275E-23
  -15.3299999      -4.57404493E-23
  -15.3199997       3.67187899E-23
  -15.3100004       1.67815112E-22
  -15.3000002       3.05328045E-22
  -15.2900000       3.68322413E-22
  -15.2799997       2.57550085E-22
  -15.2700005      -9.68473552E-23
  -15.2600002      -6.69931427E-22
  -15.2500000      -1.28656615E-21
  -15.2399998      -1.61725563E-21
  -15.2299995      -1.26374083E-21
  -15.2200003       5.53240017E-23
  -15.2100000       2.26150877E-21
  -15.1999998       4.72151866E-21
  -15.1899996       6.24404717E-21
  -15.1800003       5.39153415E-21
  -15.1700001       1.12392721E-21
  -15.1599998      -6.38753999E-21
  -15.1499996      -1.51298507E-20
  -15.1400003      -2.12550052E-20
  -15.1300001      -2.00803506E-20
  -15.1199999      -8.08898467E-21
  -15.1099997       1.46034003E-20
  -15.1000004       4.23795486E-20
  -15.0900002       6.41373487E-20
  -15.0799999       6.61220523E-20
  -15.0699997       3.74771076E-20
  -15.0600004      -2.30399802E-20
  -15.0500002      -1.02032502E-19
  -15.0400000      -1.71371647E-19
  -15.0299997      -1.95147416E-19
  -15.0200005      -1.43097671E-19
  -15.0100002      -6.51807579E-21
  -15.0000000       1.90011490E-19
  -14.9899998       3.87956341E-19
  -14.9799995       5.08851476E-19
  -14.9700003       4.80549026E-19
  -14.9600000       2.66621017E-19
  -14.9499998      -1.13702127E-19
  -14.9399996      -5.85175689E-19
  -14.9300003      -1.03692735E-18
  -14.9200001      -1.35285720E-18
  -14.9099998      -1.43344269E-18
  -14.8999996      -1.19382697E-18
  -14.8900003      -5.40909533E-19
  -14.8800001       6.41477428E-19
  -14.8699999       2.45091486E-18
  -14.8599997       4.82802659E-18
  -14.8500004       7.33104534E-18
  -14.8400002       8.91904683E-18
  -14.8299999       7.92744505E-18
  -14.8199997       2.44960750E-18
  -14.8100004      -8.75187197E-18
  -14.8000002      -2.49209286E-17
  -14.7900000      -4.20347942E-17
  -14.7799997      -5.23651518E-17
  -14.7700005      -4.57433327E-17
  -14.7600002      -1.30528737E-17
  -14.7500000       4.83885074E-17
  -14.7399998       1.29119280E-16
  -14.7299995       2.04212616E-16
  -14.7200003       2.35497976E-16
  -14.7100000       1.81572603E-16
  -14.6999998       1.53009636E-17
  -14.6899996      -2.55311639E-16
  -14.6800003      -5.70864790E-16
  -14.6700001      -8.19022891E-16
  -14.6599998      -8.56196044E-16
  -14.6499996      -5.54580846E-16
  -14.6400003       1.33811790E-16
  -14.6300001       1.11629593E-15
  -14.6199999       2.13023090E-15
  -14.6099997       2.77311493E-15
  -14.6000004       2.60658592E-15
  -14.5900002       1.32329819E-15
  -14.5799999      -1.06638081E-15
  -14.5699997      -4.09810422E-15
  -14.5600004      -6.84656604E-15
  -14.5500002      -8.10526335E-15
  -14.5400000      -6.75606947E-15
  -14.5299997      -2.25411942E-15
  -14.5200005       4.92364582E-15
  -14.5100002       1.30623941E-14
  -14.5000000       1.94028533E-14
  -14.4899998       2.08229142E-14
  -14.4799995       1.49193453E-14
  -14.4700003       1.20955850E-15
  -14.4600000      -1.79755418E-14
  -14.4499998      -3.73677563E-14
  -14.4399996      -4.97274409E-14
  -14.4300003      -4.79066080E-14
  -14.4200001      -2.75949273E-14
  -14.4099998       1.00678971E-14
  -14.3999996       5.70507319E-14
  -14.3900003       9.90944184E-14
  -14.3800001       1.18923738E-13
  -14.3699999       1.01639962E-13
  -14.3599997       4.09989188E-14
  -14.3500004      -5.54515066E-14
  -14.3400002      -1.64610337E-13
  -14.3299999      -2.51129765E-13
  -14.3199997      -2.76166351E-13
  -14.3100004      -2.10120685E-13
  -14.3000002      -4.60686549E-14
  -14.2900000       1.90618666E-13
  -14.2799997       4.40942964E-13
  -14.2700005       6.22135915E-13
  -14.2600002       6.48613325E-13
  -14.2500000       4.60164133E-13
  -14.2399998       5.00292523E-14
  -14.2299995      -5.16456235E-13
  -14.2200003      -1.10143622E-12
  -14.2100000      -1.51758879E-12
  -14.1999998      -1.57383882E-12
  -14.1899996      -1.13552776E-12
  -14.1800003      -1.84144502E-13
  -14.1700001       1.14208708E-12
  -14.1599998       2.54455962E-12
  -14.1499996       3.60889010E-12
  -14.1400003       3.89763916E-12
  -14.1300001       3.07665048E-12
  -14.1199999       1.04674581E-12
  -14.1099997      -1.95667180E-12
  -14.1000004      -5.33438658E-12
  -14.0900002      -8.19291510E-12
  -14.0799999      -9.52063775E-12
  -14.0699997      -8.44988142E-12
  -14.0600004      -4.55382910E-12
  -14.0500002       1.89738438E-12
  -14.0400000       9.80721754E-12
  -14.0299997       1.73242618E-11
  -14.0200005       2.21532011E-11
  -14.0100002       2.20860240E-11
  -14.0000000       1.56652122E-11
  -13.9899998       2.82621669E-12
  -13.9799995      -1.46726433E-11
  -13.9700003      -3.32198852E-11
  -13.9600000      -4.78461819E-11
  -13.9499998      -5.32553307E-11
  -13.9399996      -4.52474239E-11
  -13.9300003      -2.22347210E-11
  -13.9200001       1.35628939E-11
  -13.9099998       5.56799537E-11
  -13.8999996       9.40643397E-11
  -13.8900003       1.16946772E-10
  -13.8800001       1.13712706E-10
  -13.8699999       7.82194240E-11
  -13.8599997       1.17226081E-11
  -13.8500004      -7.55323720E-11
  -13.8400002      -1.64857461E-10
  -13.8299999      -2.32199621E-10
  -13.8199997      -2.53510463E-10
  -13.8100004      -2.11451440E-10
  -13.8000002      -1.01860576E-10
  -13.7900000       6.19048979E-11
  -13.7799997       2.48477905E-10
  -13.7700005       4.12881118E-10
  -13.7600002       5.05711473E-10
  -13.7500000       4.85632146E-10
  -13.7399998       3.32439243E-10
  -13.7299995       5.72138205E-11
  -13.7200003      -2.93867652E-10
  -13.7100000      -6.44453990E-10
  -13.6999998      -9.02144193E-10
  -13.6899996      -9.79853865E-10
  -13.6800003      -8.20083057E-10
  -13.6700001      -4.16097573E-10
  -13.6599998       1.76277104E-10
  -13.6499996       8.41211323E-10
  -13.6400003       1.42178536E-09
  -13.6300001       1.75324855E-09
  -13.6199999       1.70440351E-09
  -13.6099997       1.21763222E-09
  -13.6000004       3.36799033E-10
  -13.5900002      -7.86356702E-10
  -13.5799999      -1.91261251E-09
  -13.5699997      -2.76154055E-09
  -13.5600004      -3.07584691E-09
  -13.5500002      -2.69001044E-09
  -13.5400000      -1.58624147E-09
  -13.5299997       7.84739634E-11
  -13.5200005       1.98537986E-09
  -13.5100002       3.70941877E-09
  -13.5000000       4.80901674E-09
  -13.4899998       4.93216712E-09
  -13.4799995       3.91430266E-09
  -13.4700003       1.84242199E-09
  -13.4600000      -9.34644473E-10
  -13.4499998      -3.85871024E-09
  -13.4399996      -6.27156904E-09
  -13.4300003      -7.56038965E-09
  -13.4200001      -7.30718908E-09
  -13.4099998      -5.40620393E-09
  -13.3999996      -2.11756590E-09
  -13.3900003       1.96131222E-09
  -13.3800001       6.00638339E-09
  -13.3699999       9.13906195E-09
  -13.3599997       1.06224869E-08
  -13.3500004       1.00361817E-08
  -13.3400002       7.38590078E-09
  -13.3299999       3.11909565E-09
  -13.3199997      -1.96158423E-09
  -13.3100004      -6.86926560E-09
  -13.3000002      -1.06489813E-08
  -13.2900000      -1.25869377E-08
  -13.2799997      -1.23612338E-08
  -13.2700005      -1.00962279E-08
  -13.2600002      -6.30721164E-09
  -13.2500000      -1.75104564E-09
  -13.2399998       2.77571832E-09
  -13.2299995       6.63418609E-09
  -13.2200003       9.47871470E-09
  -13.2100000       1.12897549E-08
  -13.1999998       1.22921477E-08
  -13.1899996       1.27822517E-08
  -13.1800003       1.29186759E-08
  -13.1700001       1.25497799E-08
  -13.1599998       1.11496226E-08
  -13.1499996       7.91047938E-09
  -13.1400003       1.99797090E-09
  -13.1300001      -7.07649850E-09
  -13.1199999      -1.90591400E-08
  -13.1099997      -3.26563416E-08
  -13.1000004      -4.54605491E-08
  -13.0900002      -5.41895169E-08
  -13.0799999      -5.52619888E-08
  -13.0699997      -4.56444269E-08
  -13.0600004      -2.38128699E-08
  -13.0500002       9.39548261E-09
  -13.0400000       5.02917032E-08
  -13.0299997       9.24218710E-08
  -13.0200005       1.27349566E-07
  -13.0100002       1.46102522E-07
  -13.0000000       1.41078672E-07
  -12.9899998       1.08049186E-07
  -12.9799995       4.77978723E-08
  -12.9700003      -3.30650387E-08
  -12.9600000      -1.22462737E-07
  -12.9499998      -2.04510926E-07
  -12.9399996      -2.62307907E-07
  -12.9300003      -2.81384274E-07
  -12.9200001      -2.53106748E-07
  -12.9099998      -1.77233829E-07
  -12.8999996      -6.29127044E-08
  -12.8900003       7.23090068E-08
  -12.8800001       2.05451400E-07
  -12.8699999       3.12556011E-07
  -12.8599997       3.73705973E-07
  -12.8500004       3.77453148E-07
  -12.8400002       3.23526052E-07
  -12.8299999       2.23025978E-07
  -12.8199997       9.58974979E-08
  -12.8100004      -3.38410935E-08
  -12.8000002      -1.43982476E-07
  -12.7900000      -2.19609319E-07
  -12.7799997      -2.56632944E-07
  -12.7700005      -2.62274284E-07
  -12.7600002      -2.52148169E-07
  -12.7500000      -2.44571254E-07
  -12.7399998      -2.53595658E-07
  -12.7299995      -2.82812039E-07
  -12.7200003      -3.21964222E-07
  -12.7100000      -3.47812119E-07
  -12.6999998      -3.29569957E-07
  -12.6899996      -2.37903947E-07
  -12.6800003      -5.52612818E-08
  -12.6700001       2.15399737E-07
  -12.6599998       5.46328863E-07
  -12.6499996       8.87067756E-07
  -12.6400003       1.17319314E-06
  -12.6300001       1.34010031E-06
  -12.6199999       1.33854076E-06
  -12.6099997       1.14772183E-06
  -12.6000004       7.82012648E-07
  -12.5900002       2.88741091E-07
  -12.5799999      -2.63070774E-07
  -12.5699997      -8.00469593E-07
  -12.5600004      -1.26600128E-06
  -12.5500002      -1.63286575E-06
  -12.5400000      -1.91040999E-06
  -12.5299997      -2.13684689E-06
  -12.5200005      -2.35963284E-06
  -12.5100002      -2.60789375E-06
  -12.5000000      -2.86451041E-06
  -12.4899998      -3.04694754E-06
  -12.4799995      -3.00490001E-06
  -12.4700003      -2.53932103E-06
  -12.4600000      -1.44201545E-06
  -12.4499998       4.51026722E-07
  -12.4399996       3.20436584E-06
  -12.4300003       6.74020339E-06
  -12.4200001       1.08210679E-05
  -12.4099998       1.50665792E-05
  -12.3999996       1.90051669E-05
  -12.3900003       2.21528717E-05
  -12.3800001       2.41035850E-05
  -12.3699999       2.46105883E-05
  -12.3599997       2.36393498E-05
  -12.3500004       2.13768762E-05
  -12.3400002       1.81923533E-05
  -12.3299999       1.45554923E-05
  -12.3199997       1.09299563E-05
  -12.3100004       7.66667654E-06
  -12.3000002       4.92357276E-06
  -12.2900000       2.63331685E-06
  -12.2799997       5.30085686E-07
  -12.2700005      -1.76791320E-06
  -12.2600002      -4.63771676E-06
  -12.2500000      -8.32109890E-06
  -12.2399998      -1.28171569E-05
  -12.2299995      -1.78273986E-05
  -12.2200003      -2.27718083E-05
  -12.2100000      -2.68781987E-05
  -12.1999998      -2.93295561E-05
  -12.1899996      -2.94391975E-05
  -12.1800003      -2.68152016E-05
  -12.1700001      -2.14759602E-05
  -12.1599998      -1.38881360E-05
  -12.1499996      -4.91464243E-06
  -12.1400003       4.31986791E-06
  -12.1300001       1.26201567E-05
  -12.1199999       1.89294096E-05
  -12.1099997       2.25131535E-05
  -12.1000004       2.30805836E-05
  -12.0900002       2.08196525E-05
  -12.0799999       1.63411787E-05
  -12.0699997       1.05468171E-05
  -12.0600004       4.45133219E-06
  -12.0500002      -1.00210934E-06
  -12.0400000      -5.09574511E-06
  -12.0299997      -7.43152941E-06
  -12.0200005      -7.95254800E-06
  -12.0100002      -6.89531817E-06
  -12.0000000      -4.69172073E-06
  -11.9899998      -1.84870350E-06
  -11.9799995       1.16427339E-06
  -11.9700003       3.99553437E-06
  -11.9600000       6.44561260E-06
  -11.9499998       8.45531304E-06
  -11.9399996       1.00587586E-05
  -11.9300003       1.13204096E-05
  -11.9200001       1.22769461E-05
  -11.9099998       1.29010177E-05
  -11.8999996       1.30959197E-05
  -11.8900003       1.27205958E-05
  -11.8800001       1.16358624E-05
  -11.8699999       9.75745388E-06
  -11.8599997       7.10057111E-06
  -11.8500004       3.80368783E-06
  -11.8400002       1.25319957E-07
  -11.8299999      -3.58573675E-06
  -11.8199997      -6.94037726E-06
  -11.8100004      -9.56938311E-06
  -11.8000002      -1.11829222E-05
  -11.7900000      -1.16196989E-05
  -11.7799997      -1.08786780E-05
  -11.7700005      -9.12915584E-06
  -11.7600002      -6.69736937E-06
  -11.7500000      -4.02973637E-06
  -11.7399998      -1.63456616E-06
  -11.7299995      -6.32580432E-09
  -11.7200003       4.60352283E-07
  -11.7100000      -4.44160918E-07
  -11.6999998      -2.67489077E-06
  -11.6899996      -5.89498586E-06
  -11.6800003      -9.48622983E-06
  -11.6700001      -1.26170989E-05
  -11.6599998      -1.43680381E-05
  -11.6499996      -1.39006033E-05
  -11.6400003      -1.06439575E-05
  -11.6300001      -4.46239983E-06
  -11.6199999       4.23542679E-06
  -11.6099997       1.44792093E-05
  -11.6000004       2.48302786E-05
  -11.5900002       3.35827499E-05
  -11.5799999       3.90458044E-05
  -11.5699997       3.98595148E-05
  -11.5600004       3.52840616E-05
  -11.5500002       2.54017668E-05
  -11.5400000       1.11841455E-05
  -11.5299997      -5.59995215E-06
  -11.5200005      -2.26283555E-05
  -11.5100002      -3.73844814E-05
  -11.5000000      -4.75695997E-05
  -11.4899998      -5.14946078E-05
  -11.4799995      -4.83795884E-05
  -11.4700003      -3.85056810E-05
  -11.4600000      -2.31907961E-05
  -11.4499998      -4.59255352E-06
  -11.4399996       1.46273005E-05
  -11.4300003       3.17193699E-05
  -11.4200001       4.42739256E-05
  -11.4099998       5.05894532E-05
  -11.3999996       4.99250891E-05
  -11.3900003       4.26005390E-05
  -11.3800001       2.99326057E-05
  -11.3699999       1.40228949E-05
  -11.3599997      -2.56728345E-06
  -11.3500004      -1.72040309E-05
  -11.3400002      -2.75726670E-05
  -11.3299999      -3.20184772E-05
  -11.3199997      -2.97896222E-05
  -11.3100004      -2.11498646E-05
  -11.3000002      -7.34685773E-06
  -11.2900000       9.55891846E-06
  -11.2799997       2.69810716E-05
  -11.2700005       4.21712211E-05
  -11.2600002       5.26107760E-05
  -11.2500000       5.63773428E-05
  -11.2399998       5.24355601E-05
  -11.2299995       4.08119413E-05
  -11.2200003       2.26285210E-05
  -11.2100000      -1.10886589E-08
  -11.1999998      -2.42704100E-05
  -11.1899996      -4.69331280E-05
  -11.1800003      -6.48170608E-05
  -11.1700001      -7.51982298E-05
  -11.1599998      -7.61930933E-05
  -11.1499996      -6.70515728E-05
  -11.1400003      -4.83224394E-05
  -11.1300001      -2.18650111E-05
  -11.1199999       9.30423084E-06
  -11.1099997       4.13253256E-05
  -11.1000004       6.99463490E-05
  -11.0900002       9.10715535E-05
  -11.0799999       1.01346850E-04
  -11.0699997       9.87075182E-05
  -11.0600004       8.28038101E-05
  -11.0500002       5.52217098E-05
  -11.0400000       1.94317490E-05
  -11.0299997      -1.95687371E-05
  -11.0200005      -5.59075670E-05
  -11.0100002      -8.37157131E-05
  -11.0000000      -9.81086050E-05
  -10.9899998      -9.61068508E-05
  -10.9799995      -7.73178181E-05
  -10.9700003      -4.42192504E-05
  -10.9600000      -1.94270365E-06
  -10.9499998       4.24575010E-05
  -10.9399996       8.11617501E-05
  -10.9300003       1.06982938E-04
  -10.9200001       1.14749630E-04
  -10.9099998       1.02397666E-04
  -10.8999996       7.15295973E-05
  -10.8900003       2.72925918E-05
  -10.8800001      -2.24431442E-05
  -10.8699999      -6.84787519E-05
  -10.8599997      -1.02000900E-04
  -10.8500004      -1.16283816E-04
  -10.8400002      -1.08036511E-04
  -10.8299999      -7.81150011E-05
  -10.8199997      -3.14439749E-05
  -10.8100004       2.38473131E-05
  -10.8000002       7.79082475E-05
  -10.7900000       1.20975543E-04
  -10.7799997       1.45150072E-04
  -10.7700005       1.45797021E-04
  -10.7600002       1.22310186E-04
  -10.7500000       7.81194103E-05
  -10.7399998       1.99782735E-05
  -10.7299995      -4.32885427E-05
  -10.7200003      -1.02303435E-04
  -10.7100000      -1.48615509E-04
  -10.6999998      -1.75877314E-04
  -10.6899996      -1.80548202E-04
  -10.6800003      -1.62076074E-04
  -10.6700001      -1.22626967E-04
  -10.6599998      -6.65152766E-05
  -10.6499996       4.81412997E-07
  -10.6400003       7.17658040E-05
  -10.6300001       1.40435557E-04
  -10.6199999       1.99671180E-04
  -10.6099997       2.43075308E-04
  -10.6000004       2.65077106E-04
  -10.5900002       2.61493638E-04
  -10.5799999       2.30263337E-04
  -10.5699997       1.72255794E-04
  -10.5600004       9.19522354E-05
  -10.5500002      -2.27608507E-06
  -10.5400000      -9.85553488E-05
  -10.5299997      -1.82724427E-04
  -10.5200005      -2.40356458E-04
  -10.5100002      -2.59338238E-04
  -10.5000000      -2.32546328E-04
  -10.4899998      -1.60024836E-04
  -10.4799995      -5.00692768E-05
  -10.4700003       8.12255821E-05
  -10.4600000       2.12101368E-04
  -10.4499998       3.18726059E-04
  -10.4399996       3.79636709E-04
  -10.4300003       3.80161859E-04
  -10.4200001       3.15860583E-04
  -10.4099998       1.94146967E-04
  -10.3999996       3.36098929E-05
  -10.3900003      -1.38981457E-04
  -10.3800001      -2.93482444E-04
  -10.3699999      -4.02062724E-04
  -10.3599997      -4.44628065E-04
  -10.3500004      -4.12850961E-04
  -10.3400002      -3.11965065E-04
  -10.3299999      -1.59947027E-04
  -10.3199997       1.57467839E-05
  -10.3100004       1.83223674E-04
  -10.3000002       3.11974058E-04
  -10.2900000       3.78347642E-04
  -10.2799997       3.69685236E-04
  -10.2700005       2.86414288E-04
  -10.2600002       1.41829398E-04
  -10.2500000      -4.02930491E-05
  -10.2399998      -2.29743717E-04
  -10.2299995      -3.94859555E-04
  -10.2200003      -5.07614284E-04
  -10.2100000      -5.48041775E-04
  -10.1999998      -5.07355551E-04
  -10.1899996      -3.89331486E-04
  -10.1800003      -2.09762773E-04
  -10.1700001       5.94331277E-06
  -10.1599998       2.26698161E-04
  -10.1499996       4.20624972E-04
  -10.1400003       5.60158107E-04
  -10.1300001       6.26505876E-04
  -10.1199999       6.12679694E-04
  -10.1099997       5.24497067E-04
  -10.1000004       3.79316334E-04
  -10.0900002       2.02696014E-04
  -10.0799999       2.36081705E-05
  -10.0699997      -1.30839602E-04
  -10.0600004      -2.40097943E-04
  -10.0500002      -2.93334975E-04
  -10.0400000      -2.90468975E-04
  -10.0299997      -2.40985639E-04
  -10.0200005      -1.60968862E-04
  -10.0100002      -6.91683745E-05
  -10.0000000       1.69096929E-05
  -9.98999977       8.40084831E-05
  -9.97999954       1.24674669E-04
  -9.97000027       1.37264491E-04
  -9.96000004       1.24731581E-04
  -9.94999981       9.28022200E-05
  -9.93999958       4.81943352E-05
  -9.93000031      -2.63016659E-06
  -9.92000008      -5.39968933E-05
  -9.90999985      -1.00973557E-04
  -9.89999962      -1.39104464E-04
  -9.89000034      -1.64318291E-04
  -9.88000011      -1.73256223E-04
  -9.86999989      -1.64005440E-04
  -9.85999966      -1.36960909E-04
  -9.85000038      -9.53897397E-05
  -9.84000015      -4.53074281E-05
  -9.82999992       5.50873028E-06
  -9.81999969       4.92228246E-05
  -9.81000042       7.99102490E-05
  -9.80000019       9.51802649E-05
  -9.78999996       9.68868917E-05
  -9.77999973       9.06245041E-05
  -9.77000046       8.40922075E-05
  -9.76000023       8.47917763E-05
  -9.75000000       9.77599339E-05
  -9.73999977       1.24038677E-04
  -9.72999954       1.60351294E-04
  -9.72000027       2.00056878E-04
  -9.71000004       2.35041662E-04
  -9.69999981       2.57917214E-04
  -9.68999958       2.63832480E-04
  -9.68000031       2.51385936E-04
  -9.67000008       2.22469898E-04
  -9.65999985       1.81260315E-04
  -9.64999962       1.32835587E-04
  -9.64000034       8.19717752E-05
  -9.63000011       3.25034962E-05
  -9.61999989      -1.26639361E-05
  -9.60999966      -5.11228791E-05
  -9.60000038      -8.05363889E-05
  -9.59000015      -9.86219675E-05
  -9.57999992      -1.03727158E-04
  -9.56999969      -9.58394303E-05
  -9.56000042      -7.75702065E-05
  -9.55000019      -5.45298026E-05
  -9.53999996      -3.46453926E-05
  -9.52999973      -2.63419788E-05
  -9.52000046      -3.59802470E-05
  -9.51000023      -6.53408133E-05
  -9.50000000      -1.10088644E-04
  -9.48999977      -1.59953823E-04
  -9.47999954      -2.00859678E-04
  -9.47000027      -2.18573041E-04
  -9.46000004      -2.02873198E-04
  -9.44999981      -1.50952677E-04
  -9.43999958      -6.89039516E-05
  -9.43000031       2.93102094E-05
  -9.42000008       1.25222388E-04
  -9.40999985       2.00621333E-04
  -9.39999962       2.42292197E-04
  -9.39000034       2.45304516E-04
  -9.38000011       2.13875217E-04
  -9.36999989       1.59617121E-04
  -9.35999966       9.78239186E-05
  -9.35000038       4.30502987E-05
  -9.34000015       5.41184500E-06
  -9.32999992      -1.12965708E-05
  -9.31999969      -9.25838049E-06
  -9.31000042       5.53368500E-06
  -9.30000019       2.62568701E-05
  -9.28999996       4.78198053E-05
  -9.27999973       6.80410158E-05
  -9.27000046       8.71073862E-05
  -9.26000023       1.05718733E-04
  -9.25000000       1.22890517E-04
  -9.23999977       1.34550981E-04
  -9.22999954       1.33760681E-04
  -9.22000027       1.12714457E-04
  -9.21000004       6.59170328E-05
  -9.19999981      -6.64692061E-06
  -9.18999958      -9.76607189E-05
  -9.18000031      -1.92879612E-04
  -9.17000008      -2.73963989E-04
  -9.15999985      -3.23033426E-04
  -9.14999962      -3.27560294E-04
  -9.14000034      -2.84016889E-04
  -9.13000011      -1.99043221E-04
  -9.11999989      -8.77059283E-05
  -9.10999966       3.06140755E-05
  -9.10000038       1.37373834E-04
  -9.09000015       2.19401074E-04
  -9.07999992       2.71399360E-04
  -9.06999969       2.95758713E-04
  -9.06000042       2.99963402E-04
  -9.05000019       2.92715908E-04
  -9.03999996       2.80293229E-04
  -9.02999973       2.64479197E-04
  -9.02000046       2.42750553E-04
  -9.01000023       2.10489889E-04
  -9.00000000       1.64202866E-04
  -8.98999977       1.04331157E-04
  -8.97999954       3.64216212E-05
  -8.97000027      -2.99275780E-05
  -8.96000004      -8.40266221E-05
  -8.94999981      -1.17852695E-04
  -8.93999958      -1.29127249E-04
  -8.93000031      -1.22425467E-04
  -8.92000008      -1.07733395E-04
  -8.90999985      -9.68237946E-05
  -8.89999962      -9.86765372E-05
  -8.89000034      -1.15600356E-04
  -8.88000011      -1.41547396E-04
  -8.86999989      -1.63393299E-04
  -8.85999966      -1.64931611E-04
  -8.85000038      -1.32359623E-04
  -8.84000015      -5.94637313E-05
  -8.82999992       4.92539984E-05
  -8.81999969       1.78631206E-04
  -8.81000042       3.06187285E-04
  -8.80000019       4.07799816E-04
  -8.78999996       4.64022742E-04
  -8.77999973       4.65167395E-04
  -8.77000046       4.13684524E-04
  -8.76000023       3.23244371E-04
  -8.75000000       2.14918226E-04
  -8.73999977       1.11686481E-04
  -8.72999954       3.28901078E-05
  -8.72000027      -9.88828924E-06
  -8.71000004      -1.45885133E-05
  -8.69999981       1.20739896E-05
  -8.68999958       5.73082507E-05
  -8.68000031       1.05903746E-04
  -8.67000008       1.43773577E-04
  -8.65999985       1.60572978E-04
  -8.64999962       1.51020839E-04
  -8.64000034       1.14991431E-04
  -8.63000011       5.67350253E-05
  -8.61999989      -1.63314689E-05
  -8.60999966      -9.49197929E-05
  -8.60000038      -1.69085397E-04
  -8.59000015      -2.29346319E-04
  -8.57999992      -2.67740805E-04
  -8.56999969      -2.78804218E-04
  -8.56000042      -2.60341301E-04
  -8.55000019      -2.13795080E-04
  -8.53999996      -1.44037724E-04
  -8.52999973      -5.85385533E-05
  -8.52000046       3.39406324E-05
  -8.51000023       1.24801998E-04
  -8.50000000       2.06833312E-04
  -8.48999977       2.74890190E-04
  -8.47999954       3.25937377E-04
  -8.47000027       3.58592049E-04
  -8.46000004       3.72490875E-04
  -8.44999981       3.67836852E-04
  -8.43999958       3.45352106E-04
  -8.43000031       3.06624133E-04
  -8.42000008       2.54596787E-04
  -8.40999985       1.93832704E-04
  -8.39999962       1.30234490E-04
  -8.39000034       7.01414538E-05
  -8.38000011       1.90245628E-05
  -8.36999989      -1.97525660E-05
  -8.35999966      -4.55798945E-05
  -8.35000038      -6.03051085E-05
  -8.34000015      -6.70104782E-05
  -8.32999992      -6.82879981E-05
  -8.31999969      -6.47187990E-05
  -8.31000042      -5.42717426E-05
  -8.30000019      -3.30368603E-05
  -8.28999996       2.81249504E-06
  -8.27999973       5.44824143E-05
  -8.27000046       1.18450509E-04
  -8.26000023       1.85776182E-04
  -8.25000000       2.43398827E-04
  -8.23999977       2.77296844E-04
  -8.22999954       2.76647479E-04
  -8.22000027       2.37643675E-04
  -8.21000004       1.65595469E-04
  -8.19999981       7.44212812E-05
  -8.18999958      -1.65246274E-05
  -8.18000031      -8.74241377E-05
  -8.17000008      -1.23243561E-04
  -8.15999985      -1.17588083E-04
  -8.14999962      -7.39319948E-05
  -8.14000034      -3.87932732E-06
  -8.13000011       7.68732789E-05
  -8.11999989       1.53419765E-04
  -8.10999966       2.15669017E-04
  -8.10000038       2.60176603E-04
  -8.09000015       2.89309508E-04
  -8.07999992       3.08291405E-04
  -8.06999969       3.21474654E-04
  -8.06000042       3.29451228E-04
  -8.05000019       3.28242779E-04
  -8.03999996       3.10942414E-04
  -8.02999973       2.71153956E-04
  -8.02000046       2.06794939E-04
  -8.01000023       1.22611935E-04
  -8.00000000       3.02063472E-05
  -7.98999977      -5.46789597E-05
  -7.98000002      -1.16764750E-04
  -7.96999979      -1.46077960E-04
  -7.96000004      -1.41190787E-04
  -7.94999981      -1.09546767E-04
  -7.94000006      -6.46329790E-05
  -7.92999983      -2.09654536E-05
  -7.92000008       1.12647203E-05
  -7.90999985       2.98395953E-05
  -7.90000010       4.10009525E-05
  -7.88999987       5.64966394E-05
  -7.88000011       8.82370223E-05
  -7.86999989       1.42586985E-04
  -7.86000013       2.16550077E-04
  -7.84999990       2.97468941E-04
  -7.84000015       3.66582826E-04
  -7.82999992       4.05312894E-04
  -7.82000017       4.02043777E-04
  -7.80999994       3.56868521E-04
  -7.80000019       2.82406079E-04
  -7.78999996       2.00179682E-04
  -7.78000021       1.33667170E-04
  -7.76999998       1.00403362E-04
  -7.76000023       1.05945641E-04
  -7.75000000       1.41925149E-04
  -7.73999977       1.88985519E-04
  -7.73000002       2.23661016E-04
  -7.71999979       2.26803866E-04
  -7.71000004       1.90569161E-04
  -7.69999981       1.21438257E-04
  -7.69000006       3.81557111E-05
  -7.67999983      -3.47270943E-05
  -7.67000008      -7.54202338E-05
  -7.65999985      -7.25185673E-05
  -7.65000010      -2.89446198E-05
  -7.63999987       3.92128459E-05
  -7.63000011       1.08555556E-04
  -7.61999989       1.56828639E-04
  -7.61000013       1.70933155E-04
  -7.59999990       1.51617089E-04
  -7.59000015       1.13157766E-04
  -7.57999992       7.81493072E-05
  -7.57000017       6.92642061E-05
  -7.55999994       1.00939382E-04
  -7.55000019       1.73954264E-04
  -7.53999996       2.74822116E-04
  -7.53000021       3.80189100E-04
  -7.51999998       4.64650861E-04
  -7.51000023       5.09195495E-04
  -7.50000000       5.07288438E-04
  -7.48999977       4.66489146E-04
  -7.48000002       4.05105704E-04
  -7.46999979       3.45165608E-04
  -7.46000004       3.04277375E-04
  -7.44999981       2.89316115E-04
  -7.44000006       2.94181460E-04