  -16.0000000       0.00000000    
  -15.9899998       0.00000000    
  -15.9799995       0.00000000    
  -15.9700003       0.00000000    
  -15.9600000       0.00000000    
  -15.9499998       0.00000000    
  -15.9399996       0.00000000    
  -15.9300003       0.00000000    
  -15.9200001       0.00000000    
  -15.9099998      -0.00000000    
  -15.8999996      -9.32802349E-41
  -15.8900003      -1.47931015E-39
  -15.8800001      -9.44025208E-39
  -15.8699999      -1.91744013E-38
  -15.8599997       1.56017365E-37
  -15.8500004       1.75058832E-36
  -15.8400002       1.00540927E-35
  -15.8299999       4.28888269E-35
  -15.8199997       1.52148263E-34
  -15.8100004       4.74406332E-34
  -15.8000002       1.32949091E-33
  -15.7900000       3.32158226E-33
  -15.7799997       7.08837567E-33
  -15.7700005       1.15110541E-32
  -15.7600002       7.80409524E-33
  -15.7500000      -3.39248845E-32
  -15.7399998      -1.85839168E-31
  -15.7299995      -5.78551706E-31
  -15.7200003      -1.37381276E-30
  -15.7100000      -2.62680613E-30
  -15.6999998      -3.97725598E-30
  -15.6899996      -4.21244889E-30
  -15.6800003      -9.96970989E-31
  -15.6700001       8.59229495E-30
  -15.6599998       2.59241004E-29
  -15.6499996       4.67835678E-29
  -15.6400003       5.68716219E-29
  -15.6300001       3.09930336E-29
  -15.6199999      -5.76178536E-29
  -15.6099997      -2.12699896E-28
  -15.6000004      -3.78523668E-28
  -15.5900002      -4.11776822E-28
  -15.5799999      -1.00703651E-28
  -15.5699997       7.24717616E-28
  -15.5600004       1.97861491E-27
  -15.5500002       3.06848904E-27
  -15.5400000       2.78916641E-27
  -15.5299997      -3.73704269E-28
  -15.5200005      -7.31819174E-27
  -15.5100002      -1.68542151E-26
  -15.5000000      -2.42876822E-26
  -15.4899998      -2.12413633E-26
  -15.4799995       1.88170655E-27
  -15.4700003       5.00133900E-26
  -15.4600000       1.15108932E-25
  -15.4499998       1.69025849E-25
  -15.4399996       1.63544782E-25
  -15.4300003       4.37106256E-26
  -15.4200001      -2.22932018E-25
  -15.4099998      -6.06536513E-25
  -15.3999996      -9.80194483E-25
  -15.3900003      -1.11404012E-24
  -15.3800001      -7.22496355E-25
  -15.3699999       4.22791185E-25
  -15.3599997       2.32612026E-24
  -15.3500004       4.59111998E-24
  -15.3400002       6.31041945E-24
  -15.3299999       6.11994307E-24
  -15.3199997       2.51909931E-24
  -15.3100004      -5.47211471E-24
  -15.3000002      -1.73366052E-23
  -15.2900000      -2.99645123E-23
  -15.2799997      -3.69385539E-23
  -15.2700005      -2.90661070E-23
  -15.2600002       2.75046531E-24
  -15.2500000       6.15297811E-23
  -15.2399998       1.35696382E-22
  -15.2299995       1.91277275E-22
  -15.2200003       1.71486130E-22
  -15.2100000       1.26959613E-23
  -15.1999998      -3.16237045E-22
  -15.1899996      -7.54319753E-22
  -15.1800003      -1.09067823E-21
  -15.1700001      -9.54877629E-22
  -15.1599998       8.32629306E-23
  -15.1499996       2.25741487E-21
  -15.1400003       5.21053750E-21
  -15.1300001       7.60290216E-21
  -15.1199999       7.01003500E-21
  -15.1099997       4.91345789E-22
  -15.1000004      -1.38719207E-20
  -15.0900002      -3.45449074E-20
  -15.0799999      -5.39808051E-20
  -15.0699997      -5.75470069E-20
  -15.0600004      -2.61182682E-20
  -15.0500002       5.58136823E-20
  -15.0400000       1.86516174E-19
  -15.0299997       3.31424750E-19
  -15.0200005       4.13623807E-19
  -15.0100002       3.21874226E-19
  -15.0000000      -5.29957267E-20
  -14.9899998      -7.50367277E-19
  -14.9799995      -1.65411173E-18
  -14.9700003      -2.42421222E-18
  -14.9600000      -2.50037798E-18
  -14.9499998      -1.23545008E-18
  -14.9399996       1.81123851E-18
  -14.9300003       6.45707154E-18
  -14.9200001       1.14905214E-17
  -14.9099998       1.45095933E-17
  -14.8999996       1.22814938E-17
  -14.8900003       1.82647890E-18
  -14.8800001      -1.78099265E-17
  -14.8699999      -4.35255424E-17
  -14.8599997      -6.67482609E-17
  -14.8500004      -7.38226337E-17
  -14.8400002      -4.92797648E-17
  -14.8299999       1.76515926E-17
  -14.8199997       1.24338256E-16
  -14.8100004       2.46703905E-16
  -14.8000002       3.36308926E-16
  -14.7900000       3.27409283E-16
  -14.7799997       1.57127193E-16
  -14.7700005      -2.02504825E-16
  -14.7600002      -7.08399118E-16
  -14.7500000      -1.22080889E-15
  -14.7399998      -1.50701275E-15
  -14.7299995      -1.29073295E-15
  -14.7200003      -3.52310093E-16
  -14.7100000       1.33594989E-15
  -14.6999998       3.48032285E-15
  -14.6899996       5.40459028E-15
  -14.6800003       6.12497402E-15
  -14.6700001       4.60610587E-15
  -14.6599998       1.87432893E-16
  -14.6499996      -6.91232206E-15
  -14.6400003      -1.51906787E-14
  -14.6300001      -2.17885639E-14
  -14.6199999      -2.29617977E-14
  -14.6099997      -1.51879106E-14
  -14.6000004       3.22532486E-15
  -14.5900002       3.04472972E-14
  -14.5799999       6.00169532E-14
  -14.5699997       8.10855221E-14
  -14.5600004       8.05972246E-14
  -14.5500002       4.74854632E-14
  -14.5400000      -2.18309020E-14
  -14.5299997      -1.18247995E-13
  -14.5200005      -2.17321644E-13
  -14.5100002      -2.81448936E-13
  -14.5000000      -2.68320359E-13
  -14.4899998      -1.45245252E-13
  -14.4799995       9.35554734E-14
  -14.4700003       4.12087817E-13
  -14.4600000       7.27035782E-13
  -14.4499998       9.17855418E-13
  -14.4399996       8.55596084E-13
  -14.4300003       4.47697516E-13
  -14.4200001      -3.11252570E-13
  -14.4099998      -1.29933011E-12
  -14.3999996      -2.25715128E-12
  -14.3900003      -2.82418099E-12
  -14.3800001      -2.62732045E-12
  -14.3699999      -1.41072158E-12
  -14.3599997       8.23738430E-13
  -14.3500004       3.71187803E-12
  -14.3400002       6.51027192E-12
  -14.3299999       8.20719968E-12
  -14.3199997       7.77141285E-12
  -14.3100004       4.50350954E-12
  -14.3000002      -1.59453711E-12
  -14.2900000      -9.55356627E-12
  -14.2799997      -1.74050479E-11
  -14.2700005      -2.24782380E-11
  -14.2600002      -2.20430584E-11
  -14.2500000      -1.42027310E-11
  -14.2399998       1.17755187E-12
  -14.2299995       2.18045547E-11
  -14.2200003       4.28644169E-11
  -14.2100000       5.77266082E-11
  -14.1999998       5.94769720E-11
  -14.1899996       4.30501919E-11
  -14.1800003       7.46334244E-12
  -14.1700001      -4.25377303E-11
  -14.1599998      -9.61311239E-11
  -14.1499996      -1.37884121E-10
  -14.1400003      -1.51121796E-10
  -14.1300001      -1.22714228E-10
  -14.1199999      -4.82084164E-11
  -14.1099997       6.41880160E-11
  -14.1000004       1.92333996E-10
  -14.0900002       3.02759151E-10
  -14.0799999       3.57443991E-10
  -14.0699997       3.23882449E-10
  -14.0600004       1.86295424E-10
  -14.0500002      -4.50528226E-11
  -14.0400000      -3.29716227E-10
  -14.0299997      -6.00695826E-10
  -14.0200005      -7.76784914E-10
  -14.0100002      -7.82250487E-10
  -14.0000000      -5.69975289E-10
  -13.9899998      -1.42225745E-10
  -13.9799995       4.37516384E-10
  -13.9700003       1.04721076E-09
  -13.9600000       1.52611279E-09
  -13.9499998       1.71025372E-09
  -13.9399996       1.47718215E-09
  -13.9300003       7.89539878E-10
  -13.9200001      -2.74948286E-10
  -13.9099998      -1.51843638E-09
  -13.8999996      -2.64975308E-09
  -13.8900003      -3.34256245E-09
  -13.8800001      -3.31566286E-09
  -13.8699999      -2.41817677E-09
  -13.8599997      -6.97490732E-10
  -13.8500004       1.57200286E-09
  -13.8400002       3.91504962E-09
  -13.8299999       5.74049075E-09
  -13.8199997       6.47383258E-09
  -13.8100004       5.71122394E-09
  -13.8000002       3.35789441E-09
  -13.7900000      -2.88686242E-10
  -13.7799997      -4.54327465E-09
  -13.7700005      -8.43981063E-09
  -13.7600002      -1.09311049E-08
  -13.7500000      -1.11450742E-08
  -13.7399998      -8.63991279E-09
  -13.7299995      -3.59083674E-09
  -13.7200003       3.15235238E-09
  -13.7100000       1.01736859E-08
  -13.6999998       1.57643765E-08
  -13.6899996       1.83160491E-08
  -13.6800003       1.67497003E-08
  -13.6700001       1.08730953E-08
  -13.6599998       1.56127855E-09
  -13.6499996      -9.31469568E-09
  -13.6400003      -1.92302707E-08
  -13.6300001      -2.55711665E-08
  -13.6199999      -2.63016897E-08
  -13.6099997      -2.05750599E-08
  -13.6000004      -9.11440967E-09
  -13.5900002       5.77087134E-09
  -13.5799999       2.05903774E-08
  -13.5699997       3.14509023E-08
  -13.5600004       3.50505616E-08
  -13.5500002       2.96498328E-08
  -13.5400000       1.57515387E-08
  -13.5299997      -3.73840381E-09
  -13.5200005      -2.39892213E-08
  -13.5100002      -3.93246289E-08
  -13.5000000      -4.46945378E-08
  -13.4899998      -3.71907198E-08
  -13.4799995      -1.71928463E-08
  -13.4700003       1.12299618E-08
  -13.4600000       4.08898231E-08
  -13.4499998       6.30182413E-08
  -13.4399996       6.94999471E-08
  -13.4300003       5.52970363E-08
  -13.4200001       2.04252526E-08
  -13.4099998      -2.91348314E-08
  -13.3999996      -8.20182251E-08
  -13.3900003      -1.23638316E-07
  -13.3800001      -1.39610492E-07
  -13.3699999      -1.19725641E-07
  -13.3599997      -6.15013036E-08
  -13.3500004       2.77035372E-08
  -13.3400002       1.30807280E-07
  -13.3299999       2.23694542E-07
  -13.3199997       2.80195451E-07
  -13.3100004       2.78439927E-07
  -13.3000002       2.07177891E-07
  -13.2900000       7.04536518E-08
  -13.2799997      -1.10800876E-07
  -13.2700005      -3.01121219E-07
  -13.2600002      -4.56817730E-07
  -13.2500000      -5.35254799E-07
  -13.2399998      -5.05250284E-07
  -13.2299995      -3.56215025E-07
  -13.2200003      -1.03645888E-07
  -13.2100000       2.10840753E-07
  -13.1999998       5.25650364E-07
  -13.1899996       7.70844338E-07
  -13.1800003       8.83179439E-07
  -13.1700001       8.21403603E-07
  -13.1599998       5.78234506E-07
  -13.1499996       1.85836754E-07
  -13.1400003      -2.87194382E-07
  -13.1300001      -7.47532283E-07
  -13.1199999      -1.09566224E-06
  -13.1099997      -1.24762926E-06
  -13.1000004      -1.15524199E-06
  -13.0900002      -8.19896343E-07
  -13.0799999      -2.96241012E-07
  -13.0699997       3.16043014E-07
  -13.0600004       8.91426794E-07
  -13.0500002       1.30509909E-06
  -13.0400000       1.46129025E-06
  -13.0299997       1.31686261E-06
  -13.0200005       8.94275274E-07
  -13.0100002       2.80096174E-07
  -13.0000000      -3.91624724E-07
  -12.9899998      -9.68256700E-07
  -12.9799995      -1.31374509E-06
  -12.9700003      -1.34205970E-06
  -12.9600000      -1.04078299E-06
  -12.9499998      -4.78443951E-07
  -12.9399996       2.07357388E-07
  -12.9300003       8.39580423E-07
  -12.9200001       1.24327130E-06
  -12.9099998       1.28979696E-06
  -12.8999996       9.33218587E-07
  -12.8900003       2.29300511E-07
  -12.8800001      -6.68920052E-07
  -12.8699999      -1.53992153E-06
  -12.8599997      -2.14197621E-06
  -12.8500004      -2.27097917E-06
  -12.8400002      -1.81478163E-06
  -12.8299999      -7.90741694E-07
  -12.8199997       6.43916223E-07
  -12.8100004       2.21377195E-06
  -12.8000002       3.57662339E-06
  -12.7900000       4.39522591E-06
  -12.7799997       4.41447310E-06
  -12.7700005       3.52673919E-06
  -12.7600002       1.80953111E-06
  -12.7500000      -4.75192877E-07
  -12.7399998      -2.92268396E-06
  -12.7299995      -5.06153629E-06
  -12.7200003      -6.44954753E-06
  -12.7100000      -6.76917443E-06
  -12.6999998      -5.90134550E-06
  -12.6899996      -3.96009409E-06
  -12.6800003      -1.27835199E-06
  -12.6700001       1.65421659E-06
  -12.6599998       4.28956719E-06
  -12.6499996       6.13534985E-06
  -12.6400003       6.85978239E-06
  -12.6300001       6.36351660E-06
  -12.6199999       4.80134258E-06
  -12.6099997       2.54752626E-06
  -12.6000004       1.11395920E-07
  -12.5900002      -1.97837016E-06
  -12.5799999      -3.29440809E-06
  -12.5699997      -3.60794161E-06
  -12.5600004      -2.93907601E-06
  -12.5500002      -1.54717156E-06
  -12.5400000       1.37433702E-07
  -12.5299997       1.62454728E-06
  -12.5200005       2.49102209E-06
  -12.5100002       2.49132540E-06
  -12.5000000       1.62244100E-06
  -12.4899998       1.24116667E-07
  -12.4799995      -1.58875412E-06
  -12.4700003      -3.04726814E-06
  -12.4600000      -3.87377531E-06
  -12.4499998      -3.91335743E-06
  -12.4399996      -3.31421393E-06
  -12.4300003      -2.52988252E-06
  -12.4200001      -2.23423444E-06
  -12.4099998      -3.16200362E-06
  -12.3999996      -5.90803120E-06
  -12.3900003      -1.07322503E-05
  -12.3800001      -1.74206671E-05
  -12.3699999      -2.52436166E-05
  -12.3599997      -3.30326948E-05
  -12.3500004      -3.93709488E-05
  -12.3400002      -4.28633430E-05
  -12.3299999      -4.24325917E-05
  -12.3199997      -3.75752206E-05
  -12.3100004      -2.85169390E-05
  -12.3000002      -1.62255001E-05
  -12.2900000      -2.26910606E-06
  -12.2799997       1.14571476E-05
  -12.2700005       2.30832393E-05
  -12.2600002       3.11209078E-05
  -12.2500000       3.47474161E-05
  -12.2399998       3.39525213E-05
  -12.2299995       2.95138761E-05
  -12.2200003       2.28041008E-05
  -12.2100000       1.54713180E-05
  -12.1999998       9.06472451E-06
  -12.1899996       4.69068391E-06
  -12.1800003       2.77911954E-06
  -12.1700001       3.01535965E-06
  -12.1599998       4.45448359E-06
  -12.1499996       5.79222251E-06
  -12.1400003       5.72860608E-06
  -12.1300001       3.33698631E-06
  -12.1199999      -1.65232063E-06
  -12.1099997      -8.72645614E-06
  -12.1000004      -1.66592981E-05
  -12.0900002      -2.37667737E-05
  -12.0799999      -2.82944584E-05
  -12.0699997      -2.88501451E-05
  -12.0600004      -2.47798853E-05
  -12.0500002      -1.63951463E-05
  -12.0400000      -4.98965846E-06
  -12.0299997       7.36929587E-06
  -12.0200005       1.82391504E-05
  -12.0100002       2.53092367E-05
  -12.0000000       2.69083339E-05
  -11.9899998       2.23998268E-05
  -11.9799995       1.23724185E-05
  -11.9700003      -1.42363240E-06
  -11.9600000      -1.63907935E-05
  -11.9499998      -2.95904374E-05
  -11.9399996      -3.83390616E-05
  -11.9300003      -4.07706575E-05
  -11.9200001      -3.62454375E-05
  -11.9099998      -2.55150644E-05
  -11.8999996      -1.06041743E-05
  -11.8900003       5.57307976E-06
  -11.8800001       1.97869012E-05
  -11.8699999       2.91408287E-05
  -11.8599997       3.16634869E-05
  -11.8500004       2.67212872E-05
  -11.8400002       1.51661134E-05
  -11.8299999      -8.14060456E-07
  -11.8199997      -1.81131345E-05
  -11.8100004      -3.33102107E-05
  -11.8000002      -4.33375644E-05
  -11.7900000      -4.60798110E-05
  -11.7799997      -4.07855005E-05
  -11.7700005      -2.82108849E-05
  -11.7600002      -1.04700230E-05
  -11.7500000       9.37570439E-06
  -11.7399998       2.79043888E-05
  -11.7299995       4.19788958E-05
  -11.7200003       4.93237712E-05
  -11.7100000       4.89233171E-05
  -11.6999998       4.11682886E-05
  -11.6899996       2.77303661E-05
  -11.6800003       1.11974541E-05
  -11.6700001      -5.45115608E-06
  -11.6599998      -1.94218774E-05
  -11.6499996      -2.86220002E-05
  -11.6400003      -3.20151230E-05
  -11.6300001      -2.97541246E-05
  -11.6199999      -2.30752212E-05
  -11.6099997      -1.39843778E-05
  -11.6000004      -4.80700692E-06
  -11.5900002       2.30390719E-06
  -11.5799999       5.80177903E-06
  -11.5699997       5.03834553E-06
  -11.5600004       3.60825226E-07
  -11.5500002      -6.99780594E-06
  -11.5400000      -1.52060729E-05
  -11.5299997      -2.22353210E-05
  -11.5200005      -2.62912235E-05
  -11.5100002      -2.61884106E-05
  -11.5000000      -2.15951022E-05
  -11.4899998      -1.31024181E-05
  -11.4799995      -2.10871008E-06
  -11.4700003       9.45436932E-06
  -11.4600000       1.94973545E-05
  -11.4499998       2.61751138E-05
  -11.4399996       2.82376077E-05
  -11.4300003       2.52629197E-05
  -11.4200001       1.77302500E-05
  -11.4099998       6.92181538E-06
  -11.3999996      -5.32492686E-06
  -11.3900003      -1.69656887E-05
  -11.3800001      -2.61315254E-05
  -11.3699999      -3.14727367E-05
  -11.3599997      -3.24005996E-05
  -11.3500004      -2.91826400E-05
  -11.3400002      -2.28743884E-05
  -11.3299999      -1.51007789E-05
  -11.3199997      -7.72779094E-06
  -11.3100004      -2.48536094E-06
  -11.3000002      -6.12139957E-07
  -11.2900000      -2.58985597E-06
  -11.2799997      -8.02011164E-06
  -11.2700005      -1.56718052E-05
  -11.2600002      -2.36968608E-05
  -11.2500000      -2.99807234E-05
  -11.2399998      -3.25674919E-05
  -11.2299995      -3.00823140E-05
  -11.2200003      -2.20696111E-05
  -11.2100000      -9.17624220E-06
  -11.1999998       6.86710109E-06
  -11.1899996       2.34781837E-05
  -11.1800003       3.76416356E-05
  -11.1700001       4.64482655E-05
  -11.1599998       4.76618407E-05
  -11.1499996       4.02068908E-05
  -11.1400003       2.44775074E-05
  -11.1300001       2.39326255E-06
  -11.1199999      -2.28289573E-05
  -11.1099997      -4.71660314E-05
  -11.1000004      -6.64688196E-05
  -11.0900002      -7.72152634E-05
  -11.0799999      -7.71974301E-05
  -11.0699997      -6.60061633E-05
  -11.0600004      -4.52076711E-05
  -11.0500002      -1.81592914E-05
  -11.0400000       1.05204626E-05
  -11.0299997       3.57440549E-05
  -11.0200005       5.28699456E-05
  -11.0100002       5.85705129E-05
  -11.0000000       5.14849526E-05
  -10.9899998       3.25253604E-05
  -10.9799995       4.76789273E-06
  -10.9700003      -2.70597557E-05
  -10.9600000      -5.74046535E-05
  -10.9499998      -8.08766272E-05
  -10.9399996      -9.32138137E-05
  -10.9300003      -9.20460297E-05
  -10.9200001      -7.73157444E-05
  -10.9099998      -5.12833285E-05
  -10.8999996      -1.81223586E-05
  -10.8900003       1.68134939E-05
  -10.8800001       4.79131086E-05
  -10.8699999       7.02528123E-05
  -10.8599997       8.04001538E-05
  -10.8500004       7.69458929E-05
  -10.8400002       6.06873436E-05
  -10.8299999       3.44485379E-05
  -10.8199997       2.58204318E-06
  -10.8100004      -2.97554434E-05
  -10.8000002      -5.74329679E-05
  -10.7900000      -7.61511619E-05
  -10.7799997      -8.31043435E-05
  -10.7700005      -7.74043438E-05
  -10.7600002      -6.02072505E-05
  -10.7500000      -3.45263761E-05
  -10.7399998      -4.75908109E-06
  -10.7299995       2.40035752E-05
  -10.7200003       4.67814461E-05
  -10.7100000       5.95002530E-05
  -10.6999998       5.96497812E-05
  -10.6899996       4.66954480E-05
  -10.6800003       2.21710470E-05
  -10.6700001      -1.05666668E-05
  -10.6599998      -4.68812759E-05
  -10.6499996      -8.16033353E-05
  -10.6400003      -1.09848406E-04
  -10.6300001      -1.27763051E-04
  -10.6199999      -1.33072681E-04
  -10.6099997      -1.25348015E-04
  -10.6000004      -1.05964951E-04
  -10.5900002      -7.77918103E-05
  -10.5799999      -4.46849190E-05
  -10.5699997      -1.08982504E-05
  -10.5600004       1.94891127E-05
  -10.5500002       4.30467117E-05
  -10.5400000       5.73228572E-05
  -10.5299997       6.10223869E-05
  -10.5200005       5.40495930E-05
  -10.5100002       3.74449628E-05
  -10.5000000       1.32410169E-05
  -10.4899998      -1.57484792E-05
  -10.4799995      -4.62018688E-05
  -10.4700003      -7.46226433E-05
  -10.4600000      -9.77188683E-05
  -10.4499998      -1.12796231E-04
  -10.4399996      -1.18111551E-04
  -10.4300003      -1.13122485E-04
  -10.4200001      -9.85753722E-05
  -10.4099998      -7.63986682E-05
  -10.3999996      -4.94092928E-05
  -10.3900003      -2.08828460E-05
  -10.3800001       5.92874267E-06
  -10.3699999       2.82374476E-05
  -10.3599997       4.40380063E-05
  -10.3500004       5.22636656E-05
  -10.3400002       5.27843149E-05
  -10.3299999       4.62931457E-05
  -10.3199997       3.41476662E-05
  -10.3100004       1.82226177E-05
  -10.3000002       7.99679412E-07
  -10.2900000      -1.55250145E-05
  -10.2799997      -2.79700835E-05
  -10.2700005      -3.37996171E-05
  -10.2600002      -3.06954753E-05
  -10.2500000      -1.72553246E-05
  -10.2399998       6.46975286E-06
  -10.2299995       3.85437670E-05
  -10.2200003       7.49896135E-05
  -10.2100000       1.10047527E-04
  -10.1999998       1.36903909E-04
  -10.1899996       1.48826293E-04
  -10.1800003       1.40514589E-04
  -10.1700001       1.09386201E-04
  -10.1599998       5.64838083E-05
  -10.1499996      -1.32538635E-05
  -10.1400003      -9.14932971E-05
  -10.1300001      -1.67743434E-04
  -10.1199999      -2.31118567E-04
  -10.1099997      -2.72284116E-04
  -10.1000004      -2.85186805E-04
  -10.0900002      -2.68207979E-04
  -10.0799999      -2.24499570E-04
  -10.0699997      -1.61436386E-04
  -10.0600004      -8.93040487E-05
  -10.0500002      -1.94930944E-05
  -10.0400000       3.74430238E-05
  -10.0299997       7.35033100E-05
  -10.0200005       8.44337774E-05
  -10.0100002       7.02272519E-05
  -10.0000000       3.48951762E-05
  -9.98999977      -1.43924672E-05
  -9.97999954      -6.86072817E-05
  -9.97000027      -1.18361262E-04
  -9.96000004      -1.55358677E-04
  -9.94999981      -1.73587949E-04
  -9.93999958      -1.70098327E-04
  -9.93000031      -1.45276732E-04
  -9.92000008      -1.02615748E-04
  -9.90999985      -4.80352755E-05
  -9.89999962       1.11173285E-05
  -9.89000034       6.72188617E-05
  -9.88000011       1.13483722E-04
  -9.86999989       1.44861056E-04
  -9.85999966       1.58581912E-04
  -9.85000038       1.54294859E-04
  -9.84000015       1.33813854E-04
  -9.82999992       1.00579840E-04
  -9.81999969       5.89874289E-05
  -9.81000042       1.37353736E-05
  -9.80000019      -3.06779511E-05
  -9.78999996      -7.02628458E-05
  -9.77999973      -1.01678008E-04
  -9.77000046      -1.22288431E-04
  -9.76000023      -1.30245331E-04
  -9.75000000      -1.24658618E-04
  -9.73999977      -1.05860672E-04
  -9.72999954      -7.56759255E-05
  -9.72000027      -3.75507807E-05
  -9.71000004       3.60809304E-06
  -9.69999981       4.19789758E-05
  -9.68999958       7.17310249E-05
  -9.68000031       8.81334199E-05
  -9.67000008       8.86031848E-05
  -9.65999985       7.33914640E-05
  -9.64999962       4.56679554E-05
  -9.64000034       1.09113689E-05
  -9.63000011      -2.42888800E-05
  -9.61999989      -5.37298947E-05
  -9.60999966      -7.29912645E-05
  -9.60000038      -8.03377334E-05
  -9.59000015      -7.68698301E-05
  -9.57999992      -6.58863864E-05
  -9.56999969      -5.16675318E-05
  -9.56000042      -3.80726306E-05
  -9.55000019      -2.74104586E-05
  -9.53999996      -1.99511978E-05
  -9.52999973      -1.42348099E-05
  -9.52000046      -8.05632135E-06
  -9.51000023       2.34193990E-07
  -9.50000000       1.06046473E-05
  -9.48999977       2.08343663E-05
  -9.47999954       2.68755830E-05
  -9.47000027       2.40325462E-05
  -9.46000004       8.61019453E-06
  -9.44999981      -2.05100569E-05
  -9.43999958      -6.09285526E-05
  -9.43000031      -1.06808817E-04
  -9.42000008      -1.50056716E-04
  -9.40999985      -1.82314951E-04
  -9.39999962      -1.97208952E-04
  -9.39000034      -1.92170424E-04
  -9.38000011      -1.69268620E-04
  -9.36999989      -1.34770191E-04
  -9.35999966      -9.75337025E-05
  -9.35000038      -6.67021886E-05
  -9.34000015      -4.93692714E-05
  -9.32999992      -4.88929654E-05
  -9.31999969      -6.43173407E-05
  -9.31000042      -9.10074159E-05
  -9.30000019      -1.22225596E-04
  -9.28999996      -1.51102737E-04
  -9.27999973      -1.72370914E-04
  -9.27000046      -1.83351454E-04
  -9.26000023      -1.83980228E-04
  -9.25000000      -1.75997106E-04
  -9.23999977      -1.61706659E-04
  -9.22999954      -1.42837074E-04
  -9.22000027      -1.19945566E-04
  -9.21000004      -9.25774802E-05
  -9.19999981      -6.00739295E-05
  -9.18999958      -2.26580160E-05
  -9.18000031       1.76904668E-05
  -9.17000008       5.69922486E-05
  -9.15999985       8.98441067E-05
  -9.14999962       1.10687288E-04
  -9.14000034       1.15368282E-04
  -9.13000011       1.02457598E-04
  -9.11999989       7.38492163E-05
  -9.10999966       3.43968131E-05
  -9.10000038      -9.33093543E-06
  -9.09000015      -5.07890618E-05
  -9.07999992      -8.51290315E-05
  -9.06999969      -1.10265893E-04
  -9.06000042      -1.27008025E-04
  -9.05000019      -1.38240037E-04
  -9.03999996      -1.47472470E-04
  -9.02999973      -1.57283052E-04
  -9.02000046      -1.68199171E-04
  -9.01000023      -1.78406204E-04
  -9.00000000      -1.84370365E-04
  -8.98999977      -1.82143893E-04
  -8.97999954      -1.68890198E-04
  -8.97000027      -1.44100806E-04
  -8.96000004      -1.10095752E-04
  -8.94999981      -7.16545255E-05
  -8.93999958      -3.49198272E-05
  -8.93000031      -5.94794619E-06
  -8.92000008       1.06328143E-05
  -8.90999985       1.24712697E-05
  -8.89999962      -3.31099642E-07
  -8.89000034      -2.56517906E-05
  -8.88000011      -6.01241554E-05
  -8.86999989      -9.99228942E-05
  -8.85999966      -1.41287092E-04
  -8.85000038      -1.80679475E-04
  -8.84000015      -2.14677566E-04
  -8.82999992      -2.39830697E-04
  -8.81999969      -2.52738711E-04
  -8.81000042      -2.50502111E-04
  -8.80000019      -2.31503291E-04
  -8.78999996      -1.96283916E-04
  -8.77999973      -1.48168838E-04
  -8.77000046      -9.33070260E-05
  -8.76000023      -3.99569799E-05
  -8.75000000       2.91270726E-06
  -8.73999977       2.73954611E-05
  -8.72999954       2.83296486E-05
  -8.72000027       4.43097042E-06
  -8.71000004      -4.14326532E-05
  -8.69999981      -1.02874001E-04
  -8.68999958      -1.71310865E-04
  -8.68000031      -2.37580738E-04
  -8.67000008      -2.93404126E-04
  -8.65999985      -3.32366442E-04
  -8.64999962      -3.50301532E-04
  -8.64000034      -3.45189386E-04
  -8.63000011      -3.16833670E-04
  -8.61999989      -2.66608200E-04
  -8.60999966      -1.97446716E-04
  -8.60000038      -1.14056333E-04
  -8.59000015      -2.31434533E-05
  -8.57999992       6.66561755E-05
  -8.56999969       1.45404978E-04
  -8.56000042       2.03126605E-04
  -8.55000019       2.31524202E-04
  -8.53999996       2.25741009E-04
  -8.52999973       1.85642130E-04
  -8.52000046       1.16164250E-04
  -8.51000023       2.65192830E-05
  -8.50000000      -7.16236755E-05
  -8.48999977      -1.66531594E-04
  -8.47999954      -2.48734315E-04
  -8.47000027      -3.12647637E-04
  -8.46000004      -3.57065001E-04
  -8.44999981      -3.84437473E-04
  -8.43999958      -3.99233832E-04
  -8.43000031      -4.05944709E-04
  -8.42000008      -4.07379266E-04
  -8.40999985      -4.03778307E-04
  -8.39999962      -3.92976450E-04
  -8.39000034      -3.71496368E-04
  -8.38000011      -3.36163066E-04
  -8.36999989      -2.85683316E-04
  -8.35999966      -2.21679264E-04
  -8.35000038      -1.48871244E-04
  -8.34000015      -7.43903947E-05
  -8.32999992      -6.46474018E-06
  -8.31999969       4.71186322E-05
  -8.31000042       8.03620351E-05
  -8.30000019       8.99231527E-05
  -8.28999996       7.53962595E-05
  -8.27999973       3.90904752E-05
  -8.27000046      -1.45024987E-05
  -8.26000023      -7.93474755E-05
  -8.25000000      -1.48483450E-04
  -8.23999977      -2.14600717E-04
  -8.22999954      -2.70642195E-04
  -8.22000027      -3.10508651E-04
  -8.21000004      -3.29882838E-04
  -8.19999981      -3.27071873E-04
  -8.18999958      -3.03660316E-04
  -8.18000031      -2.64716364E-04
  -8.17000008      -2.18345085E-04
  -8.15999985      -1.74525077E-04
  -8.14999962      -1.43363446E-04
  -8.14000034      -1.33091395E-04
  -8.13000011      -1.48235195E-04
  -8.11999989      -1.88396036E-04
  -8.10999966      -2.47951160E-04
  -8.10000038      -3.16785532E-04
  -8.09000015      -3.81933904E-04
  -8.07999992      -4.29821666E-04
  -8.06999969      -4.48683480E-04
  -8.06000042      -4.30726388E-04
  -8.05000019      -3.73676216E-04
  -8.03999996      -2.81469343E-04
  -8.02999973      -1.63992881E-04
  -8.02000046      -3.59060505E-05
  -8.01000023       8.53100501E-05
  -8.00000000       1.81832715E-04
  -7.98999977       2.38183216E-04
  -7.98000002       2.43728777E-04
  -7.96999979       1.94585387E-04
  -7.96000004       9.45429783E-05
  -7.94999981      -4.52446620E-05
  -7.94000006      -2.07856050E-04
  -7.92999983      -3.73274874E-04
  -7.92000008      -5.21674054E-04
  -7.90999985      -6.36667479E-04
  -7.90000010      -7.07852421E-04
  -7.88999987      -7.32100860E-04
  -7.88000011      -7.13345944E-04
  -7.86999989      -6.60973892E-04
  -7.86000013      -5.87272341E-04
  -7.84999990      -5.04605239E-04
  -7.84000015      -4.23012942E-04
  -7.82999992      -3.48771573E-04
  -7.82000017      -2.84137408E-04
  -7.80999994      -2.28158533E-04
  -7.80000019      -1.78154412E-04
  -7.78999996      -1.31335022E-04
  -7.78000021      -8.60794753E-05
  -7.76999998      -4.25843027E-05
  -7.76000023      -2.84330781E-06
  -7.75000000       2.98617615E-05
  -7.73999977       5.16700420E-05
  -7.73000002       5.87860086E-05
  -7.71999979       4.79244045E-05
  -7.71000004       1.65814017E-05
  -7.69999981      -3.67255743E-05
  -7.69000006      -1.12095986E-04
  -7.67999983      -2.07705947E-04
  -7.67000008      -3.19198414E-04
  -7.65999985      -4.39265044E-04
  -7.65000010      -5.57739520E-04
  -7.63999987      -6.62444450E-04
  -7.63000011      -7.40824267E-04
  -7.61999989      -7.82126037E-04
  -7.61000013      -7.79649708E-04
  -7.59999990      -7.32477114E-04
  -7.59000015      -6.46165048E-04
  -7.57999992      -5.32129547E-04
  -7.57000017      -4.05795843E-04
  -7.55999994      -2.83926522E-04
  -7.55000019      -1.81759053E-04
  -7.53999996      -1.10609159E-04
  -7.53000021      -7.64357537E-05
  -7.51999998      -7.95664528E-05
  -7.51000023      -1.15458723E-04
  -7.50000000      -1.76128611E-04
  -7.48999977      -2.51786900E-04
  -7.48000002      -3.32293101E-04
  -7.46999979      -4.08222462E-04
  -7.46000004      -4.71549894E-04
  -7.44999981      -5.16102242E-04
  -7.44000006      -5.37955726E-04