  -16.0000000       0.00000000    
  -15.9899998       0.00000000    
  -15.9799995       0.00000000    
  -15.9700003       0.00000000    
  -15.9600000       0.00000000    
  -15.9499998       0.00000000    
  -15.9399996       0.00000000    
  -15.9300003       0.00000000    
  -15.9200001       0.00000000    
  -15.9099998       0.00000000    
  -15.8999996       0.00000000    
  -15.8900003       1.35366833E-40
  -15.8800001       7.48733107E-39
  -15.8699999       1.48257635E-37
  -15.8599997       1.75919449E-36
  -15.8500004       1.49590754E-35
  -15.8400002       9.95669429E-35
  -15.8299999       5.45986912E-34
  -15.8199997       2.54840104E-33
  -15.8100004       1.03497715E-32
  -15.8000002       3.71406785E-32
  -15.7900000       1.19054667E-31
  -15.7799997       3.43469975E-31
  -15.7700005       8.96062605E-31
  -15.7600002       2.11835348E-30
  -15.7500000       4.53359169E-30
  -15.7399998       8.73746192E-30
  -15.7299995       1.49750322E-29
  -15.7200003       2.21925720E-29
  -15.7100000       2.64739564E-29
  -15.6999998       1.91903150E-29
  -15.6899996      -1.40058982E-29
  -15.6800003      -9.11566657E-29
  -15.6700001      -2.25975042E-28
  -15.6599998      -4.11321532E-28
  -15.6499996      -5.94639826E-28
  -15.6400003      -6.52216994E-28
  -15.6300001      -3.78779961E-28
  -15.6199999       4.80611725E-28
  -15.6099997       2.12387568E-27
  -15.6000004       4.48705893E-27
  -15.5900002       6.95514316E-27
  -15.5799999       8.08042628E-27
  -15.5699997       5.52015973E-27
  -15.5600004      -3.46727286E-27
  -15.5500002      -2.05893236E-26
  -15.5400000      -4.39913615E-26
  -15.5299997      -6.51510546E-26
  -15.5200005      -6.69055182E-26
  -15.5100002      -2.56955709E-26
  -15.5000000       7.83350342E-26
  -15.4899998       2.41649690E-25
  -15.4799995       4.12234205E-25
  -15.4700003       4.73197031E-25
  -15.4600000       2.59164522E-25
  -15.4499998      -3.68993633E-25
  -15.4399996      -1.38453175E-24
  -15.4300003      -2.43082834E-24
  -15.4200001      -2.74086428E-24
  -15.4099998      -1.30054064E-24
  -15.3999996       2.60800137E-24
  -15.3900003       8.51306503E-24
  -15.3800001       1.38637697E-23
  -15.3699999       1.38776758E-23
  -15.3599997       3.03749965E-24
  -15.3500004      -2.12373504E-23
  -15.3400002      -5.34439821E-23
  -15.3299999      -7.60065273E-23
  -15.3199997      -6.08714799E-23
  -15.3100004       1.88216311E-23
  -15.3000002       1.65978240E-22
  -15.2900000       3.32478618E-22
  -15.2799997       4.04848465E-22
  -15.2700005       2.26842267E-22
  -15.2600002      -3.21521908E-22
  -15.2500000      -1.19318148E-21
  -15.2399998      -2.04044838E-21
  -15.2299995      -2.17748349E-21
  -15.2200003      -7.61286821E-22
  -15.2100000       2.73114884E-21
  -15.1999998       7.79580165E-21
  -15.1899996       1.22607562E-20
  -15.1800003       1.22365749E-20
  -15.1700001       3.24801757E-21
  -15.1599998      -1.71534592E-20
  -15.1499996      -4.57555150E-20
  -15.1400003      -7.06019720E-20
  -15.1300001      -7.10538647E-20
  -15.1199999      -2.37478982E-20
  -15.1099997       8.43245042E-20
  -15.1000004       2.38021531E-19
  -15.0900002       3.79039592E-19
  -15.0799999       4.05675015E-19
  -15.0699997       1.99882521E-19
  -15.0600004      -3.12753965E-19
  -15.0500002      -1.08042919E-18
  -15.0400000      -1.85230306E-18
  -15.0299997      -2.16744833E-18
  -15.0200005      -1.46084563E-18
  -15.0100002       6.85472166E-19
  -15.0000000       4.18226695E-18
  -14.9899998       8.09085623E-18
  -14.9799995       1.05095687E-17
  -14.9700003       8.92326214E-18
  -14.9600000       1.15743599E-18
  -14.9499998      -1.31600308E-17
  -14.9399996      -3.10779896E-17
  -14.9300003      -4.55370372E-17
  -14.9200001      -4.62628782E-17
  -14.9099998      -2.30146743E-17
  -14.8999996       2.89444724E-17
  -14.8900003       1.02562045E-16
  -14.8800001       1.74664996E-16
  -14.8699999       2.07138321E-16
  -14.8599997       1.56600457E-16
  -14.8500004      -6.91495861E-18
  -14.8400002      -2.76054734E-16
  -14.8299999      -5.85829427E-16
  -14.8199997      -8.09343528E-16
  -14.8100004      -7.81631257E-16
  -14.8000002      -3.56998712E-16
  -14.7900000       5.08024739E-16
  -14.7799997       1.67126059E-15
  -14.7700005       2.76112624E-15
  -14.7600002       3.21689561E-15
  -14.7500000       2.44257451E-15
  -14.7399998       6.67608076E-17
  -14.7299995      -3.75355408E-15
  -14.7200003      -8.10255963E-15
  -14.7100000      -1.12965574E-14
  -14.6999998      -1.12226834E-14
  -14.6899996      -6.06043646E-15
  -14.6800003       4.73505944E-15
  -14.6700001       1.94920865E-14
  -14.6599998       3.38684227E-14
  -14.6499996       4.13425940E-14
  -14.6400003       3.49241476E-14
  -14.6300001       9.95821738E-15
  -14.6199999      -3.26431624E-14
  -14.6099997      -8.39296894E-14
  -14.6000004      -1.26645791E-13
  -14.5900002      -1.38371438E-13
  -14.5799999      -9.84017555E-14
  -14.5699997       2.73017227E-15
  -14.5600004       1.53816521E-13
  -14.5500002       3.17596833E-13
  -14.5400000       4.33569738E-13
  -14.5299997       4.31639750E-13
  -14.5200005       2.56002305E-13
  -14.5100002      -1.05770420E-13
  -14.5000000      -5.97826151E-13
  -14.4899998      -1.08714242E-12
  -14.4799995      -1.38123042E-12
  -14.4700003      -1.27701419E-12
  -14.4600000      -6.35125416E-13
  -14.4499998       5.38527014E-13
  -14.4399996       2.03243217E-12
  -14.4300003       3.42244614E-12
  -14.4200001       4.14267579E-12
  -14.4099998       3.63907949E-12
  -14.3999996       1.58114667E-12
  -14.3900003      -1.92453302E-12
  -14.3800001      -6.19751819E-12
  -14.3699999      -1.00039707E-11
  -14.3599997      -1.17871268E-11
  -14.3500004      -1.01033860E-11
  -14.3400002      -4.18306015E-12
  -14.3299999       5.53988062E-12
  -14.3199997       1.71297768E-11
  -14.3100004       2.72724517E-11
  -14.3000002       3.19263470E-11
  -14.2900000       2.74592987E-11
  -14.2799997       1.20440775E-11
  -14.2700005      -1.30810692E-11
  -14.2600002      -4.29655513E-11
  -14.2500000      -6.93391386E-11
  -14.2399998      -8.22540161E-11
  -14.2299995      -7.28301516E-11
  -14.2200003      -3.65400418E-11
  -14.2100000       2.38872255E-11
  -14.1999998       9.70199893E-11
  -14.1899996       1.63659100E-10
  -14.1800003       2.00573197E-10
  -14.1700001       1.86665128E-10
  -14.1599998       1.10306750E-10
  -14.1499996      -2.41578667E-11
  -14.1400003      -1.93039931E-10
  -14.1300001      -3.55010632E-10
  -14.1199999      -4.58763666E-10
  -14.1099997      -4.55890659E-10
  -14.1000004      -3.16407012E-10
  -14.0900002      -4.28776875E-11
  -14.0799999       3.21521060E-10
  -14.0699997       6.95004165E-10
  -14.0600004       9.71198233E-10
  -14.0500002       1.04400344E-09
  -14.0400000       8.38601910E-10
  -14.0299997       3.40983575E-10
  -14.0200005      -3.82988696E-10
  -14.0100002      -1.18695065E-09
  -14.0000000      -1.86627225E-09
  -13.9899998      -2.20196839E-09
  -13.9799995      -2.01863015E-09
  -13.9700003      -1.24308652E-09
  -13.9600000       5.24954108E-11
  -13.9499998       1.63836866E-09
  -13.9399996       3.15561466E-09
  -13.9300003       4.18568291E-09
  -13.9200001       4.35030501E-09
  -13.9099998       3.42064399E-09
  -13.8999996       1.40802847E-09
  -13.8900003      -1.39152567E-09
  -13.8800001      -4.41945547E-09
  -13.8699999      -6.94974389E-09
  -13.8599997      -8.24500024E-09
  -13.8500004      -7.74340059E-09
  -13.8400002      -5.23320054E-09
  -13.8299999      -9.67620650E-10
  -13.8199997       4.31920766E-09
  -13.8100004       9.51523838E-09
  -13.8000002       1.33449500E-08
  -13.7900000       1.46581041E-08
  -13.7799997       1.27312987E-08
  -13.7700005       7.50870743E-09
  -13.7600002      -2.86586227E-10
  -13.7500000      -9.21609189E-09
  -13.7399998      -1.73719048E-08
  -13.7299995      -2.27683365E-08
  -13.7200003      -2.38015208E-08
  -13.7100000      -1.96731538E-08
  -13.6999998      -1.06713767E-08
  -13.6899996       1.77483706E-09
  -13.6800003       1.53047122E-08
  -13.6700001       2.70740390E-08
  -13.6599998       3.43579387E-08
  -13.6499996       3.51776421E-08
  -13.6400003       2.88039228E-08
  -13.6300001       1.60084941E-08
  -13.6199999      -1.01307829E-09
  -13.6099997      -1.90480094E-08
  -13.6000004      -3.45228699E-08
  -13.5900002      -4.42651107E-08
  -13.5799999      -4.61924472E-08
  -13.5699997      -3.97649345E-08
  -13.5600004      -2.60894844E-08
  -13.5500002      -7.65252128E-09
  -13.5400000       1.22490507E-08
  -13.5299997       3.02302041E-08
  -13.5200005       4.35066951E-08
  -13.5100002       5.03766913E-08
  -13.5000000       5.03846032E-08
  -13.4899998       4.41528982E-08
  -13.4799995       3.29696199E-08
  -13.4700003       1.82949051E-08
  -13.4600000       1.37393863E-09
  -13.4499998      -1.68954593E-08
  -13.4399996      -3.57866945E-08
  -13.4300003      -5.43287406E-08
  -13.4200001      -7.08321863E-08
  -13.4099998      -8.25997049E-08
  -13.3999996      -8.60450342E-08
  -13.3900003      -7.73394859E-08
  -13.3800001      -5.35343361E-08
  -13.3699999      -1.39162406E-08
  -13.3599997       3.87982908E-08
  -13.3500004       9.78786545E-08
  -13.3400002       1.52977535E-07
  -13.3299999       1.91669983E-07
  -13.3199997       2.01988556E-07
  -13.3100004       1.75484089E-07
  -13.3000002       1.10090546E-07
  -13.2900000       1.19803216E-08
  -13.2799997      -1.04281185E-07
  -13.2700005      -2.17637762E-07
  -13.2600002      -3.04368058E-07
  -13.2500000      -3.43171052E-07
  -13.2399998      -3.20415324E-07
  -13.2299995      -2.34254045E-07
  -13.2200003      -9.64223048E-08
  -13.2100000       6.90243027E-08
  -13.1999998       2.30076296E-07
  -13.1899996       3.53496489E-07
  -13.1800003       4.12468609E-07
  -13.1700001       3.93335426E-07
  -13.1599998       2.99635502E-07
  -13.1499996       1.52160851E-07
  -13.1400003      -1.53340878E-08
  -13.1300001      -1.64041751E-07
  -13.1199999      -2.59873275E-07
  -13.1099997      -2.82670129E-07
  -13.1000004      -2.32338905E-07
  -13.0900002      -1.29961066E-07
  -13.0799999      -1.30822393E-08
  -13.0699997       7.41207629E-08
  -13.0600004       9.36233917E-08
  -13.0500002       2.60576805E-08
  -13.0400000      -1.20601612E-07
  -13.0299997      -3.09100841E-07
  -13.0200005      -4.79180756E-07
  -13.0100002      -5.61473087E-07
  -13.0000000      -4.96288408E-07
  -12.9899998      -2.52877527E-07
  -12.9799995       1.55981994E-07
  -12.9700003       6.68681650E-07
  -12.9600000       1.18155469E-06
  -12.9499998       1.56774627E-06
  -12.9399996       1.70508019E-06
  -12.9300003       1.50711958E-06
  -12.9200001       9.50064020E-07
  -12.9099998       8.82712001E-08
  -12.8999996      -9.46845489E-07
  -12.8900003      -1.96628935E-06
  -12.8800001      -2.75876278E-06
  -12.8699999      -3.13508531E-06
  -12.8599997      -2.97220095E-06
  -12.8500004      -2.24643009E-06
  -12.8400002      -1.04727064E-06
  -12.8299999       4.33031914E-07
  -12.8199997       1.93352889E-06
  -12.8100004       3.17597301E-06
  -12.8000002       3.92277934E-06
  -12.7900000       4.02852447E-06
  -12.7799997       3.47276227E-06
  -12.7700005       2.36576102E-06
  -12.7600002       9.24862434E-07
  -12.7500000      -5.73848354E-07
  -12.7399998      -1.85768158E-06
  -12.7299995      -2.71860176E-06
  -12.7200003      -3.05859589E-06
  -12.7100000      -2.90755861E-06
  -12.6999998      -2.40863528E-06
  -12.6899996      -1.77407458E-06
  -12.6800003      -1.22240203E-06
  -12.6700001      -9.13078622E-07
  -12.6599998      -8.96269512E-07
  -12.6499996      -1.09228779E-06
  -12.6400003      -1.30822912E-06
  -12.6300001      -1.28983584E-06
  -12.6199999      -7.97032385E-07
  -12.6099997       3.15658099E-07
  -12.6000004       2.03544369E-06
  -12.5900002       4.16336115E-06
  -12.5799999       6.33340596E-06
  -12.5699997       8.07866854E-06
  -12.5600004       8.93226570E-06
  -12.5500002       8.54083646E-06
  -12.5400000       6.76320224E-06
  -12.5299997       3.72812246E-06
  -12.5200005      -1.66930604E-07
  -12.5100002      -4.32101706E-06
  -12.5000000      -8.04876618E-06
  -12.4899998      -1.07291780E-05
  -12.4799995      -1.19513115E-05
  -12.4700003      -1.16224664E-05
  -12.4600000      -1.00111938E-05
  -12.4499998      -7.71108898E-06
  -12.4399996      -5.52904248E-06
  -12.4300003      -4.31922763E-06
  -12.4200001      -4.79751907E-06
  -12.4099998      -7.37680102E-06
  -12.3999996      -1.20601908E-05
  -12.3900003      -1.84170749E-05
  -12.3800001      -2.56487328E-05
  -12.3699999      -3.27303351E-05
  -12.3599997      -3.85989151E-05
  -12.3500004      -4.23466990E-05
  -12.3400002      -4.33782625E-05
  -12.3299999      -4.14987335E-05
  -12.3199997      -3.69166009E-05
  -12.3100004      -3.01645177E-05
  -12.3000002      -2.19604626E-05
  -12.2900000      -1.30447834E-05
  -12.2799997      -4.03313788E-06
  -12.2700005       4.67984864E-06
  -12.2600002       1.29449654E-05
  -12.2500000       2.08081510E-05
  -12.2399998       2.84018824E-05
  -12.2299995       3.58092693E-05
  -12.2200003       4.29389329E-05
  -12.2100000       4.94464257E-05
  -12.1999998       5.47267409E-05
  -12.1899996       5.79853804E-05
  -12.1800003       5.83762667E-05
  -12.1700001       5.51783669E-05
  -12.1599998       4.79729497E-05
  -12.1499996       3.67818830E-05
  -12.1400003       2.21351420E-05
  -12.1300001       5.05025127E-06
  -12.1199999      -1.30754515E-05
  -12.1099997      -3.06409820E-05
  -12.1000004      -4.60543306E-05
  -12.0900002      -5.79431326E-05
  -12.0799999      -6.53269599E-05
  -12.0699997      -6.77237113E-05
  -12.0600004      -6.51767841E-05
  -12.0500002      -5.82051689E-05
  -12.0400000      -4.76925379E-05
  -12.0299997      -3.47408277E-05
  -12.0200005      -2.05171000E-05
  -12.0100002      -6.11970290E-06
  -12.0000000       7.51764264E-06
  -11.9899998       1.96755518E-05
  -11.9799995       2.98545619E-05
  -11.9700003       3.77470678E-05
  -11.9600000       4.31910194E-05
  -11.9499998       4.61216914E-05
  -11.9399996       4.65350822E-05
  -11.9300003       4.44712896E-05
  -11.9200001       4.00198151E-05
  -11.9099998       3.33425924E-05
  -11.8999996       2.47059779E-05
  -11.8900003       1.45102285E-05
  -11.8800001       3.30485818E-06
  -11.8699999      -8.21964022E-06
  -11.8599997      -1.92691859E-05
  -11.8500004      -2.90127009E-05
  -11.8400002      -3.66718195E-05
  -11.8299999      -4.16217663E-05
  -11.8199997      -4.34869289E-05
  -11.8100004      -4.22124103E-05
  -11.8000002      -3.80941856E-05
  -11.7900000      -3.17554586E-05
  -11.7799997      -2.40657955E-05
  -11.7700005      -1.60107720E-05
  -11.7600002      -8.53155325E-06
  -11.7500000      -2.36320284E-06
  -11.7399998       2.09519339E-06
  -11.7299995       4.84817974E-06
  -11.7200003       6.28916905E-06
  -11.7100000       7.09950928E-06
  -11.6999998       8.07718698E-06
  -11.6899996       9.92901914E-06
  -11.6800003       1.30721992E-05
  -11.6700001       1.74931101E-05
  -11.6599998       2.27017699E-05
  -11.6499996       2.78003990E-05
  -11.6400003       3.16581536E-05
  -11.6300001       3.31575393E-05
  -11.6199999       3.14578429E-05
  -11.6099997       2.62129051E-05
  -11.6000004       1.76878766E-05
  -11.5900002       6.74123294E-06
  -11.5799999      -5.33006687E-06
  -11.5699997      -1.70503099E-05
  -11.5600004      -2.70698474E-05
  -11.5500002      -3.44411164E-05
  -11.5400000      -3.87961190E-05
  -11.5299997      -4.03779522E-05
  -11.5200005      -3.99148303E-05
  -11.5100002      -3.83656807E-05
  -11.5000000      -3.66016211E-05
  -11.4899998      -3.51080744E-05
  -11.4799995      -3.37914025E-05
  -11.4700003      -3.19513128E-05
  -11.4600000      -2.84401267E-05
  -11.4499998      -2.19817157E-05
  -11.4399996      -1.15788425E-05
  -11.4300003       3.09124425E-06
  -11.4200001       2.13980111E-05
  -11.4099998       4.16794392E-05
  -11.3999996       6.14045857E-05
  -11.3900003       7.75608933E-05
  -11.3800001       8.71951925E-05
  -11.3699999       8.79964355E-05
  -11.3599997       7.87932877E-05
  -11.3500004       5.98541556E-05
  -11.3400002       3.29190843E-05
  -11.3299999       9.52260336E-07
  -11.3199997      -3.23335335E-05
  -11.3100004      -6.30790455E-05
  -11.3000002      -8.78802239E-05
  -11.2900000      -1.04267790E-04
  -11.2799997      -1.10977984E-04
  -11.2700005      -1.07982014E-04
  -11.2600002      -9.63013954E-05
  -11.2500000      -7.76846209E-05
  -11.2399998      -5.42453890E-05
  -11.2299995      -2.81571993E-05
  -11.2200003      -1.46651951E-06
  -11.2100000       2.39623314E-05
  -11.1999998       4.64075310E-05
  -11.1899996       6.42269952E-05
  -11.1800003       7.58519163E-05
  -11.1700001       7.98936890E-05
  -11.1599998       7.53749409E-05
  -11.1499996       6.20392821E-05
  -11.1400003       4.06475119E-05
  -11.1300001       1.31472898E-05
  -11.1199999      -1.73822682E-05
  -11.1099997      -4.70590858E-05
  -11.1000004      -7.17746443E-05
  -11.0900002      -8.79168801E-05
  -11.0799999      -9.30817259E-05
  -11.0699997      -8.65977781E-05
  -11.0600004      -6.97192881E-05
  -11.0500002      -4.54157635E-05
  -11.0400000      -1.77855982E-05
  -11.0299997       8.78083574E-06
  -11.0200005       3.04931255E-05
  -11.0100002       4.48915562E-05
  -11.0000000       5.12370607E-05
  -10.9899998       5.04667769E-05
  -10.9799995       4.47354214E-05
  -10.9700003       3.66730274E-05
  -10.9600000       2.85670121E-05
  -10.9499998       2.16979097E-05
  -10.9399996       1.60170475E-05
  -10.9300003       1.02607301E-05
  -10.9200001       2.47388948E-06
  -10.9099998      -9.20048751E-06
  -10.8999996      -2.56896983E-05
  -10.8900003      -4.63618198E-05
  -10.8800001      -6.87979045E-05
  -10.8699999      -8.90657611E-05
  -10.8599997      -1.02465892E-04
  -10.8500004      -1.04594583E-04
  -10.8400002      -9.24789492E-05
  -10.8299999      -6.55072436E-05
  -10.8199997      -2.59133703E-05
  -10.8100004       2.13315179E-05
  -10.8000002       6.92362955E-05
  -10.7900000       1.09995082E-04
  -10.7799997       1.36447139E-04
  -10.7700005       1.43495650E-04
  -10.7600002       1.29190157E-04
  -10.7500000       9.52400878E-05
  -10.7399998       4.68378967E-05
  -10.7299995      -8.19327397E-06
  -10.7200003      -6.07784605E-05
  -10.7100000      -1.02242426E-04
  -10.6999998      -1.25923325E-04
  -10.6899996      -1.28441199E-04
  -10.6800003      -1.10375018E-04
  -10.6700001      -7.62104100E-05
  -10.6599998      -3.35554723E-05
  -10.6499996       8.24088238E-06
  -10.6400003       3.98197080E-05
  -10.6300001       5.35750078E-05
  -10.6199999       4.51215055E-05
  -10.6099997       1.41907967E-05
  -10.6000004      -3.52167299E-05
  -10.5900002      -9.54595671E-05
  -10.5799999      -1.56552123E-04
  -10.5699997      -2.07895500E-04
  -10.5600004      -2.40125344E-04
  -10.5500002      -2.46739073E-04
  -10.5400000      -2.25208467E-04
  -10.5299997      -1.77383365E-04
  -10.5200005      -1.09127599E-04
  -10.5100002      -2.92730492E-05
  -10.5000000       5.18970483E-05
  -10.4899998       1.24342667E-04
  -10.4799995       1.79823750E-04
  -10.4700003       2.13043371E-04
  -10.4600000       2.22193412E-04
  -10.4499998       2.08844634E-04
  -10.4399996       1.77255337E-04
  -10.4300003       1.33285081E-04
  -10.4200001       8.31689540E-05
  -10.4099998       3.24205357E-05
  -10.3999996      -1.49150428E-05
  -10.3900003      -5.65306109E-05
  -10.3800001      -9.16427089E-05
  -10.3699999      -1.20406483E-04
  -10.3599997      -1.43162819E-04
  -10.3500004      -1.59758769E-04
  -10.3400002      -1.69157443E-04
  -10.3299999      -1.69471401E-04
  -10.3199997      -1.58431401E-04
  -10.3100004      -1.34173169E-04
  -10.3000002      -9.61209516E-05
  -10.2900000      -4.56997732E-05
  -10.2799997       1.33656276E-05
  -10.2700005       7.53111381E-05
  -10.2600002       1.33153546E-04
  -10.2500000       1.79915223E-04
  -10.2399998       2.09973703E-04
  -10.2299995       2.20201080E-04
  -10.2200003       2.10592785E-04
  -10.2100000       1.84203556E-04
  -10.1999998       1.46384496E-04
  -10.1899996       1.03500301E-04
  -10.1800003       6.14491000E-05
  -10.1700001       2.43678769E-05
  -10.1599998      -6.13851580E-06
  -10.1499996      -3.10453070E-05
  -10.1400003      -5.32302802E-05
  -10.1300001      -7.62688069E-05
  -10.1199999      -1.03046201E-04
  -10.1099997      -1.34582879E-04
  -10.1000004      -1.69407067E-04
  -10.0900002      -2.03654767E-04
  -10.0799999      -2.31871571E-04
  -10.0699997      -2.48295750E-04
  -10.0600004      -2.48272263E-04
  -10.0500002      -2.29419515E-04
  -10.0400000      -1.92251886E-04
  -10.0299997      -1.40121454E-04
  -10.0200005      -7.85362572E-05
  -10.0100002      -1.40771845E-05
  -10.0000000       4.67748141E-05
  -9.98999977       9.85986990E-05
  -9.97999954       1.37578230E-04
  -9.97000027       1.61583361E-04
  -9.96000004       1.69894585E-04
  -9.94999981       1.62781042E-04
  -9.93999958       1.41163269E-04
  -9.93000031       1.06523818E-04
  -9.92000008       6.10986754E-05
  -9.90999985       8.23842765E-06
  -9.89999962      -4.72777429E-05
  -9.89000034      -9.92181085E-05
  -9.88000011      -1.40339995E-04
  -9.86999989      -1.63328892E-04
  -9.85999966      -1.62093595E-04
  -9.85000038      -1.33128633E-04
  -9.84000015      -7.65870500E-05
  -9.82999992       3.25519750E-06
  -9.81999969       9.83219870E-05
  -9.81000042       1.97825080E-04
  -9.80000019       2.89890217E-04
  -9.78999996       3.63352476E-04
  -9.77999973       4.09314292E-04
  -9.77000046       4.22141427E-04
  -9.76000023       3.99748213E-04
  -9.75000000       3.43234628E-04
  -9.73999977       2.56120838E-04
  -9.72999954       1.43514553E-04
  -9.72000027       1.15178300E-05
  -9.71000004      -1.32961213E-04
  -9.69999981      -2.82027788E-04
  -9.68999958      -4.26481449E-04
  -9.68000031      -5.55700331E-04
  -9.67000008      -6.58053963E-04
  -9.65999985      -7.22021563E-04
  -9.64999962      -7.37945607E-04
  -9.64000034      -7.00091419E-04
  -9.63000011      -6.08490431E-04
  -9.61999989      -4.69996245E-04
  -9.60999966      -2.98109866E-04
  -9.60000038      -1.11407549E-04
  -9.59000015       6.92334579E-05
  -9.57999992       2.24076197E-04
  -9.56999969       3.37880396E-04
  -9.56000042       4.02396923E-04
  -9.55000019       4.17407777E-04
  -9.53999996       3.90068861E-04
  -9.52999973       3.32733645E-04
  -9.52000046       2.59813969E-04
  -9.51000023       1.84463031E-04
  -9.50000000       1.15888572E-04
  -9.48999977       5.79133157E-05
  -9.47999954       9.05762772E-06
  -9.47000027      -3.59805781E-05
  -9.46000004      -8.39191052E-05
  -9.44999981      -1.40233969E-04
  -9.43999958      -2.06947065E-04
  -9.43000031      -2.81399669E-04
  -9.42000008      -3.56276869E-04
  -9.40999985      -4.20834054E-04
  -9.39999962      -4.63005592E-04
  -9.39000034      -4.71905747E-04
  -9.38000011      -4.40187694E-04
  -9.36999989      -3.65795568E-04
  -9.35999966      -2.52793776E-04
  -9.35000038      -1.11140420E-04
  -9.34000015       4.45460137E-05
  -9.32999992       1.97024347E-04
  -9.31999969       3.28952243E-04
  -9.31000042       4.25496284E-04
  -9.30000019       4.76605550E-04
  -9.28999996       4.78551170E-04
  -9.27999973       4.34426009E-04
  -9.27000046       3.53462965E-04
  -9.26000023       2.49247416E-04
  -9.25000000       1.37139054E-04
  -9.23999977       3.14175522E-05
  -9.22999954      -5.72317695E-05
  -9.22000027      -1.23320075E-04
  -9.21000004      -1.66873186E-04
  -9.19999981      -1.92410575E-04
  -9.18999958      -2.06884317E-04
  -9.18000031      -2.17165958E-04
  -9.17000008      -2.27797747E-04
  -9.15999985      -2.39646324E-04
  -9.14999962      -2.49821867E-04
  -9.14000034      -2.52838305E-04
  -9.13000011      -2.42608279E-04
  -9.11999989      -2.14616637E-04
  -9.10999966      -1.67581689E-04
  -9.10000038      -1.04108476E-04
  -9.09000015      -3.01925375E-05
  -9.07999992       4.61746167E-05
  -9.06999969       1.16759824E-04
  -9.06000042       1.74584275E-04
  -9.05000019       2.14697677E-04
  -9.03999996       2.34098436E-04
  -9.02999973       2.31043829E-04
  -9.02000046       2.04263459E-04
  -9.01000023       1.52637382E-04
  -9.00000000       7.56940499E-05
  -8.98999977      -2.51086094E-05
  -8.97999954      -1.44782854E-04
  -8.97000027      -2.73641373E-04
  -8.96000004      -3.97316588E-04
  -8.94999981      -4.98416601E-04
  -8.93999958      -5.59718639E-04
  -8.93000031      -5.68197516E-04
  -8.92000008      -5.18753019E-04
  -8.90999985      -4.16412542E-04
  -8.89999962      -2.76123523E-04
  -8.89000034      -1.19927136E-04
  -8.88000011       2.78752432E-05
  -8.86999989       1.46270788E-04
  -8.85999966       2.22204428E-04
  -8.85000038       2.52981437E-04
  -8.84000015       2.45688745E-04
  -8.82999992       2.13854786E-04
  -8.81999969       1.72455737E-04
  -8.81000042       1.32917543E-04
  -8.80000019       9.97589814E-05
  -8.78999996       6.99635493E-05
  -8.77999973       3.52325442E-05
  -8.77000046      -1.37258239E-05
  -8.76000023      -8.24339368E-05
  -8.75000000      -1.69154140E-04
  -8.73999977      -2.63991009E-04
  -8.72999954      -3.51015391E-04
  -8.72000027      -4.12779918E-04
  -8.71000004      -4.35739406E-04
  -8.69999981      -4.14733513E-04
  -8.68999958      -3.54969787E-04
  -8.68000031      -2.70767545E-04
  -8.67000008      -1.81414012E-04
  -8.65999985      -1.05463885E-04
  -8.64999962      -5.53477148E-05
  -8.64000034      -3.40533406E-05
  -8.63000011      -3.49446709E-05
  -8.61999989      -4.47224666E-05
  -8.60999966      -4.84766970E-05
  -8.60000038      -3.50940536E-05
  -8.59000015      -1.19631807E-06
  -8.57999992       4.76813293E-05
  -8.56999969       9.89984474E-05
  -8.56000042       1.37475203E-04
  -8.55000019       1.50207023E-04
  -8.53999996       1.30873785E-04
  -8.52999973       8.16544634E-05
  -8.52000046       1.22900728E-05
  -8.51000023      -6.32649171E-05
  -8.50000000      -1.31350607E-04
  -8.48999977      -1.82668184E-04
  -8.47999954      -2.14527259E-04
  -8.47000027      -2.30594902E-04
  -8.46000004      -2.38380526E-04
  -8.44999981      -2.45490577E-04
  -8.43999958      -2.56092200E-04
  -8.43000031      -2.68905453E-04
  -8.42000008      -2.77454936E-04
  -8.40999985      -2.72476231E-04
  -8.39999962      -2.45594914E-04
  -8.39000034      -1.92944441E-04
  -8.38000011      -1.17421034E-04
  -8.36999989      -2.87594739E-05
  -8.35999966       5.86284514E-05
  -8.35000038       1.29351800E-04
  -8.34000015       1.71075983E-04
  -8.32999992       1.77621914E-04
  -8.31999969       1.50208783E-04
  -8.31000042       9.65632717E-05
  -8.30000019       2.83149639E-05
  -8.28999996      -4.23899837E-05
  -8.27999973      -1.05958890E-04
  -8.27000046      -1.57217219E-04
  -8.26000023      -1.95663961E-04
  -8.25000000      -2.24283373E-04
  -8.23999977      -2.47530901E-04
  -8.22999954      -2.69296987E-04
  -8.22000027      -2.91537639E-04
  -8.21000004      -3.13916826E-04
  -8.19999981      -3.34381271E-04
  -8.18999958      -3.50253016E-04
  -8.18000031      -3.59292462E-04
  -8.17000008      -3.60285427E-04
  -8.15999985      -3.52984498E-04
  -8.14999962      -3.37552658E-04
  -8.14000034      -3.13890952E-04
  -8.13000011      -2.81280430E-04
  -8.11999989      -2.38621753E-04
  -8.10999966      -1.85279103E-04
  -8.10000038      -1.22238285E-04
  -8.09000015      -5.31006517E-05
  -8.07999992       1.55716607E-05
  -8.06999969       7.48569291E-05
  -8.06000042       1.15004230E-04
  -8.05000019       1.27548643E-04
  -8.03999996       1.07439904E-04
  -8.02999973       5.45697549E-05
  -8.02000046      -2.57622778E-05
  -8.01000023      -1.23606267E-04
  -8.00000000      -2.26160730E-04
  -7.98999977      -3.20151943E-04
  -7.98000002      -3.94201168E-04
  -7.96999979      -4.40635253E-04
  -7.96000004      -4.56390640E-04
  -7.94999981      -4.42930730E-04
  -7.94000006      -4.05354716E-04
  -7.92999983      -3.51043302E-04
  -7.92000008      -2.88231153E-04
  -7.90999985      -2.24819800E-04
  -7.90000010      -1.67594320E-04
  -7.88999987      -1.21843950E-04
  -7.88000011      -9.12642572E-05
  -7.86999989      -7.79711991E-05
  -7.86000013      -8.24887538E-05
  -7.84999990      -1.03658756E-04
  -7.84000015      -1.38524469E-04
  -7.82999992      -1.82316027E-04
  -7.82000017      -2.28690100E-04
  -7.80999994      -2.70335557E-04
  -7.80000019      -2.99959822E-04
  -7.78999996      -3.11544311E-04
  -7.78000021      -3.01638473E-04
  -7.76999998      -2.70385237E-04
  -7.76000023      -2.21967406E-04
  -7.75000000      -1.64250261E-04
  -7.73999977      -1.07557884E-04
  -7.73000002      -6.27341360E-05
  -7.71999979      -3.88524859E-05
  -7.71000004      -4.10873654E-05
  -7.69999981      -6.92967224E-05
  -7.69000006      -1.17750133E-04
  -7.67999983      -1.76187415E-04
  -7.67000008      -2.32056482E-04
  -7.65999985      -2.73441925E-04
  -7.65000010      -2.91961653E-04
  -7.63999987      -2.84858979E-04
  -7.63000011      -2.55689607E-04
  -7.61999989      -2.13365056E-04
  -7.61000013      -1.69773353E-04
  -7.59999990      -1.36619143E-04
  -7.59000015      -1.22371901E-04
  -7.57999992      -1.30200075E-04
  -7.57000017      -1.57482631E-04
  -7.55999994      -1.97010566E-04
  -7.55000019      -2.39466550E-04
  -7.53999996      -2.76368577E-04
  -7.53000021      -3.02522676E-04
  -7.51999998      -3.17200698E-04
  -7.51000023      -3.23695916E-04
  -7.50000000      -3.27465648E-04
  -7.48999977      -3.33560456E-04
  -7.48000002      -3.44291970E-04
  -7.46999979      -3.58013785E-04
  -7.46000004      -3.69502668E-04
  -7.44999981      -3.71856731E-04
  -7.44000006      -3.59274010E-04