  -16.0000000       0.00000000    
  -15.9899998       0.00000000    
  -15.9799995       0.00000000    
  -15.9700003       0.00000000    
  -15.9600000       0.00000000    
  -15.9499998       0.00000000    
  -15.9399996       0.00000000    
  -15.9300003       0.00000000    
  -15.9200001       0.00000000    
  -15.9099998       0.00000000    
  -15.8999996       8.93057320E-38
  -15.8900003       9.16064993E-37
  -15.8800001       4.43679021E-36
  -15.8699999       2.39014779E-35
  -15.8599997       2.17061598E-34
  -15.8500004       1.71878598E-33
  -15.8400002       9.70033587E-33
  -15.8299999       3.98866039E-32
  -15.8199997       1.21448585E-31
  -15.8100004       2.62257280E-31
  -15.8000002       3.02667578E-31
  -15.7900000      -3.99408577E-31
  -15.7799997      -3.27615429E-30
  -15.7700005      -1.01182890E-29
  -15.7600002      -2.07406570E-29
  -15.7500000      -2.89568653E-29
  -15.7399998      -2.28953920E-29
  -15.7299995      -6.03960797E-30
  -15.7200003      -5.95348400E-29
  -15.7100000      -4.34015680E-28
  -15.6999998      -1.54744898E-27
  -15.6899996      -3.56724750E-27
  -15.6800003      -5.10472315E-27
  -15.6700001      -8.40237301E-28
  -15.6599998       2.07552817E-26
  -15.6499996       7.56394903E-26
  -15.6400003       1.71029654E-25
  -15.6300001       2.73109167E-25
  -15.6199999       2.57066818E-25
  -15.6099997      -1.33155542E-25
  -15.6000004      -1.24569233E-24
  -15.5900002      -3.29403780E-24
  -15.5799999      -5.85114542E-24
  -15.5699997      -7.11918489E-24
  -15.5600004      -3.36313176E-24
  -15.5500002       1.06321300E-23
  -15.5400000       3.88739011E-23
  -15.5299997       7.83384443E-23
  -15.5200005       1.10719304E-22
  -15.5100002       9.57300379E-23
  -15.5000000      -2.57912314E-23
  -15.4899998      -3.07921896E-22
  -15.4799995      -7.46776224E-22
  -15.4700003      -1.20430974E-21
  -15.4600000      -1.34075274E-21
  -15.4499998      -6.20721754E-22
  -15.4399996       1.52034716E-21
  -15.4300003       5.28296185E-21
  -15.4200001       9.91123206E-21
  -15.4099998       1.31091624E-20
  -15.3999996       1.09003139E-20
  -15.3900003      -1.47493856E-21
  -15.3800001      -2.71231230E-20
  -15.3699999      -6.35612239E-20
  -15.3599997      -9.83861610E-20
  -15.3500004      -1.07047905E-19
  -15.3400002      -5.63235809E-20
  -15.3299999       8.31081157E-20
  -15.3199997       3.14182558E-19
  -15.3100004       5.85773586E-19
  -15.3000002       7.72193678E-19
  -15.2900000       6.79114249E-19
  -15.2799997       9.63567638E-20
  -15.2700005      -1.09211074E-18
  -15.2600002      -2.75563020E-18
  -15.2500000      -4.37394579E-18
  -15.2399998      -4.99452316E-18
  -15.2299995      -3.39849429E-18
  -15.2200003       1.44578629E-18
  -15.2100000       9.65979203E-18
  -15.1999998       1.96439299E-17
  -15.1899996       2.75497632E-17
  -15.1800003       2.75388212E-17
  -15.1700001       1.32928785E-17
  -15.1599998      -1.90732546E-17
  -15.1499996      -6.71667084E-17
  -15.1400003      -1.18832065E-16
  -15.1300001      -1.51059313E-16
  -15.1199999      -1.33537100E-16
  -15.1099997      -3.83431566E-17
  -15.1000004       1.44755840E-16
  -15.0900002       3.91028154E-16
  -15.0799999       6.28534658E-16
  -15.0699997       7.40112402E-16
  -15.0600004       5.87952674E-16
  -15.0500002       6.38411909E-17
  -15.0400000      -8.41912157E-16
  -15.0299997      -1.97278399E-15
  -15.0200005      -2.97115589E-15
  -15.0100002      -3.31199157E-15
  -15.0000000      -2.43134688E-15
  -14.9899998       5.07276782E-17
  -14.9799995       4.05515584E-15
  -14.9700003       8.80582906E-15
  -14.9600000       1.27519658E-14
  -14.9499998       1.37741567E-14
  -14.9399996       9.74463464E-15
  -14.9300003      -5.98324010E-16
  -14.9200001      -1.66541331E-14
  -14.9099998      -3.51852980E-14
  -14.8999996      -5.01955960E-14
  -14.8900003      -5.38483612E-14
  -14.8800001      -3.85901943E-14
  -14.8699999      -2.48577250E-16
  -14.8599997       5.86247020E-14
  -14.8500004       1.26340981E-13
  -14.8400002       1.81969213E-13
  -14.8299999       1.98677568E-13
  -14.8199997       1.50881667E-13
  -14.8100004       2.42923984E-14
  -14.8000002      -1.73531721E-13
  -14.7900000      -4.05769954E-13
  -14.7799997      -6.06148595E-13
  -14.7700005      -6.89203794E-13
  -14.7600002      -5.71848016E-13
  -14.7500000      -2.03429829E-13
  -14.7399998       4.02670166E-13
  -14.7299995       1.14621767E-12
  -14.7200003       1.83748156E-12
  -14.7100000       2.22375720E-12
  -14.6999998       2.04765892E-12
  -14.6899996       1.13011965E-12
  -14.6800003      -5.39821822E-13
  -14.6700001      -2.73522828E-12
  -14.6599998      -4.97152623E-12
  -14.6499996      -6.56153213E-12
  -14.6400003      -6.75485926E-12
  -14.6300001      -4.94801292E-12
  -14.6199999      -9.24645126E-13
  -14.6099997       4.93760631E-12
  -14.6000004       1.15682819E-11
  -14.5900002       1.72795962E-11
  -14.5799999       2.00517936E-11
  -14.5699997       1.80127458E-11
  -14.5600004       1.00340838E-11
  -14.5500002      -3.69212170E-12
  -14.5400000      -2.12684211E-11
  -14.5299997      -3.90687725E-11
  -14.5200005      -5.21954945E-11
  -14.5100002      -5.54353681E-11
  -14.5000000      -4.46005143E-11
  -14.4899998      -1.79998603E-11
  -14.4799995       2.23219863E-11
  -14.4700003       6.99829292E-11
  -14.4600000       1.14646445E-10
  -14.4499998       1.43572085E-10
  -14.4399996       1.44257176E-10
  -14.4300003       1.07783941E-10
  -14.4200001       3.21951112E-11
  -14.4099998      -7.49726878E-11
  -14.3999996      -1.95888111E-10
  -14.3900003      -3.04039960E-10
  -14.3800001      -3.68514497E-10
  -14.3699999      -3.60567132E-10
  -14.3599997      -2.61435928E-10
  -14.3500004      -6.97540081E-11
  -14.3400002       1.93410329E-10
  -14.3299999       4.83766083E-10
  -14.3199997       7.38554995E-10
  -14.3100004       8.87075968E-10
  -14.3000002       8.65818639E-10
  -14.2900000       6.35612729E-10
  -14.2799997       1.97073413E-10
  -14.2700005      -3.99839661E-10
  -14.2600002      -1.05585463E-09
  -14.2500000      -1.63420699E-09
  -14.2399998      -1.98405070E-09
  -14.2299995      -1.97239958E-09
  -14.2200003      -1.51881296E-09
  -14.2100000      -6.25183794E-10
  -14.1999998       6.07388251E-10
  -14.1899996       1.98113614E-09
  -14.1800003       3.22670624E-09
  -14.1700001       4.04916944E-09
  -14.1599998       4.18817603E-09
  -14.1499996       3.48102769E-09
  -14.1400003       1.91496929E-09
  -14.1300001      -3.44654999E-10
  -14.1199999      -2.96022651E-09
  -14.1099997      -5.46523848E-09
  -14.1000004      -7.34096872E-09
  -14.0900002      -8.11435452E-09
  -14.0799999      -7.45903606E-09
  -14.0699997      -5.27902833E-09
  -14.0600004      -1.75621351E-09
  -14.0500002       2.65116573E-09
  -14.0400000       7.26285121E-09
  -14.0299997       1.12772449E-08
  -14.0200005       1.39026177E-08
  -14.0100002       1.44966998E-08
  -14.0000000       1.26904407E-08
  -13.9899998       8.47430570E-09
  -13.9799995       2.23189267E-09
  -13.9700003      -5.28559996E-09
  -13.9600000      -1.30414044E-08
  -13.9499998      -1.98413588E-08
  -13.9399996      -2.44924934E-08
  -13.9300003      -2.59736481E-08
  -13.9200001      -2.35992506E-08
  -13.9099998      -1.71578112E-08
  -13.8999996      -7.00764513E-09
  -13.8900003       5.88681415E-09
  -13.8800001       1.99930899E-08
  -13.8699999       3.33343877E-08
  -13.8599997       4.37027090E-08
  -13.8500004       4.89530372E-08
  -13.8400002       4.73534918E-08
  -13.8299999       3.79478671E-08
  -13.8199997       2.08703188E-08
  -13.8100004      -2.45747445E-09
  -13.8000002      -2.93127265E-08
  -13.7900000      -5.58884103E-08
  -13.7799997      -7.77521194E-08
  -13.7700005      -9.05111719E-08
  -13.7600002      -9.05973110E-08
  -13.7500000      -7.60411609E-08
  -13.7399998      -4.70831587E-08
  -13.7299995      -6.47239240E-09
  -13.7200003       4.06561433E-08
  -13.7100000       8.73668924E-08
  -13.6999998       1.25924231E-07
  -13.6899996       1.49068683E-07
  -13.6800003       1.51355465E-07
  -13.6700001       1.30302936E-07
  -13.6599998       8.71090791E-08
  -13.6499996       2.67568367E-08
  -13.6400003      -4.25643947E-08
  -13.6300001      -1.10662043E-07
  -13.6199999      -1.66978481E-07
  -13.6099997      -2.02374622E-07
  -13.6000004      -2.10723613E-07
  -13.5900002      -1.90002197E-07
  -13.5799999      -1.42658493E-07
  -13.5699997      -7.51763949E-08
  -13.5600004       3.07770831E-09
  -13.5500002       8.14906755E-08
  -13.5400000       1.49982853E-07
  -13.5299997       2.00568536E-07
  -13.5200005       2.28387293E-07
  -13.5100002       2.32026508E-07
  -13.5000000       2.13127038E-07
  -13.4899998       1.75438757E-07
  -13.4799995       1.23626322E-07
  -13.4700003       6.21801775E-08
  -13.4600000      -5.25170041E-09
  -13.4499998      -7.59249303E-08
  -13.4399996      -1.47455722E-07
  -13.4300003      -2.16876643E-07
  -13.4200001      -2.79650720E-07
  -13.4099998      -3.29067348E-07
  -13.3999996      -3.56388341E-07
  -13.3900003      -3.51939690E-07
  -13.3800001      -3.07087078E-07
  -13.3699999      -2.16753776E-07
  -13.3599997      -8.19088442E-08
  -13.3500004       8.86556109E-08
  -13.3400002       2.77886897E-07
  -13.3299999       4.61776011E-07
  -13.3199997       6.12442079E-07
  -13.3100004       7.02611544E-07
  -13.3000002       7.10721110E-07
  -13.2900000       6.25621453E-07
  -13.2799997       4.49825222E-07
  -13.2700005       2.00453755E-07
  -13.2600002      -9.25364816E-08
  -13.2500000      -3.90701558E-07
  -13.2399998      -6.53308234E-07
  -13.2299995      -8.44206568E-07
  -13.2200003      -9.37989171E-07
  -13.2100000      -9.24146264E-07
  -13.1999998      -8.08324842E-07
  -13.1899996      -6.10429026E-07
  -13.1800003      -3.60011484E-07
  -13.1700001      -9.00343693E-08
  -13.1599998       1.69530551E-07
  -13.1499996       3.96757400E-07
  -13.1400003       5.80303151E-07
  -13.1300001       7.18895819E-07
  -13.1199999       8.18041769E-07
  -13.1099997       8.84973815E-07
  -13.1000004       9.23369839E-07
  -13.0900002       9.29495855E-07
  -13.0799999       8.91100512E-07
  -13.0699997       7.89681508E-07
  -13.0600004       6.05816524E-07
  -13.0500002       3.26344804E-07
  -13.0400000      -4.84655338E-08
  -13.0299997      -4.99821056E-07
  -13.0200005      -9.89080377E-07
  -13.0100002      -1.46108073E-06
  -13.0000000      -1.85185490E-06
  -12.9899998      -2.09932705E-06
  -12.9799995      -2.15471982E-06
  -12.9700003      -1.99206920E-06
  -12.9600000      -1.61358605E-06
  -12.9499998      -1.04952801E-06
  -12.9399996      -3.52596743E-07
  -12.9300003       4.11736664E-07
  -12.9200001       1.17648926E-06
  -12.9099998       1.88307558E-06
  -12.8999996       2.48728657E-06
  -12.8900003       2.95986638E-06
  -12.8800001       3.28183319E-06
  -12.8699999       3.43638180E-06
  -12.8599997       3.40052588E-06
  -12.8500004       3.14011459E-06
  -12.8400002       2.61132436E-06
  -12.8299999       1.77014169E-06
  -12.8199997       5.89075796E-07
  -12.8100004      -9.22111724E-07
  -12.8000002      -2.69684483E-06
  -12.7900000      -4.59941430E-06
  -12.7799997      -6.42539726E-06
  -12.7700005      -7.91819184E-06
  -12.7600002      -8.80173138E-06
  -12.7500000      -8.82557106E-06
  -12.7399998      -7.81500330E-06
  -12.7299995      -5.71656847E-06
  -12.7200003      -2.62885374E-06
  -12.7100000       1.18966386E-06
  -12.6999998       5.34022683E-06
  -12.6899996       9.33017509E-06
  -12.6800003       1.26399664E-05
  -12.6700001       1.48001272E-05
  -12.6599998       1.54647842E-05
  -12.6499996       1.44683991E-05
  -12.6400003       1.18550979E-05
  -12.6300001       7.87495628E-06
  -12.6199999       2.94793585E-06
  -12.6099997      -2.39767064E-06
  -12.6000004      -7.60060675E-06
  -12.5900002      -1.21418634E-05
  -12.5799999      -1.56064725E-05
  -12.5699997      -1.77221173E-05
  -12.5600004      -1.83703141E-05
  -12.5500002      -1.75721652E-05
  -12.5400000      -1.54559966E-05
  -12.5299997      -1.22176734E-05
  -12.5200005      -8.08479581E-06
  -12.5100002      -3.29351542E-06
  -12.5000000       1.91792287E-06
  -12.4899998       7.30062584E-06
  -12.4799995       1.25783454E-05
  -12.4700003       1.74327834E-05
  -12.4600000       2.15013733E-05
  -12.4499998       2.43951908E-05
  -12.4399996       2.57392458E-05
  -12.4300003       2.52307764E-05
  -12.4200001       2.27049604E-05
  -12.4099998       1.81933392E-05
  -12.3999996       1.19596389E-05
  -12.3900003       4.50067864E-06
  -12.3800001      -3.49336506E-06
  -12.3699999      -1.12167163E-05
  -12.3599997      -1.78525370E-05
  -12.3500004      -2.26864613E-05
  -12.3400002      -2.52083773E-05
  -12.3299999      -2.51831807E-05
  -12.3199997      -2.26771281E-05
  -12.3100004      -1.80352290E-05
  -12.3000002      -1.18152475E-05
  -12.2900000      -4.69266206E-06
  -12.2799997       2.64340770E-06
  -12.2700005       9.58226519E-06
  -12.2600002       1.56544174E-05
  -12.2500000       2.05554970E-05
  -12.2399998       2.41314465E-05
  -12.2299995       2.63345319E-05
  -12.2200003       2.71665449E-05
  -12.2100000       2.66280022E-05
  -12.1999998       2.46897707E-05
  -12.1899996       2.12967552E-05
  -12.1800003       1.64038684E-05
  -12.1700001       1.00349480E-05
  -12.1599998       2.34780259E-06
  -12.1499996      -6.31457806E-06
  -12.1400003      -1.54048175E-05
  -12.1300001      -2.41953221E-05
  -12.1199999      -3.18473576E-05
  -12.1099997      -3.75156924E-05
  -12.1000004      -4.04704806E-05
  -12.0900002      -4.02130063E-05
  -12.0799999      -3.65622400E-05
  -12.0699997      -2.96946564E-05
  -12.0600004      -2.01294515E-05
  -12.0500002      -8.66247956E-06
  -12.0400000       3.73726721E-06
  -12.0299997       1.60480649E-05
  -12.0200005       2.73100995E-05
  -12.0100002       3.67151115E-05
  -12.0000000       4.36595037E-05
  -11.9899998       4.77591093E-05
  -11.9799995       4.88334044E-05
  -11.9700003       4.68732942E-05
  -11.9600000       4.20086362E-05
  -11.9499998       3.44885848E-05
  -11.9399996       2.46806412E-05
  -11.9300003       1.30852941E-05
  -11.9200001       3.54630885E-07
  -11.9099998      -1.27015246E-05
  -11.8999996      -2.51384445E-05
  -11.8900003      -3.59389414E-05
  -11.8800001      -4.41160228E-05
  -11.8699999      -4.88440019E-05
  -11.8599997      -4.95953827E-05
  -11.8500004      -4.62540738E-05
  -11.8400002      -3.91755893E-05
  -11.8299999      -2.91723682E-05
  -11.8199997      -1.74164470E-05
  -11.8100004      -5.26933172E-06
  -11.8000002       5.93364757E-06
  -11.7900000       1.51043441E-05
  -11.7799997       2.15831697E-05
  -11.7700005       2.52408099E-05
  -11.7600002       2.64747614E-05
  -11.7500000       2.60964553E-05
  -11.7399998       2.51285092E-05
  -11.7299995       2.45524625E-05
  -11.7200003       2.50604735E-05
  -11.7100000       2.68662207E-05
  -11.6999998       2.96199687E-05
  -11.6899996       3.24517787E-05
  -11.6800003       3.41397681E-05
  -11.6700001       3.33726421E-05
  -11.6599998       2.90537791E-05
  -11.6499996       2.05829983E-05
  -11.6400003       8.05453783E-06
  -11.6300001      -7.67438178E-06
  -11.6199999      -2.50639550E-05
  -11.6099997      -4.21098048E-05
  -11.6000004      -5.66585004E-05
  -11.5900002      -6.67598870E-05
  -11.5799999      -7.09878659E-05
  -11.5699997      -6.86682033E-05
  -11.5600004      -5.99717132E-05
  -11.5500002      -4.58595823E-05
  -11.5400000      -2.78982498E-05
  -11.5299997      -7.98689780E-06
  -11.5200005       1.19435017E-05
  -11.5100002       3.01988530E-05
  -11.5000000       4.55089139E-05
  -11.4899998       5.71052842E-05
  -11.4799995       6.46901972E-05
  -11.4700003       6.83213148E-05
  -11.4600000       6.82557366E-05
  -11.4499998       6.48025598E-05
  -11.4399996       5.82267567E-05
  -11.4300003       4.87294456E-05
  -11.4200001       3.65058222E-05
  -11.4099998       2.18581790E-05
  -11.3999996       5.32361946E-06
  -11.3900003      -1.22306683E-05
  -11.3800001      -2.95859500E-05
  -11.3699999      -4.52481218E-05
  -11.3599997      -5.76205493E-05
  -11.3500004      -6.52464660E-05
  -11.3400002      -6.70729642E-05
  -11.3299999      -6.26784968E-05
  -11.3199997      -5.24092720E-05
  -11.3100004      -3.73865769E-05
  -11.3000002      -1.93735796E-05
  -11.2900000      -5.20179526E-07
  -11.2799997       1.69684245E-05
  -11.2700005       3.11763761E-05
  -11.2600002       4.07681364E-05
  -11.2500000       4.51696105E-05
  -11.2399998       4.46063750E-05
  -11.2299995       3.99957971E-05
  -11.2200003       3.27203197E-05
  -11.2100000       2.43326995E-05
  -11.1999998       1.62562428E-05
  -11.1899996       9.54100506E-06
  -11.1800003       4.72175543E-06
  -11.1700001       1.79918266E-06
  -11.1599998       3.37836667E-07
  -11.1499996      -3.50593268E-07
  -11.1400003      -9.86634518E-07
  -11.1300001      -2.11786255E-06
  -11.1199999      -3.97481836E-06
  -11.1099997      -6.41674205E-06
  -11.1000004      -8.97361406E-06
  -11.0900002      -1.09689436E-05
  -11.0799999      -1.16907258E-05
  -11.0699997      -1.05695335E-05
  -11.0600004      -7.32394119E-06
  -11.0500002      -2.04337562E-06
  -11.0400000       4.80599738E-06
  -11.0299997       1.24495809E-05
  -11.0200005       1.99291953E-05
  -11.0100002       2.62571357E-05
  -11.0000000       3.05691792E-05
  -10.9899998       3.22497544E-05
  -10.9799995       3.10106843E-05
  -10.9700003       2.69156553E-05
  -10.9600000       2.03527889E-05
  -10.9499998       1.19661081E-05
  -10.9399996       2.56140561E-06
  -10.9300003      -6.99662496E-06
  -10.9200001      -1.58807943E-05
  -10.9099998      -2.33798182E-05
  -10.8999996      -2.89517957E-05
  -10.8900003      -3.22504311E-05
  -10.8800001      -3.31258780E-05
  -10.8699999      -3.16051919E-05
  -10.8599997      -2.78597599E-05
  -10.8500004      -2.21677783E-05
  -10.8400002      -1.48793952E-05
  -10.8299999      -6.39012524E-06
  -10.8199997       2.87513649E-06
  -10.8100004       1.24691041E-05
  -10.8000002       2.19253234E-05
  -10.7900000       3.07648115E-05
  -10.7799997       3.85131279E-05
  -10.7700005       4.47316197E-05
  -10.7600002       4.90610910E-05
  -10.7500000       5.12697843E-05
  -10.7399998       5.12925471E-05
  -10.7299995       4.92463878E-05
  -10.7200003       4.54107576E-05
  -10.7100000       4.01693942E-05
  -10.6999998       3.39219441E-05
  -10.6899996       2.69856955E-05
  -10.6800003       1.95158136E-05
  -10.6700001       1.14733330E-05
  -10.6599998       2.66229677E-06
  -10.6499996      -7.15949227E-06
  -10.6400003      -1.81132436E-05
  -10.6300001      -3.00137344E-05
  -10.6199999      -4.22180638E-05
  -10.6099997      -5.35627296E-05
  -10.6000004      -6.24296808E-05
  -10.5900002      -6.69549554E-05
  -10.5799999      -6.53581155E-05
  -10.5699997      -5.63355788E-05
  -10.5600004      -3.94355047E-05
  -10.5500002      -1.53241999E-05
  -10.5400000       1.41322298E-05
  -10.5299997       4.60129813E-05
  -10.5200005       7.67090969E-05
  -10.5100002       1.02455771E-04
  -10.5000000       1.19934295E-04
  -10.4899998       1.26826781E-04
  -10.4799995       1.22212252E-04
  -10.4700003       1.06723419E-04
  -10.4600000       8.24324961E-05
  -10.4499998       5.24918833E-05
  -10.4399996       2.06052864E-05
  -10.4300003      -9.56235181E-06
  -10.4200001      -3.49205402E-05
  -10.4099998      -5.33379171E-05
  -10.3999996      -6.38190832E-05
  -10.3900003      -6.64659747E-05
  -10.3800001      -6.22633888E-05
  -10.3699999      -5.27612028E-05
  -10.3599997      -3.97377735E-05
  -10.3500004      -2.49187233E-05
  -10.3400002      -9.79748984E-06
  -10.3299999       4.43221325E-06
  -10.3199997       1.68558327E-05
  -10.3100004       2.67749438E-05
  -10.3000002       3.36520425E-05
  -10.2900000       3.71006536E-05
  -10.2799997       3.69331792E-05
  -10.2700005       3.32501331E-05
  -10.2600002       2.65314957E-05
  -10.2500000       1.76815756E-05
  -10.2399998       7.98628753E-06
  -10.2299995      -1.03565776E-06
  -10.2200003      -7.87442605E-06
  -10.2100000      -1.13195483E-05
  -10.1999998      -1.07338683E-05
  -10.1899996      -6.24090399E-06
  -10.1800003       1.23021471E-06
  -10.1700001       1.00680172E-05
  -10.1599998       1.82573840E-05
  -10.1499996       2.37636068E-05
  -10.1400003       2.49453442E-05
  -10.1300001       2.09108894E-05
  -10.1199999       1.17429254E-05
  -10.1099997      -1.45591480E-06
  -10.1000004      -1.67072249E-05
  -10.0900002      -3.14633398E-05
  -10.0799999      -4.30186374E-05
  -10.0699997      -4.89514932E-05
  -10.0600004      -4.75219749E-05
  -10.0500002      -3.79635785E-05
  -10.0400000      -2.06293826E-05
  -10.0299997       3.02149147E-06
  -10.0200005       3.05882859E-05
  -10.0100002       5.90173549E-05
  -10.0000000       8.49776916E-05
  -9.98999977       1.05279643E-04
  -9.97999954       1.17290634E-04
  -9.97000027       1.19300770E-04
  -9.96000004       1.10792069E-04
  -9.94999981       9.25690765E-05
  -9.93999958       6.67189306E-05
  -9.93000031       3.63863219E-05
  -9.92000008       5.37490723E-06
  -9.90999985      -2.23827174E-05
  -9.89999962      -4.34141075E-05
  -9.89000034      -5.52609163E-05
  -9.88000011      -5.68970136E-05
  -9.86999989      -4.89241393E-05
  -9.85999966      -3.34927972E-05
  -9.85000038      -1.39458452E-05
  -9.84000015       5.76249704E-06
  -9.82999992       2.17707966E-05
  -9.81999969       3.10064170E-05
  -9.81000042       3.17388840E-05
  -9.80000019       2.38816447E-05
  -9.78999996       8.98300641E-06
  -9.77999973      -1.00900197E-05
  -9.77000046      -2.97088227E-05
  -9.76000023      -4.61675809E-05
  -9.75000000      -5.63588910E-05
  -9.73999977      -5.83118053E-05
  -9.72999954      -5.14974890E-05
  -9.72000027      -3.68597903E-05
  -9.71000004      -1.65853999E-05
  -9.69999981       6.32183674E-06
  -9.68999958       2.85665610E-05
  -9.68000031       4.70831401E-05
  -9.67000008       5.94627600E-05
  -9.65999985       6.42277228E-05
  -9.64999962       6.09326853E-05
  -9.64000034       5.01084214E-05
  -9.63000011       3.30891635E-05
  -9.61999989       1.17749059E-05
  -9.60999966      -1.16229803E-05
  -9.60000038      -3.48183676E-05
  -9.59000015      -5.56516534E-05
  -9.57999992      -7.22528057E-05
  -9.56999969      -8.31709913E-05
  -9.56000042      -8.74751131E-05
  -9.55000019      -8.48233321E-05
  -9.53999996      -7.54918947E-05
  -9.52999973      -6.03489680E-05
  -9.52000046      -4.07617918E-05
  -9.51000023      -1.84358505E-05
  -9.50000000       4.79921164E-06
  -9.48999977       2.72257221E-05
  -9.47999954       4.74534754E-05
  -9.47000027       6.45709661E-05
  -9.46000004       7.81999333E-05
  -9.44999981       8.84424080E-05
  -9.43999958       9.57362499E-05
  -9.43000031       1.00659323E-04
  -9.42000008       1.03736144E-04
  -9.40999985       1.05299885E-04
  -9.39999962       1.05445695E-04
  -9.39000034       1.04083294E-04
  -9.38000011       1.01065409E-04
  -9.36999989       9.63441635E-05
  -9.35999966       9.00972664E-05
  -9.35000038       8.27742915E-05
  -9.34000015       7.50384206E-05
  -9.32999992       6.76133786E-05
  -9.31999969       6.10783900E-05
  -9.31000042       5.56756568E-05
  -9.30000019       5.11962535E-05
  -9.28999996       4.69916995E-05
  -9.27999973       4.21230288E-05
  -9.27000046       3.56182682E-05
  -9.26000023       2.67742598E-05
  -9.25000000       1.54211302E-05
  -9.23999977       2.07314156E-06
  -9.22999954      -1.20831646E-05
  -9.22000027      -2.53707258E-05
  -9.21000004      -3.59361802E-05
  -9.19999981      -4.21240220E-05
  -9.18999958      -4.28229141E-05
  -9.18000031      -3.77034630E-05
  -9.17000008      -2.72949310E-05
  -9.15999985      -1.28879201E-05
  -9.14999962       3.70867906E-06
  -9.14000034       2.04968783E-05
  -9.13000011       3.56303608E-05
  -9.11999989       4.76961541E-05
  -9.10999966       5.58857682E-05
  -9.10000038       6.00333115E-05
  -9.09000015       6.05281457E-05
  -9.07999992       5.81345594E-05
  -9.06999969       5.37665983E-05
  -9.06000042       4.82702708E-05
  -9.05000019       4.22597222E-05
  -9.03999996       3.60402919E-05
  -9.02999973       2.96323869E-05
  -9.02000046       2.28890694E-05
  -9.01000023       1.56792557E-05
  -9.00000000       8.09111498E-06
  -8.98999977       6.00118767E-07
  -8.97999954      -5.85293810E-06
  -8.97000027      -9.91509205E-06
  -8.96000004      -1.00196303E-05
  -8.94999981      -4.70801842E-06
  -8.93999958       6.98361691E-06
  -8.93000031       2.51612910E-05
  -8.92000008       4.88311234E-05
  -8.90999985       7.58616079E-05
  -8.89999962       1.03193735E-04
  -8.89000034       1.27285675E-04
  -8.88000011       1.44717458E-04
  -8.86999989       1.52834065E-04
  -8.85999966       1.50284686E-04
  -8.85000038       1.37331939E-04
  -8.84000015       1.15853669E-04
  -8.82999992       8.90314986E-05
  -8.81999969       6.07937436E-05
  -8.81000042       3.51373310E-05
  -8.80000019       1.54769823E-05
  -8.78999996       4.15420755E-06
  -8.77999973       2.19027584E-06
  -8.77000046       9.30022088E-06
  -8.76000023       2.41205016E-05
  -8.75000000       4.45592595E-05
  -8.73999977       6.81664242E-05
  -8.72999954       9.24411943E-05
  -8.72000027       1.15036768E-04
  -8.71000004       1.33869209E-04
  -8.69999981       1.47171828E-04
  -8.68999958       1.53547342E-04
  -8.68000031       1.52054563E-04
  -8.67000008       1.42333694E-04
  -8.65999985       1.24737620E-04
  -8.64999962       1.00413527E-04
  -8.64000034       7.12781839E-05
  -8.63000011       3.98550765E-05
  -8.61999989       8.98221788E-06
  -8.60999966      -1.85578720E-05
  -8.60000038      -4.04069469E-05
  -8.59000015      -5.49165343E-05
  -8.57999992      -6.12927251E-05
  -8.56999969      -5.95857600E-05
  -8.56000042      -5.05555909E-05
  -8.55000019      -3.54763397E-05
  -8.53999996      -1.59488900E-05
  -8.52999973       6.23059304E-06
  -8.52000046       2.91378801E-05
  -8.51000023       5.07574696E-05
  -8.50000000       6.90477391E-05
  -8.48999977       8.20898131E-05
  -8.47999954       8.83424000E-05
  -8.47000027       8.69710639E-05
  -8.46000004       7.81680064E-05
  -8.44999981       6.33469681E-05
  -8.43999958       4.51052292E-05
  -8.43000031       2.68947388E-05
  -8.42000008       1.24234712E-05
  -8.40999985       4.89624608E-06
  -8.39999962       6.27067357E-06
  -8.39000034       1.67250946E-05
  -8.38000011       3.45004555E-05
  -8.36999989       5.61918750E-05
  -8.35999966       7.74510845E-05
  -8.35000038       9.39497331E-05
  -8.34000015       1.02377824E-04
  -8.32999992       1.01233854E-04
  -8.31999969       9.12105970E-05
  -8.31000042       7.50792606E-05
  -8.30000019       5.70981538E-05
  -8.28999996       4.20872966E-05
  -8.27999973       3.43863830E-05
  -8.27000046       3.69328591E-05
  -8.26000023       5.06578253E-05
  -8.25000000       7.43135606E-05
  -8.23999977       1.04743594E-04
  -8.22999954       1.37510564E-04
  -8.22000027       1.67730788E-04
  -8.21000004       1.90939172E-04
  -8.19999981       2.03824253E-04
  -8.18999958       2.04717522E-04
  -8.18000031       1.93780448E-04
  -8.17000008       1.72890883E-04
  -8.15999985       1.45275975E-04
  -8.14999962       1.14967443E-04
  -8.14000034       8.61686858E-05
  -8.13000011       6.26245092E-05
  -8.11999989       4.70773266E-05
  -8.10999966       4.08814158E-05
  -8.10000038       4.38282004E-05
  -8.09000015       5.42104099E-05
  -8.07999992       6.91211389E-05
  -8.06999969       8.49472563E-05
  -8.06000042       9.79824326E-05
  -8.05000019       1.05060506E-04
  -8.03999996       1.04100909E-04
  -8.02999973       9.44702988E-05
  -8.02000046       7.70963306E-05
  -8.01000023       5.43142341E-05
  -8.00000000       2.94761048E-05
  -7.98999977       6.39495056E-06
  -7.98000002      -1.12772868E-05
  -7.96999979      -2.06314180E-05
  -7.96000004      -1.99478527E-05
  -7.94999981      -8.94073037E-06
  -7.94000006       1.12325670E-05
  -7.92999983       3.81911341E-05
  -7.92000008       6.87393913E-05
  -7.90999985       9.93969588E-05
  -7.90000010       1.26962565E-04
  -7.88999987       1.49017898E-04
  -7.88000011       1.64283381E-04
  -7.86999989       1.72758810E-04
  -7.86000013       1.75617373E-04
  -7.84999990       1.74868823E-04
  -7.84000015       1.72856686E-04
  -7.82999992       1.71694497E-04
  -7.82000017       1.72768399E-04
  -7.80999994       1.76424408E-04
  -7.80000019       1.81921147E-04
  -7.78999996       1.87665675E-04
  -7.78000021       1.91678439E-04
  -7.76999998       1.92171821E-04
  -7.76000023       1.88092570E-04
  -7.75000000       1.79483293E-04
  -7.73999977       1.67563107E-04
  -7.73000002       1.54499256E-04
  -7.71999979       1.42922581E-04
  -7.71000004       1.35304421E-04
  -7.69999981       1.33346504E-04
  -7.69000006       1.37528303E-04
  -7.67999983       1.46913284E-04
  -7.67000008       1.59250689E-04
  -7.65999985       1.71343141E-04
  -7.65000010       1.79598850E-04
  -7.63999987       1.80661387E-04
  -7.63000011       1.72011132E-04
  -7.61999989       1.52452209E-04
  -7.61000013       1.22424230E-04
  -7.59999990       8.41023357E-05
  -7.59000015       4.12668378E-05
  -7.57999992      -1.06290111E-06
  -7.57000017      -3.72168033E-05
  -7.55999994      -6.16423495E-05
  -7.55000019      -6.97694268E-05
  -7.53999996      -5.88439252E-05
  -7.53000021      -2.85711430E-05
  -7.51999998       1.85906592E-05
  -7.51000023       7.76038942E-05
  -7.50000000       1.41524273E-04
  -7.48999977       2.02591575E-04
  -7.48000002       2.53546605E-04
  -7.46999979       2.88906565E-04
  -7.46000004       3.05919064E-04
  -7.44999981       3.04975751E-04
  -7.44000006       2.89389776E-04