  -16.0000000       0.00000000    
  -15.9899998       0.00000000    
  -15.9799995       0.00000000    
  -15.9700003       0.00000000    
  -15.9600000       0.00000000    
  -15.9499998       0.00000000    
  -15.9399996       0.00000000    
  -15.9300003       0.00000000    
  -15.9200001       0.00000000    
  -15.9099998       0.00000000    
  -15.8999996       5.33816522E-39
  -15.8900003       2.31558854E-37
  -15.8800001       4.04633330E-36
  -15.8699999       4.48651612E-35
  -15.8599997       3.68748124E-34
  -15.8500004       2.41153989E-33
  -15.8400002       1.30458435E-32
  -15.8299999       5.98562723E-32
  -15.8199997       2.37137765E-31
  -15.8100004       8.22322433E-31
  -15.8000002       2.52174007E-30
  -15.7900000       6.88950431E-30
  -15.7799997       1.68448875E-29
  -15.7700005       3.69041219E-29
  -15.7600002       7.22137062E-29
  -15.7500000       1.24907535E-28
  -15.7399998       1.86271418E-28
  -15.7299995       2.24627324E-28
  -15.7200003       1.72626770E-28
  -15.7100000      -7.64411285E-29
  -15.6999998      -6.48252323E-28
  -15.6899996      -1.62818252E-27
  -15.6800003      -2.96018707E-27
  -15.6700001      -4.32453779E-27
  -15.6599998      -5.03948189E-27
  -15.6499996      -4.03555008E-27
  -15.6400003       7.80948523E-29
  -15.6300001       8.86462181E-27
  -15.6199999       2.37616399E-26
  -15.6099997       4.52667184E-26
  -15.6000004       7.07623023E-26
  -15.5900002       9.00036798E-26
  -15.5799999       7.86309310E-26
  -15.5699997      -5.90162443E-27
  -15.5600004      -2.15128951E-25
  -15.5500002      -5.71560245E-25
  -15.5400000      -9.92837163E-25
  -15.5299997      -1.19862376E-24
  -15.5200005      -6.76640856E-25
  -15.5100002       1.15640856E-24
  -15.5000000       4.46337500E-24
  -15.4899998       8.18061459E-24
  -15.4799995       9.27828614E-24
  -15.4700003       2.96679523E-24
  -15.4600000      -1.49737806E-23
  -15.4499998      -4.30646489E-23
  -15.4399996      -6.74168860E-23
  -15.4300003      -5.79402810E-23
  -15.4200001       2.47276324E-23
  -15.4099998       2.03646651E-22
  -15.3999996       4.40697788E-22
  -15.3900003       5.89010858E-22
  -15.3800001       3.83156330E-22
  -15.3699999      -4.75465627E-22
  -15.3599997      -2.09389847E-21
  -15.3500004      -4.04729619E-21
  -15.3400002      -5.07455111E-21
  -15.3299999      -3.11006784E-21
  -15.3199997       3.97866039E-21
  -15.3100004       1.67322014E-20
  -15.3000002       3.18010524E-20
  -15.2900000       4.01051864E-20
  -15.2799997       2.73803439E-20
  -15.2700005      -2.07312610E-20
  -15.2600002      -1.08051178E-19
  -15.2500000      -2.13784959E-19
  -15.2399998      -2.81716804E-19
  -15.2299995      -2.23740103E-19
  -15.2200003       5.05614182E-20
  -15.2100000       5.73526195E-19
  -15.1999998       1.24025528E-18
  -15.1899996       1.74678149E-18
  -15.1800003       1.60322016E-18
  -15.1700001       2.81926831E-19
  -15.1599998      -2.47448950E-18
  -15.1499996      -6.24246614E-18
  -15.1400003      -9.57688868E-18
  -15.1300001      -1.00167072E-17
  -15.1199999      -4.72839930E-18
  -15.1099997       8.07480396E-18
  -15.1000004       2.71636832E-17
  -15.0900002       4.65171039E-17
  -15.0799999       5.49603846E-17
  -15.0699997       3.85590176E-17
  -15.0600004      -1.34730078E-17
  -15.0500002      -1.00061438E-16
  -15.0400000      -1.99629731E-16
  -15.0299997      -2.66513067E-16
  -15.0200005      -2.38233416E-16
  -15.0100002      -5.75730809E-17
  -15.0000000       2.92023714E-16
  -14.9899998       7.47602820E-16
  -14.9799995       1.14313777E-15
  -14.9700003       1.22473044E-15
  -14.9600000       7.23345702E-16
  -14.9499998      -5.14072131E-16
  -14.9399996      -2.36456214E-15
  -14.9300003      -4.30436902E-15
  -14.9200001      -5.40739396E-15
  -14.9099998      -4.54834755E-15
  -14.8999996      -8.39627444E-16
  -14.8900003       5.76923839E-15
  -14.8800001       1.39271165E-14
  -14.8699999       2.06541683E-14
  -14.8599997       2.17726058E-14
  -14.8500004       1.31865615E-14
  -14.8400002      -7.09720013E-15
  -14.8299999      -3.67383363E-14
  -14.8199997      -6.75635559E-14
  -14.8100004      -8.59368457E-14
  -14.8000002      -7.59038557E-14
  -14.7900000      -2.52250427E-14
  -14.7799997       6.68691719E-14
  -14.7700005       1.82807992E-13
  -14.7600002       2.84318955E-13
  -14.7500000       3.18103264E-13
  -14.7399998       2.31324861E-13
  -14.7299995      -4.77669026E-15
  -14.7200003      -3.69340490E-13
  -14.7100000      -7.74641581E-13
  -14.6999998      -1.06895872E-12
  -14.6899996      -1.06853317E-12
  -14.6800003      -6.19474199E-13
  -14.6700001       3.21989966E-13
  -14.6599998       1.61599228E-12
  -14.6499996       2.90651140E-12
  -14.6400003       3.66313880E-12
  -14.6300001       3.31495356E-12
  -14.6199999       1.46432562E-12
  -14.6099997      -1.87008308E-12
  -14.6000004      -6.06678683E-12
  -14.5900002      -9.87239630E-12
  -14.5799999      -1.16119076E-11
  -14.5699997      -9.65986319E-12
  -14.5600004      -3.09903709E-12
  -14.5500002       7.61222335E-12
  -14.5400000       2.02215085E-11
  -14.5299997       3.07796913E-11
  -14.5200005       3.44299554E-11
  -14.5100002       2.68683565E-11
  -14.5000000       6.18998516E-12
  -14.4899998      -2.54249313E-11
  -14.4799995      -6.08823478E-11
  -14.4700003      -8.88452784E-11
  -14.4600000      -9.62288582E-11
  -14.4499998      -7.22870167E-11
  -14.4399996      -1.33848852E-11
  -14.4300003       7.30306857E-11
  -14.4200001       1.66990366E-10
  -14.4099998       2.38513514E-10
  -14.3999996       2.54564370E-10
  -14.3900003       1.89524452E-10
  -14.3800001       3.66855157E-11
  -14.3699999      -1.82926188E-10
  -14.3599997      -4.18358292E-10
  -14.3500004      -5.96102334E-10
  -14.3400002      -6.37566944E-10
  -14.3299999      -4.83876716E-10
  -14.3199997      -1.21844465E-10
  -14.3100004       3.97305355E-10
  -14.3000002       9.54950119E-10
  -14.2900000       1.38349643E-09
  -14.2799997       1.50636881E-09
  -14.2700005       1.19255983E-09
  -14.2600002       4.11956108E-10
  -14.2500000      -7.26387117E-10
  -14.2399998      -1.97009298E-09
  -14.2299995      -2.96391400E-09
  -14.2200003      -3.33356742E-09
  -14.2100000      -2.79745005E-09
  -14.1999998      -1.27791855E-09
  -14.1899996       1.02301123E-09
  -14.1800003       3.61591446E-09
  -14.1700001       5.80279025E-09
  -14.1599998       6.83833257E-09
  -14.1499996       6.14287998E-09
  -14.1400003       3.51347373E-09
  -14.1300001      -7.31618710E-10
  -14.1199999      -5.73290349E-09
  -14.1099997      -1.02262749E-08
  -14.1000004      -1.28273836E-08
  -14.0900002      -1.24086013E-08
  -14.0799999      -8.47497184E-09
  -14.0699997      -1.42822487E-09
  -14.0600004       7.37923012E-09
  -14.0500002       1.58538800E-08
  -14.0400000       2.16196128E-08
  -14.0299997       2.26351471E-08
  -14.0200005       1.78192359E-08
  -14.0100002       7.50604467E-09
  -14.0000000      -6.42543130E-09
  -13.9899998      -2.08338076E-08
  -13.9799995      -3.19900337E-08
  -13.9700003      -3.65099737E-08
  -13.9600000      -3.23186917E-08
  -13.9499998      -1.93811722E-08
  -13.9399996       3.37443094E-11
  -13.9300003       2.16869012E-08
  -13.9200001       4.02781062E-08
  -13.9099998       5.07454061E-08
  -13.8999996       4.96385191E-08
  -13.8900003       3.61956545E-08
  -13.8800001       1.27969146E-08
  -13.8699999      -1.53916009E-08
  -13.8599997      -4.15613286E-08
  -13.8500004      -5.89489453E-08
  -13.8400002      -6.26501020E-08
  -13.8299999      -5.10682803E-08
  -13.8199997      -2.65663846E-08
  -13.8100004       4.92512031E-09
  -13.8000002       3.53174663E-08
  -13.7900000       5.64752867E-08
  -13.7799997       6.24904573E-08
  -13.7700005       5.14860261E-08
  -13.7600002       2.63977284E-08
  -13.7500000      -5.57529800E-09
  -13.7399998      -3.48050833E-08
  -13.7299995      -5.19353804E-08
  -13.7200003      -5.07401055E-08
  -13.7100000      -3.03177536E-08
  -13.6999998       4.08987111E-09
  -13.6899996       4.20407105E-08
  -13.6800003       7.05137992E-08
  -13.6700001       7.76294300E-08
  -13.6599998       5.65053071E-08
  -13.6499996       8.13423906E-09
  -13.6400003      -5.76819659E-08
  -13.6300001      -1.23867025E-07
  -13.6199999      -1.69957175E-07
  -13.6099997      -1.77540855E-07
  -13.6000004      -1.35912359E-07
  -13.5900002      -4.63712517E-08
  -13.5799999       7.62176242E-08
  -13.5699997       2.05400042E-07
  -13.5600004       3.08560288E-07
  -13.5500002       3.54757447E-07
  -13.5400000       3.23142245E-07
  -13.5299997       2.09753637E-07
  -13.5200005       3.06828269E-08
  -13.5100002      -1.79651579E-07
  -13.5000000      -3.75192542E-07
  -13.4899998      -5.08647986E-07
  -13.4799995      -5.43236411E-07
  -13.4700003      -4.62812096E-07
  -13.4600000      -2.77561270E-07
  -13.4499998      -2.33892141E-08
  -13.4399996       2.45356034E-07
  -13.4300003       4.68421433E-07
  -13.4200001       5.94516280E-07
  -13.4099998       5.94716880E-07
  -13.3999996       4.70718305E-07
  -13.3900003       2.55365194E-07
  -13.3800001       4.81089879E-09
  -13.3699999      -2.16091095E-07
  -13.3599997      -3.51566285E-07
  -13.3500004      -3.71110332E-07
  -13.3400002      -2.79400041E-07
  -13.3299999      -1.16610110E-07
  -13.3199997       5.17589314E-08
  -13.3100004       1.53547404E-07
  -13.3000002       1.32511175E-07
  -13.2900000      -3.13439124E-08
  -13.2799997      -3.09821701E-07
  -13.2700005      -6.27446752E-07
  -13.2600002      -8.76589525E-07
  -13.2500000      -9.44380645E-07
  -13.2399998      -7.45460341E-07
  -13.2299995      -2.52303380E-07
  -13.2200003       4.85487874E-07
  -13.2100000       1.33964500E-06
  -13.1999998       2.12232612E-06
  -13.1899996       2.62371123E-06
  -13.1800003       2.66097913E-06
  -13.1700001       2.12783152E-06
  -13.1599998       1.03234993E-06
  -13.1499996      -4.87515990E-07
  -13.1400003      -2.17722231E-06
  -13.1300001      -3.70778730E-06
  -13.1199999      -4.74004264E-06
  -13.1099997      -4.99829275E-06
  -13.1000004      -4.33730156E-06
  -13.0900002      -2.78666676E-06
  -13.0799999      -5.60559613E-07
  -13.0699997       1.97212626E-06
  -13.0600004       4.35343190E-06
  -13.0500002       6.12553185E-06
  -13.0400000       6.92504955E-06
  -13.0299997       6.56181282E-06
  -13.0200005       5.06387096E-06
  -13.0100002       2.67744122E-06
  -13.0000000      -1.79640452E-07
  -12.9899998      -3.00175088E-06
  -12.9799995      -5.29847102E-06
  -12.9700003      -6.69371320E-06
  -12.9600000      -6.99844213E-06
  -12.9499998      -6.24041741E-06
  -12.9399996      -4.64455388E-06
  -12.9300003      -2.56949397E-06
  -12.9200001      -4.16817784E-07
  -12.9099998       1.46382820E-06
  -12.8999996       2.84939460E-06
  -12.8900003       3.67894518E-06
  -12.8800001       4.04157163E-06
  -12.8699999       4.12124155E-06
  -12.8599997       4.11527890E-06
  -12.8500004       4.15107706E-06
  -12.8400002       4.22703897E-06
  -12.8299999       4.19774960E-06
  -12.8199997       3.81146720E-06
  -12.8100004       2.79295887E-06
  -12.8000002       9.50546450E-07
  -12.7900000      -1.72298905E-06
  -12.7799997      -4.98744384E-06
  -12.7700005      -8.35454466E-06
  -12.7600002      -1.11592053E-05
  -12.7500000      -1.26933555E-05
  -12.7399998      -1.23748614E-05
  -12.7299995      -9.91158595E-06
  -12.7200003      -5.41757572E-06
  -12.7100000       5.53701682E-07
  -12.6999998       7.07642994E-06
  -12.6899996       1.30136341E-05
  -12.6800003       1.72422879E-05
  -12.6700001       1.88940849E-05
  -12.6599998       1.75562618E-05
  -12.6499996       1.33828607E-05
  -12.6400003       7.08541029E-06
  -12.6300001      -2.00655805E-07
  -12.6199999      -7.14797397E-06
  -12.6099997      -1.25170254E-05
  -12.6000004      -1.54198133E-05
  -12.5900002      -1.55053986E-05
  -12.5799999      -1.30224616E-05
  -12.5699997      -8.74290799E-06
  -12.5600004      -3.76422850E-06
  -12.5500002       7.61377180E-07
  -12.5400000       3.90406376E-06
  -12.5299997       5.16986211E-06
  -12.5200005       4.59596140E-06
  -12.5100002       2.70238070E-06
  -12.5000000       3.11413800E-07
  -12.4899998      -1.71873023E-06
  -12.4799995      -2.77543518E-06
  -12.4700003      -2.71087197E-06
  -12.4600000      -1.93423102E-06
  -12.4499998      -1.34257095E-06
  -12.4399996      -2.09629411E-06
  -12.4300003      -5.28627515E-06
  -12.4200001      -1.15710609E-05
  -12.4099998      -2.08760885E-05
  -12.3999996      -3.22384221E-05
  -12.3900003      -4.38515453E-05
  -12.3800001      -5.33208695E-05
  -12.3699999      -5.80918240E-05
  -12.3599997      -5.59700893E-05
  -12.3500004      -4.56270063E-05
  -12.3400002      -2.69794091E-05
  -12.3299999      -1.35364201E-06
  -12.3199997       2.86158829E-05
  -12.3100004       5.93500554E-05
  -12.3000002       8.68927091E-05
  -12.2900000       1.07580934E-04
  -12.2799997       1.18691532E-04
  -12.2700005       1.18937656E-04
  -12.2600002       1.08715161E-04
  -12.2500000       9.00447485E-05
  -12.2399998       6.62140519E-05
  -12.2299995       4.11825458E-05
  -12.2200003       1.88595459E-05
  -12.2100000       2.39211340E-06
  -12.1999998      -6.40044891E-06
  -12.1899996      -7.33570823E-06
  -12.1800003      -1.86039756E-06
  -12.1700001       7.27267525E-06
  -12.1599998       1.65795573E-05
  -12.1499996       2.25584954E-05
  -12.1400003       2.24009000E-05
  -12.1300001       1.45603681E-05
  -12.1199999      -9.30472197E-07
  -12.1099997      -2.24537325E-05
  -12.1000004      -4.71064122E-05
  -12.0900002      -7.12414694E-05
  -12.0799999      -9.11384486E-05
  -12.0699997      -1.03670231E-04
  -12.0600004      -1.06838961E-04
  -12.0500002      -1.00086429E-04
  -12.0400000      -8.43339731E-05
  -12.0299997      -6.17634651E-05
  -12.0200005      -3.54005897E-05
  -12.0100002      -8.59496868E-06
  -12.0000000       1.54980899E-05
  -11.9899998       3.43416323E-05
  -11.9799995       4.62849384E-05
  -11.9700003       5.06529468E-05
  -11.9600000       4.76737223E-05
  -11.9499998       3.82897742E-05
  -11.9399996       2.39130404E-05
  -11.9300003       6.18135982E-06
  -11.9200001      -1.32412906E-05
  -11.9099998      -3.28005663E-05
  -11.8999996      -5.11257313E-05
  -11.8900003      -6.70598893E-05
  -11.8800001      -7.96708846E-05
  -11.8699999      -8.82632958E-05
  -11.8599997      -9.24010237E-05
  -11.8500004      -9.19368758E-05
  -11.8400002      -8.70349177E-05
  -11.8299999      -7.81679773E-05
  -11.8199997      -6.60769510E-05
  -11.8100004      -5.16898581E-05
  -11.8000002      -3.60123922E-05
  -11.7900000      -2.00128725E-05
  -11.7799997      -4.52941640E-06
  -11.7700005       9.77814398E-06
  -11.7600002       2.24222094E-05
  -11.7500000       3.30365110E-05
  -11.7399998       4.13068774E-05
  -11.7299995       4.69199003E-05
  -11.7200003       4.95635759E-05
  -11.7100000       4.89982267E-05
  -11.6999998       4.51906417E-05
  -11.6899996       3.84760388E-05
  -11.6800003       2.96907110E-05
  -11.6700001       2.02120336E-05
  -11.6599998       1.18562466E-05
  -11.6499996       6.61851072E-06
  -11.6400003       6.28531916E-06
  -11.6300001       1.19957767E-05
  -11.6199999       2.38598186E-05
  -11.6099997       4.07469161E-05
  -11.6000004       6.03319277E-05
  -11.5900002       7.94291045E-05
  -11.5799999       9.45728752E-05
  -11.5699997       1.02733364E-04
  -11.5600004       1.02006597E-04
  -11.5500002       9.21094907E-05
  -11.5400000       7.45441794E-05
  -11.5299997       5.23701892E-05
  -11.5200005       2.96181079E-05
  -11.5100002       1.04706796E-05
  -11.5000000      -1.59909644E-06
  -11.4899998      -4.52717313E-06
  -11.4799995       1.97306395E-06
  -11.4700003       1.64576286E-05
  -11.4600000       3.61914354E-05
  -11.4499998       5.78553845E-05
  -11.4399996       7.83274736E-05
  -11.4300003       9.53286217E-05
  -11.4200001       1.07766966E-04
  -11.4099998       1.15703770E-04
  -11.3999996       1.19975404E-04
  -11.3900003       1.21607431E-04
  -11.3800001       1.21218094E-04
  -11.3699999       1.18613025E-04
  -11.3599997       1.12715694E-04
  -11.3500004       1.01877711E-04
  -11.3400002       8.44935712E-05
  -11.3299999       5.97445251E-05
  -11.3199997       2.82421661E-05
  -11.3100004      -7.64659944E-06
  -11.3000002      -4.39360192E-05
  -11.2900000      -7.56408408E-05
  -11.2799997      -9.77648233E-05
  -11.2700005      -1.06432148E-04
  -11.2600002      -9.98781397E-05
  -11.2500000      -7.90314152E-05
  -11.2399998      -4.75079833E-05
  -11.2299995      -1.09776993E-05
  -11.2200003       2.39787187E-05
  -11.2100000       5.12697334E-05
  -11.1999998       6.66224223E-05
  -11.1899996       6.85187479E-05
  -11.1800003       5.85032976E-05
  -11.1700001       4.07745320E-05
  -11.1599998       2.11457755E-05
  -11.1499996       5.61676916E-06
  -11.1400003      -1.10546239E-06
  -11.1300001       3.21650214E-06
  -11.1199999       1.77571419E-05
  -11.1099997       3.87593973E-05
  -11.1000004       6.03587832E-05
  -11.0900002       7.59063696E-05
  -11.0799999       7.94851512E-05
  -11.0699997       6.72792739E-05
  -11.0600004       3.85013118E-05
  -11.0500002      -4.30547152E-06
  -11.0400000      -5.56288287E-05
  -11.0299997      -1.07910841E-04
  -11.0200005      -1.52827590E-04
  -11.0100002      -1.82672768E-04
  -11.0000000      -1.91604311E-04
  -10.9899998      -1.76568967E-04
  -10.9799995      -1.37796655E-04
  -10.9700003      -7.88306206E-05
  -10.9600000      -6.11668202E-06
  -10.9499998       7.17905205E-05
  -10.9399996       1.45323735E-04
  -10.9300003       2.05200122E-04
  -10.9200001       2.43786257E-04
  -10.9099998       2.56357482E-04
  -10.8999996       2.42041366E-04
  -10.8900003       2.04224809E-04
  -10.8800001       1.50244639E-04
  -10.8699999       9.02863758E-05
  -10.8599997       3.55777956E-05
  -10.8500004      -3.84761597E-06
  -10.8400002      -2.13771491E-05
  -10.8299999      -1.55105154E-05
  -10.8199997       9.46842738E-06
  -10.8100004       4.41448683E-05
  -10.8000002       7.59617251E-05
  -10.7900000       9.22086983E-05
  -10.7799997       8.33706508E-05
  -10.7700005       4.60191986E-05
  -10.7600002      -1.55461039E-05
  -10.7500000      -8.94627010E-05
  -10.7399998      -1.58419934E-04
  -10.7299995      -2.03377174E-04
  -10.7200003      -2.08094207E-04
  -10.7100000      -1.63409364E-04
  -10.6999998      -7.01840763E-05
  -10.6899996       5.99058949E-05
  -10.6800003       2.06063967E-04
  -10.6700001       3.42284591E-04
  -10.6599998       4.42659890E-04
  -10.6499996       4.86887584E-04
  -10.6400003       4.64705168E-04
  -10.6300001       3.78208497E-04
  -10.6199999       2.41508271E-04
  -10.6099997       7.78093527E-05
  -10.6000004      -8.53949023E-05
  -10.5900002      -2.21888244E-04
  -10.5799999      -3.11784272E-04
  -10.5699997      -3.44959932E-04
  -10.5600004      -3.22192558E-04
  -10.5500002      -2.53900624E-04
  -10.5400000      -1.56957089E-04
  -10.5299997      -5.04678646E-05
  -10.5200005       4.84201701E-05
  -10.5100002       1.27717925E-04
  -10.5000000       1.82169912E-04
  -10.4899998       2.13037143E-04
  -10.4799995       2.26375560E-04
  -10.4700003       2.30435297E-04
  -10.4600000       2.32945589E-04
  -10.4499998       2.38975437E-04
  -10.4399996       2.49816483E-04
  -10.4300003       2.63008260E-04
  -10.4200001       2.73316808E-04
  -10.4099998       2.74270482E-04
  -10.3999996       2.59794411E-04
  -10.3900003       2.25561540E-04
  -10.3800001       1.69845982E-04
  -10.3699999       9.38498415E-05
  -10.3599997       1.61477840E-06
  -10.3500004      -1.00321748E-04
  -10.3400002      -2.03406031E-04
  -10.3299999      -2.97660008E-04
  -10.3199997      -3.72455193E-04
  -10.3100004      -4.17572097E-04
  -10.3000002      -4.24589904E-04
  -10.2900000      -3.88510351E-04
  -10.2799997      -3.09340045E-04
  -10.2700005      -1.93211759E-04
  -10.2600002      -5.25899013E-05
  -10.2500000       9.47788139E-05
  -10.2399998       2.28243152E-04
  -10.2299995       3.27669928E-04
  -10.2200003       3.77278688E-04
  -10.2100000       3.69026791E-04
  -10.1999998       3.04663263E-04
  -10.1899996       1.95799483E-04
  -10.1800003       6.17867263E-05
  -10.1700001      -7.42582997E-05
  -10.1599998      -1.90422958E-04
  -10.1499996      -2.70778692E-04
  -10.1400003      -3.08754854E-04
  -10.1300001      -3.08186951E-04
  -10.1199999      -2.81685614E-04
  -10.1099997      -2.46670446E-04
  -10.1000004      -2.20055197E-04
  -10.0900002      -2.12977669E-04
  -10.0799999      -2.27019031E-04
  -10.0699997      -2.53016246E-04
  -10.0600004      -2.72921607E-04
  -10.0500002      -2.64362752E-04
  -10.0400000      -2.06821365E-04
  -10.0299997      -8.78727369E-05
  -10.0200005       9.21481696E-05
  -10.0100002       3.18343315E-04
  -10.0000000       5.62909932E-04
  -9.98999977       7.90006015E-04
  -9.97999954       9.62769263E-04
  -9.97000027       1.05089566E-03
  -9.96000004       1.03704433E-03
  -9.94999981       9.20619059E-04
  -9.93999958       7.18112511E-04
  -9.93000031       4.60005307E-04
  -9.92000008       1.84995253E-04
  -9.90999985      -6.71138987E-05
  -9.89999962      -2.62322981E-04
  -9.89000034      -3.77768971E-04
  -9.88000011      -4.04563878E-04
  -9.86999989      -3.47853289E-04
  -9.85999966      -2.24418953E-04
  -9.85000038      -5.86072201E-05
  -9.84000015       1.22424899E-04
  -9.82999992       2.93200224E-04
  -9.81999969       4.33441804E-04
  -9.81000042       5.30249032E-04
  -9.80000019       5.78872045E-04
  -9.78999996       5.82253677E-04
  -9.77999973       5.49614604E-04
  -9.77000046       4.94373846E-04
  -9.76000023       4.31669003E-04
  -9.75000000       3.75728821E-04
  -9.73999977       3.37381760E-04
  -9.72999954       3.22043401E-04
  -9.72000027       3.28570313E-04
  -9.71000004       3.49329785E-04
  -9.69999981       3.71676317E-04
  -9.68999958       3.80740647E-04
  -9.68000031       3.63084866E-04
  -9.67000008       3.10459553E-04
  -9.65999985       2.22727962E-04
  -9.64999962       1.09092216E-04
  -9.64000034      -1.29140217E-05
  -9.63000011      -1.20666678E-04
  -9.61999989      -1.91324099E-04
  -9.60999966      -2.07230070E-04
  -9.60000038      -1.60509851E-04
  -9.59000015      -5.56391860E-05
  -9.57999992       9.07687936E-05
  -9.56999969       2.53018894E-04
  -9.56000042       4.01557365E-04
  -9.55000019       5.09119709E-04
  -9.53999996       5.56321233E-04
  -9.52999973       5.35370025E-04
  -9.52000046       4.51091852E-04
  -9.51000023       3.19161074E-04
  -9.50000000       1.62136319E-04
  -9.48999977       4.39687074E-06
  -9.47999954      -1.32750007E-04
  -9.47000027      -2.34694700E-04
  -9.46000004      -2.95228732E-04
  -9.44999981      -3.16226011E-04
  -9.43999958      -3.05700669E-04
  -9.43000031      -2.74953491E-04
  -9.42000008      -2.35588886E-04
  -9.40999985      -1.97041765E-04
  -9.39999962      -1.64985802E-04
  -9.39000034      -1.40715594E-04
  -9.38000011      -1.21393699E-04
  -9.36999989      -1.00966216E-04
  -9.35999966      -7.15551651E-05
  -9.35000038      -2.51740712E-05
  -9.34000015       4.43805329E-05
  -9.32999992       1.39665601E-04
  -9.31999969       2.58065207E-04
  -9.31000042       3.91001347E-04
  -9.30000019       5.24280127E-04
  -9.28999996       6.39817736E-04
  -9.27999973       7.18687545E-04
  -9.27000046       7.45031983E-04
  -9.26000023       7.10026012E-04
  -9.25000000       6.14882912E-04
  -9.23999977       4.71974723E-04
  -9.22999954       3.03507433E-04
  -9.22000027       1.37785537E-04
  -9.21000004       3.75411992E-06
  -9.19999981      -7.49672618E-05
  -9.18999958      -8.51168152E-05
  -9.18000031      -2.66093048E-05
  -9.17000008       8.76139020E-05
  -9.15999985       2.34708801E-04
  -9.14999962       3.87262407E-04
  -9.14000034       5.19502501E-04
  -9.13000011       6.12839009E-04
  -9.11999989       6.59399549E-04
  -9.10999966       6.62775245E-04
  -9.10000038       6.35938952E-04
  -9.09000015       5.97015023E-04
  -9.07999992       5.64092712E-04
  -9.06999969       5.50439989E-04
  -9.06000042       5.61288383E-04
  -9.05000019       5.92884142E-04
  -9.03999996       6.33892545E-04
  -9.02999973       6.68661261E-04
  -9.02000046       6.81438367E-04
  -9.01000023       6.60485413E-04
  -9.00000000       6.01129839E-04
  -8.98999977       5.07115969E-04
  -8.97999954       3.90036119E-04
  -8.97000027       2.67055468E-04
  -8.96000004       1.57489558E-04
  -8.94999981       7.89942205E-05
  -8.93999958       4.41616467E-05
  -8.93000031       5.81917993E-05
  -8.92000008       1.18061420E-04
  -8.90999985       2.13298525E-04
  -8.89999962       3.28142662E-04
  -8.89000034       4.44598467E-04
  -8.88000011       5.45723480E-04
  -8.86999989       6.18463382E-04
  -8.85999966       6.55474025E-04
  -8.85000038       6.55618613E-04
  -8.84000015       6.23149332E-04
  -8.82999992       5.65891387E-04
  -8.81999969       4.92970576E-04
  -8.81000042       4.12698486E-04
  -8.80000019       3.31135787E-04
  -8.78999996       2.51620106E-04
  -8.77999973       1.75240057E-04
  -8.77000046       1.01960242E-04
  -8.76000023       3.19278879E-05
  -8.75000000      -3.35203949E-05
  -8.73999977      -9.14896445E-05
  -8.72999954      -1.37887575E-04
  -8.72000027      -1.68343540E-04
  -8.71000004      -1.79325551E-04
  -8.69999981      -1.69046019E-04
  -8.68999958      -1.37850671E-04
  -8.68000031      -8.79938889E-05
  -8.67000008      -2.29447178E-05
  -8.65999985       5.34579194E-05
  -8.64999962       1.37637442E-04
  -8.64000034       2.26443037E-04
  -8.63000011       3.16806341E-04
  -8.61999989       4.05096536E-04
  -8.60999966       4.86550503E-04
  -8.60000038       5.55177394E-04
  -8.59000015       6.04390167E-04
  -8.57999992       6.28339825E-04
  -8.56999969       6.23617379E-04
  -8.56000042       5.90766955E-04
  -8.55000019       5.35010477E-04
  -8.53999996       4.65767662E-04
  -8.52999973       3.94917617E-04
  -8.52000046       3.34180717E-04
  -8.51000023       2.92352779E-04
  -8.50000000       2.73261714E-04
  -8.48999977       2.75163940E-04
  -8.47999954       2.91876320E-04
  -8.47000027       3.15368525E-04
  -8.46000004       3.39010498E-04
  -8.44999981       3.60367325E-04
  -8.43999958       3.82491504E-04
  -8.43000031       4.13097499E-04
  -8.42000008       4.61700634E-04
  -8.40999985       5.35548665E-04
  -8.39999962       6.35701639E-04
  -8.39000034       7.54724722E-04
  -8.38000011       8.77058890E-04
  -8.36999989       9.82316560E-04
  -8.35999966       1.05075969E-03
  -8.35000038       1.06936996E-03
  -8.34000015       1.03654049E-03
  -8.32999992       9.63669212E-04
  -8.31999969       8.72808683E-04
  -8.31000042       7.90763705E-04
  -8.30000019       7.41243886E-04
  -8.28999996       7.37460970E-04
  -8.27999973       7.77601381E-04
  -8.27000046       8.44831986E-04
  -8.26000023       9.12112126E-04
  -8.25000000       9.50523943E-04
  -8.23999977       9.38606740E-04
  -8.22999954       8.69725423E-04
  -8.22000027       7.55014247E-04
  -8.21000004       6.20794017E-04
  -8.19999981       5.01135364E-04
  -8.18999958       4.27850493E-04
  -8.18000031       4.21081815E-04
  -8.17000008       4.83504962E-04
  -8.15999985       5.99981984E-04
  -8.14999962       7.42694829E-04
  -8.14000034       8.79958156E-04
  -8.13000011       9.85694816E-04
  -8.11999989       1.04639342E-03
  -8.10999966       1.06331508E-03
  -8.10000038       1.04944489E-03
  -8.09000015       1.02258113E-03
  -8.07999992       9.97319701E-04
  -8.06999969       9.79042146E-04
  -8.06000042       9.62198537E-04
  -8.05000019       9.33498784E-04
  -8.03999996       8.78716120E-04
  -8.02999973       7.90366204E-04
  -8.02000046       6.73125440E-04
  -8.01000023       5.44658222E-04
  -8.00000000       4.31245455E-04
  -7.98999977       3.59609141E-04
  -7.98000002       3.47855035E-04
  -7.96999979       3.98901379E-04
  -7.96000004       4.98935115E-04
  -7.94999981       6.21618179E-04
  -7.94000006       7.36635353E-04
  -7.92999983       8.19527195E-04
  -7.92000008       8.59234598E-04
  -7.90999985       8.60612141E-04
  -7.90000010       8.41051165E-04
  -7.88999987       8.22591421E-04
  -7.88000011       8.22625472E-04
  -7.86999989       8.46847659E-04
  -7.86000013       8.87239701E-04
  -7.84999990       9.25909728E-04
  -7.84000015       9.43276391E-04
  -7.82999992       9.27312241E-04
  -7.82000017       8.80047330E-04
  -7.80999994       8.18503322E-04
  -7.80000019       7.69361563E-04
  -7.78999996       7.59150193E-04
  -7.78000021       8.03604606E-04
  -7.76999998       9.00362385E-04
  -7.76000023       1.02805230E-03
  -7.75000000       1.15250959E-03
  -7.73999977       1.23814715E-03
  -7.73000002       1.26047304E-03
  -7.71999979       1.21517049E-03
  -7.71000004       1.12029933E-03
  -7.69999981       1.01065391E-03
  -7.69000006       9.26197157E-04
  -7.67999983       8.98709230E-04
  -7.67000008       9.41468461E-04
  -7.65999985       1.04567467E-03
  -7.65000010       1.18480786E-03
  -7.63999987       1.32514210E-03
  -7.63000011       1.43834227E-03
  -7.61999989       1.51132629E-03
  -7.61000013       1.54967199E-03
  -7.59999990       1.57338334E-03
  -7.59000015       1.60681317E-03
  -7.57999992       1.66683423E-03
  -7.57000017       1.75405922E-03
  -7.55999994       1.85075146E-03
  -7.55000019       1.92647905E-03
  -7.53999996       1.94952462E-03
  -7.53000021       1.89975777E-03
  -7.51999998       1.77801074E-03
  -7.51000023       1.60821632E-03
  -7.50000000       1.43123697E-03
  -7.48999977       1.29242311E-03
  -7.48000002       1.22729281E-03
  -7.46999979       1.25043537E-03
  -7.46000004       1.35155965E-03
  -7.44999981       1.49995182E-03
  -7.44000006       1.65554450E-03