  -16.0000000       0.00000000    
  -15.9899998       0.00000000    
  -15.9799995       0.00000000    
  -15.9700003       0.00000000    
  -15.9600000       0.00000000    
  -15.9499998       0.00000000    
  -15.9399996       0.00000000    
  -15.9300003       0.00000000    
  -15.9200001       0.00000000    
  -15.9099998       0.00000000    
  -15.8999996      -7.53478184E-42
  -15.8900003      -1.58656554E-39
  -15.8800001      -4.70899230E-38
  -15.8699999      -6.84534748E-37
  -15.8599997      -6.41070739E-36
  -15.8500004      -4.36427102E-35
  -15.8400002      -2.30465701E-34
  -15.8299999      -9.79531912E-34
  -15.8199997      -3.41314446E-33
  -15.8100004      -9.75733192E-33
  -15.8000002      -2.22602616E-32
  -15.7900000      -3.62999033E-32
  -15.7799997      -1.90789507E-32
  -15.7700005       1.36273849E-31
  -15.7600002       6.78670770E-31
  -15.7500000       2.03964746E-30
  -15.7399998       4.69753761E-30
  -15.7299995       8.57681303E-30
  -15.7200003       1.16090603E-29
  -15.7100000       7.27579996E-30
  -15.6999998      -1.82273516E-29
  -15.6899996      -8.68050450E-29
  -15.6800003      -2.22248849E-28
  -15.6700001      -4.29659274E-28
  -15.6599998      -6.53907190E-28
  -15.6499996      -7.18966452E-28
  -15.6400003      -2.71157431E-28
  -15.6300001       1.21516482E-27
  -15.6199999       4.27071768E-27
  -15.6099997       8.98917170E-27
  -15.6000004       1.42596100E-26
  -15.5900002       1.68314829E-26
  -15.5799999       1.07528821E-26
  -15.5699997      -1.18063026E-26
  -15.5600004      -5.70719911E-26
  -15.5500002      -1.22721464E-25
  -15.5400000      -1.88464898E-25
  -15.5299997      -2.08433716E-25
  -15.5200005      -1.13538408E-25
  -15.5100002       1.66133416E-25
  -15.5000000       6.52811587E-25
  -15.4899998       1.25373240E-24
  -15.4799995       1.70444522E-24
  -15.4700003       1.57438503E-24
  -15.4600000       3.90836328E-25
  -15.4499998      -2.09709343E-24
  -15.4399996      -5.57606134E-24
  -15.4300003      -8.91906650E-24
  -15.4200001      -1.02710234E-23
  -15.4099998      -7.64794810E-24
  -15.3999996       3.50951305E-26
  -15.3900003       1.20031356E-23
  -15.3800001       2.55382926E-23
  -15.3699999       3.74020602E-23
  -15.3599997       4.63686161E-23
  -15.3500004       5.47400680E-23
  -15.3400002       6.52630812E-23
  -15.3299999       7.05937235E-23
  -15.3199997       3.73597488E-23
  -15.3100004      -1.03757221E-22
  -15.3000002      -4.40343268E-22
  -15.2900000      -1.00938522E-21
  -15.2799997      -1.67187237E-21
  -15.2700005      -1.97227888E-21
  -15.2600002      -1.09240257E-21
  -15.2500000       1.93531344E-21
  -15.2399998       7.60795249E-21
  -15.2299995       1.49394053E-20
  -15.2200003       2.04008395E-20
  -15.2100000       1.75906193E-20
  -15.1999998      -1.28899842E-21
  -15.1899996      -4.12606155E-20
  -15.1800003      -9.78611404E-20
  -15.1700001      -1.50043545E-19
  -15.1599998      -1.57307664E-19
  -15.1499996      -6.73336457E-20
  -15.1400003       1.60677081E-19
  -15.1300001       5.17366732E-19
  -15.1199999       9.00291695E-19
  -15.1099997       1.09074827E-18
  -15.1000004       7.83586178E-19
  -15.0900002      -3.00757933E-19
  -15.0799999      -2.21882162E-18
  -15.0699997      -4.56859711E-18
  -15.0600004      -6.32740146E-18
  -15.0500002      -5.92431097E-18
  -15.0400000      -1.70160141E-18
  -15.0299997       7.18488253E-18
  -15.0200005       1.95945224E-17
  -15.0100002       3.14203530E-17
  -15.0000000       3.55119357E-17
  -14.9899998       2.32587389E-17
  -14.9799995      -1.17661835E-17
  -14.9700003      -6.85503897E-17
  -14.9600000      -1.33450742E-16
  -14.9499998      -1.77948427E-16
  -14.9399996      -1.62739275E-16
  -14.9300003      -5.05870013E-17
  -14.9200001       1.72568550E-16
  -14.9099998       4.73471724E-16
  -14.8999996       7.54820176E-16
  -14.8900003       8.59720230E-16
  -14.8800001       6.09578113E-16
  -14.8699999      -1.21121463E-16
  -14.8599997      -1.30602200E-15
  -14.8500004      -2.67740360E-15
  -14.8400002      -3.69626671E-15
  -14.8299999      -3.63514142E-15
  -14.8199997      -1.80542976E-15
  -14.8100004       2.08889971E-15
  -14.8000002       7.56125899E-15
  -14.7900000       1.30782692E-14
  -14.7799997       1.61222828E-14
  -14.7700005       1.37484196E-14
  -14.7600002       3.67342138E-15
  -14.7500000      -1.42894102E-14
  -14.7399998      -3.69001298E-14
  -14.7299995      -5.69273022E-14
  -14.7200003      -6.40367886E-14
  -14.7100000      -4.75574915E-14
  -14.6999998      -9.49378985E-16
  -14.6899996       7.30438252E-14
  -14.6800003       1.58421223E-13
  -14.6700001       2.25475942E-13
  -14.6599998       2.35936162E-13
  -14.6499996       1.54452108E-13
  -14.6400003      -3.51118603E-14
  -14.6300001      -3.12922133E-13
  -14.6199999      -6.12675004E-13
  -14.6099997      -8.24814880E-13
  -14.6000004      -8.18962845E-13
  -14.5900002      -4.85875663E-13
  -14.5799999       2.08505129E-13
  -14.5699997       1.17274398E-12
  -14.5600004       2.16510035E-12
  -14.5500002       2.81594648E-12
  -14.5400000       2.71050413E-12
  -14.5299997       1.52732406E-12
  -14.5200005      -7.95746336E-13
  -14.5100002      -3.91946545E-12
  -14.5000000      -7.04962477E-12
  -14.4899998      -9.03092445E-12
  -14.4799995      -8.61668202E-12
  -14.4700003      -4.88877168E-12
  -14.4600000       2.26440026E-12
  -14.4499998       1.17635693E-11
  -14.4399996       2.12268675E-11
  -14.4300003       2.72820690E-11
  -14.4200001       2.63606428E-11
  -14.4099998       1.58806492E-11
  -14.3999996      -4.44960648E-12
  -14.3900003      -3.16207477E-11
  -14.3800001      -5.90709773E-11
  -14.3699999      -7.75689860E-11
  -14.3599997      -7.73490716E-11
  -14.3500004      -5.12263947E-11
  -14.3400002       2.01442834E-12
  -14.3299999       7.50086521E-11
  -14.3199997       1.51134910E-10
  -14.3100004       2.06677980E-10
  -14.3000002       2.16095877E-10
  -14.2900000       1.59712743E-10
  -14.2799997       3.21329005E-11
  -14.2700005      -1.51127680E-10
  -14.2600002      -3.51527363E-10
  -14.2500000      -5.12052178E-10
  -14.2399998      -5.69120362E-10
  -14.2299995      -4.70386452E-10
  -14.2200003      -1.94670460E-10
  -14.2100000       2.31582475E-10
  -14.1999998       7.27497507E-10
  -14.1899996       1.16563326E-09
  -14.1800003       1.39644929E-09
  -14.1700001       1.28676325E-09
  -14.1599998       7.64562191E-10
  -14.1499996      -1.41548231E-10
  -14.1400003      -1.28160249E-09
  -14.1300001      -2.39362885E-09
  -14.1199999      -3.14858450E-09
  -14.1099997      -3.22726912E-09
  -14.1000004      -2.41524978E-09
  -14.0900002      -6.92912616E-10
  -14.0799999       1.70667003E-09
  -14.0699997       4.29696856E-09
  -14.0600004       6.40900799E-09
  -14.0500002       7.33192262E-09
  -14.0400000       6.50047571E-09
  -14.0299997       3.68827235E-09
  -14.0200005      -8.45986781E-10
  -14.0100002      -6.31099839E-09
  -14.0000000      -1.14703207E-08
  -13.9899998      -1.48718931E-08
  -13.9799995      -1.51891140E-08
  -13.9700003      -1.16056702E-08
  -13.9600000      -4.14952028E-09
  -13.9499998       6.12510620E-09
  -13.9399996       1.71892953E-08
  -13.9300003       2.63604658E-08
  -13.9200001       3.08639017E-08
  -13.9099998       2.85358404E-08
  -13.8999996       1.85115958E-08
  -13.8900003       1.71506609E-09
  -13.8800001      -1.90176479E-08
  -13.8699999      -3.92840249E-08
  -13.8599997      -5.39307159E-08
  -13.8500004      -5.82169513E-08
  -13.8400002      -4.90907581E-08
  -13.8299999      -2.62710476E-08
  -13.8199997       7.17642612E-09
  -13.8100004       4.50060114E-08
  -13.8000002       7.87892205E-08
  -13.7900000       9.96314569E-08
  -13.7799997       1.00295381E-07
  -13.7700005       7.72625484E-08
  -13.7600002       3.22040705E-08
  -13.7500000      -2.76036864E-08
  -13.7399998      -9.01882089E-08
  -13.7299995      -1.41091320E-07
  -13.7200003      -1.66525581E-07
  -13.7100000      -1.56829387E-07
  -13.6999998      -1.09403416E-07
  -13.6899996      -3.03239105E-08
  -13.6800003       6.59535075E-08
  -13.6700001       1.58987220E-07
  -13.6599998       2.26528059E-07
  -13.6499996       2.49680681E-07
  -13.6400003       2.17894240E-07
  -13.6300001       1.32522246E-07
  -13.6199999       7.88996690E-09
  -13.6099997      -1.30699746E-07
  -13.6000004      -2.51894079E-07
  -13.5900002      -3.25271657E-07
  -13.5799999      -3.28878116E-07
  -13.5699997      -2.55500282E-07
  -13.5600004      -1.15970558E-07
  -13.5500002       6.16567633E-08
  -13.5400000       2.37307702E-07
  -13.5299997       3.67644361E-07
  -13.5200005       4.16561420E-07
  -13.5100002       3.64969821E-07
  -13.5000000       2.17323475E-07
  -13.4899998       2.88742785E-09
  -13.4799995      -2.29142685E-07
  -13.4700003      -4.20101941E-07
  -13.4600000      -5.15855447E-07
  -13.4499998      -4.81172890E-07
  -13.4399996      -3.10872252E-07
  -13.4300003      -3.45488580E-08
  -13.4200001       2.87025330E-07
  -13.4099998       5.73853583E-07
  -13.3999996       7.44936528E-07
  -13.3900003       7.38872643E-07
  -13.3800001       5.31919454E-07
  -13.3699999       1.48689196E-07
  -13.3599997      -3.38034511E-07
  -13.3500004      -8.19544823E-07
  -13.3400002      -1.17383581E-06
  -13.3299999      -1.29415753E-06
  -13.3199997      -1.11711097E-06
  -13.3100004      -6.43324370E-07
  -13.3000002       5.51486821E-08
  -13.2900000       8.43922805E-07
  -13.2799997       1.55136888E-06
  -13.2700005       2.00524528E-06
  -13.2600002       2.07317407E-06
  -13.2500000       1.69759210E-06
  -13.2399998       9.16265492E-07
  -13.2299995      -1.37850932E-07
  -13.2200003      -1.25918291E-06
  -13.2100000      -2.21102664E-06
  -13.1999998      -2.77756931E-06
  -13.1899996      -2.81480857E-06
  -13.1800003      -2.28808722E-06
  -13.1700001      -1.28625970E-06
  -13.1599998      -7.46602424E-09
  -13.1499996       1.28191982E-06
  -13.1400003       2.30689102E-06
  -13.1300001       2.84850330E-06
  -13.1199999       2.79800042E-06
  -13.1099997       2.18625246E-06
  -13.1000004       1.17962281E-06
  -13.0900002       4.12544274E-08
  -13.0799999      -9.34477725E-07
  -13.0699997      -1.49913717E-06
  -13.0600004      -1.51963957E-06
  -13.0500002      -1.02100682E-06
  -13.0400000      -1.88965828E-07
  -13.0299997       6.71736132E-07
  -13.0200005       1.21613903E-06
  -13.0100002       1.15737305E-06
  -13.0000000       3.59946654E-07
  -12.9899998      -1.09768848E-06
  -12.9799995      -2.91166634E-06
  -12.9700003      -4.60155252E-06
  -12.9600000      -5.61407887E-06
  -12.9499998      -5.46153979E-06
  -12.9399996      -3.86342663E-06
  -12.9300003      -8.55461735E-07
  -12.9200001       3.16568776E-06
  -12.9099998       7.48123193E-06
  -12.8999996       1.11733225E-05
  -12.8900003       1.33124495E-05
  -12.8800001       1.31715133E-05
  -12.8699999       1.04185719E-05
  -12.8599997       5.24054713E-06
  -12.8500004      -1.63802031E-06
  -12.8400002      -9.05567595E-06
  -12.8299999      -1.56219885E-05
  -12.8199997      -1.99944352E-05
  -12.8100004      -2.11668812E-05
  -12.8000002      -1.87052428E-05
  -12.7900000      -1.28735001E-05
  -12.7799997      -4.61473292E-06
  -12.7700005       4.61705758E-06
  -12.7600002       1.31442512E-05
  -12.7500000       1.94128006E-05
  -12.7399998       2.23229727E-05
  -12.7299995       2.14672691E-05
  -12.7200003       1.72172695E-05
  -12.7100000       1.06339521E-05
  -12.6999998       3.21683046E-06
  -12.6899996      -3.45351282E-06
  -12.6800003      -8.09675839E-06
  -12.6700001      -1.00455309E-05
  -12.6599998      -9.40916834E-06
  -12.6499996      -7.04088461E-06
  -12.6400003      -4.30674618E-06
  -12.6300001      -2.70434748E-06
  -12.6199999      -3.41985651E-06
  -12.6099997      -6.93383754E-06
  -12.6000004      -1.27822896E-05
  -12.5900002      -1.95489338E-05
  -12.5799999      -2.51134243E-05
  -12.5699997      -2.71189019E-05
  -12.5600004      -2.35650750E-05
  -12.5500002      -1.33939593E-05
  -12.5400000       3.07493019E-06
  -12.5299997       2.39802648E-05
  -12.5200005       4.60927513E-05
  -12.5100002       6.53216339E-05
  -12.5000000       7.74713917E-05
  -12.4899998       7.91027924E-05
  -12.4799995       6.83179314E-05
  -12.4700003       4.52929671E-05
  -12.4600000       1.24264006E-05
  -12.4499998      -2.59531789E-05
  -12.4399996      -6.42833475E-05
  -12.4300003      -9.67424785E-05
  -12.4200001      -1.18311786E-04
  -12.4099998      -1.25708291E-04
  -12.3999996      -1.17992808E-04
  -12.3900003      -9.67221204E-05
  -12.3800001      -6.56098491E-05
  -12.3699999      -2.97658571E-05
  -12.3599997       5.32367721E-06
  -12.3500004       3.48558460E-05
  -12.3400002       5.55815495E-05
  -12.3299999       6.63006140E-05
  -12.3199997       6.78803408E-05
  -12.3100004       6.28059643E-05
  -12.3000002       5.43798997E-05
  -12.2900000       4.57695314E-05
  -12.2799997       3.91396643E-05
  -12.2700005       3.50871633E-05
  -12.2600002       3.25237415E-05
  -12.2500000       2.90448825E-05
  -12.2399998       2.17026209E-05
  -12.2299995       7.99583904E-06
  -12.2200003      -1.31706920E-05
  -12.2100000      -4.08119886E-05
  -12.1999998      -7.16702925E-05
  -12.1899996      -1.00594945E-04
  -12.1800003      -1.21452445E-04
  -12.1700001      -1.28394793E-04
  -12.1599998      -1.17218900E-04
  -12.1499996      -8.65119946E-05
  -12.1400003      -3.83083207E-05
  -12.1300001       2.19225894E-05
  -12.1199999       8.59972570E-05
  -12.1099997       1.44336489E-04
  -12.1000004       1.87634563E-04
  -12.0900002       2.08549929E-04
  -12.0799999       2.03075208E-04
  -12.0699997       1.71304520E-04
  -12.0600004       1.17439762E-04
  -12.0500002       4.90344246E-05
  -12.0400000      -2.43673985E-05
  -12.0299997      -9.29158268E-05
  -12.0200005      -1.48120642E-04
  -12.0100002      -1.84167104E-04
  -12.0000000      -1.98636480E-04
  -11.9899998      -1.92521518E-04
  -11.9799995      -1.69583567E-04
  -11.9700003      -1.35238617E-04
  -11.9600000      -9.52537812E-05
  -11.9499998      -5.45616349E-05
  -11.9399996      -1.64550183E-05
  -11.9300003       1.76806952E-05
  -11.9200001       4.80791350E-05
  -11.9099998       7.58683163E-05
  -11.8999996       1.02135702E-04
  -11.8900003       1.27056584E-04
  -11.8800001       1.49339365E-04
  -11.8699999       1.66157435E-04
  -11.8599997       1.73612192E-04
  -11.8500004       1.67633902E-04
  -11.8400002       1.45110767E-04
  -11.8299999       1.04969724E-04
  -11.8199997       4.89301601E-05
  -11.8100004      -1.82825115E-05
  -11.8000002      -8.93609613E-05
  -11.7900000      -1.55432761E-04
  -11.7799997      -2.07490259E-04
  -11.7700005      -2.37956687E-04
  -11.7600002      -2.42073409E-04
  -11.7500000      -2.18823887E-04
  -11.7399998      -1.71200983E-04
  -11.7299995      -1.05756691E-04
  -11.7200003      -3.15184661E-05
  -11.7100000       4.15183276E-05
  -11.6999998       1.04031067E-04
  -11.6899996       1.48833482E-04
  -11.6800003       1.71896201E-04
  -11.6700001       1.72755012E-04
  -11.6599998       1.54264606E-04
  -11.6499996       1.21786601E-04
  -11.6400003       8.20058413E-05
  -11.6300001       4.16308067E-05
  -11.6199999       6.23831784E-06
  -11.6099997      -2.05255128E-05
  -11.6000004      -3.72659379E-05
  -11.5900002      -4.46686936E-05
  -11.5799999      -4.49286890E-05
  -11.5699997      -4.09467430E-05
  -11.5600004      -3.54983895E-05
  -11.5500002      -3.05668837E-05
  -11.5400000      -2.69792217E-05
  -11.5299997      -2.44027415E-05
  -11.5200005      -2.16711069E-05
  -11.5100002      -1.73318676E-05
  -11.5000000      -1.02604763E-05
  -11.4899998      -1.76545157E-07
  -11.4799995       1.20723544E-05
  -11.4700003       2.45343344E-05
  -11.4600000       3.44843029E-05
  -11.4499998       3.89898123E-05
  -11.4399996       3.55847769E-05
  -11.4300003       2.29000070E-05
  -11.4200001       1.10927954E-06
  -11.4099998      -2.79099841E-05
  -11.3999996      -6.07418151E-05
  -11.3900003      -9.28959707E-05
  -11.3800001      -1.19486271E-04
  -11.3699999      -1.35999013E-04
  -11.3599997      -1.39015392E-04
  -11.3500004      -1.26766347E-04
  -11.3400002      -9.94343936E-05
  -11.3299999      -5.91653661E-05
  -11.3199997      -9.80262121E-06
  -11.3100004       4.36020055E-05
  -11.3000002       9.54187708E-05
  -11.2900000       1.40120188E-04
  -11.2799997       1.72923115E-04
  -11.2700005       1.90320396E-04
  -11.2600002       1.90450723E-04
  -11.2500000       1.73276523E-04
  -11.2399998       1.40559510E-04
  -11.2299995       9.56404692E-05
  -11.2200003       4.30455948E-05
  -11.2100000      -1.20428194E-05
  -11.1999998      -6.43974126E-05
  -11.1899996      -1.09369168E-04
  -11.1800003      -1.43442943E-04
  -11.1700001      -1.64642333E-04
  -11.1599998      -1.72712709E-04
  -11.1499996      -1.69037870E-04
  -11.1400003      -1.56287409E-04
  -11.1300001      -1.37842042E-04
  -11.1199999      -1.17092641E-04
  -11.1099997      -9.67452725E-05
  -11.1000004      -7.82767966E-05
  -11.0900002      -6.16674661E-05
  -11.0799999      -4.54879737E-05
  -11.0699997      -2.73458754E-05
  -11.0600004      -4.61495438E-06
  -11.0500002       2.47019379E-05
  -11.0400000       6.11706564E-05
  -11.0299997       1.03382474E-04
  -11.0200005       1.47825704E-04
  -11.0100002       1.89246173E-04
  -11.0000000       2.21463735E-04
  -10.9899998       2.38504625E-04
  -10.9799995       2.35826112E-04
  -10.9700003       2.11372404E-04
  -10.9600000       1.66219819E-04
  -10.9499998       1.04644896E-04
  -10.9399996       3.35655641E-05
  -10.9300003      -3.85604981E-05
  -10.9200001      -1.03176273E-04
  -10.9099998      -1.53120869E-04
  -10.8999996      -1.83876618E-04
  -10.8900003      -1.94310618E-04
  -10.8800001      -1.86755977E-04
  -10.8699999      -1.66414902E-04
  -10.8599997      -1.40206510E-04
  -10.8500004      -1.15297073E-04
  -10.8400002      -9.76136580E-05
  -10.8299999      -9.06411151E-05
  -10.8199997      -9.47395820E-05
  -10.8100004      -1.07108892E-04
  -10.8000002      -1.22393671E-04
  -10.7900000      -1.33796362E-04
  -10.7799997      -1.34471033E-04
  -10.7700005      -1.18925520E-04
  -10.7600002      -8.41701913E-05
  -10.7500000      -3.04102450E-05
  -10.7399998       3.88275512E-05
  -10.7299995       1.17137053E-04
  -10.7200003       1.96148874E-04
  -10.7100000       2.66751973E-04
  -10.6999998       3.20413877E-04
  -10.6899996       3.50391027E-04
  -10.6800003       3.52652627E-04
  -10.6700001       3.26395879E-04
  -10.6599998       2.74097751E-04
  -10.6499996       2.01117626E-04
  -10.6400003       1.14926384E-04
  -10.6300001       2.40845256E-05
  -10.6199999      -6.28788548E-05
  -10.6099997      -1.38526724E-04
  -10.6000004      -1.97368150E-04
  -10.5900002      -2.36392298E-04
  -10.5799999      -2.55218853E-04
  -10.5699997      -2.55860126E-04
  -10.5600004      -2.42151422E-04
  -10.5500002      -2.18958317E-04
  -10.5400000      -1.91303858E-04
  -10.5299997      -1.63567252E-04
  -10.5200005      -1.38886549E-04
  -10.5100002      -1.18852571E-04
  -10.5000000      -1.03520622E-04
  -10.4899998      -9.17021098E-05
  -10.4799995      -8.14442101E-05
  -10.4700003      -7.05752245E-05
  -10.4600000      -5.71919809E-05
  -10.4499998      -3.99939963E-05
  -10.4399996      -1.84183300E-05
  -10.4300003       7.41375743E-06
  -10.4200001       3.68773544E-05
  -10.4099998       6.90620800E-05
  -10.3999996       1.02937665E-04
  -10.3900003       1.37404786E-04
  -10.3800001       1.71216452E-04
  -10.3699999       2.02808893E-04
  -10.3599997       2.30124409E-04
  -10.3500004       2.50527635E-04
  -10.3400002       2.60905013E-04
  -10.3299999       2.57994194E-04
  -10.3199997       2.38926659E-04
  -10.3100004       2.01898976E-04
  -10.3000002       1.46831546E-04
  -10.2900000       7.58503156E-05
  -10.2799997      -6.56038719E-06
  -10.2700005      -9.38309968E-05
  -10.2600002      -1.78019240E-04
  -10.2500000      -2.50878365E-04
  -10.2399998      -3.05110123E-04
  -10.2299995      -3.35574267E-04
  -10.2200003      -3.40214639E-04
  -10.2100000      -3.20501451E-04
  -10.1999998      -2.81273708E-04
  -10.1899996      -2.29979603E-04
  -10.1800003      -1.75431749E-04
  -10.1700001      -1.26294239E-04
  -10.1599998      -8.95762496E-05
  -10.1499996      -6.94118862E-05
  -10.1400003      -6.63542742E-05
  -10.1300001      -7.73159481E-05
  -10.1199999      -9.61662663E-05
  -10.1099997      -1.14875220E-04
  -10.1000004      -1.24995247E-04
  -10.0900002      -1.19216995E-04
  -10.0799999      -9.27295405E-05
  -10.0699997      -4.41580523E-05
  -10.0600004       2.40682657E-05
  -10.0500002       1.05966261E-04
  -10.0400000       1.92814972E-04
  -10.0299997       2.74401275E-04
  -10.0200005       3.40500177E-04
  -10.0100002       3.82368074E-04
  -10.0000000       3.94032162E-04
  -9.98999977       3.73191579E-04
  -9.97999954       3.21599946E-04
  -9.97000027       2.44869298E-04
  -9.96000004       1.51714470E-04
  -9.94999981       5.27368429E-05
  -9.93999958      -4.10820830E-05
  -9.93000031      -1.19954238E-04
  -9.92000008      -1.76681264E-04
  -9.90999985      -2.07645615E-04
  -9.89999962      -2.13226318E-04
  -9.89000034      -1.97563189E-04
  -9.88000011      -1.67707069E-04
  -9.86999989      -1.32308254E-04
  -9.85999966      -1.00083016E-04
  -9.85000038      -7.83415162E-05
  -9.84000015      -7.18447700E-05
  -9.82999992      -8.21873909E-05
  -9.81999969      -1.07790052E-04
  -9.81000042      -1.44458259E-04
  -9.80000019      -1.86351259E-04
  -9.78999996      -2.27132667E-04
  -9.77999973      -2.61059206E-04
  -9.77000046      -2.83804315E-04
  -9.76000023      -2.92897661E-04
  -9.75000000      -2.87763862E-04
  -9.73999977      -2.69435608E-04
  -9.72999954      -2.40078458E-04
  -9.72000027      -2.02479772E-04
  -9.71000004      -1.59627438E-04
  -9.69999981      -1.14446229E-04
  -9.68999958      -6.96928182E-05
  -9.68000031      -2.79531960E-05
  -9.67000008       8.34268303E-06
  -9.65999985       3.69708396E-05
  -9.64999962       5.60762819E-05
  -9.64000034       6.44475513E-05
  -9.63000011       6.18494669E-05
  -9.61999989       4.93228690E-05
  -9.60999966       2.93469020E-05
  -9.60000038       5.77433730E-06
  -9.59000015      -1.65096408E-05
  -9.57999992      -3.21980660E-05
  -9.56999969      -3.63739673E-05
  -9.56000042      -2.54013266E-05
  -9.55000019       2.26159682E-06
  -9.53999996       4.54909678E-05
  -9.52999973       1.00308862E-04
  -9.52000046       1.60164258E-04
  -9.51000023       2.16692526E-04
  -9.50000000       2.60873261E-04
  -9.48999977       2.84421578E-04
  -9.47999954       2.81186454E-04
  -9.47000027       2.48306955E-04
  -9.46000004       1.86901889E-04
  -9.44999981       1.02142003E-04
  -9.43999958       2.66167717E-06
  -9.43000031      -1.00609599E-04
  -9.42000008      -1.96003835E-04
  -9.40999985      -2.72793346E-04
  -9.39999962      -3.22704465E-04
  -9.39000034      -3.41017207E-04
  -9.38000011      -3.27086542E-04
  -9.36999989      -2.84236303E-04
  -9.35999966      -2.19088310E-04
  -9.35000038      -1.40481934E-04
  -9.34000015      -5.81877866E-05
  -9.32999992       1.83748507E-05
  -9.31999969       8.12409417E-05
  -9.31000042       1.24702536E-04
  -9.30000019       1.45753977E-04
  -9.28999996       1.44176549E-04
  -9.27999973       1.22299476E-04
  -9.27000046       8.44987371E-05
  -9.26000023       3.65102933E-05
  -9.25000000      -1.53581150E-05
  -9.23999977      -6.50247966E-05
  -9.22999954      -1.07348693E-04
  -9.22000027      -1.38673713E-04
  -9.21000004      -1.57135379E-04
  -9.19999981      -1.62696728E-04
  -9.18999958      -1.56924536E-04
  -9.18000031      -1.42561970E-04
  -9.17000008      -1.22988218E-04
  -9.15999985      -1.01668476E-04
  -9.14999962      -8.16860193E-05
  -9.14000034      -6.54154283E-05
  -9.13000011      -5.43542119E-05
  -9.11999989      -4.90923558E-05
  -9.10999966      -4.93787011E-05
  -9.10000038      -5.42427770E-05
  -9.09000015      -6.21478976E-05
  -9.07999992      -7.11737957E-05
  -9.06999969      -7.92412684E-05
  -9.06000042      -8.43880698E-05
  -9.05000019      -8.50826546E-05
  -9.03999996      -8.05298987E-05
  -9.02999973      -7.08949156E-05
  -9.02000046      -5.73652651E-05
  -9.01000023      -4.19957214E-05
  -9.00000000      -2.73327987E-05
  -8.98999977      -1.58824878E-05
  -8.97999954      -9.54280404E-06
  -8.97000027      -9.14959855E-06
  -8.96000004      -1.42663866E-05
  -8.94999981      -2.32883649E-05
  -8.93999958      -3.38436512E-05
  -8.93000031      -4.33886125E-05
  -8.92000008      -4.98376940E-05
  -8.90999985      -5.20592803E-05
  -8.89999962      -5.01115683E-05
  -8.89000034      -4.51713058E-05
  -8.88000011      -3.91957619E-05
  -8.86999989      -3.44270411E-05
  -8.85999966      -3.28755596E-05
  -8.85000038      -3.59023288E-05
  -8.84000015      -4.39692267E-05
  -8.82999992      -5.65665505E-05
  -8.81999969      -7.22819896E-05
  -8.81000042      -8.89607618E-05
  -8.80000019      -1.03923281E-04
  -8.78999996      -1.14238304E-04
  -8.77999973      -1.17074967E-04
  -8.77000046      -1.10152352E-04
  -8.76000023      -9.22675099E-05
  -8.75000000      -6.38188212E-05
  -8.73999977      -2.71816643E-05
  -8.72999954       1.32324576E-05
  -8.72000027       5.13682135E-05
  -8.71000004       8.04066804E-05
  -8.69999981       9.40297759E-05
  -8.68999958       8.78235005E-05
  -8.68000031       6.04820525E-05
  -8.67000008       1.44718297E-05
  -8.65999985      -4.40870353E-05
  -8.64999962      -1.06380110E-04
  -8.64000034      -1.62539320E-04
  -8.63000011      -2.03615506E-04
  -8.61999989      -2.23430194E-04
  -8.60999966      -2.19870475E-04
  -8.60000038      -1.95324901E-04
  -8.59000015      -1.56170878E-04
  -8.57999992      -1.11452995E-04
  -8.56999969      -7.10743043E-05
  -8.56000042      -4.39111536E-05
  -8.55000019      -3.62411811E-05
  -8.53999996      -5.07617115E-05
  -8.52999973      -8.63159585E-05
  -8.52000046      -1.38284900E-04
  -8.51000023      -1.99487316E-04
  -8.50000000      -2.61376117E-04
  -8.48999977      -3.15322308E-04
  -8.47999954      -3.53815383E-04
  -8.47000027      -3.71453585E-04
  -8.46000004      -3.65632586E-04
  -8.44999981      -3.36862809E-04
  -8.43999958      -2.88665644E-04
  -8.43000031      -2.27033452E-04
  -8.42000008      -1.59499439E-04
  -8.40999985      -9.39442252E-05
  -8.39999962      -3.73448092E-05
  -8.39000034       5.28346709E-06
  -8.38000011       3.15181424E-05
  -8.36999989       4.15892973E-05
  -8.35999966       3.78666919E-05
  -8.35000038       2.39311885E-05
  -8.34000015       3.50730397E-06
  -8.32999992      -2.04305234E-05
  -8.31999969      -4.61305935E-05
  -8.31000042      -7.30172178E-05
  -8.30000019      -1.01209604E-04
  -8.28999996      -1.30842178E-04
  -8.27999973      -1.61484000E-04
  -8.27000046      -1.91902043E-04
  -8.26000023      -2.20261893E-04
  -8.25000000      -2.44668481E-04
  -8.23999977      -2.63792434E-04
  -8.22999954      -2.77272775E-04
  -8.22000027      -2.85662856E-04
  -8.21000004      -2.89873220E-04
  -8.19999981      -2.90294265E-04
  -8.18999958      -2.85963877E-04
  -8.18000031      -2.74199207E-04
  -8.17000008      -2.50998244E-04
  -8.15999985      -2.12263156E-04
  -8.14999962      -1.55578455E-04
  -8.14000034      -8.20094356E-05
  -8.13000011       2.72554576E-06
  -8.11999989       8.82533568E-05
  -8.10999966       1.60955271E-04
  -8.10000038       2.06606157E-04
  -8.09000015       2.13653286E-04
  -8.07999992       1.76286223E-04
  -8.06999969       9.64324281E-05
  -8.06000042      -1.59417359E-05
  -8.05000019      -1.44404577E-04
  -8.03999996      -2.69180397E-04
  -8.02999973      -3.71072267E-04
  -8.02000046      -4.35232214E-04
  -8.01000023      -4.53888060E-04
  -8.00000000      -4.27443068E-04
  -7.98999977      -3.63815197E-04
  -7.98000002      -2.76335311E-04
  -7.96999979      -1.80845454E-04
  -7.96000004      -9.27469300E-05
  -7.94999981      -2.46348100E-05
  -7.94000006       1.51186441E-05
  -7.92999983       2.27939672E-05
  -7.92000008      -1.00511443E-06
  -7.90999985      -5.20884423E-05
  -7.90000010      -1.23505233E-04
  -7.88999987      -2.06289857E-04
  -7.88000011      -2.90143857E-04
  -7.86999989      -3.64202278E-04
  -7.86000013      -4.18049371E-04
  -7.84999990      -4.43042372E-04
  -7.84000015      -4.33816749E-04
  -7.82999992      -3.89659370E-04
  -7.82000017      -3.15334793E-04
  -7.80999994      -2.20985690E-04
  -7.80000019      -1.20915698E-04
  -7.78999996      -3.13447490E-05
  -7.78000021       3.24732064E-05
  -7.76999998       5.91637618E-05
  -7.76000023       4.35082366E-05
  -7.75000000      -1.24687813E-05
  -7.73999977      -9.98796531E-05
  -7.73000002      -2.04751501E-04
  -7.71999979      -3.10799049E-04
  -7.71000004      -4.02562844E-04
  -7.69999981      -4.68218641E-04
  -7.69000006      -5.01470640E-04
  -7.67999983      -5.02184092E-04
  -7.67000008      -4.75717068E-04
  -7.65999985      -4.31207678E-04
  -7.65000010      -3.79279576E-04
  -7.63999987      -3.29715898E-04
  -7.63000011      -2.89603980E-04
  -7.61999989      -2.62299378E-04
  -7.61000013      -2.47345626E-04
  -7.59999990      -2.41261616E-04
  -7.59000015      -2.38927925E-04
  -7.57999992      -2.35199288E-04
  -7.57000017      -2.26354256E-04
  -7.55999994      -2.11064063E-04
  -7.55000019      -1.90697494E-04
  -7.53999996      -1.68942890E-04
  -7.53000021      -1.50885535E-04
  -7.51999998      -1.41793702E-04
  -7.51000023      -1.45913262E-04
  -7.50000000      -1.65542617E-04
  -7.48999977      -2.00568305E-04
  -7.48000002      -2.48511467E-04
  -7.46999979      -3.05005058E-04
  -7.46000004      -3.64529871E-04
  -7.44999981      -4.21206350E-04
  -7.44000006      -4.69472026E-04