  -16.0000000       0.00000000    
  -15.9899998       0.00000000    
  -15.9799995       0.00000000    
  -15.9700003       0.00000000    
  -15.9600000       0.00000000    
  -15.9499998       0.00000000    
  -15.9399996       0.00000000    
  -15.9300003       0.00000000    
  -15.9200001       0.00000000    
  -15.9099998       0.00000000    
  -15.8999996       0.00000000    
  -15.8900003      -0.00000000    
  -15.8800001       2.30907362E-40
  -15.8699999       4.06845009E-39
  -15.8599997       6.25471924E-38
  -15.8500004       8.83522224E-37
  -15.8400002       9.67125924E-36
  -15.8299999       8.12719460E-35
  -15.8199997       5.46281015E-34
  -15.8100004       3.05598152E-33
  -15.8000002       1.46694760E-32
  -15.7900000       6.18001285E-32
  -15.7799997       2.32301499E-31
  -15.7700005       7.88647059E-31
  -15.7600002       2.43984818E-30
  -15.7500000       6.92334049E-30
  -15.7399998       1.81017794E-29
  -15.7299995       4.37365510E-29
  -15.7200003       9.77851327E-29
  -15.7100000       2.02238557E-28
  -15.6999998       3.85977594E-28
  -15.6899996       6.76053314E-28
  -15.6800003       1.07517273E-27
  -15.6700001       1.52020054E-27
  -15.6599998       1.82344351E-27
  -15.6499996       1.61441184E-27
  -15.6400003       3.24303275E-28
  -15.6300001      -2.71860958E-27
  -15.6199999      -8.00539898E-27
  -15.6099997      -1.53317490E-26
  -15.6000004      -2.31126184E-26
  -15.5900002      -2.77655003E-26
  -15.5799999      -2.36138193E-26
  -15.5699997      -3.90706667E-27
  -15.5600004       3.65245249E-26
  -15.5500002       9.69284426E-26
  -15.5400000       1.65470145E-25
  -15.5299997       2.15374040E-25
  -15.5200005       2.05639891E-25
  -15.5100002       8.99609642E-26
  -15.5000000      -1.63846053E-25
  -15.4899998      -5.45250156E-25
  -15.4799995      -9.70670467E-25
  -15.4700003      -1.26607156E-24
  -15.4600000      -1.18279832E-24
  -15.4499998      -4.66383047E-25
  -15.4399996       1.01410840E-24
  -15.4300003       3.09615422E-24
  -15.4200001       5.17432643E-24
  -15.4099998       6.17480361E-24
  -15.3999996       4.77546889E-24
  -15.3900003      -4.79166039E-26
  -15.3800001      -8.19969714E-24
  -15.3699999      -1.76354652E-23
  -15.3599997      -2.40371645E-23
  -15.3500004      -2.16249383E-23
  -15.3400002      -5.54443669E-24
  -15.3299999       2.43964449E-23
  -15.3199997       5.99681773E-23
  -15.3100004       8.32182054E-23
  -15.3000002       7.05553596E-23
  -15.2900000       3.94450411E-24
  -15.2799997      -1.12510674E-22
  -15.2700005      -2.37528972E-22
  -15.2600002      -2.90887675E-22
  -15.2500000      -1.77342381E-22
  -15.2399998       1.58856202E-22
  -15.2299995       6.61196352E-22
  -15.2200003       1.10545742E-21
  -15.2100000       1.11518053E-21
  -15.1999998       2.97384052E-22
  -15.1899996      -1.49373198E-21
  -15.1800003      -3.83917827E-21
  -15.1700001      -5.55633373E-21
  -15.1599998      -4.85446694E-21
  -15.1499996      -3.63686429E-23
  -15.1400003       9.26881241E-21
  -15.1300001       2.07190520E-20
  -15.1199999       2.85018780E-20
  -15.1099997       2.42074536E-20
  -15.1000004       8.62087013E-23
  -15.0900002      -4.54689001E-20
  -15.0799999      -1.01887009E-19
  -15.0699997      -1.43119836E-19
  -15.0600004      -1.31192163E-19
  -15.0500002      -2.96631071E-20
  -15.0400000       1.73560716E-19
  -15.0299997       4.40511468E-19
  -15.0200005       6.67294924E-19
  -15.0100002       6.94185997E-19
  -15.0000000       3.54346985E-19
  -14.9899998      -4.39040482E-19
  -14.9799995      -1.58875887E-18
  -14.9700003      -2.73763778E-18
  -14.9600000      -3.28011979E-18
  -14.9499998      -2.51220129E-18
  -14.9399996       6.96169615E-20
  -14.9300003       4.38072867E-18
  -14.9200001       9.41500696E-18
  -14.9099998       1.31667897E-17
  -14.8999996       1.30007067E-17
  -14.8900003       6.55080806E-18
  -14.8800001      -6.98244744E-18
  -14.8699999      -2.55369283E-17
  -14.8599997      -4.35142001E-17
  -14.8500004      -5.23855600E-17
  -14.8400002      -4.29850758E-17
  -14.8299999      -9.32420320E-18
  -14.8199997       4.70286556E-17
  -14.8100004       1.13699112E-16
  -14.8000002       1.67411231E-16
  -14.7900000       1.78633888E-16
  -14.7799997       1.21208443E-16
  -14.7700005      -1.48875487E-17
  -14.7600002      -2.11690871E-16
  -14.7500000      -4.17794131E-16
  -14.7399998      -5.54408581E-16
  -14.7299995      -5.35414291E-16
  -14.7200003      -2.99000195E-16
  -14.7100000       1.57280466E-16
  -14.6999998       7.50918531E-16
  -14.6899996       1.31233673E-15
  -14.6800003       1.61618185E-15
  -14.6700001       1.44618213E-15
  -14.6599998       6.80574932E-16
  -14.6499996      -6.27593498E-16
  -14.6400003      -2.20767258E-15
  -14.6300001      -3.59482477E-15
  -14.6199999      -4.23235640E-15
  -14.6099997      -3.63991741E-15
  -14.6000004      -1.60634769E-15
  -14.5900002       1.65467696E-15
  -14.5799999       5.45136768E-15
  -14.5699997       8.70818141E-15
  -14.5600004       1.02124425E-14
  -14.5500002       8.96691270E-15
  -14.5400000       4.55668658E-15
  -14.5299997      -2.58257889E-15
  -14.5200005      -1.10951956E-14
  -14.5100002      -1.88876540E-14
  -14.5000000      -2.35472025E-14
  -14.4899998      -2.29132949E-14
  -14.4799995      -1.56771704E-14
  -14.4700003      -1.87612271E-15
  -14.4600000       1.68197924E-14
  -14.4499998       3.70891536E-14
  -14.4399996       5.42330361E-14
  -14.4300003       6.27586836E-14
  -14.4200001       5.73005524E-14
  -14.4099998       3.39039066E-14
  -14.3999996      -8.37268013E-15
  -14.3900003      -6.57481407E-14
  -14.3800001      -1.28376395E-13
  -14.3699999      -1.80108749E-13
  -14.3599997      -2.00216241E-13
  -14.3500004      -1.67714611E-13
  -14.3400002      -6.82558732E-14
  -14.3299999       9.75293861E-14
  -14.3199997       3.06634411E-13
  -14.3100004       5.10553188E-13
  -14.3000002       6.39855302E-13
  -14.2900000       6.18546609E-13
  -14.2799997       3.87542483E-13
  -14.2700005      -6.72567199E-14
  -14.2600002      -6.90556119E-13
  -14.2500000      -1.34738108E-12
  -14.2399998      -1.83649862E-12
  -14.2299995      -1.93226793E-12
  -14.2200003      -1.45119398E-12
  -14.2100000      -3.29188445E-13
  -14.1999998       1.31336175E-12
  -14.1899996       3.14531712E-12
  -14.1800003       4.65952233E-12
  -14.1700001       5.27707695E-12
  -14.1599998       4.50861527E-12
  -14.1499996       2.13720578E-12
  -14.1400003      -1.63047787E-12
  -14.1300001      -6.10247356E-12
  -14.1199999      -1.01741194E-11
  -14.1099997      -1.25476140E-11
  -14.1000004      -1.20678745E-11
  -14.0900002      -8.09935972E-12
  -14.0799999      -8.38139020E-13
  -14.0699997       8.54935654E-12
  -14.0600004       1.80394675E-11
  -14.0500002       2.51330901E-11
  -14.0400000       2.74456013E-11
  -14.0299997       2.33712424E-11
  -14.0200005       1.26449250E-11
  -14.0100002      -3.37123883E-12
  -14.0000000      -2.17930205E-11
  -13.9899998      -3.87273859E-11
  -13.9799995      -5.00958684E-11
  -13.9700003      -5.25738619E-11
  -13.9600000      -4.44063328E-11
  -13.9499998      -2.58854136E-11
  -13.9399996       6.33140350E-13
  -13.9300003       3.11646160E-11
  -13.9200001       6.08401315E-11
  -13.9099998       8.47380430E-11
  -13.8999996       9.85740795E-11
  -13.8900003       9.91072849E-11
  -13.8800001       8.42618267E-11
  -13.8699999       5.31147869E-11
  -13.8599997       5.98985011E-12
  -13.8500004      -5.51247936E-11
  -13.8400002      -1.25767494E-10
  -13.8299999      -1.97992261E-10
  -13.8199997      -2.59620520E-10
  -13.8100004      -2.94408359E-10
  -13.8000002      -2.83772617E-10
  -13.7900000      -2.10453238E-10
  -13.7799997      -6.39355791E-11
  -13.7700005       1.53238713E-10
  -13.7600002       4.19862728E-10
  -13.7500000       6.93217594E-10
  -13.7399998       9.11046849E-10
  -13.7299995       9.99812344E-10
  -13.7200003       8.89396501E-10
  -13.7100000       5.32660749E-10
  -13.6999998      -7.37079286E-11
  -13.6899996      -8.72237227E-10
  -13.6800003      -1.73755332E-09
  -13.6700001      -2.48445531E-09
  -13.6599998      -2.89422508E-09
  -13.6499996      -2.75845946E-09
  -13.6400003      -1.93469907E-09
  -13.6300001      -4.03220457E-10
  -13.6199999       1.68935255E-09
  -13.6099997       4.01504741E-09
  -13.6000004       6.09085449E-09
  -13.5900002       7.35203365E-09
  -13.5799999       7.26753946E-09
  -13.5699997       5.48024426E-09
  -13.5600004       1.94309524E-09
  -13.5500002      -2.98447866E-09
  -13.5400000      -8.51558468E-09
  -13.5299997      -1.35153488E-08
  -13.5200005      -1.66872436E-08
  -13.5100002      -1.68461387E-08
  -13.5000000      -1.32309248E-08
  -13.4899998      -5.78783643E-09
  -13.4799995       4.65286742E-09
  -13.4700003       1.63756972E-08
  -13.4600000       2.69928773E-08
  -13.4499998       3.38654651E-08
  -13.4399996       3.46722615E-08
  -13.4300003       2.80180306E-08
  -13.4200001       1.39395029E-08
  -13.4099998      -5.83187898E-09
  -13.3999996      -2.79595387E-08
  -13.3900003      -4.79845497E-08
  -13.3800001      -6.11548359E-08
  -13.3699999      -6.34594031E-08
  -13.3599997      -5.26584749E-08
  -13.3500004      -2.90629885E-08
  -13.3400002       4.15488977E-09
  -13.3299999       4.12617212E-08
  -13.3199997       7.48880140E-08
  -13.3100004       9.74482717E-08
  -13.3000002       1.02792328E-07
  -13.2900000       8.77355077E-08
  -13.2799997       5.31046886E-08
  -13.2700005       4.00215283E-09
  -13.2600002      -5.08561868E-08
  -13.2500000      -1.00678314E-07
  -13.2399998      -1.34748120E-07
  -13.2299995      -1.44763192E-07
  -13.2200003      -1.26845876E-07
  -13.2100000      -8.27391702E-08
  -13.1999998      -1.98459951E-08
  -13.1899996       4.99967143E-08
  -13.1800003       1.12828353E-07
  -13.1700001       1.55514385E-07
  -13.1599998       1.68701035E-07
  -13.1499996       1.49087896E-07
  -13.1400003       1.00435770E-07
  -13.1300001       3.29843033E-08
  -13.1199999      -3.86892651E-08
  -13.1099997      -9.89608893E-08
  -13.1000004      -1.34869168E-07
  -13.0900002      -1.39353986E-07
  -13.0799999      -1.13178061E-07
  -13.0699997      -6.49447927E-08
  -13.0600004      -9.06931152E-09
  -13.0500002       3.79256946E-08
  -13.0400000       6.19398079E-08
  -13.0299997       5.54983686E-08
  -13.0200005       2.04502300E-08
  -13.0100002      -3.17404236E-08
  -13.0000000      -8.24446218E-08
  -12.9899998      -1.10692504E-07
  -12.9799995      -9.92876821E-08
  -12.9700003      -4.06526581E-08
  -12.9600000       5.92886487E-08
  -12.9499998       1.80555688E-07
  -12.9399996       2.92503245E-07
  -12.9300003       3.60772674E-07
  -12.9200001       3.56369640E-07
  -12.9099998       2.64654432E-07
  -12.8999996       9.17549414E-08
  -12.8900003      -1.33738496E-07
  -12.8800001      -3.64928781E-07
  -12.8699999      -5.46330625E-07
  -12.8599997      -6.27312431E-07
  -12.8500004      -5.76178252E-07
  -12.8400002      -3.91221079E-07
  -12.8299999      -1.05394697E-07
  -12.8199997       2.17504947E-07
  -12.8100004       4.95302118E-07
  -12.8000002       6.46477645E-07
  -12.7900000       6.11748476E-07
  -12.7799997       3.73018821E-07
  -12.7700005      -3.54433425E-08
  -12.7600002      -5.27387442E-07
  -12.7500000      -9.77890522E-07
  -12.7399998      -1.24795497E-06
  -12.7299995      -1.21584367E-06
  -12.7200003      -8.08564380E-07
  -12.7100000      -2.62375881E-08
  -12.6999998       1.04685751E-06
  -12.6899996       2.24825635E-06
  -12.6800003       3.36037010E-06
  -12.6700001       4.14696797E-06
  -12.6599998       4.39622545E-06
  -12.6499996       3.96172481E-06
  -12.6400003       2.79312007E-06
  -12.6300001       9.50066521E-07
  -12.6199999      -1.40334305E-06
  -12.6099997      -4.02222622E-06
  -12.6000004      -6.61748436E-06
  -12.5900002      -8.89713101E-06
  -12.5799999      -1.06040334E-05
  -12.5699997      -1.15424000E-05
  -12.5600004      -1.15887351E-05
  -12.5500002      -1.06869929E-05
  -12.5400000      -8.83180928E-06
  -12.5299997      -6.04678917E-06
  -12.5200005      -2.36612232E-06
  -12.5100002       2.17247111E-06
  -12.5000000       7.51872449E-06
  -12.4899998       1.35839491E-05
  -12.4799995       2.02017363E-05
  -12.4700003       2.70838646E-05
  -12.4600000       3.37808160E-05
  -12.4499998       3.96585929E-05
  -12.4399996       4.39007272E-05
  -12.4300003       4.55399168E-05
  -12.4200001       4.35193688E-05
  -12.4099998       3.67803586E-05
  -12.3999996       2.43630566E-05
  -12.3900003       5.50993354E-06
  -12.3800001      -2.02429146E-05
  -12.3699999      -5.29979479E-05
  -12.3599997      -9.24617198E-05
  -12.3500004      -1.37944153E-04
  -12.3400002      -1.88396312E-04
  -12.3299999      -2.42470443E-04
  -12.3199997      -2.98600207E-04
  -12.3100004      -3.55079654E-04
  -12.3000002      -4.10140521E-04
  -12.2900000      -4.62007680E-04
  -12.2799997      -5.08930709E-04
  -12.2700005      -5.49200457E-04
  -12.2600002      -5.81143191E-04
  -12.2500000      -6.03114662E-04
  -12.2399998      -6.13497104E-04
  -12.2299995      -6.10725081E-04
  -12.2200003      -5.93321514E-04
  -12.2100000      -5.59975218E-04
  -12.1999998      -5.09644160E-04
  -12.1899996      -4.41650744E-04
  -12.1800003      -3.55794851E-04
  -12.1700001      -2.52430968E-04
  -12.1599998      -1.32506932E-04
  -12.1499996       2.46135619E-06
  -12.1400003       1.50444932E-04
  -12.1300001       3.09021008E-04
  -12.1199999       4.75520239E-04
  -12.1099997       6.47177105E-04
  -12.1000004       8.21270340E-04
  -12.0900002       9.95228416E-04
  -12.0799999       1.16669317E-03
  -12.0699997       1.33353088E-03
  -12.0600004       1.49381382E-03
  -12.0500002       1.64577353E-03
  -12.0400000       1.78774400E-03
  -12.0299997       1.91812182E-03
  -12.0200005       2.03534425E-03
  -12.0100002       2.13788706E-03
  -12.0000000       2.22427421E-03
  -11.9899998       2.29309872E-03
  -11.9799995       2.34303018E-03
  -11.9700003       2.37280806E-03
  -11.9600000       2.38121906E-03
  -11.9499998       2.36705155E-03
  -11.9399996       2.32907571E-03
  -11.9300003       2.26602308E-03
  -11.9200001       2.17659562E-03
  -11.9099998       2.05953838E-03
  -11.8999996       1.91372610E-03
  -11.8900003       1.73828728E-03
  -11.8800001       1.53270853E-03
  -11.8699999       1.29695726E-03
  -11.8599997       1.03152357E-03
  -11.8500004       7.37435010E-04
  -11.8400002       4.16231982E-04
  -11.8299999       6.98883596E-05
  -11.8199997      -2.99263949E-04
  -11.8100004      -6.88603264E-04
  -11.8000002      -1.09527074E-03
  -11.7900000      -1.51618407E-03
  -11.7799997      -1.94803649E-03
  -11.7700005      -2.38728686E-03
  -11.7600002      -2.83016148E-03
  -11.7500000      -3.27268639E-03
  -11.7399998      -3.71076097E-03
  -11.7299995      -4.14024107E-03
  -11.7200003      -4.55704704E-03
  -11.7100000      -4.95723356E-03
  -11.6999998      -5.33704460E-03
  -11.6899996      -5.69288526E-03
  -11.6800003      -6.02126261E-03
  -11.6700001      -6.31869351E-03
  -11.6599998      -6.58162264E-03
  -11.6499996      -6.80639269E-03
  -11.6400003      -6.98927371E-03
  -11.6300001      -7.12661026E-03
  -11.6199999      -7.21500767E-03
  -11.6099997      -7.25158257E-03
  -11.6000004      -7.23415660E-03
  -11.5900002      -7.16138864E-03
  -11.5799999      -7.03278743E-03
  -11.5699997      -6.84854668E-03
  -11.5600004      -6.60929596E-03
  -11.5500002      -6.31577009E-03
  -11.5400000      -5.96847665E-03
  -11.5299997      -5.56745287E-03
  -11.5200005      -5.11217630E-03
  -11.5100002      -4.60163224E-03
  -11.5000000      -4.03457694E-03
  -11.4899998      -3.40986461E-03
  -11.4799995      -2.72684591E-03
  -11.4700003      -1.98570173E-03
  -11.4600000      -1.18764630E-03
  -11.4499998      -3.34955752E-04
  -11.4399996       5.69149095E-04
  -11.4300003       1.52080832E-03
  -11.4200001       2.51581287E-03
  -11.4099998       3.54992831E-03
  -11.3999996       4.61916858E-03
  -11.3900003       5.71989641E-03
  -11.3800001       6.84880279E-03
  -11.3699999       8.00284743E-03
  -11.3599997       9.17908829E-03
  -11.3500004       1.03745209E-02
  -11.3400002       1.15860244E-02
  -11.3299999       1.28103076E-02
  -11.3199997       1.40439924E-02
  -11.3100004       1.52837038E-02
  -11.3000002       1.65262241E-02
  -11.2900000       1.77685935E-02
  -11.2799997       1.90081112E-02
  -11.2700005       2.02424079E-02
  -11.2600002       2.14693174E-02
  -11.2500000       2.26868112E-02
  -11.2399998       2.38928366E-02
  -11.2299995       2.50852648E-02
  -11.2200003       2.62617692E-02
  -11.2100000       2.74197794E-02
  -11.1999998       2.85565369E-02
  -11.1899996       2.96690241E-02
  -11.1800003       3.07540745E-02
  -11.1700001       3.18084918E-02
  -11.1599998       3.28291468E-02
  -11.1499996       3.38131785E-02
  -11.1400003       3.47580984E-02
  -11.1300001       3.56620625E-02
  -11.1199999       3.65239084E-02
  -11.1099997       3.73432636E-02
  -11.1000004       3.81205380E-02
  -11.0900002       3.88566703E-02
  -11.0799999       3.95530649E-02
  -11.0699997       4.02112491E-02
  -11.0600004       4.08327319E-02
  -11.0500002       4.14188541E-02
  -11.0400000       4.19707522E-02
  -11.0299997       4.24894802E-02
  -11.0200005       4.29761633E-02
  -11.0100002       4.34321426E-02
  -11.0000000       4.38590609E-02
  -10.9899998       4.42588963E-02
  -10.9799995       4.46337238E-02
  -10.9700003       4.49855775E-02
  -10.9600000       4.53160107E-02
  -10.9499998       4.56260033E-02
  -10.9399996       4.59157154E-02
  -10.9300003       4.61845919E-02
  -10.9200001       4.64315452E-02
  -10.9099998       4.66552600E-02
  -10.8999996       4.68543991E-02
  -10.8900003       4.70279008E-02
  -10.8800001       4.71749529E-02
  -10.8699999       4.72948663E-02
  -10.8599997       4.73868027E-02
  -10.8500004       4.74495627E-02
  -10.8400002       4.74814326E-02
  -10.8299999       4.74802330E-02
  -10.8199997       4.74436060E-02
  -10.8100004       4.73694913E-02
  -10.8000002       4.72565889E-02
  -10.7900000       4.71048392E-02
  -10.7799997       4.69155125E-02
  -10.7700005       4.66910638E-02
  -10.7600002       4.64345068E-02
  -10.7500000       4.61487621E-02
  -10.7399998       4.58357483E-02
  -10.7299995       4.54958118E-02
  -10.7200003       4.51273769E-02
  -10.7100000       4.47271764E-02
  -10.6999998       4.42907289E-02
  -10.6899996       4.38132957E-02
  -10.6800003       4.32908833E-02
  -10.6700001       4.27210070E-02
  -10.6599998       4.21033502E-02
  -10.6499996       4.14398499E-02
  -10.6400003       4.07345332E-02
  -10.6300001       3.99929807E-02
  -10.6199999       3.92215513E-02
  -10.6099997       3.84268500E-02
  -10.6000004       3.76149602E-02
  -10.5900002       3.67912762E-02
  -10.5799999       3.59600782E-02
  -10.5699997       3.51247042E-02
  -10.5600004       3.42873447E-02
  -10.5500002       3.34494412E-02
  -10.5400000       3.26116942E-02
  -10.5299997       3.17745097E-02
  -10.5200005       3.09382211E-02
  -10.5100002       3.01034227E-02
  -10.5000000       2.92716045E-02
  -10.4899998       2.84452625E-02
  -10.4799995       2.76281387E-02
  -10.4700003       2.68250853E-02
  -10.4600000       2.60415450E-02
  -10.4499998       2.52832305E-02
  -10.4399996       2.45552044E-02
  -10.4300003       2.38612797E-02
  -10.4200001       2.32038293E-02
  -10.4099998       2.25834046E-02
  -10.3999996       2.19992734E-02
  -10.3900003       2.14498769E-02
  -10.3800001       2.09332276E-02
  -10.3699999       2.04478092E-02
  -10.3599997       1.99926030E-02
  -10.3500004       1.95673406E-02
  -10.3400002       1.91721395E-02
  -10.3299999       1.88072175E-02
  -10.3199997       1.84726510E-02
  -10.3100004       1.81682203E-02
  -10.3000002       1.78933442E-02
  -10.2900000       1.76475272E-02
  -10.2799997       1.74307358E-02
  -10.2700005       1.72436591E-02
  -10.2600002       1.70879494E-02
  -10.2500000       1.69658810E-02
  -10.2399998       1.68801621E-02
  -10.2299995       1.68329831E-02
  -10.2200003       1.68255717E-02
  -10.2100000       1.68577414E-02
  -10.1999998       1.69276446E-02
  -10.1899996       1.70322191E-02
  -10.1800003       1.71678308E-02
  -10.1700001       1.73308402E-02
  -10.1599998       1.75185464E-02
  -10.1499996       1.77298672E-02
  -10.1400003       1.79651137E-02
  -10.1300001       1.82261355E-02
  -10.1199999       1.85156595E-02
  -10.1099997       1.88364629E-02
  -10.1000004       1.91911403E-02
  -10.0900002       1.95814706E-02
  -10.0799999       2.00082064E-02
  -10.0699997       2.04711817E-02
  -10.0600004       2.09696796E-02
  -10.0500002       2.15028618E-02
  -10.0400000       2.20696349E-02
  -10.0299997       2.26690508E-02
  -10.0200005       2.33002342E-02
  -10.0100002       2.39621550E-02
  -10.0000000       2.46536415E-02
  -9.98999977       2.53733080E-02
  -9.97999954       2.61196867E-02
  -9.97000027       2.68916860E-02
  -9.96000004       2.76885666E-02
  -9.94999981       2.85105910E-02
  -9.93999958       2.93591116E-02
  -9.93000031       3.02360542E-02
  -9.92000008       3.11439950E-02
  -9.90999985       3.20853740E-02
  -9.89999962       3.30618471E-02
  -9.89000034       3.40741351E-02
  -9.88000011       3.51215154E-02
  -9.86999989       3.62020880E-02
  -9.85999966       3.73132713E-02
  -9.85000038       3.84525321E-02
  -9.84000015       3.96175981E-02
  -9.82999992       4.08076197E-02
  -9.81999969       4.20227535E-02
  -9.81000042       4.32642139E-02
  -9.80000019       4.45342176E-02
  -9.78999996       4.58349772E-02
  -9.77999973       4.71686535E-02
  -9.77000046       4.85367998E-02
  -9.76000023       4.99404930E-02
  -9.75000000       5.13807088E-02
  -9.73999977       5.28584309E-02
  -9.72999954       5.43749481E-02
  -9.72000027       5.59318289E-02
  -9.71000004       5.75305969E-02
  -9.69999981       5.91721125E-02
  -9.68999958       6.08559325E-02
  -9.68000031       6.25797659E-02
  -9.67000008       6.43391982E-02
  -9.65999985       6.61282092E-02
  -9.64999962       6.79399669E-02
  -9.64000034       6.97677284E-02
  -9.63000011       7.16061518E-02
  -9.61999989       7.34520480E-02
  -9.60999966       7.53047392E-02
  -9.60000038       7.71652684E-02
  -9.59000015       7.90357292E-02
  -9.57999992       8.09179395E-02
  -9.56999969       8.28122720E-02
  -9.56000042       8.47168341E-02
  -9.55000019       8.66273791E-02
  -9.53999996       8.85377079E-02
  -9.52999973       9.04404670E-02
  -9.52000046       9.23281610E-02
  -9.51000023       9.41941068E-02
  -9.50000000       9.60322693E-02
  -9.48999977       9.78377759E-02
  -9.47999954       9.96061042E-02
  -9.47000027      0.101333223    
  -9.46000004      0.103014879    
  -9.44999981      0.104647093    
  -9.43999958      0.106227398    
  -9.43000031      0.107754357    
  -9.42000008      0.109229185    
  -9.40999985      0.110655420    
  -9.39999962      0.112038635    
  -9.39000034      0.113385357    
  -9.38000011      0.114701912    
  -9.36999989      0.115993164    
  -9.35999966      0.117262647    
  -9.35000038      0.118511893    
  -9.34000015      0.119741932    
  -9.32999992      0.120954365    
  -9.31999969      0.122152440    
  -9.31000042      0.123342089    
  -9.30000019      0.124530688    
  -9.28999996      0.125727281    
  -9.27999973      0.126940474    
  -9.27000046      0.128176823    
  -9.26000023      0.129440516    
  -9.25000000      0.130732775    
  -9.23999977      0.132053241    
  -9.22999954      0.133401543    
  -9.22000027      0.134779111    
  -9.21000004      0.136189803    
  -9.19999981      0.137641206    
  -9.18999958      0.139142543    
  -9.18000031      0.140704036    
  -9.17000008      0.142334193    
  -9.15999985      0.144038498    
  -9.14999962      0.145818815    
  -9.14000034      0.147673488    
  -9.13000011      0.149598733    
  -9.11999989      0.151590422    
  -9.10999966      0.153645515    
  -9.10000038      0.155762494    
  -9.09000015      0.157941401    
  -9.07999992      0.160182491    
  -9.06999969      0.162484914    
  -9.06000042      0.164844826    
  -9.05000019      0.167255431    
  -9.03999996      0.169707760    
  -9.02999973      0.172191516    
  -9.02000046      0.174697816    
  -9.01000023      0.177220315    
  -9.00000000      0.179756194    
  -8.98999977      0.182305977    
  -8.97999954      0.184871480    
  -8.97000027      0.187454164    
  -8.96000004      0.190053836    
  -8.94999981      0.192666471    
  -8.93999958      0.195285052    
  -8.93000031      0.197900876    
  -8.92000008      0.200505048    
  -8.90999985      0.203090683    
  -8.89999962      0.205654100    
  -8.89000034      0.208194196    
  -8.88000011      0.210712701    
  -8.86999989      0.213211030    
  -8.85999966      0.215690061    
  -8.85000038      0.218147218    
  -8.84000015      0.220578000    
  -8.82999992      0.222976461    
  -8.81999969      0.225335881    
  -8.81000042      0.227652103    
  -8.80000019      0.229923412    
  -8.78999996      0.232151210    
  -8.77999973      0.234339461    
  -8.77000046      0.236492336    
  -8.76000023      0.238613546    
  -8.75000000      0.240704343    
  -8.73999977      0.242763400    
  -8.72999954      0.244789168    
  -8.72000027      0.246779203    
  -8.71000004      0.248732477    
  -8.69999981      0.250651449    
  -8.68999958      0.252540767    
  -8.68000031      0.254407585    
  -8.67000008      0.256260663    
  -8.65999985      0.258107990    
  -8.64999962      0.259956419    
  -8.64000034      0.261812866    
  -8.63000011      0.263683289    
  -8.61999989      0.265574962    
  -8.60999966      0.267497212    
  -8.60000038      0.269462585    
  -8.59000015      0.271485031    
  -8.57999992      0.273580939    
  -8.56999969      0.275765181    
  -8.56000042      0.278050661    
  -8.55000019      0.280445904    
  -8.53999996      0.282956570    
  -8.52999973      0.285585016    
  -8.52000046      0.288331062    
  -8.51000023      0.291195333    
  -8.50000000      0.294178396    
  -8.48999977      0.297280848    
  -8.47999954      0.300504625    
  -8.47000027      0.303849846    
  -8.46000004      0.307314694    
  -8.44999981      0.310894907    
  -8.43999958      0.314583361    
  -8.43000031      0.318371922    
  -8.42000008      0.322251201    
  -8.40999985      0.326213568    
  -8.39999962      0.330253035    
  -8.39000034      0.334365219    
  -8.38000011      0.338546783    
  -8.36999989      0.342794001    
  -8.35999966      0.347102761    
  -8.35000038      0.351464778    
  -8.34000015      0.355871707    
  -8.32999992      0.360312819    
  -8.31999969      0.364776880    
  -8.31000042      0.369254738    
  -8.30000019      0.373736709    
  -8.28999996      0.378216654    
  -8.27999973      0.382688344    
  -8.27000046      0.387145340    
  -8.26000023      0.391581386    
  -8.25000000      0.395988345    
  -8.23999977      0.400357813    
  -8.22999954      0.404679954    
  -8.22000027      0.408946514    
  -8.21000004      0.413150787    
  -8.19999981      0.417287558    
  -8.18999958      0.421352148    
  -8.18000031      0.425341964    
  -8.17000008      0.429253429    
  -8.15999985      0.433082789    
  -8.14999962      0.436825514    
  -8.14000034      0.440475225    
  -8.13000011      0.444028169    
  -8.11999989      0.447480947    
  -8.10999966      0.450832546    
  -8.10000038      0.454085171    
  -8.09000015      0.457242340    
  -8.07999992      0.460309833    
  -8.06999969      0.463292331    
  -8.06000042      0.466194451    
  -8.05000019      0.469021529    
  -8.03999996      0.471776247    
  -8.02999973      0.474464059    
  -8.02000046      0.477091402    
  -8.01000023      0.479667455    
  -8.00000000      0.482203573    
  -7.98999977      0.484712303    
  -7.98000002      0.487207592    
  -7.96999979      0.489702314    
  -7.96000004      0.492207438    
  -7.94999981      0.494732708    
  -7.94000006      0.497286320    
  -7.92999983      0.499875486    
  -7.92000008      0.502510190    
  -7.90999985      0.505200207    
  -7.90000010      0.507956266    
  -7.88999987      0.510789752    
  -7.88000011      0.513712704    
  -7.86999989      0.516732574    
  -7.86000013      0.519855261    
  -7.84999990      0.523083329    
  -7.84000015      0.526416838    
  -7.82999992      0.529855490    
  -7.82000017      0.533400059    
  -7.80999994      0.537053883    
  -7.80000019      0.540821016    
  -7.78999996      0.544707417    
  -7.78000021      0.548717976    
  -7.76999998      0.552856863    
  -7.76000023      0.557124734    
  -7.75000000      0.561520517    
  -7.73999977      0.566038132    
  -7.73000002      0.570672572    
  -7.71999979      0.575416565    
  -7.71000004      0.580269754    
  -7.69999981      0.585231185    
  -7.69000006      0.590302765    
  -7.67999983      0.595490098    
  -7.67000008      0.600797772    
  -7.65999985      0.606228948    
  -7.65000010      0.611785948    
  -7.63999987      0.617468596    
  -7.63000011      0.623275638    
  -7.61999989      0.629207134    
  -7.61000013      0.635263622    
  -7.59999990      0.641448796    
  -7.59000015      0.647765696    
  -7.57999992      0.654220104    
  -7.57000017      0.660818040    
  -7.55999994      0.667563438    
  -7.55000019      0.674456179    
  -7.53999996      0.681497097    
  -7.53000021      0.688680232    
  -7.51999998      0.696003735    
  -7.51000023      0.703464329    
  -7.50000000      0.711061180    
  -7.48999977      0.718795240    
  -7.48000002      0.726671040    
  -7.46999979      0.734693944    
  -7.46000004      0.742867231    
  -7.44999981      0.751194239    
  -7.44000006      0.759675145    