  -16.0000000       0.00000000    
  -15.9899998       0.00000000    
  -15.9799995       0.00000000    
  -15.9700003       0.00000000    
  -15.9600000       0.00000000    
  -15.9499998       0.00000000    
  -15.9399996       0.00000000    
  -15.9300003       0.00000000    
  -15.9200001       0.00000000    
  -15.9099998       0.00000000    
  -15.8999996       0.00000000    
  -15.8900003       1.31814541E-39
  -15.8800001       4.88482780E-38
  -15.8699999       9.21630906E-37
  -15.8599997       1.13624816E-35
  -15.8500004       1.02485119E-34
  -15.8400002       7.24082571E-34
  -15.8299999       4.19424172E-33
  -15.8199997       2.05664697E-32
  -15.8100004       8.73765581E-32
  -15.8000002       3.27215145E-31
  -15.7900000       1.09412475E-30
  -15.7799997       3.29805648E-30
  -15.7700005       9.02435702E-30
  -15.7600002       2.25186154E-29
  -15.7500000       5.13633118E-29
  -15.7399998       1.07071317E-28
  -15.7299995       2.03276489E-28
  -15.7200003       3.48444277E-28
  -15.7100000       5.29436216E-28
  -15.6999998       6.84087379E-28
  -15.6899996       6.67484996E-28
  -15.6800003       2.29337643E-28
  -15.6700001      -9.63227284E-28
  -15.6599998      -3.21025193E-27
  -15.6499996      -6.53104106E-27
  -15.6400003      -1.02912359E-26
  -15.6300001      -1.28117914E-26
  -15.6199999      -1.12039557E-26
  -15.6099997      -1.79079187E-27
  -15.6000004       1.85318464E-26
  -15.5900002       4.98902569E-26
  -15.5799999       8.64266394E-26
  -15.5699997       1.13892336E-25
  -15.5600004       1.09716044E-25
  -15.5500002       4.75573055E-26
  -15.5400000      -9.24892696E-26
  -15.5299997      -3.08851247E-25
  -15.5200005      -5.62160721E-25
  -15.5100002      -7.63903318E-25
  -15.5000000      -7.77902543E-25
  -15.4899998      -4.42500924E-25
  -15.4799995       3.80315069E-25
  -15.4700003       1.72584346E-24
  -15.4600000       3.42112211E-24
  -15.4499998       4.97057943E-24
  -15.4399996       5.47851277E-24
  -15.4300003       3.69695206E-24
  -15.4200001      -1.66969767E-24
  -15.4099998      -1.12711452E-23
  -15.3999996      -2.40050673E-23
  -15.3900003      -3.57534387E-23
  -15.3800001      -3.86583622E-23
  -15.3699999      -2.20820280E-23
  -15.3599997       2.35030820E-23
  -15.3500004       9.91718191E-23
  -15.3400002       1.88142493E-22
  -15.3299999       2.48640829E-22
  -15.3199997       2.16223417E-22
  -15.3100004       2.33850605E-23
  -15.3000002      -3.59958619E-22
  -15.2900000      -8.72284271E-22
  -15.2799997      -1.31563137E-21
  -15.2700005      -1.35797803E-21
  -15.2600002      -6.23336228E-22
  -15.2500000       1.11172983E-21
  -15.2399998       3.64921754E-21
  -15.2299995       6.13754322E-21
  -15.2200003       7.05220586E-21
  -15.2100000       4.57455153E-21
  -15.1999998      -2.54637656E-21
  -15.1899996      -1.37961528E-20
  -15.1800003      -2.58290151E-20
  -15.1700001      -3.22776312E-20
  -15.1599998      -2.52120159E-20
  -15.1499996       1.39606085E-21
  -15.1400003       4.67818296E-20
  -15.1300001       9.89090425E-20
  -15.1199999       1.33307872E-19
  -15.1099997       1.18232751E-19
  -15.1000004       2.75571764E-20
  -15.0900002      -1.40666199E-19
  -15.0799999      -3.46694039E-19
  -15.0699997      -5.03223287E-19
  -15.0600004      -4.92155973E-19
  -15.0500002      -2.09423713E-19
  -15.0400000       3.68893886E-19
  -15.0299997       1.12207608E-18
  -15.0200005       1.75837029E-18
  -15.0100002       1.86500277E-18
  -15.0000000       1.05477171E-18
  -14.9899998      -8.10795664E-19
  -14.9799995      -3.39533302E-18
  -14.9700003      -5.77800919E-18
  -14.9600000      -6.58855190E-18
  -14.9499998      -4.46035515E-18
  -14.9399996       1.25059007E-18
  -14.9300003       9.70379060E-18
  -14.9200001       1.81431066E-17
  -14.9099998       2.22109244E-17
  -14.8999996       1.72700969E-17
  -14.8900003       6.23121514E-19
  -14.8800001      -2.60045699E-17
  -14.8699999      -5.48359005E-17
  -14.8599997      -7.25673111E-17
  -14.8500004      -6.39678421E-17
  -14.8400002      -1.84264325E-17
  -14.8299999       6.22169456E-17
  -14.8199997       1.57744825E-16
  -14.8100004       2.29475440E-16
  -14.8000002       2.29153488E-16
  -14.7900000       1.17219844E-16
  -14.7799997      -1.13467607E-16
  -14.7700005      -4.17017481E-16
  -14.7600002      -6.88410675E-16
  -14.7500000      -7.82209992E-16
  -14.7399998      -5.59812545E-16
  -14.7299995       4.25049438E-17
  -14.7200003       9.45945537E-16
  -14.7100000       1.89326306E-15
  -14.6999998       2.47641814E-15
  -14.6899996       2.24601946E-15
  -14.6800003       8.92489500E-16
  -14.6700001      -1.54790379E-15
  -14.6599998      -4.54177203E-15
  -14.6499996      -7.05410902E-15
  -14.6400003      -7.76020500E-15
  -14.6300001      -5.48098884E-15
  -14.6199999       2.44322604E-16
  -14.6099997       8.63109463E-15
  -14.6000004       1.74109469E-14
  -14.5900002       2.31090561E-14
  -14.5799999       2.19455005E-14
  -14.5699997       1.12562285E-14
  -14.5600004      -8.92820584E-15
  -14.5500002      -3.47224250E-14
  -14.5400000      -5.82877320E-14
  -14.5299997      -6.92732682E-14
  -14.5200005      -5.78528788E-14
  -14.5100002      -1.88056171E-14
  -14.5000000       4.45397164E-14
  -14.4899998       1.18081353E-13
  -14.4799995       1.77975310E-13
  -14.4700003       1.95791422E-13
  -14.4600000       1.47427806E-13
  -14.4499998       2.38631374E-14
  -14.4399996      -1.59573011E-13
  -14.4300003      -3.59400091E-13
  -14.4200001      -5.09082305E-13
  -14.4099998      -5.34432091E-13
  -14.3999996      -3.77503909E-13
  -14.3900003      -2.34664024E-14
  -14.3800001       4.78056613E-13
  -14.3699999       1.00669028E-12
  -14.3599997       1.38757647E-12
  -14.3500004       1.43243631E-12
  -14.3400002       9.99840618E-13
  -14.3299999       6.06127697E-14
  -14.3199997      -1.25219301E-12
  -14.3100004      -2.63093648E-12
  -14.3000002      -3.63557535E-12
  -14.2900000      -3.79465339E-12
  -14.2799997      -2.75123804E-12
  -14.2700005      -4.20555355E-13
  -14.2600002       2.88860168E-12
  -14.2500000       6.44035606E-12
  -14.2399998       9.16593884E-12
  -14.2299995       9.89696779E-12
  -14.2200003       7.70808677E-12
  -14.2100000       2.29467747E-12
  -14.1999998      -5.72355011E-12
  -14.1899996      -1.46934635E-11
  -14.1800003      -2.21108635E-11
  -14.1700001      -2.51299329E-11
  -14.1599998      -2.13437237E-11
  -14.1499996      -9.67707772E-12
  -14.1400003       8.85131725E-12
  -14.1300001       3.07757569E-11
  -14.1199999       5.04762100E-11
  -14.1099997       6.12262949E-11
  -14.1000004       5.69059348E-11
  -14.0900002       3.40556021E-11
  -14.0799999      -6.25361742E-12
  -14.0699997      -5.73605816E-11
  -14.0600004      -1.07329860E-10
  -14.0500002      -1.40953901E-10
  -14.0400000      -1.43330389E-10
  -14.0299997      -1.04393862E-10
  -14.0200005      -2.33142776E-11
  -14.0100002       8.85929802E-11
  -14.0000000       2.07732651E-10
  -13.9899998       3.01683650E-10
  -13.9799995       3.36205341E-10
  -13.9700003       2.84693991E-10
  -13.9600000       1.37967096E-10
  -13.9499998      -8.84020218E-11
  -13.9399996      -3.51978335E-10
  -13.9300003      -5.88546489E-10
  -13.9200001      -7.24737548E-10
  -13.9099998      -6.96456948E-10
  -13.8999996      -4.69265571E-10
  -13.8900003      -5.53762418E-11
  -13.8800001       4.78367401E-10
  -13.8699999       1.01590614E-09
  -13.8599997       1.41235201E-09
  -13.8500004       1.52705470E-09
  -13.8400002       1.26297883E-09
  -13.8299999       6.02879080E-10
  -13.8199997      -3.68383463E-10
  -13.8100004      -1.46443768E-09
  -13.8000002      -2.42551135E-09
  -13.7900000      -2.97204794E-09
  -13.7799997      -2.87447244E-09
  -13.7700005      -2.02356021E-09
  -13.7600002      -4.82754225E-10
  -13.7500000       1.49484436E-09
  -13.7399998       3.49579188E-09
  -13.7299995       5.02256281E-09
  -13.7200003       5.60511548E-09
  -13.7100000       4.92487739E-09
  -13.6999998       2.92123414E-09
  -13.6899996      -1.49652638E-10
  -13.6800003      -3.72631348E-09
  -13.6700001      -7.03172853E-09
  -13.6599998      -9.23053722E-09
  -13.6499996      -9.62415658E-09
  -13.6400003      -7.84050069E-09
  -13.6300001      -3.97044975E-09
  -13.6199999       1.38974965E-09
  -13.6099997       7.21279036E-09
  -13.6000004       1.22277415E-08
  -13.5900002       1.51887178E-08
  -13.5799999       1.51692152E-08
  -13.5699997       1.18140679E-08
  -13.5600004       5.48408741E-09
  -13.5500002      -2.75217915E-09
  -13.5400000      -1.12925935E-08
  -13.5299997      -1.83157081E-08
  -13.5200005      -2.21733583E-08
  -13.5100002      -2.17756639E-08
  -13.5000000      -1.68773244E-08
  -13.4899998      -8.19064638E-09
  -13.4799995       2.71332889E-09
  -13.4700003       1.37062015E-08
  -13.4600000       2.25475105E-08
  -13.4499998       2.73770819E-08
  -13.4399996       2.71402776E-08
  -13.4300003       2.18415686E-08
  -13.4200001       1.25578827E-08
  -13.4099998       1.19845711E-09
  -13.3999996      -9.93964555E-09
  -13.3900003      -1.87169764E-08
  -13.3800001      -2.36627535E-08
  -13.3699999      -2.43167371E-08
  -13.3599997      -2.13027569E-08
  -13.3500004      -1.60995750E-08
  -13.3400002      -1.05552198E-08
  -13.3299999      -6.26734620E-09
  -13.3199997      -4.00387190E-09
  -13.3100004      -3.34817396E-09
  -13.3000002      -2.71277623E-09
  -13.2900000       2.21891047E-10
  -13.2799997       7.70515740E-09
  -13.2700005       2.09330526E-08
  -13.2600002       3.91592287E-08
  -13.2500000       5.92054548E-08
  -13.2399998       7.56266374E-08
  -13.2299995       8.16506258E-08
  -13.2200003       7.08146786E-08
  -13.2100000       3.89995840E-08
  -13.1999998      -1.36227438E-08
  -13.1899996      -8.13031136E-08
  -13.1800003      -1.52616067E-07
  -13.1700001      -2.11866308E-07
  -13.1599998      -2.41979563E-07
  -13.1499996      -2.28448641E-07
  -13.1400003      -1.63529776E-07
  -13.1300001      -4.96489783E-08
  -13.1199999       9.90217615E-08
  -13.1099997       2.57579870E-07
  -13.1000004       3.94223434E-07
  -13.0900002       4.76431211E-07
  -13.0799999       4.78335778E-07
  -13.0699997       3.87638750E-07
  -13.0600004       2.10284014E-07
  -13.0500002      -2.85763662E-08
  -13.0400000      -2.88034613E-07
  -13.0299997      -5.18962509E-07
  -13.0200005      -6.74204500E-07
  -13.0100002      -7.19162188E-07
  -13.0000000      -6.40177689E-07
  -12.9899998      -4.48461037E-07
  -12.9799995      -1.78295409E-07
  -12.9700003       1.20327684E-07
  -12.9600000       3.92982514E-07
  -12.9499998       5.93178868E-07
  -12.9399996       6.92569017E-07
  -12.9300003       6.86198234E-07
  -12.9200001       5.91330661E-07
  -12.9099998       4.40227893E-07
  -12.8999996       2.69119425E-07
  -12.8900003       1.06889196E-07
  -12.8800001      -3.27494583E-08
  -12.8699999      -1.52794712E-07
  -12.8599997      -2.67431830E-07
  -12.8500004      -3.91157272E-07
  -12.8400002      -5.26469250E-07
  -12.8299999      -6.55149734E-07
  -12.8199997      -7.37627317E-07
  -12.8100004      -7.22660843E-07
  -12.8000002      -5.66097526E-07
  -12.7900000      -2.53709658E-07
  -12.7799997       1.79631087E-07
  -12.7700005       6.42831026E-07
  -12.7600002       9.99763074E-07
  -12.7500000       1.10029248E-06
  -12.7399998       8.26323344E-07
  -12.7299995       1.41834619E-07
  -12.7200003      -8.68199550E-07
  -12.7100000      -1.98532848E-06
  -12.6999998      -2.88242495E-06
  -12.6899996      -3.18786715E-06
  -12.6800003      -2.58000023E-06
  -12.6700001      -8.91994262E-07
  -12.6599998       1.79994947E-06
  -12.6499996       5.13289206E-06
  -12.6400003       8.47895990E-06
  -12.6300001       1.10398114E-05
  -12.6199999       1.20028753E-05
  -12.6099997       1.07304695E-05
  -12.6000004       6.93995344E-06
  -12.5900002       8.29329053E-07
  -12.5799999      -6.88970795E-06
  -12.5699997      -1.50708447E-05
  -12.5600004      -2.23184234E-05
  -12.5500002      -2.72462694E-05
  -12.5400000      -2.87563980E-05
  -12.5299997      -2.62745270E-05
  -12.5200005      -1.98851576E-05
  -12.5100002      -1.03296325E-05
  -12.5000000       1.13811814E-06
  -12.4899998       1.30088329E-05
  -12.4799995       2.38297253E-05
  -12.4700003       3.24967186E-05
  -12.4600000       3.84553678E-05
  -12.4499998       4.17597548E-05
  -12.4399996       4.29735155E-05
  -12.4300003       4.29375359E-05
  -12.4200001       4.24643003E-05
  -12.4099998       4.20400866E-05
  -12.3999996       4.16168332E-05
  -12.3900003       4.05549581E-05
  -12.3800001       3.77412034E-05
  -12.3699999       3.18606944E-05
  -12.3599997       2.17617689E-05
  -12.3500004       6.82563905E-06
  -12.3400002      -1.27519470E-05
  -12.3299999      -3.58416837E-05
  -12.3199997      -6.04622619E-05
  -12.3100004      -8.40539360E-05
  -12.3000002      -1.03891092E-04
  -12.2900000      -1.17548931E-04
  -12.2799997      -1.23327496E-04
  -12.2700005      -1.20546596E-04
  -12.2600002      -1.09654720E-04
  -12.2500000      -9.21351457E-05
  -12.2399998      -7.02345715E-05
  -12.2299995      -4.65731755E-05
  -12.2200003      -2.37142067E-05
  -12.2100000      -3.77299534E-06
  -12.1999998       1.18681510E-05
  -12.1899996       2.26970405E-05
  -12.1800003       2.90473527E-05
  -12.1700001       3.19273422E-05
  -12.1599998       3.27381822E-05
  -12.1499996       3.29337927E-05
  -12.1400003       3.36817684E-05
  -12.1300001       3.55854463E-05
  -12.1199999       3.85208150E-05
  -12.1099997       4.16282237E-05
  -12.1000004       4.34770554E-05
  -12.0900002       4.23925412E-05
  -12.0799999       3.68994515E-05
  -12.0699997       2.62038138E-05
  -12.0600004       1.06084281E-05
  -12.0500002      -8.24954532E-06
  -12.0400000      -2.74332415E-05
  -12.0299997      -4.30623477E-05
  -12.0200005      -5.09724923E-05
  -12.0100002      -4.75811830E-05
  -12.0000000      -3.07938753E-05
  -11.9899998      -7.42650286E-07
  -11.9799995       3.98457887E-05
  -11.9700003       8.57992782E-05
  -11.9600000       1.30209868E-04
  -11.9499998       1.65617326E-04
  -11.9399996       1.85454104E-04
  -11.9300003       1.85449928E-04
  -11.9200001       1.64670753E-04
  -11.9099998       1.25921666E-04
  -11.8999996       7.53710046E-05
  -11.8900003       2.14283391E-05
  -11.8800001      -2.69104603E-05
  -11.8699999      -6.18967388E-05
  -11.8599997      -7.86256860E-05
  -11.8500004      -7.60192779E-05
  -11.8400002      -5.69540534E-05
  -11.8299999      -2.74933373E-05
  -11.8199997       4.59791136E-06
  -11.8100004       3.16979422E-05
  -11.8000002       4.80824528E-05
  -11.7900000       5.11585567E-05
  -11.7799997       4.18803211E-05
  -11.7700005       2.42574715E-05
  -11.7600002       4.10250232E-06
  -11.7500000      -1.26420809E-05
  -11.7399998      -2.15488126E-05
  -11.7299995      -2.08876372E-05
  -11.7200003      -1.20392842E-05
  -11.7100000       9.57210545E-07
  -11.6999998       1.25855677E-05
  -11.6899996       1.74302004E-05
  -11.6800003       1.17167701E-05
  -11.6700001      -5.60241597E-06
  -11.6599998      -3.25060100E-05
  -11.6499996      -6.43857347E-05
  -11.6400003      -9.52100236E-05
  -11.6300001      -1.19044991E-04
  -11.6199999      -1.31520486E-04
  -11.6099997      -1.30855711E-04
  -11.6000004      -1.18190488E-04
  -11.5900002      -9.71654663E-05
  -11.5799999      -7.28992891E-05
  -11.5699997      -5.06670549E-05
  -11.5600004      -3.46482520E-05
  -11.5500002      -2.70703749E-05
  -11.5400000      -2.79425458E-05
  -11.5299997      -3.53934302E-05
  -11.5200005      -4.64546392E-05
  -11.5100002      -5.80148189E-05
  -11.5000000      -6.76436466E-05
  -11.4899998      -7.40523174E-05
  -11.4799995      -7.70938786E-05
  -11.4700003      -7.73673382E-05
  -11.4600000      -7.56218651E-05
  -11.4499998      -7.22193436E-05
  -11.4399996      -6.68843568E-05
  -11.4300003      -5.88603834E-05
  -11.4200001      -4.74346889E-05
  -11.4099998      -3.26433837E-05
  -11.3999996      -1.58741495E-05
  -11.3900003      -8.28005966E-08
  -11.3800001       1.05619074E-05
  -11.3699999       1.16163637E-05
  -11.3599997      -3.06101640E-07
  -11.3500004      -2.61641289E-05
  -11.3400002      -6.35061369E-05
  -11.3299999      -1.06255888E-04
  -11.3199997      -1.45474085E-04
  -11.3100004      -1.71050910E-04
  -11.3000002      -1.74013549E-04
  -11.2900000      -1.48920721E-04
  -11.2799997      -9.57273951E-05
  -11.2700005      -2.05740489E-05
  -11.2600002       6.48219939E-05
  -11.2500000       1.45167418E-04
  -11.2399998       2.04627504E-04
  -11.2299995       2.30249774E-04
  -11.2200003       2.14991305E-04
  -11.2100000       1.59612478E-04
  -11.1999998       7.29349267E-05
  -11.1899996      -2.96694452E-05
  -11.1800003      -1.29276144E-04
  -11.1700001      -2.07250865E-04
  -11.1599998      -2.49084376E-04
  -11.1499996      -2.47357006E-04
  -11.1400003      -2.03168413E-04
  -11.1300001      -1.25725186E-04
  -11.1199999      -3.02076132E-05
  -11.1099997       6.55683034E-05
  -11.1000004       1.44913982E-04
  -11.0900002       1.95604181E-04
  -11.0799999       2.12066370E-04
  -11.0699997       1.96000910E-04
  -11.0600004       1.55393311E-04
  -11.0500002       1.02250429E-04
  -11.0400000       4.96614593E-05
  -11.0299997       8.89249441E-06
  -11.0200005      -1.28455513E-05
  -11.0100002      -1.35292294E-05
  -11.0000000       3.77774791E-06
  -10.9899998       3.20972322E-05
  -10.9799995       6.24013992E-05
  -10.9700003       8.56871193E-05
  -10.9600000       9.48033194E-05
  -10.9499998       8.57025734E-05
  -10.9399996       5.79687839E-05
  -10.9300003       1.46505636E-05
  -10.9200001      -3.84404557E-05
  -10.9099998      -9.37487639E-05
  -10.8999996      -1.43103374E-04
  -10.8900003      -1.78801056E-04
  -10.8800001      -1.94555570E-04
  -10.8699999      -1.86272184E-04
  -10.8599997      -1.52624067E-04
  -10.8500004      -9.53971248E-05
  -10.8400002      -1.95490702E-05
  -10.8299999       6.70787558E-05
  -10.8199997       1.54436202E-04
  -10.8100004       2.31310478E-04
  -10.8000002       2.86653230E-04
  -10.7900000       3.11026699E-04
  -10.7799997       2.97963707E-04
  -10.7700005       2.45037838E-04
  -10.7600002       1.54485286E-04
  -10.7500000       3.32955715E-05
  -10.7399998      -1.07234897E-04
  -10.7299995      -2.52433761E-04
  -10.7200003      -3.85590509E-04
  -10.7100000      -4.89622122E-04
  -10.6999998      -5.48990269E-04
  -10.6899996      -5.51770732E-04
  -10.6800003      -4.91711718E-04
  -10.6700001      -3.70016554E-04
  -10.6599998      -1.96484383E-04
  -10.6499996       1.04112869E-05
  -10.6400003       2.24866919E-04
  -10.6300001       4.16679628E-04
  -10.6199999       5.55596256E-04
  -10.6099997       6.16513949E-04
  -10.6000004       5.84604684E-04
  -10.5900002       4.59238916E-04
  -10.5799999       2.55645486E-04
  -10.5699997       3.60532749E-06
  -10.5600004      -2.56915111E-04
  -10.5500002      -4.82564908E-04
  -10.5400000      -6.34569733E-04
  -10.5299997      -6.86195272E-04
  -10.5200005      -6.28062233E-04
  -10.5100002      -4.70093306E-04
  -10.5000000      -2.39623449E-04
  -10.4899998       2.39030687E-05
  -10.4799995       2.76446663E-04
  -10.4700003       4.77429217E-04
  -10.4600000       5.96639002E-04
  -10.4499998       6.18688471E-04
  -10.4399996       5.44418814E-04
  -10.4300003       3.89403955E-04
  -10.4200001       1.80310570E-04
  -10.4099998      -4.98373520E-05
  -10.3999996      -2.66502902E-04
  -10.3900003      -4.37928160E-04
  -10.3800001      -5.38623484E-04
  -10.3699999      -5.52114099E-04
  -10.3599997      -4.73074208E-04
  -10.3500004      -3.08807008E-04
  -10.3400002      -7.97179018E-05
  -10.3299999       1.81816911E-04
  -10.3199997       4.34775167E-04
  -10.3100004       6.35220087E-04
  -10.3000002       7.43958110E-04
  -10.2900000       7.34829286E-04
  -10.2799997       6.01709180E-04
  -10.2700005       3.62151390E-04
  -10.2600002       5.61013476E-05
  -10.2500000      -2.60772737E-04
  -10.2399998      -5.28129865E-04
  -10.2299995      -6.94011105E-04
  -10.2200003      -7.26694067E-04
  -10.2100000      -6.22188789E-04
  -10.1999998      -4.05211031E-04
  -10.1899996      -1.23181642E-04
  -10.1800003       1.65260266E-04
  -10.1700001       4.04166640E-04
  -10.1599998       5.52848331E-04
  -10.1499996       5.93762728E-04
  -10.1400003       5.33819024E-04
  -10.1300001       3.99209501E-04
  -10.1199999       2.25810145E-04
  -10.1099997       4.84335251E-05
  -10.1000004      -1.07648797E-04
  -10.0900002      -2.30491773E-04
  -10.0799999      -3.19920277E-04
  -10.0699997      -3.81909136E-04
  -10.0600004      -4.21582692E-04
  -10.0500002      -4.37904237E-04
  -10.0400000      -4.22366284E-04
  -10.0299997      -3.62354622E-04
  -10.0200005      -2.47954362E-04
  -10.0100002      -7.94863299E-05
  -10.0000000       1.27423613E-04
  -9.98999977       3.41729698E-04
  -9.97999954       5.22603805E-04
  -9.97000027       6.29545888E-04
  -9.96000004       6.33960532E-04
  -9.94999981       5.28452860E-04
  -9.93999958       3.30636569E-04
  -9.93000031       7.99182162E-05
  -9.92000008      -1.72039450E-04
  -9.90999985      -3.74420866E-04
  -9.89999962      -4.90022707E-04
  -9.89000034      -5.03911404E-04
  -9.88000011      -4.25573438E-04
  -9.86999989      -2.84274574E-04
  -9.85999966      -1.19473698E-04
  -9.85000038       3.04460445E-05
  -9.84000015       1.37610536E-04
  -9.82999992       1.89668834E-04
  -9.81999969       1.89530168E-04
  -9.81000042       1.50821943E-04
  -9.80000019       9.13756594E-05
  -9.78999996       2.73723090E-05
  -9.77999973      -2.99204512E-05
  -9.77000046      -7.42627599E-05
  -9.76000023      -1.02296872E-04
  -9.75000000      -1.10947338E-04
  -9.73999977      -9.61955593E-05
  -9.72999954      -5.42059315E-05
  -9.72000027       1.55555645E-05
  -9.71000004       1.06786807E-04
  -9.69999981       2.04508062E-04
  -9.68999958       2.86583148E-04
  -9.68000031       3.28976661E-04
  -9.67000008       3.13463446E-04
  -9.65999985       2.35170432E-04
  -9.64999962       1.06923086E-04
  -9.64000034      -4.18499258E-05
  -9.63000011      -1.72116139E-04
  -9.61999989      -2.46437499E-04
  -9.60999966      -2.40916299E-04
  -9.60000038      -1.53822679E-04
  -9.59000015      -7.67353140E-06
  -9.57999992       1.56396563E-04
  -9.56999969       2.90509168E-04
  -9.56000042       3.54461168E-04
  -9.55000019       3.27968446E-04
  -9.53999996       2.16627232E-04
  -9.52999973       4.95678214E-05
  -9.52000046      -1.30383793E-04
  -9.51000023      -2.80628708E-04
  -9.50000000      -3.71988019E-04
  -9.48999977      -3.96652933E-04
  -9.47999954      -3.68296489E-04
  -9.47000027      -3.14597535E-04
  -9.46000004      -2.65170413E-04
  -9.44999981      -2.39527784E-04
  -9.43999958      -2.39629589E-04
  -9.43000031      -2.49809324E-04
  -9.42000008      -2.44067924E-04
  -9.40999985      -1.97922636E-04
  -9.39999962      -1.00232079E-04
  -9.39000034       3.96469368E-05
  -9.38000011       1.92346284E-04
  -9.36999989       3.16797057E-04
  -9.35999966       3.73643677E-04
  -9.35000038       3.39105842E-04
  -9.34000015       2.14368381E-04
  -9.32999992       2.70891505E-05
  -9.31999969      -1.75658744E-04
  -9.31000042      -3.40735220E-04
  -9.30000019      -4.24172846E-04
  -9.28999996      -4.03359329E-04
  -9.27999973      -2.82398338E-04
  -9.27000046      -8.93261968E-05
  -9.26000023       1.33356458E-04
  -9.25000000       3.41266423E-04
  -9.23999977       4.99538553E-04
  -9.22999954       5.89601928E-04
  -9.22000027       6.09896670E-04
  -9.21000004       5.71434852E-04
  -9.19999981       4.90872015E-04
  -9.18999958       3.84296291E-04
  -9.18000031       2.64137576E-04
  -9.17000008       1.39856391E-04
  -9.15999985       2.11718143E-05
  -9.14999962      -7.86567180E-05
  -9.14000034      -1.42033430E-04
  -9.13000011      -1.50097912E-04
  -9.11999989      -8.91588134E-05
  -9.10999966       4.18293930E-05
  -9.10000038       2.26014410E-04
  -9.09000015       4.28505475E-04
  -9.07999992       6.02588174E-04
  -9.06999969       7.01209996E-04
  -9.06000042       6.90514978E-04
  -9.05000019       5.61099092E-04
  -9.03999996       3.33057746E-04
  -9.02999973       5.27259581E-05
  -9.02000046      -2.18347166E-04
  -9.01000023      -4.19109390E-04
  -9.00000000      -5.04783413E-04
  -8.98999977      -4.58086055E-04
  -8.97999954      -2.92768062E-04
  -8.97000027      -4.88213664E-05
  -8.96000004       2.18746165E-04
  -8.94999981       4.53891786E-04
  -8.93999958       6.12146978E-04
  -8.93000031       6.68643159E-04
  -8.92000008       6.20179810E-04
  -8.90999985       4.81980707E-04
  -8.89999962       2.81252811E-04
  -8.89000034       5.01299655E-05
  -8.88000011      -1.79971452E-04
  -8.86999989      -3.81744787E-04
  -8.85999966      -5.33514947E-04
  -8.85000038      -6.19983650E-04
  -8.84000015      -6.33227581E-04
  -8.82999992      -5.74256585E-04
  -8.81999969      -4.54491179E-04
  -8.81000042      -2.95879407E-04
  -8.80000019      -1.28439744E-04
  -8.78999996       1.51512277E-05
  -8.77999973       1.07021697E-04
  -8.77000046       1.31534529E-04
  -8.76000023       9.01043895E-05
  -8.75000000       1.33584535E-06
  -8.73999977      -1.04145438E-04
  -8.72999954      -1.92917636E-04
  -8.72000027      -2.39194167E-04
  -8.71000004      -2.32955295E-04
  -8.69999981      -1.82891046E-04
  -8.68999958      -1.13005801E-04
  -8.68000031      -5.39884022E-05
  -8.67000008      -3.23785389E-05
  -8.65999985      -6.14130404E-05
  -8.64999962      -1.36848364E-04
  -8.64000034      -2.39215602E-04
  -8.63000011      -3.41544888E-04
  -8.61999989      -4.19519667E-04
  -8.60999966      -4.60096897E-04
  -8.60000038      -4.65234305E-04
  -8.59000015      -4.49296989E-04
  -8.57999992      -4.31235763E-04
  -8.56999969      -4.24764847E-04
  -8.56000042      -4.30662330E-04
  -8.55000019      -4.34591027E-04
  -8.53999996      -4.11730492E-04
  -8.52999973      -3.36810015E-04
  -8.52000046      -1.95878165E-04
  -8.51000023       4.76838886E-06
  -8.50000000       2.36248452E-04
  -8.48999977       4.52805252E-04
  -8.47999954       6.04076136E-04
  -8.47000027       6.49963738E-04
  -8.46000004       5.73077996E-04
  -8.44999981       3.84477695E-04
  -8.43999958       1.20765726E-04
  -8.43000031      -1.66372381E-04
  -8.42000008      -4.24483151E-04
  -8.40999985      -6.13587035E-04
  -8.39999962      -7.14035705E-04
  -8.39000034      -7.26866478E-04
  -8.38000011      -6.67446642E-04
  -8.36999989      -5.55698527E-04
  -8.35999966      -4.07315471E-04
  -8.35000038      -2.29692101E-04
  -8.34000015      -2.40883110E-05
  -8.32999992       2.07284786E-04
  -8.31999969       4.52881271E-04
  -8.31000042       6.86587708E-04
  -8.30000019       8.69042007E-04
  -8.28999996       9.56334057E-04
  -8.27999973       9.13788623E-04
  -8.27000046       7.30079482E-04
  -8.26000023       4.26161918E-04
  -8.25000000       5.48477765E-05
  -8.23999977      -3.10102711E-04
  -8.22999954      -5.92787925E-04
  -8.22000027      -7.36266782E-04
  -8.21000004      -7.19164906E-04
  -8.19999981      -5.62152476E-04
  -8.18999958      -3.21836153E-04
  -8.18000031      -7.37345617E-05
  -8.17000008       1.10347195E-04
  -8.15999985       1.83340846E-04
  -8.14999962       1.35678987E-04
  -8.14000034      -4.06619893E-06
  -8.13000011      -1.80471252E-04
  -8.11999989      -3.30355862E-04
  -8.10999966      -4.03134763E-04
  -8.10000038      -3.75746866E-04
  -8.09000015      -2.57631997E-04
  -8.07999992      -8.48347772E-05
  -8.06999969       9.39326928E-05
  -8.06000042       2.33863757E-04
  -8.05000019       3.07337439E-04
  -8.03999996       3.09593568E-04
  -8.02999973       2.55574007E-04
  -8.02000046       1.70058920E-04
  -8.01000023       7.56094232E-05
  -8.00000000      -1.66189293E-05
  -7.98999977      -1.09548586E-04
  -7.98000002      -2.15493943E-04
  -7.96999979      -3.46346060E-04
  -7.96000004      -5.03012561E-04
  -7.94999981      -6.68908120E-04
  -7.94000006      -8.10792146E-04
  -7.92999983      -8.87403439E-04
  -7.92000008      -8.63227178E-04
  -7.90999985      -7.22525467E-04
  -7.90000010      -4.78325819E-04
  -7.88999987      -1.72599946E-04
  -7.88000011       1.33145237E-04
  -7.86999989       3.74263473E-04
  -7.86000013       5.01195027E-04
  -7.84999990       4.93569882E-04
  -7.84000015       3.65504995E-04
  -7.82999992       1.60325246E-04
  -7.82000017      -6.35230317E-05
  -7.80999994      -2.50654470E-04
  -7.80000019      -3.64997977E-04
  -7.78999996      -3.98846547E-04
  -7.78000021      -3.71975912E-04
  -7.76999998      -3.21544358E-04
  -7.76000023      -2.86609458E-04
  -7.75000000      -2.92840763E-04
  -7.73999977      -3.42786167E-04
  -7.73000002      -4.14976967E-04
  -7.71999979      -4.71993204E-04
  -7.71000004      -4.74474422E-04
  -7.69999981      -3.96038813E-04
  -7.69000006      -2.33847226E-04
  -7.67999983      -1.11518912E-05
  -7.67000008       2.28995821E-04
  -7.65999985       4.36649018E-04
  -7.65000010       5.70041011E-04
  -7.63999987       6.07765978E-04
  -7.63000011       5.54127619E-04
  -7.61999989       4.36156348E-04
  -7.61000013       2.93660851E-04
  -7.59999990       1.65966077E-04
  -7.59000015       7.99316549E-05
  -7.57999992       4.31660847E-05
  -7.57000017       4.43663776E-05
  -7.55999994       6.01536522E-05
  -7.55000019       6.55673939E-05
  -7.53999996       4.42778182E-05
  -7.53000021      -5.09333677E-06
  -7.51999998      -6.85780251E-05
  -7.51000023      -1.22224170E-04
  -7.50000000      -1.41025783E-04
  -7.48999977      -1.08096523E-04
  -7.48000002      -2.08655838E-05
  -7.46999979       1.07695676E-04
  -7.46000004       2.52956117E-04
  -7.44999981       3.85988504E-04
  -7.44000006       4.81722498E-04