  -16.0000000       0.00000000    
  -15.9899998       0.00000000    
  -15.9799995       0.00000000    
  -15.9700003       0.00000000    
  -15.9600000       0.00000000    
  -15.9499998       0.00000000    
  -15.9399996       0.00000000    
  -15.9300003       0.00000000    
  -15.9200001       0.00000000    
  -15.9099998       0.00000000    
  -15.8999996       0.00000000    
  -15.8900003      -5.47767570E-42
  -15.8800001      -4.78205713E-40
  -15.8699999      -6.62134095E-38
  -15.8599997      -1.42636373E-36
  -15.8500004      -1.64176325E-35
  -15.8400002      -1.29209811E-34
  -15.8299999      -7.74019316E-34
  -15.8199997      -3.74231777E-33
  -15.8100004      -1.51309383E-32
  -15.8000002      -5.22950929E-32
  -15.7900000      -1.56421105E-31
  -15.7799997      -4.06382691E-31
  -15.7700005      -9.10083713E-31
  -15.7600002      -1.70717835E-30
  -15.7500000      -2.45255461E-30
  -15.7399998      -1.69863090E-30
  -15.7299995       4.33979800E-30
  -15.7200003       2.32820224E-29
  -15.7100000       6.71815462E-29
  -15.6999998       1.49581165E-28
  -15.6899996       2.74768140E-28
  -15.6800003       4.14727780E-28
  -15.6700001       4.73125346E-28
  -15.6599998       2.46952319E-28
  -15.6499996      -5.82792420E-28
  -15.6400003      -2.37354283E-27
  -15.6300001      -5.28177081E-27
  -15.6199999      -8.81004404E-27
  -15.6099997      -1.11962728E-26
  -15.6000004      -8.92875990E-27
  -15.5900002       2.99975549E-27
  -15.5799999       2.92000870E-26
  -15.5699997       6.95512961E-26
  -15.5600004       1.12591196E-25
  -15.5500002       1.29090678E-25
  -15.5400000       7.17035551E-26
  -15.5299997      -1.10369726E-25
  -15.5200005      -4.33544937E-25
  -15.5100002      -8.20083724E-25
  -15.5000000      -1.03911303E-24
  -15.4899998      -7.01616587E-25
  -15.4799995       6.13810994E-25
  -15.4700003       3.04184726E-24
  -15.4600000       5.94467868E-24
  -15.4499998       7.46836392E-24
  -15.4399996       4.58132785E-24
  -15.4300003      -5.82721887E-24
  -15.4200001      -2.44041000E-23
  -15.4099998      -4.57213052E-23
  -15.3999996      -5.53385041E-23
  -15.3900003      -3.08044567E-23
  -15.3800001       4.95432543E-23
  -15.3699999       1.88020781E-22
  -15.3599997       3.42991648E-22
  -15.3500004       4.10978028E-22
  -15.3400002       2.37190128E-22
  -15.3299999      -3.22206311E-22
  -15.3199997      -1.27753855E-21
  -15.3100004      -2.35126352E-21
  -15.3000002      -2.87437003E-21
  -15.2900000      -1.86402546E-21
  -15.2799997       1.58729780E-21
  -15.2700005       7.57701642E-21
  -15.2600002       1.44935533E-20
  -15.2500000       1.84310171E-20
  -15.2399998       1.36371387E-20
  -15.2299995      -5.31885818E-21
  -15.2200003      -3.95124242E-20
  -15.2100000      -8.07590520E-20
  -15.1999998      -1.08341596E-19
  -15.1899996      -9.10571210E-20
  -15.1800003       1.94200278E-21
  -15.1700001       1.80726815E-19
  -15.1599998       4.09342605E-19
  -15.1499996       5.87714307E-19
  -15.1400003       5.58402076E-19
  -15.1300001       1.55217521E-19
  -15.1199999      -7.01191131E-19
  -15.1099997      -1.88050124E-18
  -15.1000004      -2.94516975E-18
  -15.0900002      -3.15789868E-18
  -15.0799999      -1.67453761E-18
  -15.0699997       2.04385907E-18
  -15.0600004       7.66884853E-18
  -15.0500002       1.35023330E-17
  -15.0400000       1.63702683E-17
  -15.0299997       1.22758938E-17
  -15.0200005      -1.98281583E-18
  -15.0100002      -2.64170865E-17
  -15.0000000      -5.54274703E-17
  -14.9899998      -7.66741437E-17
  -14.9799995      -7.27868183E-17
  -14.9700003      -2.70228656E-17
  -14.9600000       6.73592893E-17
  -14.9499998       1.96380486E-16
  -14.9399996       3.17974368E-16
  -14.9300003       3.64104921E-16
  -14.9200001       2.57698154E-16
  -14.9099998      -5.43474305E-17
  -14.8999996      -5.58150190E-16
  -14.8900003      -1.13488524E-15
  -14.8800001      -1.55004785E-15
  -14.8699999      -1.49268445E-15
  -14.8599997      -6.77061493E-16
  -14.8500004       1.00340402E-15
  -14.8400002       3.31159093E-15
  -14.8299999       5.56345258E-15
  -14.8199997       6.67213655E-15
  -14.8100004       5.40713053E-15
  -14.8000002       8.75476525E-16
  -14.7900000      -6.86660642E-15
  -14.7799997      -1.62758211E-14
  -14.7700005      -2.41440440E-14
  -14.7600002      -2.60652367E-14
  -14.7500000      -1.77005305E-14
  -14.7399998       3.27561659E-15
  -14.7299995       3.50294677E-14
  -14.7200003       7.00496722E-14
  -14.7100000       9.52510708E-14
  -14.6999998       9.45187328E-14
  -14.6899996       5.38914921E-14
  -14.6800003      -3.14340296E-14
  -14.6700001      -1.50282334E-13
  -14.6599998      -2.71795959E-13
  -14.6499996      -3.47952732E-13
  -14.6400003      -3.24368299E-13
  -14.6300001      -1.59065401E-13
  -14.6199999       1.54500490E-13
  -14.6099997       5.67354377E-13
  -14.6000004       9.67266415E-13
  -14.5900002       1.19225918E-12
  -14.5799999       1.06996367E-12
  -14.5699997       4.79397446E-13
  -14.5600004      -5.78539983E-13
  -14.5500002      -1.92505105E-12
  -14.5400000      -3.18979045E-12
  -14.5299997      -3.86349329E-12
  -14.5200005      -3.42602661E-12
  -14.5100002      -1.53454506E-12
  -14.5000000       1.77252158E-12
  -14.4899998       5.92430358E-12
  -14.4799995       9.79674761E-12
  -14.4700003       1.18838611E-11
  -14.4600000       1.06775864E-11
  -14.4499998       5.20417520E-12
  -14.4399996      -4.41194347E-12
  -14.4300003      -1.65460978E-11
  -14.4200001      -2.80383876E-11
  -14.4099998      -3.46803732E-11
  -14.3999996      -3.22539495E-11
  -14.3900003      -1.79722400E-11
  -14.3800001       8.02217234E-12
  -14.3699999       4.15923684E-11
  -14.3599997       7.44961315E-11
  -14.3500004       9.56121016E-11
  -14.3400002       9.35713868E-11
  -14.3299999       6.04153602E-11
  -14.3199997      -4.57202982E-12
  -14.3100004      -9.20590063E-11
  -14.3000002      -1.82157386E-10
  -14.2900000      -2.47153797E-10
  -14.2799997      -2.57681793E-10
  -14.2700005      -1.91489366E-10
  -14.2600002      -4.28491860E-11
  -14.2500000       1.70169656E-10
  -14.2399998       4.03547196E-10
  -14.2299995       5.92565996E-10
  -14.2200003       6.65142164E-10
  -14.2100000       5.61584168E-10
  -14.1999998       2.56639709E-10
  -14.1899996      -2.22245458E-10
  -14.1800003      -7.87150234E-10
  -14.1700001      -1.29781175E-09
  -14.1599998      -1.58782276E-09
  -14.1499996      -1.50619406E-09
  -14.1400003      -9.66221325E-10
  -14.1300001       1.08065041E-11
  -14.1199999       1.27136512E-09
  -14.1099997       2.53731081E-09
  -14.1000004       3.45164985E-09
  -14.0900002       3.65924402E-09
  -14.0799999       2.90825430E-09
  -14.0699997       1.14850873E-09
  -14.0600004      -1.40206846E-09
  -14.0500002      -4.24980584E-09
  -14.0400000      -6.69301770E-09
  -14.0299997      -7.96433586E-09
  -14.0200005      -7.42563211E-09
  -14.0100002      -4.77366902E-09
  -14.0000000      -2.02011324E-10
  -13.9899998       5.53532109E-09
  -13.9799995       1.11979581E-08
  -13.9700003       1.52812145E-08
  -13.9600000       1.63579372E-08
  -13.9499998       1.34734393E-08
  -13.9399996       6.49860787E-09
  -13.9300003      -3.66189012E-09
  -13.9200001      -1.50910502E-08
  -13.9099998      -2.51506904E-08
  -13.8999996      -3.10183523E-08
  -13.8900003      -3.03762882E-08
  -13.8800001      -2.21012293E-08
  -13.8699999      -6.77572798E-09
  -13.8599997       1.31436950E-08
  -13.8500004       3.36060708E-08
  -13.8400002       4.96995440E-08
  -13.8299999       5.67290499E-08
  -13.8199997       5.14214022E-08
  -13.8100004       3.29728351E-08
  -13.8000002       3.64890429E-09
  -13.7900000      -3.12849622E-08
  -13.7799997      -6.43879616E-08
  -13.7700005      -8.75311343E-08
  -13.7600002      -9.37739202E-08
  -13.7500000      -7.92192552E-08
  -13.7399998      -4.43836541E-08
  -13.7299995       5.32434585E-09
  -13.7200003       6.02561485E-08
  -13.7100000       1.08294316E-07
  -13.6999998       1.37451323E-07
  -13.6899996       1.38760925E-07
  -13.6800003       1.08786942E-07
  -13.6700001       5.10861291E-08
  -13.6599998      -2.38594939E-08
  -13.6499996      -1.00402687E-07
  -13.6400003      -1.60944339E-07
  -13.6300001      -1.89971345E-07
  -13.6199999      -1.78013693E-07
  -13.6099997      -1.24532875E-07
  -13.6000004      -3.89101977E-08
  -13.5900002       6.09132087E-08
  -13.5799999       1.52053786E-07
  -13.5699997       2.11892043E-07
  -13.5600004       2.23726829E-07
  -13.5500002       1.81499090E-07
  -13.5400000       9.22927299E-08
  -13.5299997      -2.42557174E-08
  -13.5200005      -1.39813935E-07
  -13.5100002      -2.23837617E-07
  -13.5000000      -2.51298388E-07
  -13.4899998      -2.09800831E-07
  -13.4799995      -1.04183691E-07
  -13.4700003       4.28649827E-08
  -13.4600000       1.94788228E-07
  -13.4499998       3.09228653E-07
  -13.4399996       3.48565493E-07
  -13.4300003       2.90479250E-07
  -13.4200001       1.35816038E-07
  -13.4099998      -8.85938150E-08
  -13.3999996      -3.33480727E-07
  -13.3900003      -5.36882851E-07
  -13.3800001      -6.38332779E-07
  -13.3699999      -5.94398330E-07
  -13.3599997      -3.91810886E-07
  -13.3500004      -5.46237438E-08
  -13.3400002       3.57029990E-07
  -13.3299999       7.57154453E-07
  -13.3199997       1.05147865E-06
  -13.3100004       1.15883142E-06
  -13.3000002       1.03146158E-06
  -13.2900000       6.69302210E-07
  -13.2799997       1.24256388E-07
  -13.2700005      -5.07284994E-07
  -13.2600002      -1.10274129E-06
  -13.2500000      -1.53880899E-06
  -13.2399998      -1.71848819E-06
  -13.2299995      -1.59336446E-06
  -13.2200003      -1.17568118E-06
  -13.2100000      -5.36975165E-07
  -13.1999998       2.06786595E-07
  -13.1899996       9.20317063E-07
  -13.1800003       1.47848129E-06
  -13.1700001       1.79299809E-06
  -13.1599998       1.82978624E-06
  -13.1499996       1.61263245E-06
  -13.1400003       1.21233643E-06
  -13.1300001       7.24318113E-07
  -13.1199999       2.40852671E-07
  -13.1099997      -1.74254637E-07
  -13.1000004      -5.01161139E-07
  -13.0900002      -7.64743902E-07
  -13.0799999      -1.01973808E-06
  -13.0699997      -1.32393006E-06
  -13.0600004      -1.70695989E-06
  -13.0500002      -2.14437614E-06
  -13.0400000      -2.54615020E-06
  -13.0299997      -2.76577475E-06
  -13.0200005      -2.63091624E-06
  -13.0100002      -1.99054261E-06
  -13.0000000      -7.68016321E-07
  -12.9899998       9.93646154E-07
  -12.9799995       3.10820769E-06
  -12.9700003       5.25461928E-06
  -12.9600000       7.02099442E-06
  -12.9499998       7.97926896E-06
  -12.9399996       7.77731839E-06
  -12.9300003       6.22924699E-06
  -12.9200001       3.38245673E-06
  -12.9099998      -4.57025436E-07
  -12.8999996      -4.75189700E-06
  -12.8900003      -8.81350479E-06
  -12.8800001      -1.19221522E-05
  -12.8699999      -1.34652319E-05
  -12.8599997      -1.30645958E-05
  -12.8500004      -1.06646876E-05
  -12.8400002      -6.55981830E-06
  -12.8299999      -1.35125674E-06
  -12.8199997       4.15985915E-06
  -12.8100004       9.12284031E-06
  -12.8000002       1.27992989E-05
  -12.7900000       1.47009287E-05
  -12.7799997       1.46720713E-05
  -12.7700005       1.28981019E-05
  -12.7600002       9.83797872E-06
  -12.7500000       6.09779318E-06
  -12.7399998       2.27718715E-06
  -12.7299995      -1.17186607E-06
  -12.7200003      -4.03654576E-06
  -12.7100000      -6.35953847E-06
  -12.6999998      -8.37415973E-06
  -12.6899996      -1.03742032E-05
  -12.6800003      -1.25538272E-05
  -12.6700001      -1.48641220E-05
  -12.6599998      -1.69327632E-05
  -12.6499996      -1.80805455E-05
  -12.6400003      -1.74457000E-05
  -12.6300001      -1.41988949E-05
  -12.6199999      -7.80515438E-06
  -12.6099997       1.72938996E-06
  -12.6000004       1.36927829E-05
  -12.5900002       2.66402658E-05
  -12.5799999       3.85349158E-05
  -12.5699997       4.70500308E-05
  -12.5600004       4.99894668E-05
  -12.5500002       4.57503920E-05
  -12.5400000       3.37350357E-05
  -12.5299997       1.46192961E-05
  -12.5200005      -9.59282443E-06
  -12.5100002      -3.57618665E-05
  -12.5000000      -6.00379208E-05
  -12.4899998      -7.84553922E-05
  -12.4799995      -8.75970363E-05
  -12.4700003      -8.52072917E-05
  -12.4600000      -7.06383144E-05
  -12.4499998      -4.50395419E-05
  -12.4399996      -1.12469479E-05
  -12.4300003       2.66156258E-05
  -12.4200001       6.37562844E-05
  -12.4099998       9.54465795E-05
  -12.3999996       1.17733944E-04
  -12.3900003       1.28008716E-04
  -12.3800001       1.25329185E-04
  -12.3699999       1.10456640E-04
  -12.3599997       8.56103798E-05
  -12.3500004       5.40067886E-05
  -12.3400002       1.92863499E-05
  -12.3299999      -1.50517035E-05
  -12.3199997      -4.60977317E-05
  -12.3100004      -7.17884614E-05
  -12.3000002      -9.09470982E-05
  -12.2900000      -1.03135535E-04
  -12.2799997      -1.08391112E-04
  -12.2700005      -1.06944295E-04
  -12.2600002      -9.90116605E-05
  -12.2500000      -8.47308547E-05
  -12.2399998      -6.42585874E-05
  -12.2299995      -3.80004567E-05
  -12.2200003      -6.89665740E-06
  -12.2100000       2.73375463E-05
  -12.1999998       6.21154613E-05
  -12.1899996       9.40958416E-05
  -12.1800003       1.19530800E-04
  -12.1700001       1.34802409E-04
  -12.1599998       1.37051873E-04
  -12.1499996       1.24771585E-04
  -12.1400003       9.82266793E-05
  -12.1300001       5.96006503E-05
  -12.1199999       1.28143074E-05
  -12.1099997      -3.69648915E-05
  -12.1000004      -8.40400899E-05
  -12.0900002      -1.22997895E-04
  -12.0799999      -1.49467087E-04
  -12.0699997      -1.60688098E-04
  -12.0600004      -1.55801710E-04
  -12.0500002      -1.35827606E-04
  -12.0400000      -1.03367456E-04
  -12.0299997      -6.21194486E-05
  -12.0200005      -1.63178775E-05
  -12.0100002       2.97904317E-05
  -12.0000000       7.23499979E-05
  -11.9899998       1.08143766E-04
  -11.9799995       1.34694812E-04
  -11.9700003       1.50271793E-04
  -11.9600000       1.53863890E-04
  -11.9499998       1.45182275E-04
  -11.9399996       1.24716011E-04
  -11.9300003       9.38291050E-05
  -11.9200001       5.48478602E-05
  -11.9099998       1.10650999E-05
  -11.8999996      -3.34095930E-05
  -11.8900003      -7.39954121E-05
  -11.8800001      -1.06174208E-04
  -11.8699999      -1.26147061E-04
  -11.8599997      -1.31498964E-04
  -11.8500004      -1.21729208E-04
  -11.8400002      -9.85115184E-05
  -11.8299999      -6.55887197E-05
  -11.8199997      -2.82757974E-05
  -11.8100004       7.37192067E-06
  -11.8000002       3.55906777E-05
  -11.7900000       5.19512614E-05
  -11.7799997       5.42072303E-05
  -11.7700005       4.27694285E-05
  -11.7600002       2.06942350E-05
  -11.7500000      -6.83364942E-06
  -11.7399998      -3.34421638E-05
  -11.7299995      -5.27674274E-05
  -11.7200003      -5.96792997E-05
  -11.7100000      -5.13012674E-05
  -11.6999998      -2.76250048E-05
  -11.6899996       8.40433950E-06
  -11.6800003       5.13547675E-05
  -11.6700001       9.42425395E-05
  -11.6599998       1.29762222E-04
  -11.6499996       1.51581597E-04
  -11.6400003       1.55459740E-04
  -11.6300001       1.39981290E-04
  -11.6199999       1.06774984E-04
  -11.6099997       6.01838656E-05
  -11.6000004       6.46001126E-06
  -11.5900002      -4.73540313E-05
  -11.5799999      -9.46378495E-05
  -11.5699997      -1.30267916E-04
  -11.5600004      -1.51355664E-04
  -11.5500002      -1.57522823E-04
  -11.5400000      -1.50683816E-04
  -11.5299997      -1.34405083E-04
  -11.5200005      -1.12994421E-04
  -11.5100002      -9.05217603E-05
  -11.5000000      -6.99783122E-05
  -11.4899998      -5.27422781E-05
  -11.4799995      -3.84469313E-05
  -11.4700003      -2.52573973E-05
  -11.4600000      -1.04758374E-05
  -11.4499998       8.66967821E-06
  -11.4399996       3.42277635E-05
  -11.4300003       6.68840730E-05
  -11.4200001       1.05603467E-04
  -11.4099998       1.47613886E-04
  -11.3999996       1.88722275E-04
  -11.3900003       2.23892785E-04
  -11.3800001       2.47978576E-04
  -11.3699999       2.56484287E-04
  -11.3599997       2.46244977E-04
  -11.3500004       2.15933062E-04
  -11.3400002       1.66335696E-04
  -11.3299999       1.00377525E-04
  -11.3199997       2.28896897E-05
  -11.3100004      -5.98519000E-05
  -11.3000002      -1.40776989E-04
  -11.2900000      -2.12798870E-04
  -11.2799997      -2.69637851E-04
  -11.2700005      -3.06590169E-04
  -11.2600002      -3.21131054E-04
  -11.2500000      -3.13245109E-04
  -11.2399998      -2.85403716E-04
  -11.2299995      -2.42157024E-04
  -11.2200003      -1.89375438E-04
  -11.2100000      -1.33246940E-04
  -11.1999998      -7.91985221E-05
  -11.1899996      -3.09444986E-05
  -11.1800003       1.01406167E-05
  -11.1700001       4.51750202E-05
  -11.1599998       7.73841530E-05
  -11.1499996       1.11219349E-04
  -11.1400003       1.51129381E-04
  -11.1300001       2.00216586E-04
  -11.1199999       2.59049062E-04
  -11.1099997       3.24888359E-04
  -11.1000004       3.91526701E-04
  -11.0900002       4.49822925E-04
  -11.0799999       4.88897262E-04
  -11.0699997       4.97820787E-04
  -11.0600004       4.67532635E-04
  -11.0500002       3.92661634E-04
  -11.0400000       2.72925157E-04
  -11.0299997       1.13831004E-04
  -11.0200005      -7.34862842E-05
  -11.0100002      -2.73326994E-04
  -11.0000000      -4.67263977E-04
  -10.9899998      -6.36495592E-04
  -10.9799995      -7.64348544E-04
  -10.9700003      -8.38520646E-04
  -10.9600000      -8.52678204E-04
  -10.9499998      -8.07122618E-04
  -10.9399996      -7.08399806E-04
  -10.9300003      -5.67918294E-04
  -10.9200001      -3.99836135E-04
  -10.9099998      -2.18626898E-04
  -10.8999996      -3.68097681E-05
  -10.8900003       1.36692746E-04
  -10.8800001       2.97230494E-04
  -10.8699999       4.43998608E-04
  -10.8599997       5.78616047E-04
  -10.8500004       7.03050813E-04
  -10.8400002       8.17401859E-04
  -10.8299999       9.18106118E-04
  -10.8199997       9.97077208E-04
  -10.8100004       1.04209292E-03
  -10.8000002       1.03848416E-03
  -10.7900000       9.71877249E-04
  -10.7799997       8.31488054E-04
  -10.7700005       6.13300479E-04
  -10.7600002       3.22439242E-04
  -10.7500000      -2.58330747E-05
  -10.7399998      -4.06816340E-04
  -10.7299995      -7.88770150E-04
  -10.7200003      -1.13667536E-03
  -10.7100000      -1.41675351E-03
  -10.6999998      -1.60098297E-03
  -10.6899996      -1.67084124E-03
  -10.6800003      -1.61964807E-03
  -10.6700001      -1.45314331E-03
  -10.6599998      -1.18826074E-03
  -10.6499996      -8.50384007E-04
  -10.6400003      -4.69626451E-04
  -10.6300001      -7.68218451E-05
  -10.6199999       3.00086249E-04
  -10.6099997       6.38695026E-04
  -10.6000004       9.23501677E-04
  -10.5900002       1.14591699E-03
  -10.5799999       1.30314508E-03
  -10.5699997       1.39634660E-03
  -10.5600004       1.42860191E-03
  -10.5500002       1.40318542E-03
  -10.5400000       1.32253766E-03
  -10.5299997       1.18813326E-03
  -10.5200005       1.00121892E-03
  -10.5100002       7.64181779E-04
  -10.5000000       4.82162024E-04
  -10.4899998       1.64451863E-04
  -10.4799995      -1.74739762E-04
  -10.4700003      -5.16458589E-04
  -10.4600000      -8.38224194E-04
  -10.4499998      -1.11619080E-03
  -10.4399996      -1.32793782E-03
  -10.4300003      -1.45542668E-03
  -10.4200001      -1.48759538E-03
  -10.4099998      -1.42209814E-03
  -10.3999996      -1.26583909E-03
  -10.3900003      -1.03416073E-03
  -10.3800001      -7.48804712E-04
  -10.3699999      -4.34996735E-04
  -10.3599997      -1.18181510E-04
  -10.3500004       1.79001741E-04
  -10.3400002       4.38976247E-04
  -10.3299999       6.50364382E-04
  -10.3199997       8.07907141E-04
  -10.3100004       9.11345007E-04
  -10.3000002       9.63661994E-04
  -10.2900000       9.69221408E-04
  -10.2799997       9.32306633E-04
  -10.2700005       8.56433529E-04
  -10.2600002       7.44561024E-04
  -10.2500000       6.00052241E-04
  -10.2399998       4.28009254E-04
  -10.2299995       2.36480089E-04
  -10.2200003       3.70531161E-05
  -10.2100000      -1.55491303E-04
  -10.1999998      -3.24552588E-04
  -10.1899996      -4.53906978E-04
  -10.1800003      -5.30298159E-04
  -10.1700001      -5.45865274E-04
  -10.1599998      -4.99863352E-04
  -10.1499996      -3.99276410E-04
  -10.1400003      -2.58158980E-04
  -10.1300001      -9.58061864E-05
  -10.1199999       6.59163125E-05
  -10.1099997       2.05606499E-04
  -10.1000004       3.05211754E-04
  -10.0900002       3.52320640E-04
  -10.0799999       3.41555628E-04
  -10.0699997       2.74936785E-04
  -10.0600004       1.61254022E-04
  -10.0500002       1.46189041E-05
  -10.0400000      -1.47544954E-04
  -10.0299997      -3.06774775E-04
  -10.0200005      -4.45802812E-04
  -10.0100002      -5.50475670E-04
  -10.0000000      -6.11132418E-04
  -9.98999977      -6.23288332E-04
  -9.97999954      -5.87565708E-04
  -9.97000027      -5.08929661E-04
  -9.96000004      -3.95399111E-04
  -9.94999981      -2.56505300E-04
  -9.93999958      -1.01817139E-04
  -9.93000031       6.01620886E-05
  -9.92000008       2.22511735E-04
  -9.90999985       3.79759207E-04
  -9.89999962       5.27202617E-04
  -9.89000034       6.59954501E-04
  -9.88000011       7.72058847E-04
  -9.86999989       8.56033119E-04
  -9.85999966       9.03083012E-04
  -9.85000038       9.04066546E-04
  -9.84000015       8.51079822E-04
  -9.82999992       7.39361160E-04
  -9.81999969       5.69102587E-04
  -9.81000042       3.46748857E-04
  -9.80000019       8.54498794E-05
  -9.78999996      -1.95513363E-04
  -9.77999973      -4.72321582E-04
  -9.77000046      -7.19046104E-04
  -9.76000023      -9.10597912E-04
  -9.75000000      -1.02580409E-03
  -9.73999977      -1.05019950E-03
  -9.72999954      -9.78151686E-04
  -9.72000027      -8.14002356E-04
  -9.71000004      -5.72011166E-04
  -9.69999981      -2.75019149E-04
  -9.68999958       4.80882009E-05
  -9.68000031       3.65852291E-04
  -9.67000008       6.48199115E-04
  -9.65999985       8.70291900E-04
  -9.64999962       1.01563393E-03
  -9.64000034       1.07784290E-03
  -9.63000011       1.06072729E-03
  -9.61999989       9.76615003E-04
  -9.60999966       8.43253802E-04
  -9.60000038       6.79942837E-04
  -9.59000015       5.03750984E-04
  -9.57999992       3.26683716E-04
  -9.56999969       1.54443449E-04
  -9.56000042      -1.29667524E-05
  -9.55000019      -1.79016555E-04
  -9.53999996      -3.47450201E-04
  -9.52999973      -5.19029447E-04
  -9.52000046      -6.89152395E-04
  -9.51000023      -8.47050454E-04
  -9.50000000      -9.76847485E-04
  -9.48999977      -1.06026919E-03
  -9.47999954      -1.08036131E-03
  -9.47000027      -1.02532341E-03
  -9.46000004      -8.91553937E-04
  -9.44999981      -6.85217849E-04
  -9.43999958      -4.22024925E-04
  -9.43000031      -1.25320192E-04
  -9.42000008       1.77063514E-04
  -9.40999985       4.56545618E-04
  -9.39999962       6.87464024E-04
  -9.39000034       8.50123935E-04
  -9.38000011       9.32887197E-04
  -9.36999989       9.33162926E-04
  -9.35999966       8.57309613E-04
  -9.35000038       7.19544711E-04
  -9.34000015       5.39992121E-04
  -9.32999992       3.42034909E-04
  -9.31999969       1.49207743E-04
  -9.31000042      -1.80251882E-05
  -9.30000019      -1.45140977E-04
  -9.28999996      -2.25542550E-04
  -9.27999973      -2.61171081E-04
  -9.27000046      -2.61466368E-04
  -9.26000023      -2.40742549E-04
  -9.25000000      -2.14459476E-04
  -9.23999977      -1.95225904E-04
  -9.22999954      -1.89543134E-04
  -9.22000027      -1.96196575E-04
  -9.21000004      -2.06821074E-04
  -9.19999981      -2.08585698E-04
  -9.18999958      -1.88325401E-04
  -9.18000031      -1.36983261E-04
  -9.17000008      -5.30726393E-05
  -9.15999985       5.59013424E-05
  -9.14999962       1.74559595E-04
  -9.14000034       2.83066649E-04
  -9.13000011       3.61921062E-04
  -9.11999989       3.96771473E-04
  -9.10999966       3.81896563E-04
  -9.10000038       3.21391883E-04
  -9.09000015       2.27802288E-04
  -9.07999992       1.18705531E-04
  -9.06999969       1.23433028E-05
  -9.06000042      -7.63807257E-05
  -9.05000019      -1.38422809E-04
  -9.03999996      -1.71088395E-04
  -9.02999973      -1.76648697E-04
  -9.02000046      -1.59861607E-04
  -9.01000023      -1.25481121E-04
  -9.00000000      -7.67383390E-05
  -8.98999977      -1.53135552E-05
  -8.97999954       5.73278085E-05
  -8.97000027       1.37947995E-04
  -8.96000004       2.19911672E-04
  -8.94999981       2.92834942E-04
  -8.93999958       3.43948544E-04
  -8.93000031       3.60944134E-04
  -8.92000008       3.35453660E-04
  -8.90999985       2.65981886E-04
  -8.89999962       1.59207615E-04
  -8.89000034       2.90717762E-05
  -8.88000011      -1.06192820E-04
  -8.86999989      -2.28225152E-04
  -8.85999966      -3.22605920E-04
  -8.85000038      -3.81572609E-04
  -8.84000015      -4.04590479E-04
  -8.82999992      -3.96743068E-04
  -8.81999969      -3.65668238E-04
  -8.81000042      -3.18256090E-04
  -8.80000019      -2.58361950E-04
  -8.78999996      -1.86355202E-04
  -8.77999973      -1.00580844E-04
  -8.77000046      -3.88006640E-08
  -8.76000023       1.12921960E-04
  -8.75000000       2.31135185E-04
  -8.73999977       3.43162479E-04
  -8.72999954       4.35850117E-04
  -8.72000027       4.98071662E-04
  -8.71000004       5.24287520E-04
  -8.69999981       5.16515982E-04
  -8.68999958       4.83816606E-04
  -8.68000031       4.39274241E-04
  -8.67000008       3.95416282E-04
  -8.65999985       3.59646219E-04
  -8.64999962       3.31375253E-04
  -8.64000034       3.02014640E-04
  -8.63000011       2.58017477E-04
  -8.61999989       1.86070378E-04
  -8.60999966       7.87195531E-05
  -8.60000038      -6.15186800E-05
  -8.59000015      -2.21067618E-04
  -8.57999992      -3.77736753E-04
  -8.56999969      -5.06032608E-04
  -8.56000042      -5.83688146E-04
  -8.55000019      -5.97350416E-04
  -8.53999996      -5.45661547E-04
  -8.52999973      -4.38866497E-04
  -8.52000046      -2.95255129E-04
  -8.51000023      -1.35788039E-04
  -8.50000000       2.12154937E-05
  -8.48999977       1.63600125E-04
  -8.47999954       2.86145369E-04
  -8.47000027       3.88699002E-04
  -8.46000004       4.72769840E-04
  -8.44999981       5.38198336E-04
  -8.43999958       5.81396627E-04
  -8.43000031       5.95936144E-04
  -8.42000008       5.75249142E-04
  -8.40999985       5.16294211E-04
  -8.39999962       4.22582234E-04
  -8.39000034       3.05147551E-04
  -8.38000011       1.80814997E-04
  -8.36999989       6.81620877E-05
  -8.35999966      -1.74942761E-05
  -8.35000038      -6.83145772E-05
  -8.34000015      -8.58120111E-05
  -8.32999992      -7.96649401E-05
  -8.31999969      -6.38623023E-05
  -8.31000042      -5.15669162E-05
  -8.30000019      -5.05639327E-05
  -8.28999996      -6.09453964E-05
  -8.27999973      -7.58408205E-05
  -8.27000046      -8.48494601E-05
  -8.26000023      -7.87991303E-05
  -8.25000000      -5.39444554E-05
  -8.23999977      -1.39269114E-05
  -8.22999954       3.13217060E-05
  -8.22000027       6.93601396E-05
  -8.21000004       9.02613174E-05
  -8.19999981       9.09022783E-05
  -8.18999958       7.67597667E-05
  -8.18000031       6.03535555E-05
  -8.17000008       5.67414645E-05
  -8.15999985       7.76227898E-05
  -8.14999962       1.26212064E-04
  -8.14000034       1.94862936E-04
  -8.13000011       2.66499846E-04
  -8.11999989       3.19575687E-04
  -8.10999966       3.34998796E-04
  -8.10000038       3.02724686E-04
  -8.09000015       2.25762444E-04
  -8.07999992       1.20187178E-04
  -8.06999969       1.10823739E-05
  -8.06000042      -7.43143028E-05
  -8.05000019      -1.14091512E-04
  -8.03999996      -9.74603972E-05
  -8.02999973      -2.71970748E-05
  -8.02000046       8.17673499E-05
  -8.01000023       2.06844139E-04
  -8.00000000       3.23695480E-04
  -7.98999977       4.11622081E-04
  -7.98000002       4.56941023E-04
  -7.96999979       4.53789165E-04
  -7.96000004       4.02811216E-04
  -7.94999981       3.08907998E-04
  -7.94000006       1.79369759E-04
  -7.92999983       2.32765997E-05
  -7.92000008      -1.47771643E-04
  -7.90999985      -3.18364095E-04
  -7.90000010      -4.68665181E-04
  -7.88999987      -5.75611135E-04
  -7.88000011      -6.16377743E-04
  -7.86999989      -5.73597092E-04
  -7.86000013      -4.40890144E-04
  -7.84999990      -2.26831748E-04
  -7.84000015       4.43155732E-05
  -7.82999992       3.35894787E-04
  -7.82000017       6.05729874E-04
  -7.80999994       8.14950792E-04
  -7.80000019       9.36417491E-04
  -7.78999996       9.60407138E-04
  -7.78000021       8.95988778E-04
  -7.76999998       7.67769874E-04
  -7.76000023       6.09040493E-04
  -7.75000000       4.53334476E-04
  -7.73999977       3.26759560E-04
  -7.73000002       2.43051807E-04
  -7.71999979       2.02352603E-04
  -7.71000004       1.93538275E-04
  -7.69999981       1.98947120E-04
  -7.69000006       1.99845905E-04
  -7.67999983       1.81061085E-04
  -7.67000008       1.33767229E-04
  -7.65999985       5.62080459E-05
  -7.65000010      -4.71812964E-05
  -7.63999987      -1.67417107E-04
  -7.63000011      -2.92589044E-04
  -7.61999989      -4.09039814E-04
  -7.61000013      -5.02156036E-04
  -7.59999990      -5.57171705E-04
  -7.59000015      -5.60447050E-04
  -7.57999992      -5.01437578E-04
  -7.57000017      -3.75129690E-04
  -7.55999994      -1.84301389E-04
  -7.55000019       5.92281904E-05
  -7.53999996       3.35052522E-04
  -7.53000021       6.16573554E-04
  -7.51999998       8.74966616E-04
  -7.51000023       1.08380860E-03
  -7.50000000       1.22321164E-03
  -7.48999977       1.28243677E-03
  -7.48000002       1.26044068E-03
  -7.46999979       1.16446149E-03
  -7.46000004       1.00732828E-03
  -7.44999981       8.04494193E-04
  -7.44000006       5.71721466E-04