  -16.0000000       0.00000000    
  -15.9899998       0.00000000    
  -15.9799995       0.00000000    
  -15.9700003       0.00000000    
  -15.9600000       0.00000000    
  -15.9499998       0.00000000    
  -15.9399996       0.00000000    
  -15.9300003       0.00000000    
  -15.9200001       0.00000000    
  -15.9099998       0.00000000    
  -15.8999996       0.00000000    
  -15.8900003      -9.22642935E-39
  -15.8800001      -3.92326038E-37
  -15.8699999      -5.37243823E-36
  -15.8599997      -3.84108018E-35
  -15.8500004      -1.44724282E-34
  -15.8400002       1.37209406E-35
  -15.8299999       4.19375132E-33
  -15.8199997       3.34441955E-32
  -15.8100004       1.72457517E-31
  -15.8000002       6.86449392E-31
  -15.7900000       2.22897427E-30
  -15.7799997       5.99660782E-30
  -15.7700005       1.31589239E-29
  -15.7600002       2.17814401E-29
  -15.7500000       1.79608164E-29
  -15.7399998      -4.24992102E-29
  -15.7299995      -2.60968635E-28
  -15.7200003      -8.14759270E-28
  -15.7100000      -1.91900854E-27
  -15.6999998      -3.63980730E-27
  -15.6899996      -5.44316143E-27
  -15.6800003      -5.42797355E-27
  -15.6700001       5.63619739E-28
  -15.6599998       1.92729427E-26
  -15.6499996       5.84384584E-26
  -15.6400003       1.21460494E-25
  -15.6300001       1.96864282E-25
  -15.6199999       2.43246320E-25
  -15.6099997       1.74907842E-25
  -15.6000004      -1.40059530E-25
  -15.5900002      -8.50851765E-25
  -15.5799999      -2.04300479E-24
  -15.5699997      -3.59057890E-24
  -15.5600004      -4.94812174E-24
  -15.5500002      -4.93162824E-24
  -15.5400000      -1.60665397E-24
  -15.5299997       7.50193626E-24
  -15.5200005       2.45557475E-23
  -15.5100002       4.95205572E-23
  -15.5000000       7.70012115E-23
  -15.4899998       9.21034045E-23
  -15.4799995       6.69195250E-23
  -15.4700003      -3.86547839E-23
  -15.4600000      -2.65663185E-22
  -15.4499998      -6.27278513E-22
  -15.4399996      -1.05883642E-21
  -15.4300003      -1.35494375E-21
  -15.4200001      -1.12418773E-21
  -15.4099998       1.79043216E-22
  -15.3999996       3.06494005E-21
  -15.3900003       7.59414245E-21
  -15.3800001       1.27558779E-20
  -15.3699999       1.58311626E-20
  -15.3599997       1.21823429E-20
  -15.3500004      -3.86687711E-21
  -15.3400002      -3.63918821E-20
  -15.3299999      -8.32631280E-20
  -15.3199997      -1.30498314E-19
  -15.3100004      -1.48215217E-19
  -15.3000002      -9.26074061E-20
  -15.2900000       8.09425051E-20
  -15.2799997       3.90459829E-19
  -15.2700005       7.88518087E-19
  -15.2600002       1.12485386E-18
  -15.2500000       1.13513334E-18
  -15.2399998       4.88129516E-19
  -15.2299995      -1.08157867E-18
  -15.2200003      -3.55461884E-18
  -15.2100000      -6.37143642E-18
  -15.1999998      -8.25661578E-18
  -15.1899996      -7.29530287E-18
  -15.1800003      -1.43926170E-18
  -15.1700001       1.04717666E-17
  -15.1599998       2.73045422E-17
  -15.1499996       4.42954523E-17
  -15.1400003       5.25668283E-17
  -15.1300001       4.04487978E-17
  -15.1199999      -2.65550350E-18
  -15.1099997      -7.98973224E-17
  -15.1000004      -1.79481318E-16
  -15.0900002      -2.69043737E-16
  -15.0799999      -2.96193102E-16
  -15.0699997      -1.99509095E-16
  -15.0600004       6.78590321E-17
  -15.0500002       5.04600873E-16
  -15.0400000       1.02702787E-15
  -15.0299997       1.45039442E-15
  -15.0200005       1.50544997E-15
  -15.0100002       9.06307254E-16
  -15.0000000      -5.27943936E-16
  -14.9899998      -2.71910578E-15
  -14.9799995      -5.19329283E-15
  -14.9700003      -7.03574789E-15
  -14.9600000      -7.01551608E-15
  -14.9499998      -3.93010116E-15
  -14.9399996       2.84782684E-15
  -14.9300003       1.27402480E-14
  -14.9200001       2.34759264E-14
  -14.9099998       3.10407116E-14
  -14.8999996       3.03430817E-14
  -14.8900003       1.67228004E-14
  -14.8800001      -1.18563835E-14
  -14.8699999      -5.24659390E-14
  -14.8599997      -9.56146444E-14
  -14.8500004      -1.25456557E-13
  -14.8400002      -1.22690256E-13
  -14.8299999      -7.04007165E-14
  -14.8199997       3.79661038E-14
  -14.8100004       1.90575461E-13
  -14.8000002       3.52269700E-13
  -14.7900000       4.66214307E-13
  -14.7799997       4.64737840E-13
  -14.7700005       2.89665481E-13
  -14.7600002      -8.10737992E-14
  -14.7500000      -6.07699329E-13
  -14.7399998      -1.17379554E-12
  -14.7299995      -1.59307702E-12
  -14.7200003      -1.64498525E-12
  -14.7100000      -1.13893010E-12
  -14.6999998       3.64176056E-15
  -14.6899996       1.67134557E-12
  -14.6800003       3.51893623E-12
  -14.6700001       4.98742063E-12
  -14.6599998       5.40775844E-12
  -14.6499996       4.18601221E-12
  -14.6400003       1.03826810E-12
  -14.6300001      -3.78621266E-12
  -14.6199999      -9.37494353E-12
  -14.6099997      -1.41956525E-11
  -14.6000004      -1.63645278E-11
  -14.5900002      -1.41333594E-11
  -14.5799999      -6.51374397E-12
  -14.5699997       6.11861126E-12
  -14.5600004       2.16453175E-11
  -14.5500002       3.62554431E-11
  -14.5400000       4.50563857E-11
  -14.5299997       4.32398284E-11
  -14.5200005       2.76160796E-11
  -14.5100002      -1.84829300E-12
  -14.5000000      -4.09724372E-11
  -14.4899998      -8.12657303E-11
  -14.4799995      -1.11124783E-10
  -14.4700003      -1.18350607E-10
  -14.4600000      -9.36134850E-11
  -14.4499998      -3.40937834E-11
  -14.4399996       5.37473260E-11
  -14.4300003       1.53343963E-10
  -14.4200001       2.39935516E-10
  -14.4099998       2.85393570E-10
  -14.3999996       2.65332478E-10
  -14.3900003       1.67033484E-10
  -14.3800001      -3.89757150E-12
  -14.3699999      -2.20365837E-10
  -14.3599997      -4.35873698E-10
  -14.3500004      -5.92524307E-10
  -14.3400002      -6.34076125E-10
  -14.3299999      -5.21558630E-10
  -14.3199997      -2.47689480E-10
  -14.3100004       1.54133151E-10
  -14.3000002       6.09862882E-10
  -14.2900000       1.01569586E-09
  -14.2799997       1.25903321E-09
  -14.2700005       1.24582566E-09
  -14.2600002       9.28200738E-10
  -14.2500000       3.25105887E-10
  -14.2399998      -4.70673667E-10
  -14.2299995      -1.30321642E-09
  -14.2200003      -1.98191841E-09
  -14.2100000      -2.32302755E-09
  -14.1999998      -2.19544982E-09
  -14.1899996      -1.55967061E-09
  -14.1800003      -4.88965701E-10
  -14.1700001       8.34628699E-10
  -14.1599998       2.15139062E-09
  -14.1499996       3.17696025E-09
  -14.1400003       3.66601283E-09
  -14.1300001       3.47135831E-09
  -14.1199999       2.58318367E-09
  -14.1099997       1.13724818E-09
  -14.1000004      -6.11611095E-10
  -14.0900002      -2.34512720E-09
  -14.0799999      -3.75256093E-09
  -14.0699997      -4.59820981E-09
  -14.0600004      -4.76697748E-09
  -14.0500002      -4.27536939E-09
  -14.0400000      -3.24551497E-09
  -14.0299997      -1.85161675E-09
  -14.0200005      -2.58012389E-10
  -14.0100002       1.42765522E-09
  -14.0000000       3.16603765E-09
  -13.9899998       4.95337904E-09
  -13.9799995       6.75169254E-09
  -13.9700003       8.40577208E-09
  -13.9600000       9.58264579E-09
  -13.9499998       9.77048664E-09
  -13.9399996       8.36246095E-09
  -13.9300003       4.82737139E-09
  -13.9200001      -1.06168319E-09
  -13.9099998      -8.99884256E-09
  -13.8999996      -1.79937665E-08
  -13.8900003      -2.63721454E-08
  -13.8800001      -3.19789883E-08
  -13.8699999      -3.25885310E-08
  -13.8599997      -2.64648534E-08
  -13.8500004      -1.29590516E-08
  -13.8400002       7.01052416E-09
  -13.8299999       3.07540411E-08
  -13.8199997       5.40038521E-08
  -13.8100004       7.15496498E-08
  -13.8000002       7.82525831E-08
  -13.7900000       7.02648251E-08
  -13.7799997       4.61941667E-08
  -13.7700005       7.91740007E-09
  -13.7600002      -3.92204988E-08
  -13.7500000      -8.69786803E-08
  -13.7399998      -1.25559197E-07
  -13.7299995      -1.45520588E-07
  -13.7200003      -1.39907115E-07
  -13.7100000      -1.06130344E-07
  -13.6999998      -4.71343498E-08
  -13.6899996       2.85173858E-08
  -13.6800003       1.07788004E-07
  -13.6700001       1.75431495E-07
  -13.6599998       2.16987246E-07
  -13.6499996       2.21906731E-07
  -13.6400003       1.86122676E-07
  -13.6300001       1.13434162E-07
  -13.6199999       1.52971769E-08
  -13.6099997      -9.10576148E-08
  -13.6000004      -1.85879742E-07
  -13.5900002      -2.50888036E-07
  -13.5799999      -2.73142916E-07
  -13.5699997      -2.47922912E-07
  -13.5600004      -1.79906039E-07
  -13.5500002      -8.23133277E-08
  -13.5400000       2.58674397E-08
  -13.5299997       1.23999754E-07
  -13.5200005       1.94333921E-07
  -13.5100002       2.25895462E-07
  -13.5000000       2.16774467E-07
  -13.4899998       1.74219295E-07
  -13.4799995       1.12461585E-07
  -13.4700003       4.87707332E-08
  -13.4600000      -1.28639577E-09
  -13.4499998      -2.81497332E-08
  -13.4399996      -3.09518313E-08
  -13.4300003      -1.77650232E-08
  -13.4200001      -3.19497695E-09
  -13.4099998      -3.81485687E-09
  -13.3999996      -3.25705116E-08
  -13.3900003      -9.36746076E-08
  -13.3800001      -1.79521848E-07
  -13.3699999      -2.70758932E-07
  -13.3599997      -3.39896445E-07
  -13.3500004      -3.57919163E-07
  -13.3400002      -3.02463121E-07
  -13.3299999      -1.65522351E-07
  -13.3199997       4.14831121E-08
  -13.3100004       2.87019020E-07
  -13.3000002       5.23929941E-07
  -13.2900000       6.98657061E-07
  -13.2799997       7.63436105E-07
  -13.2700005       6.88742773E-07
  -13.2600002       4.72861927E-07
  -13.2500000       1.45816713E-07
  -13.2399998      -2.33996161E-07
  -13.2299995      -5.90465163E-07
  -13.2200003      -8.45885950E-07
  -13.2100000      -9.39149174E-07
  -13.1999998      -8.41725466E-07
  -13.1899996      -5.67286634E-07
  -13.1800003      -1.71967997E-07
  -13.1700001       2.55697472E-07
  -13.1599998       6.13672057E-07
  -13.1499996       8.10302993E-07
  -13.1400003       7.87781801E-07
  -13.1300001       5.39348775E-07
  -13.1199999       1.15432556E-07
  -13.1099997      -3.83791303E-07
  -13.1000004      -8.28813995E-07
  -13.0900002      -1.09032646E-06
  -13.0799999      -1.07144217E-06
  -13.0699997      -7.34970456E-07
  -13.0600004      -1.18664374E-07
  -13.0500002       6.66283995E-07
  -13.0400000       1.45454430E-06
  -13.0299997       2.06055256E-06
  -13.0200005       2.32005573E-06
  -13.0100002       2.12998020E-06
  -13.0000000       1.47704384E-06
  -12.9899998       4.47588519E-07
  -12.9799995      -7.84881934E-07
  -12.9700003      -1.99284591E-06
  -12.9600000      -2.94193114E-06
  -12.9499998      -3.44171713E-06
  -12.9399996      -3.38837253E-06
  -12.9300003      -2.78872744E-06
  -12.9200001      -1.75940318E-06
  -12.9099998      -5.00423710E-07
  -12.8999996       7.51025709E-07
  -12.8900003       1.77586799E-06
  -12.8800001       2.42391161E-06
  -12.8699999       2.64718051E-06
  -12.8599997       2.50672156E-06
  -12.8500004       2.15024033E-06
  -12.8400002       1.76538856E-06
  -12.8299999       1.52023154E-06
  -12.8199997       1.50657115E-06
  -12.8100004       1.70217095E-06
  -12.8000002       1.96414908E-06
  -12.7900000       2.05852461E-06
  -12.7799997       1.72171895E-06
  -12.7700005       7.40905989E-07
  -12.7600002      -9.66255925E-07
  -12.7500000      -3.29396403E-06
  -12.7399998      -5.93089544E-06
  -12.7299995      -8.39322001E-06
  -12.7200003      -1.01067099E-05
  -12.7100000      -1.05244735E-05
  -12.6999998      -9.25679706E-06
  -12.6899996      -6.18417698E-06
  -12.6800003      -1.52564678E-06
  -12.6700001       4.15795239E-06
  -12.6599998       1.00331590E-05
  -12.6499996       1.51273462E-05
  -12.6400003       1.85033459E-05
  -12.6300001       1.94414260E-05
  -12.6199999       1.75909790E-05
  -12.6099997       1.30585222E-05
  -12.6000004       6.41061342E-06
  -12.5900002      -1.41260932E-06
  -12.5799999      -9.25859422E-06
  -12.5699997      -1.59672509E-05
  -12.5600004      -2.05783581E-05
  -12.5500002      -2.24990235E-05
  -12.5400000      -2.15966411E-05
  -12.5299997      -1.81986270E-05
  -12.5200005      -1.30004264E-05
  -12.5100002      -6.90340494E-06
  -12.5000000      -8.19795105E-07
  -12.4899998       4.51103688E-06
  -12.4799995       8.65367929E-06
  -12.4700003       1.15264320E-05
  -12.4600000       1.33604981E-05
  -12.4499998       1.45812210E-05
  -12.4399996       1.56429887E-05
  -12.4300003       1.68611150E-05
  -12.4200001       1.82852600E-05
  -12.4099998       1.96492947E-05
  -12.3999996       2.04140197E-05
  -12.3900003       1.98960206E-05
  -12.3800001       1.74537145E-05
  -12.3699999       1.26858549E-05
  -12.3599997       5.59237105E-06
  -12.3500004      -3.34593051E-06
  -12.3400002      -1.31945490E-05
  -12.3299999      -2.27006185E-05
  -12.3199997      -3.05117810E-05
  -12.3100004      -3.54331460E-05
  -12.3000002      -3.66661079E-05
  -12.2900000      -3.39751568E-05
  -12.2799997      -2.77437812E-05
  -12.2700005      -1.89052644E-05
  -12.2600002      -8.76246668E-06
  -12.2500000       1.26374243E-06
  -12.2399998       9.90138324E-06
  -12.2299995       1.62502165E-05
  -12.2200003       1.99120077E-05
  -12.2100000       2.10019789E-05
  -12.1999998       2.00439554E-05
  -12.1899996       1.77796228E-05
  -12.1800003       1.49428324E-05
  -12.1700001       1.20576969E-05
  -12.1599998       9.31253635E-06
  -12.1499996       6.54180349E-06
  -12.1400003       3.32005902E-06
  -12.1300001      -8.57260716E-07
  -12.1199999      -6.35498327E-06
  -12.1099997      -1.32012374E-05
  -12.1000004      -2.09687369E-05
  -12.0900002      -2.87725816E-05
  -12.0799999      -3.53945543E-05
  -12.0699997      -3.95122443E-05
  -12.0600004      -3.99840937E-05
  -12.0500002      -3.61252096E-05
  -12.0400000      -2.79081232E-05
  -12.0299997      -1.60375384E-05
  -12.0200005      -1.87577928E-06
  -12.0100002       1.27708645E-05
  -12.0000000       2.59627323E-05
  -11.9899998       3.59696605E-05
  -11.9799995       4.15736358E-05
  -11.9700003       4.22674675E-05
  -11.9600000       3.83090592E-05
  -11.9499998       3.06233414E-05
  -11.9399996       2.05779834E-05
  -11.9300003       9.68657878E-06
  -11.9200001      -6.92043159E-07
  -11.9099998      -9.59109730E-06
  -11.8999996      -1.65592846E-05
  -11.8900003      -2.16485842E-05
  -11.8800001      -2.52776863E-05
  -11.8699999      -2.80124641E-05
  -11.8599997      -3.03244196E-05
  -11.8500004      -3.23927816E-05
  -11.8400002      -3.40042752E-05
  -11.8299999      -3.45797380E-05
  -11.8199997      -3.33242497E-05
  -11.8100004      -2.94652891E-05
  -11.8000002      -2.25192925E-05
  -11.7900000      -1.25169963E-05
  -11.7799997      -1.24690544E-07
  -11.7700005       1.33790054E-05
  -11.7600002       2.62780741E-05
  -11.7500000       3.67165703E-05
  -11.7399998       4.30584805E-05
  -11.7299995       4.42316632E-05
  -11.7200003       3.99769342E-05
  -11.7100000       3.09412135E-05
  -11.6999998       1.85861027E-05
  -11.6899996       4.92370100E-06
  -11.6800003      -7.86944747E-06
  -11.6700001      -1.78805039E-05
  -11.6599998      -2.38390530E-05
  -11.6499996      -2.53633625E-05
  -11.6400003      -2.30184451E-05
  -11.6300001      -1.81705473E-05
  -11.6199999      -1.26671439E-05
  -11.6099997      -8.41042493E-06
  -11.6000004      -6.91646210E-06
  -11.5900002      -8.95645371E-06
  -11.5799999      -1.43594398E-05
  -11.5699997      -2.20212060E-05
  -11.5600004      -3.01196906E-05
  -11.5500002      -3.64924817E-05
  -11.5400000      -3.90971400E-05
  -11.5299997      -3.64575499E-05
  -11.5200005      -2.80028999E-05
  -11.5100002      -1.42293084E-05
  -11.5000000       3.34805964E-06
  -11.4899998       2.24406194E-05
  -11.4799995       4.03778758E-05
  -11.4700003       5.45650255E-05
  -11.4600000       6.29167771E-05
  -11.4499998       6.41864899E-05
  -11.4399996       5.81352251E-05
  -11.4300003       4.55204063E-05
  -11.4200001       2.79208798E-05
  -11.4099998       7.44542513E-06
  -11.3999996      -1.36102590E-05
  -11.3900003      -3.30909315E-05
  -11.3800001      -4.92384461E-05
  -11.3699999      -6.08451992E-05
  -11.3599997      -6.72982278E-05
  -11.3500004      -6.85316772E-05
  -11.3400002      -6.49206631E-05
  -11.3299999      -5.71542623E-05
  -11.3199997      -4.61191739E-05
  -11.3100004      -3.28120805E-05
  -11.3000002      -1.82826370E-05
  -11.2900000      -3.59584055E-06
  -11.2799997       1.02041258E-05
  -11.2700005       2.21444825E-05
  -11.2600002       3.13955861E-05
  -11.2500000       3.73573821E-05
  -11.2399998       3.97421572E-05
  -11.2299995       3.86282118E-05
  -11.2200003       3.44610016E-05
  -11.2100000       2.79885699E-05
  -11.1999998       2.01348648E-05
  -11.1899996       1.18326807E-05
  -11.1800003       3.85250223E-06
  -11.1700001      -3.33098501E-06
  -11.1599998      -9.59836234E-06
  -11.1499996      -1.51511222E-05
  -11.1400003      -2.03869204E-05
  -11.1300001      -2.57126558E-05
  -11.1199999      -3.13425844E-05
  -11.1099997      -3.71368551E-05
  -11.1000004      -4.25297694E-05
  -11.0900002      -4.65777994E-05
  -11.0799999      -4.81286843E-05
  -11.0699997      -4.60819974E-05
  -11.0600004      -3.96857140E-05
  -11.0500002      -2.87994499E-05
  -11.0400000      -1.40572820E-05
  -11.0299997       3.11876192E-06
  -11.0200005       2.06725817E-05
  -11.0100002       3.62168648E-05
  -11.0000000       4.74323715E-05
  -10.9899998       5.24874595E-05
  -10.9799995       5.03935589E-05
  -10.9700003       4.12223490E-05
  -10.9600000       2.61362329E-05
  -10.9499998       7.22017830E-06
  -10.9399996      -1.28574784E-05
  -10.9300003      -3.12934644E-05
  -10.9200001      -4.56236157E-05
  -10.9099998      -5.41334557E-05
  -10.8999996      -5.61289344E-05
  -10.8900003      -5.20179638E-05
  -10.8800001      -4.31903281E-05
  -10.8699999      -3.17218946E-05
  -10.8599997      -1.99623209E-05
  -10.8500004      -1.00861862E-05
  -10.8400002      -3.69293912E-06
  -10.8299999      -1.52993186E-06
  -10.8199997      -3.38752648E-06
  -10.8100004      -8.18181798E-06
  -10.8000002      -1.42044510E-05
  -10.7900000      -1.94880340E-05
  -10.7799997      -2.22151502E-05
  -10.7700005      -2.10925209E-05
  -10.7600002      -1.56202841E-05
  -10.7500000      -6.20763649E-06
  -10.7399998       5.88429702E-06
  -10.7299995       1.87591722E-05
  -10.7200003       3.02195876E-05
  -10.7100000       3.81563186E-05
  -10.6999998       4.09218628E-05
  -10.6899996       3.76223325E-05
  -10.6800003       2.82781184E-05
  -10.6700001       1.38286277E-05
  -10.6599998      -4.01529087E-06
  -10.6499996      -2.30411697E-05
  -10.6400003      -4.08765409E-05
  -10.6300001      -5.53418686E-05
  -10.6199999      -6.47552515E-05
  -10.6099997      -6.81413585E-05
  -10.6000004      -6.53168172E-05
  -10.5900002      -5.68483738E-05
  -10.5799999      -4.39032265E-05
  -10.5699997      -2.80288459E-05
  -10.5600004      -1.09089169E-05
  -10.5500002       5.85852285E-06
  -10.5400000       2.09248974E-05
  -10.5299997       3.32777017E-05
  -10.5200005       4.22500852E-05
  -10.5100002       4.74711742E-05
  -10.5000000       4.87864418E-05
  -10.4899998       4.61808777E-05
  -10.4799995       3.97322328E-05
  -10.4700003       2.96092585E-05
  -10.4600000       1.61136832E-05
  -10.4499998      -2.50386165E-07
  -10.4399996      -1.87071710E-05
  -10.4300003      -3.81706268E-05
  -10.4200001      -5.72624886E-05
  -10.4099998      -7.44009230E-05
  -10.3999996      -8.79573709E-05
  -10.3900003      -9.64624414E-05
  -10.3800001      -9.88284155E-05
  -10.3699999      -9.45485881E-05
  -10.3599997      -8.38347260E-05
  -10.3500004      -6.76620912E-05
  -10.3400002      -4.77059984E-05
  -10.3299999      -2.61712212E-05
  -10.3199997      -5.53334394E-06
  -10.3100004       1.17744576E-05
  -10.3000002       2.36858159E-05
  -10.2900000       2.87906078E-05
  -10.2799997       2.65464969E-05
  -10.2700005       1.73795106E-05
  -10.2600002       2.65478229E-06
  -10.2500000      -1.54839636E-05
  -10.2399998      -3.43896390E-05
  -10.2299995      -5.12682709E-05
  -10.2200003      -6.35705364E-05
  -10.2100000      -6.93645343E-05
  -10.1999998      -6.76356285E-05
  -10.1899996      -5.84662885E-05
  -10.1800003      -4.30632135E-05
  -10.1700001      -2.36192573E-05
  -10.1599998      -3.02106400E-06
  -10.1499996       1.55627531E-05
  -10.1400003       2.91574888E-05
  -10.1300001       3.54530021E-05
  -10.1199999       3.31954361E-05
  -10.1099997       2.24327596E-05
  -10.1000004       4.56478210E-06
  -10.0900002      -1.78243426E-05
  -10.0799999      -4.13391062E-05
  -10.0699997      -6.23040032E-05
  -10.0600004      -7.73749707E-05
  -10.0500002      -8.41317087E-05
  -10.0400000      -8.15464227E-05
  -10.0299997      -7.02366378E-05
  -10.0200005      -5.24407806E-05
  -10.0100002      -3.17003614E-05
  -10.0000000      -1.22852607E-05
  -9.98999977       1.55009991E-06
  -9.97999954       6.35328706E-06
  -9.97000027       1.59042813E-07
  -9.96000004      -1.70619787E-05
  -9.94999981      -4.32893212E-05
  -9.93999958      -7.47133381E-05
  -9.93000031      -1.06339357E-04
  -9.92000008      -1.32835718E-04
  -9.90999985      -1.49473533E-04
  -9.89999962      -1.52981855E-04
  -9.89000034      -1.42152086E-04
  -9.88000011      -1.18070289E-04
  -9.86999989      -8.39256390E-05
  -9.85999966      -4.44271318E-05
  -9.85000038      -4.93748530E-06
  -9.84000015       2.95090267E-05
  -9.82999992       5.51146513E-05
  -9.81999969       6.99764933E-05
  -9.81000042       7.43696510E-05
  -9.80000019       7.06053906E-05
  -9.78999996       6.24993481E-05
  -9.77999973       5.45619368E-05
  -9.77000046       5.10763748E-05
  -9.76000023       5.52483762E-05
  -9.75000000       6.85927007E-05
  -9.73999977       9.06699788E-05
  -9.72999954       1.19213604E-04
  -9.72000027       1.50606938E-04
  -9.71000004       1.80602205E-04
  -9.69999981       2.05127842E-04
  -9.68999958       2.21019145E-04
  -9.68000031       2.26529926E-04
  -9.67000008       2.21534079E-04
  -9.65999985       2.07393750E-04
  -9.64999962       1.86541802E-04
  -9.64000034       1.61883509E-04
  -9.63000011       1.36155926E-04
  -9.61999989       1.11385911E-04
  -9.60999966       8.85596091E-05
  -9.60000038       6.75651390E-05
  -9.59000015       4.74067892E-05
  -9.57999992       2.66283732E-05
  -9.56999969       3.83804672E-06
  -9.56000042      -2.17933484E-05
  -9.55000019      -5.01797986E-05
  -9.53999996      -8.01977367E-05
  -9.52999973      -1.09825014E-04
  -9.52000046      -1.36513234E-04
  -9.51000023      -1.57713046E-04
  -9.50000000      -1.71437947E-04
  -9.48999977      -1.76742498E-04
  -9.47999954      -1.74008732E-04
  -9.47000027      -1.64973797E-04
  -9.46000004      -1.52484936E-04
  -9.44999981      -1.40024116E-04
  -9.43999958      -1.31090521E-04
  -9.43000031      -1.28558022E-04
  -9.42000008      -1.34130445E-04
  -9.40999985      -1.47998013E-04
  -9.39999962      -1.68761282E-04
  -9.39000034      -1.93637781E-04
  -9.38000011      -2.18914138E-04
  -9.36999989      -2.40561072E-04
  -9.35999966      -2.54898623E-04
  -9.35000038      -2.59191089E-04
  -9.34000015      -2.52065453E-04
  -9.32999992      -2.33680883E-04
  -9.31999969      -2.05626784E-04
  -9.31000042      -1.70578438E-04
  -9.30000019      -1.31786932E-04
  -9.28999996      -9.25106942E-05
  -9.27999973      -5.55050246E-05
  -9.27000046      -2.26690972E-05
  -9.26000023       5.08790799E-06
  -9.25000000       2.77520667E-05
  -9.23999977       4.59250878E-05
  -9.22999954       6.04460001E-05
  -9.22000027       7.20207900E-05
  -9.21000004       8.09598569E-05
  -9.19999981       8.70902295E-05
  -9.18999958       8.98586150E-05
  -9.18000031       8.85862028E-05
  -9.17000008       8.27917174E-05
  -9.15999985       7.24777419E-05
  -9.14999962       5.82844441E-05
  -9.14000034       4.14516289E-05
  -9.13000011       2.35857206E-05
  -9.11999989       6.28740781E-06
  -9.10999966      -9.25964741E-06
  -9.10000038      -2.26203356E-05
  -9.09000015      -3.42563799E-05
  -9.07999992      -4.54331712E-05
  -9.06999969      -5.78902327E-05
  -9.06000042      -7.33449633E-05
  -9.05000019      -9.29473099E-05
  -9.03999996      -1.16821582E-04
  -9.02999973      -1.43815341E-04
  -9.02000046      -1.71528896E-04
  -9.01000023      -1.96633453E-04
  -9.00000000      -2.15420252E-04
  -8.98999977      -2.24469870E-04
  -8.97999954      -2.21305818E-04
  -8.97000027      -2.04901196E-04
  -8.96000004      -1.75940295E-04
  -8.94999981      -1.36787945E-04
  -8.93999958      -9.11773313E-05
  -8.93000031      -4.36778246E-05
  -8.92000008       9.59360932E-07
  -8.90999985       3.84637933E-05
  -8.89999962       6.56084885E-05
  -8.89000034       8.05864984E-05
  -8.88000011       8.31506768E-05
  -8.86999989       7.45078360E-05
  -8.85999966       5.69999283E-05
  -8.85000038       3.36401390E-05
  -8.84000015       7.59500608E-06
  -8.82999992      -1.82897147E-05
  -8.81999969      -4.18349009E-05
  -8.81000042      -6.16909820E-05
  -8.80000019      -7.73070351E-05
  -8.78999996      -8.87412607E-05
  -8.77999973      -9.63854836E-05
  -8.77000046      -1.00695594E-04
  -8.76000023      -1.02012193E-04
  -8.75000000      -1.00523772E-04
  -8.73999977      -9.63751008E-05
  -8.72999954      -8.98712533E-05
  -8.72000027      -8.16904358E-05
  -8.71000004      -7.30079992E-05
  -8.69999981      -6.54568721E-05
  -8.68999958      -6.09004019E-05
  -8.68000031      -6.10564821E-05
  -8.67000008      -6.70681184E-05
  -8.65999985      -7.91442726E-05
  -8.64999962      -9.63855200E-05
  -8.64000034      -1.16861549E-04
  -8.63000011      -1.37936775E-04
  -8.61999989      -1.56767332E-04
  -8.60999966      -1.70841464E-04
  -8.60000038      -1.78423579E-04
  -8.59000015      -1.78793474E-04
  -8.57999992      -1.72237487E-04
  -8.56999969      -1.59824209E-04
  -8.56000042      -1.43058933E-04
  -8.55000019      -1.23538324E-04
  -8.53999996      -1.02709419E-04
  -8.52999973      -8.17853288E-05
  -8.52000046      -6.18007252E-05
  -8.51000023      -4.37325798E-05
  -8.50000000      -2.85869373E-05
  -8.48999977      -1.73702047E-05
  -8.47999954      -1.09185348E-05
  -8.47000027      -9.62925424E-06
  -8.46000004      -1.31971974E-05
  -8.44999981      -2.04811859E-05
  -8.43999958      -2.95995160E-05
  -8.43000031      -3.82837061E-05
  -8.42000008      -4.44294892E-05
  -8.40999985      -4.67043865E-05
  -8.39999962      -4.50312727E-05
  -8.39000034      -4.07845255E-05
  -8.38000011      -3.66068853E-05
  -8.36999989      -3.58613361E-05
  -8.35999966      -4.18392410E-05
  -8.35000038      -5.69205295E-05
  -8.34000015      -8.18995613E-05
  -8.32999992      -1.15647352E-04
  -8.31999969      -1.55191403E-04
  -8.31000042      -1.96187189E-04
  -8.30000019      -2.33662300E-04
  -8.28999996      -2.62862799E-04
  -8.27999973      -2.80029053E-04
  -8.27000046      -2.82969966E-04
  -8.26000023      -2.71368830E-04
  -8.25000000      -2.46815092E-04
  -8.23999977      -2.12598155E-04
  -8.22999954      -1.73312408E-04
  -8.22000027      -1.34315473E-04
  -8.21000004      -1.01072161E-04
  -8.19999981      -7.84180302E-05
  -8.18999958      -6.98014192E-05
  -8.18000031      -7.66026351E-05
  -8.17000008      -9.76669107E-05
  -8.15999985      -1.29199980E-04
  -8.14999962      -1.65140867E-04
  -8.14000034      -1.98040783E-04
  -8.13000011      -2.20355549E-04
  -8.11999989      -2.25931726E-04
  -8.10999966      -2.11376595E-04
  -8.10000038      -1.76983041E-04
  -8.09000015      -1.26949933E-04
  -8.07999992      -6.87860447E-05
  -8.06999969      -1.19775750E-05
  -8.06000042       3.38171121E-05
  -8.05000019       6.06568683E-05
  -8.03999996       6.38744896E-05
  -8.02999973       4.29606625E-05
  -8.02000046       1.59528111E-06
  -8.01000023      -5.31532496E-05
  -8.00000000      -1.12255249E-04
  -7.98999977      -1.66444152E-04
  -7.98000002      -2.07873163E-04
  -7.96999979      -2.31391183E-04
  -7.96000004      -2.35240237E-04
  -7.94999981      -2.21116527E-04
  -7.94000006      -1.93661297E-04
  -7.92999983      -1.59533214E-04
  -7.92000008      -1.26249244E-04
  -7.90999985      -1.00976191E-04
  -7.90000010      -8.94280965E-05
  -7.88999987      -9.49939567E-05
  -7.88000011      -1.18196018E-04
  -7.86999989      -1.56557144E-04
  -7.86000013      -2.04926342E-04
  -7.84999990      -2.56261992E-04
  -7.84000015      -3.02798144E-04
  -7.82999992      -3.37431207E-04
  -7.82000017      -3.55083204E-04
  -7.80999994      -3.53757350E-04
  -7.80000019      -3.35023680E-04
  -7.78999996      -3.03771172E-04
  -7.78000021      -2.67219380E-04
  -7.76999998      -2.33364277E-04
  -7.76000023      -2.09190097E-04
  -7.75000000      -1.99061673E-04
  -7.73999977      -2.03692354E-04
  -7.73000002      -2.19955793E-04
  -7.71999979      -2.41607457E-04
  -7.71000004      -2.60756497E-04
  -7.69999981      -2.69740558E-04
  -7.69000006      -2.62956280E-04
  -7.67999983      -2.38214430E-04
  -7.67000008      -1.97313158E-04
  -7.65999985      -1.45718746E-04
  -7.65000010      -9.14567208E-05
  -7.63999987      -4.34911199E-05
  -7.63000011      -9.96390372E-06
  -7.61999989       3.33214848E-06
  -7.61000013      -6.04047773E-06
  -7.59999990      -3.68298097E-05
  -7.59000015      -8.44349997E-05
  -7.57999992      -1.41800017E-04
  -7.57000017      -2.00659881E-04
  -7.55999994      -2.52911181E-04
  -7.55000019      -2.91891571E-04
  -7.53999996      -3.13391502E-04
  -7.53000021      -3.16269434E-04
  -7.51999998      -3.02592292E-04
  -7.51000023      -2.77276442E-04
  -7.50000000      -2.47262826E-04
  -7.48999977      -2.20327536E-04
  -7.48000002      -2.03696778E-04
  -7.46999979      -2.02694180E-04
  -7.46000004      -2.19672773E-04
  -7.44999981      -2.53461301E-04
  -7.44000006      -2.99474981E-04