  -16.0000000       0.00000000    
  -15.9899998       0.00000000    
  -15.9799995       0.00000000    
  -15.9700003       0.00000000    
  -15.9600000       0.00000000    
  -15.9499998       0.00000000    
  -15.9399996       0.00000000    
  -15.9300003       0.00000000    
  -15.9200001       0.00000000    
  -15.9099998       0.00000000    
  -15.8999996       0.00000000    
  -15.8900003      -9.31614070E-36
  -15.8800001      -1.25405284E-34
  -15.8699999      -7.12774040E-34
  -15.8599997      -1.66727564E-33
  -15.8500004       3.61151721E-33
  -15.8400002       4.26950304E-32
  -15.8299999       1.45168980E-31
  -15.8199997       7.21937496E-32
  -15.8100004      -1.77163399E-30
  -15.8000002      -1.09803134E-29
  -15.7900000      -4.08498528E-29
  -15.7799997      -1.12189548E-28
  -15.7700005      -2.36788681E-28
  -15.7600002      -3.69453789E-28
  -15.7500000      -3.35679117E-28
  -15.7399998       1.89034285E-28
  -15.7299995       1.47190852E-27
  -15.7200003       3.09673762E-27
  -15.7100000       3.04403146E-27
  -15.6999998      -2.51848004E-27
  -15.6899996      -1.64998994E-26
  -15.6800003      -3.26585056E-26
  -15.6700001      -2.25035716E-26
  -15.6599998       7.28217346E-26
  -15.6499996       3.21631804E-25
  -15.6400003       7.18806606E-25
  -15.6300001       1.02672702E-24
  -15.6199999       5.99447168E-25
  -15.6099997      -1.61590021E-24
  -15.6000004      -6.56809613E-24
  -15.5900002      -1.37629486E-23
  -15.5799999      -1.91788100E-23
  -15.5699997      -1.34800015E-23
  -15.5600004       1.70658271E-23
  -15.5500002       8.36050060E-23
  -15.5400000       1.79295033E-22
  -15.5299997       2.57896931E-22
  -15.5200005       2.17969362E-22
  -15.5100002      -8.46939243E-23
  -15.5000000      -7.68436501E-22
  -15.4899998      -1.78544754E-21
  -15.4799995      -2.73605235E-21
  -15.4700003      -2.73534108E-21
  -15.4600000      -5.07684221E-22
  -15.4499998       5.08683401E-21
  -15.4399996       1.39898795E-20
  -15.4300003       2.35362611E-20
  -15.4200001       2.73669054E-20
  -15.4099998       1.58319930E-20
  -15.3999996      -2.07658264E-20
  -15.3900003      -8.53366437E-20
  -15.3800001      -1.64568772E-19
  -15.3699999      -2.20698069E-19
  -15.3599997      -1.91281743E-19
  -15.3500004      -5.12424576E-21
  -15.3400002       3.80244071E-19
  -15.3299999       9.22945690E-19
  -15.3199997       1.44112699E-18
  -15.3100004       1.59204330E-18
  -15.3000002       9.30357229E-19
  -15.2900000      -9.18714144E-19
  -15.2799997      -3.97363339E-18
  -15.2700005      -7.56876547E-18
  -15.2600002      -1.01388512E-17
  -15.2500000      -9.33281829E-18
  -15.2399998      -2.66369259E-18
  -15.2299995       1.12329183E-17
  -15.2200003       3.09375078E-17
  -15.2100000       5.07662977E-17
  -15.1999998       6.04021246E-17
  -15.1899996       4.66747613E-17
  -15.1800003      -1.83046777E-18
  -15.1700001      -8.76243871E-17
  -15.1599998      -1.96416022E-16
  -15.1499996      -2.91891974E-16
  -15.1400003      -3.17640135E-16
  -15.1300001      -2.10222632E-16
  -15.1199999       7.53223188E-17
  -15.1099997       5.31388978E-16
  -15.1000004       1.06554193E-15
  -15.0900002       1.48634409E-15
  -15.0799999       1.52545425E-15
  -15.0699997       9.08906586E-16
  -15.0600004      -5.23857426E-16
  -15.0500002      -2.67688902E-15
  -15.0400000      -5.07910855E-15
  -15.0299997      -6.85659830E-15
  -15.0200005      -6.86153311E-15
  -15.0100002      -3.99404029E-15
  -15.0000000       2.30805128E-15
  -14.9899998       1.15209855E-14
  -14.9799995       2.16223778E-14
  -14.9700003       2.90580175E-14
  -14.9600000       2.93086918E-14
  -14.9499998       1.81531121E-14
  -14.9399996      -6.50381924E-15
  -14.9300003      -4.26587646E-14
  -14.9200001      -8.27860390E-14
  -14.9099998      -1.13792087E-13
  -14.8999996      -1.19063857E-13
  -14.8900003      -8.28868766E-14
  -14.8800001       3.24681239E-15
  -14.8699999       1.33853947E-13
  -14.8599997       2.84459007E-13
  -14.8500004       4.11051835E-13
  -14.8400002       4.56314511E-13
  -14.8299999       3.63566328E-13
  -14.8199997       9.70690542E-14
  -14.8100004      -3.35520647E-13
  -14.8000002      -8.65402910E-13
  -14.7900000      -1.35785046E-12
  -14.7799997      -1.62783025E-12
  -14.7700005      -1.47974677E-12
  -14.7600002      -7.68470032E-13
  -14.7500000       5.29582129E-13
  -14.7399998       2.25465024E-12
  -14.7299995       4.03557179E-12
  -14.7200003       5.31898874E-12
  -14.7100000       5.47037459E-12
  -14.6999998       3.94402002E-12
  -14.6899996       4.95637873E-13
  -14.6800003      -4.61317703E-12
  -14.6700001      -1.04872161E-11
  -14.6599998      -1.56180451E-11
  -14.6499996      -1.81053696E-11
  -14.6400003      -1.60893417E-11
  -14.6300001      -8.34158350E-12
  -14.6199999       5.10701420E-12
  -14.6099997       2.24816537E-11
  -14.6000004       4.01257777E-11
  -14.5900002       5.28827086E-11
  -14.5799999       5.50743895E-11
  -14.5699997       4.20008681E-11
  -14.5600004       1.16985371E-11
  -14.5500002      -3.34770232E-11
  -14.5400000      -8.59778013E-11
  -14.5299997      -1.33408021E-10
  -14.5200005      -1.60407174E-10
  -14.5100002      -1.52044155E-10
  -14.5000000      -9.82413387E-11
  -14.4899998       1.71387730E-12
  -14.4799995       1.35843184E-10
  -14.4700003       2.78673057E-10
  -14.4600000       3.93979821E-10
  -14.4499998       4.41410991E-10
  -14.4399996       3.86304960E-10
  -14.4300003       2.10920878E-10
  -14.4200001      -7.56275390E-11
  -14.4099998      -4.31850639E-10
  -14.3999996      -7.85540966E-10
  -14.3900003      -1.04415177E-09
  -14.3800001      -1.11345955E-09
  -14.3699999      -9.21706211E-10
  -14.3599997      -4.44216247E-10
  -14.3500004       2.77890655E-10
  -14.3400002       1.13124587E-09
  -14.3299999       1.94066119E-09
  -14.3199997       2.49769960E-09
  -14.3100004       2.60422395E-09
  -14.3000002       2.12322360E-09
  -14.2900000       1.02576447E-09
  -14.2799997      -5.78326775E-10
  -14.2700005      -2.43678411E-09
  -14.2600002      -4.18424317E-09
  -14.2500000      -5.40363265E-09
  -14.2399998      -5.71075764E-09
  -14.2299995      -4.84629936E-09
  -14.2200003      -2.75537149E-09
  -14.2100000       3.65057623E-10
  -14.1999998       4.06580281E-09
  -14.1899996       7.69830333E-09
  -14.1800003       1.05158433E-08
  -14.1700001       1.18076020E-08
  -14.1599998       1.10419167E-08
  -14.1499996       7.99188626E-09
  -14.1400003       2.81857537E-09
  -14.1300001      -3.90583299E-09
  -14.1199999      -1.12423031E-08
  -14.1099997      -1.79929689E-08
  -14.1000004      -2.28599948E-08
  -14.0900002      -2.46361793E-08
  -14.0799999      -2.24055352E-08
  -14.0699997      -1.57319135E-08
  -14.0600004      -4.81428053E-09
  -14.0500002       9.41323464E-09
  -14.0400000       2.52599364E-08
  -14.0299997       4.03609839E-08
  -14.0200005       5.18866941E-08
  -14.0100002       5.68926914E-08
  -14.0000000       5.28038164E-08
  -13.9899998       3.79925105E-08
  -13.9799995       1.23711867E-08
  -13.9700003      -2.21214389E-08
  -13.9600000      -6.12867765E-08
  -13.9499998      -9.88301352E-08
  -13.9399996      -1.27024691E-07
  -13.9300003      -1.37893338E-07
  -13.9200001      -1.24805183E-07
  -13.9099998      -8.42484411E-08
  -13.8999996      -1.74232202E-08
  -13.8900003       6.87655017E-08
  -13.8800001       1.61709735E-07
  -13.8699999       2.44360876E-07
  -13.8599997       2.97786670E-07
  -13.8500004       3.04757634E-07
  -13.8400002       2.53791939E-07
  -13.8299999       1.42845821E-07
  -13.8199997      -1.82607707E-08
  -13.8100004      -2.07494807E-07
  -13.8000002      -3.92834693E-07
  -13.7900000      -5.37072879E-07
  -13.7799997      -6.04611330E-07
  -13.7700005      -5.69106021E-07
  -13.7600002      -4.20427455E-07
  -13.7500000      -1.69308052E-07
  -13.7399998       1.51690301E-07
  -13.7299995       4.91635262E-07
  -13.7200003       7.88976990E-07
  -13.7100000       9.82496204E-07
  -13.6999998       1.02350600E-06
  -13.6899996       8.86864711E-07
  -13.6800003       5.78346658E-07
  -13.6700001       1.36468813E-07
  -13.6599998      -3.72107451E-07
  -13.6499996      -8.63158846E-07
  -13.6400003      -1.24970165E-06
  -13.6300001      -1.45821400E-06
  -13.6199999      -1.44301271E-06
  -13.6099997      -1.19574702E-06
  -13.6000004      -7.47906824E-07
  -13.5900002      -1.65679637E-07
  -13.5799999       4.61862101E-07
  -13.5699997       1.03880507E-06
  -13.5600004       1.47930018E-06
  -13.5500002       1.72180808E-06
  -13.5400000       1.73784315E-06
  -13.5299997       1.53371764E-06
  -13.5200005       1.14549050E-06
  -13.5100002       6.28939461E-07
  -13.5000000       4.74876174E-08
  -13.4899998      -5.38682798E-07
  -13.4799995      -1.07967537E-06
  -13.4700003      -1.53778160E-06
  -13.4600000      -1.88464878E-06
  -13.4499998      -2.09573818E-06
  -13.4399996      -2.14511442E-06
  -13.4300003      -2.00367094E-06
  -13.4200001      -1.64291760E-06
  -13.4099998      -1.04463732E-06
  -13.3999996      -2.14520256E-07
  -13.3900003       8.04066303E-07
  -13.3800001       1.92108178E-06
  -13.3699999       3.00022748E-06
  -13.3599997       3.87170849E-06
  -13.3500004       4.35737684E-06
  -13.3400002       4.30486034E-06
  -13.3299999       3.62417450E-06
  -13.3199997       2.31842546E-06
  -13.3100004       5.00237604E-07
  -13.3000002      -1.61230457E-06
  -13.2900000      -3.72236150E-06
  -13.2799997      -5.50074174E-06
  -13.2700005      -6.64406753E-06
  -13.2600002      -6.93314769E-06
  -13.2500000      -6.27881991E-06
  -13.2399998      -4.74434410E-06
  -13.2299995      -2.53802978E-06
  -13.2200003       2.36996023E-08
  -13.2100000       2.57565353E-06
  -13.1999998       4.77283720E-06
  -13.1899996       6.35337392E-06
  -13.1800003       7.18065803E-06
  -13.1700001       7.25473183E-06
  -13.1599998       6.69044948E-06
  -13.1499996       5.66863037E-06
  -13.1400003       4.37392555E-06
  -13.1300001       2.93739208E-06
  -13.1199999       1.40141788E-06
  -13.1099997      -2.80712953E-07
  -13.1000004      -2.20759489E-06
  -13.0900002      -4.46287868E-06
  -13.0799999      -7.03691967E-06
  -13.0699997      -9.76096180E-06
  -13.0600004      -1.22779738E-05
  -13.0500002      -1.40674183E-05
  -13.0400000      -1.45287650E-05
  -13.0299997      -1.31129427E-05
  -13.0200005      -9.47606895E-06
  -13.0100002      -3.61961497E-06
  -13.0000000       4.02114620E-06
  -12.9899998       1.25713414E-05
  -12.9799995       2.08084657E-05
  -12.9700003       2.73457172E-05
  -12.9600000       3.08779272E-05
  -12.9499998       3.04432906E-05
  -12.9399996       2.56456024E-05
  -12.9300003       1.67852832E-05
  -12.9200001       4.86349063E-06
  -12.9099998      -8.55090548E-06
  -12.8999996      -2.15719811E-05
  -12.8900003      -3.23186214E-05
  -12.8800001      -3.92433139E-05
  -12.8699999      -4.13996968E-05
  -12.8599997      -3.85924468E-05
  -12.8500004      -3.13782075E-05
  -12.8400002      -2.09195623E-05
  -12.8299999      -8.72752480E-06
  -12.8199997       3.64623725E-06
  -12.8100004       1.48946338E-05
  -12.8000002       2.41515136E-05
  -12.7900000       3.10556716E-05
  -12.7799997       3.56734708E-05
  -12.7700005       3.83087172E-05
  -12.7600002       3.92595866E-05
  -12.7500000       3.85988897E-05
  -12.7399998       3.60505946E-05
  -12.7299995       3.10119904E-05
  -12.7200003       2.27322507E-05
  -12.7100000       1.06134121E-05
  -12.6999998      -5.43971692E-06
  -12.6899996      -2.47178050E-05
  -12.6800003      -4.55508016E-05
  -12.6700001      -6.53694879E-05
  -12.6599998      -8.10106649E-05
  -12.6499996      -8.92339085E-05
  -12.6400003      -8.73618847E-05
  -12.6300001      -7.39156530E-05
  -12.6199999      -4.91024257E-05
  -12.6099997      -1.50312917E-05
  -12.6000004       2.44196399E-05
  -12.5900002       6.40923245E-05
  -12.5799999       9.83261343E-05
  -12.5699997       1.21890240E-04
  -12.5600004       1.30897650E-04
  -12.5500002       1.23522608E-04
  -12.5400000       1.00375801E-04
  -12.5299997       6.44562533E-05
  -12.5200005       2.06817876E-05
  -12.5100002      -2.49163932E-05
  -12.5000000      -6.61827071E-05
  -12.4899998      -9.78225580E-05
  -12.4799995      -1.16200659E-04
  -12.4700003      -1.19811019E-04
  -12.4600000      -1.09347609E-04
  -12.4499998      -8.73878016E-05
  -12.4399996      -5.77778083E-05
  -12.4300003      -2.48646629E-05
  -12.4200001       7.25994641E-06
  -12.4099998       3.53545292E-05
  -12.3999996       5.73598882E-05
  -12.3900003       7.24347847E-05
  -12.3800001       8.07323304E-05
  -12.3699999       8.30114222E-05
  -12.3599997       8.02079812E-05
  -12.3500004       7.30884494E-05
  -12.3400002       6.20745268E-05
  -12.3299999       4.72736283E-05
  -12.3199997       2.86877221E-05
  -12.3100004       6.52121935E-06
  -12.3000002      -1.85207355E-05
  -12.2900000      -4.50511034E-05
  -12.2799997      -7.10128006E-05
  -12.2700005      -9.39058955E-05
  -12.2600002      -1.11190755E-04
  -12.2500000      -1.20774195E-04
  -12.2399998      -1.21455516E-04
  -12.2299995      -1.13210597E-04
  -12.2200003      -9.72275739E-05
  -12.2100000      -7.56674563E-05
  -12.1999998      -5.11945473E-05
  -12.1899996      -2.63851998E-05
  -12.1800003      -3.16258138E-06
  -12.1700001       1.75919231E-05
  -12.1599998       3.61371676E-05
  -12.1499996       5.36358748E-05
  -12.1400003       7.16252252E-05
  -12.1300001       9.13175027E-05
  -12.1199999       1.12910529E-04
  -12.1099997       1.35101684E-04
  -12.1000004       1.54965732E-04
  -12.0900002       1.68278886E-04
  -12.0799999       1.70267391E-04
  -12.0699997       1.56651062E-04
  -12.0600004       1.24766739E-04
  -12.0500002       7.45177313E-05
  -12.0400000       8.91159016E-06
  -12.0299997      -6.59766592E-05
  -12.0200005      -1.41662953E-04
  -12.0100002      -2.08447935E-04
  -12.0000000      -2.56940053E-04
  -11.9899998      -2.79622327E-04
  -11.9799995      -2.72158621E-04
  -11.9700003      -2.34182182E-04
  -11.9600000      -1.69412102E-04
  -11.9499998      -8.50803044E-05
  -11.9399996       9.20973071E-06
  -11.9300003       1.02960672E-04
  -11.9200001       1.86305726E-04
  -11.9099998       2.51297926E-04
  -11.8999996       2.92749784E-04
  -11.8900003       3.08520306E-04
  -11.8800001       2.99272593E-04
  -11.8699999       2.67836091E-04
  -11.8599997       2.18377507E-04
  -11.8500004       1.55600341E-04
  -11.8400002       8.41509391E-05
  -11.8299999       8.32731348E-06
  -11.8199997      -6.79141958E-05
  -11.8100004      -1.40750417E-04
  -11.8000002      -2.06234909E-04
  -11.7900000      -2.60157190E-04
  -11.7799997      -2.98142229E-04
  -11.7700005      -3.16037273E-04
  -11.7600002      -3.10540840E-04
  -11.7500000      -2.79943721E-04
  -11.7399998      -2.24801319E-04
  -11.7299995      -1.48349180E-04
  -11.7200003      -5.65173941E-05
  -11.7100000       4.25204489E-05
  -11.6999998       1.39228287E-04
  -11.6899996       2.23888026E-04
  -11.6800003       2.87881034E-04
  -11.6700001       3.24846740E-04
  -11.6599998       3.31515592E-04
  -11.6499996       3.08076706E-04
  -11.6400003       2.58029118E-04
  -11.6300001       1.87561498E-04
  -11.6199999       1.04586536E-04
  -11.6099997       1.76088943E-05
  -11.6000004      -6.53791139E-05
  -11.5900002      -1.37802243E-04
  -11.5799999      -1.95086701E-04
  -11.5699997      -2.34871506E-04
  -11.5600004      -2.56863743E-04
  -11.5500002      -2.62413116E-04
  -11.5400000      -2.53919832E-04
  -11.5299997      -2.34203282E-04
  -11.5200005      -2.05949196E-04
  -11.5100002      -1.71324529E-04
  -11.5000000      -1.31808731E-04
  -11.4899998      -8.82463137E-05
  -11.4799995      -4.10846951E-05
  -11.4700003       9.26958728E-06
  -11.4600000       6.20611754E-05
  -11.4499998       1.15851239E-04
  -11.4399996       1.68314815E-04
  -11.4300003       2.16224071E-04
  -11.4200001       2.55639141E-04
  -11.4099998       2.82292924E-04
  -11.3999996       2.92122771E-04
  -11.3900003       2.81874702E-04
  -11.3800001       2.49690638E-04
  -11.3699999       1.95587505E-04
  -11.3599997       1.21748548E-04
  -11.3500004       3.25702822E-05
  -11.3400002      -6.55595941E-05
  -11.3299999      -1.64744488E-04
  -11.3199997      -2.56280095E-04
  -11.3100004      -3.31506075E-04
  -11.3000002      -3.82721482E-04
  -11.2900000      -4.04066115E-04
  -11.2799997      -3.92269139E-04
  -11.2700005      -3.47172987E-04
  -11.2600002      -2.71955243E-04
  -11.2500000      -1.72995336E-04
  -11.2399998      -5.93661134E-05
  -11.2299995       5.80297237E-05
  -11.2200003       1.67609294E-04
  -11.2100000       2.58428918E-04
  -11.1999998       3.21514992E-04
  -11.1899996       3.51023336E-04
  -11.1800003       3.45044449E-04
  -11.1700001       3.05903814E-04
  -11.1599998       2.39872170E-04
  -11.1499996       1.56288632E-04
  -11.1400003       6.62028397E-05
  -11.1300001      -1.92644038E-05
  -11.1199999      -9.05760680E-05
  -11.1099997      -1.41162382E-04
  -11.1000004      -1.68279439E-04
  -11.0900002      -1.73176202E-04
  -11.0799999      -1.60529220E-04
  -11.0699997      -1.37246869E-04
  -11.0600004      -1.10873189E-04
  -11.0500002      -8.79099389E-05
  -11.0400000      -7.24008059E-05
  -11.0299997      -6.50778384E-05
  -11.0200005      -6.32614174E-05
  -11.0100002      -6.15538083E-05
  -11.0000000      -5.32012782E-05
  -10.9899998      -3.18560560E-05
  -10.9799995       6.62436605E-06
  -10.9700003       6.27250774E-05
  -10.9600000       1.32499437E-04
  -10.9499998       2.07681995E-04
  -10.9399996       2.76731502E-04
  -10.9300003       3.26667039E-04
  -10.9200001       3.45400331E-04
  -10.9099998       3.24155611E-04
  -10.8999996       2.59528664E-04
  -10.8900003       1.54774229E-04
  -10.8800001       2.00250288E-05
  -10.8699999      -1.28683008E-04
  -10.8599997      -2.71502358E-04
  -10.8500004      -3.87703156E-04
  -10.8400002      -4.58993833E-04
  -10.8299999      -4.72686224E-04
  -10.8199997      -4.24143422E-04
  -10.8100004      -3.18034319E-04
  -10.8000002      -1.68091661E-04
  -10.7900000       4.68476583E-06
  -10.7799997       1.75163703E-04
  -10.7700005       3.18083679E-04
  -10.7600002       4.12255671E-04
  -10.7500000       4.44221776E-04
  -10.7399998       4.10679029E-04
  -10.7299995       3.19168699E-04
  -10.7200003       1.86833204E-04
  -10.7100000       3.74019910E-05
  -10.6999998      -1.03081358E-04
  -10.6899996      -2.11012681E-04
  -10.6800003      -2.69559183E-04
  -10.6700001      -2.71721452E-04
  -10.6599998      -2.21506256E-04
  -10.6499996      -1.32954854E-04
  -10.6400003      -2.72009638E-05
  -10.6300001       7.18649972E-05
  -10.6199999       1.42455683E-04
  -10.6099997       1.69286010E-04
  -10.6000004       1.46617094E-04
  -10.5900002       7.93286745E-05
  -10.5799999      -1.81857176E-05
  -10.5699997      -1.25053324E-04
  -10.5600004      -2.18239744E-04
  -10.5500002      -2.77243613E-04
  -10.5400000      -2.88198789E-04
  -10.5299997      -2.46556418E-04
  -10.5200005      -1.57834904E-04
  -10.5100002      -3.63407780E-05
  -10.5000000       9.78122480E-05
  -10.4899998       2.22717281E-04
  -10.4799995       3.18866223E-04
  -10.4700003       3.72665207E-04
  -10.4600000       3.78600758E-04
  -10.4499998       3.39698076E-04
  -10.4399996       2.66285904E-04
  -10.4300003       1.73431807E-04
  -10.4200001       7.76621819E-05
  -10.4099998      -6.31212242E-06
  -10.3999996      -6.81967940E-05
  -10.3900003      -1.03562903E-04
  -10.3800001      -1.13941220E-04
  -10.3699999      -1.05658080E-04
  -10.3599997      -8.77652928E-05
  -10.3500004      -6.95799317E-05
  -10.3400002      -5.83946421E-05
  -10.3299999      -5.78438994E-05
  -10.3199997      -6.72429742E-05
  -10.3100004      -8.19934794E-05
  -10.3000002      -9.49218738E-05
  -10.2900000      -9.82295824E-05
  -10.2799997      -8.56175320E-05
  -10.2700005      -5.41225090E-05
  -10.2600002      -5.26587155E-06
  -10.2500000       5.47470227E-05
  -10.2399998       1.15853814E-04
  -10.2299995       1.65866135E-04
  -10.2200003       1.92802094E-04
  -10.2100000       1.87387806E-04
  -10.1999998       1.45239319E-04
  -10.1899996       6.82672471E-05
  -10.1800003      -3.50351584E-05
  -10.1700001      -1.50567590E-04
  -10.1599998      -2.60773202E-04
  -10.1499996      -3.47634486E-04
  -10.1400003      -3.95987736E-04
  -10.1300001      -3.96518764E-04
  -10.1199999      -3.47812631E-04
  -10.1099997      -2.56972329E-04
  -10.1000004      -1.38579388E-04
  -10.0900002      -1.21011335E-05
  -10.0799999       1.01812431E-04
  -10.0699997       1.85427038E-04
  -10.0600004       2.27567740E-04
  -10.0500002       2.25999931E-04
  -10.0400000       1.87968501E-04
  -10.0299997       1.28690444E-04
  -10.0200005       6.80428857E-05
  -10.0100002       2.61073455E-05
  -10.0000000       1.85218541E-05
  -9.98999977       5.26799631E-05
  -9.97999954       1.25667211E-04
  -9.97000027       2.24464544E-04
  -9.96000004       3.28450493E-04
  -9.94999981       4.13711386E-04
  -9.93999958       4.58244700E-04
  -9.93000031       4.46915714E-04
  -9.92000008       3.75062926E-04
  -9.90999985       2.49934557E-04
  -9.89999962       8.96166166E-05
  -9.89000034      -8.03324001E-05
  -9.88000011      -2.31820246E-04
  -9.86999989      -3.39677383E-04
  -9.85999966      -3.86481872E-04
  -9.85000038      -3.65767657E-04
  -9.84000015      -2.83008616E-04
  -9.82999992      -1.54262845E-04
  -9.81999969      -2.85658643E-06
  -9.81000042       1.45131620E-04
  -9.80000019       2.65633542E-04
  -9.78999996       3.40670755E-04
  -9.77999973       3.61037091E-04
  -9.77000046       3.27210349E-04
  -9.76000023       2.48496799E-04
  -9.75000000       1.40741773E-04
  -9.73999977       2.31591312E-05
  -9.72999954      -8.50842334E-05
  -9.72000027      -1.67939259E-04
  -9.71000004      -2.14750471E-04
  -9.69999981      -2.21473791E-04
  -9.68999958      -1.90764084E-04
  -9.68000031      -1.31024892E-04
  -9.67000008      -5.46365955E-05
  -9.65999985       2.43369432E-05
  -9.64999962       9.26140783E-05
  -9.64000034       1.39965196E-04
  -9.63000011       1.60934767E-04
  -9.61999989       1.55719972E-04
  -9.60999966       1.30018510E-04
  -9.60000038       9.38165031E-05
  -9.59000015       5.92788456E-05
  -9.57999992       3.80991842E-05
  -9.56999969       3.88174121E-05
  -9.56000042       6.46741755E-05
  -9.55000019       1.12513437E-04
  -9.53999996       1.73058856E-04
  -9.52999973       2.32606588E-04
  -9.52000046       2.75853527E-04
  -9.51000023       2.89294025E-04
  -9.50000000       2.64442206E-04
  -9.48999977       2.00128197E-04
  -9.47999954       1.03286889E-04
  -9.47000027      -1.20203458E-05
  -9.46000004      -1.27209612E-04
  -9.44999981      -2.22877003E-04
  -9.43999958      -2.82795721E-04
  -9.43000031      -2.97311519E-04
  -9.42000008      -2.65356997E-04
  -9.40999985      -1.94612119E-04
  -9.39999962      -9.97622556E-05
  -9.39000034       7.51794687E-07
  -9.38000011       8.87447895E-05
  -9.36999989       1.50134641E-04
  -9.35999966       1.77745824E-04
  -9.35000038       1.72442175E-04
  -9.34000015       1.42368997E-04
  -9.32999992       1.00539699E-04
  -9.31999969       6.13978773E-05
  -9.31000042       3.72207287E-05
  -9.30000019       3.52470997E-05
  -9.28999996       5.62093483E-05
  -9.27999973       9.45749562E-05
  -9.27000046       1.40359654E-04
  -9.26000023       1.81973737E-04
  -9.25000000       2.09313424E-04
  -9.23999977       2.16274188E-04
  -9.22999954       2.02049894E-04
  -9.22000027       1.70937026E-04
  -9.21000004       1.30785585E-04
  -9.19999981       9.06090281E-05
  -9.18999958       5.80792657E-05
  -9.18000031       3.76289245E-05
  -9.17000008       2.96700655E-05
  -9.15999985       3.10811265E-05
  -9.14999962       3.67239336E-05
  -9.14000034       4.14497081E-05
  -9.13000011       4.19294593E-05
  -9.11999989       3.77342185E-05
  -9.10999966       3.13605597E-05
  -9.10000038       2.72555117E-05
  -9.09000015       3.02207573E-05
  -9.07999992       4.37631097E-05
  -9.06999969       6.89450899E-05
  -9.06000042       1.04085106E-04
  -9.05000019       1.45337122E-04
  -9.03999996       1.87861442E-04
  -9.02999973       2.27096694E-04
  -9.02000046       2.59634224E-04
  -9.01000023       2.83382687E-04
  -9.00000000       2.97027000E-04
  -8.98999977       2.99108651E-04
  -8.97999954       2.87257339E-04
  -8.97000027       2.58096523E-04
  -8.96000004       2.08112120E-04
  -8.94999981       1.35385606E-04
  -8.93999958       4.16843395E-05
  -8.93000031      -6.58703793E-05
  -8.92000008      -1.74355606E-04
  -8.90999985      -2.66342540E-04
  -8.89999962      -3.22952605E-04
  -8.89000034      -3.28106486E-04
  -8.88000011      -2.72923469E-04
  -8.86999989      -1.59032599E-04
  -8.85999966       2.70380212E-07
  -8.85000038       1.81574433E-04
  -8.84000015       3.55452852E-04
  -8.82999992       4.92241175E-04
  -8.81999969       5.68135001E-04
  -8.81000042       5.70129778E-04
  -8.80000019       4.98612935E-04
  -8.78999996       3.67032771E-04
  -8.77999973       1.98815571E-04
  -8.77000046       2.23813040E-05
  -8.76000023      -1.34489295E-04
  -8.75000000      -2.49633915E-04
  -8.73999977      -3.09833646E-04
  -8.72999954      -3.12005955E-04
  -8.72000027      -2.62359448E-04
  -8.71000004      -1.74055545E-04
  -8.69999981      -6.41407023E-05
  -8.68999958       4.95191816E-05
  -8.68000031       1.50788328E-04
  -8.67000008       2.27067707E-04
  -8.65999985       2.70370714E-04
  -8.64999962       2.77795596E-04
  -8.64000034       2.51510501E-04
  -8.63000011       1.98281894E-04
  -8.61999989       1.28500760E-04
  -8.60999966       5.46693118E-05
  -8.60000038      -1.05735908E-05
  -8.59000015      -5.66253366E-05
  -8.57999992      -7.68577665E-05
  -8.56999969      -6.98266740E-05
  -8.56000042      -3.93660739E-05
  -8.55000019       6.54635096E-06
  -8.53999996       5.79068255E-05
  -8.52999973       1.05217456E-04
  -8.52000046       1.41701050E-04
  -8.51000023       1.64542653E-04
  -8.50000000       1.74808185E-04
  -8.48999977       1.76131143E-04
  -8.47999954       1.72683955E-04
  -8.47000027       1.67204329E-04
  -8.46000004       1.59829506E-04
  -8.44999981       1.48198029E-04
  -8.43999958       1.28809304E-04
  -8.43000031       9.91478228E-05
  -8.42000008       5.97619764E-05
  -8.40999985       1.54559348E-05
  -8.39999962      -2.49704462E-05
  -8.39000034      -5.05089120E-05
  -8.38000011      -5.07955956E-05
  -8.36999989      -1.91762883E-05
  -8.35999966       4.49751496E-05
  -8.35000038       1.35429495E-04
  -8.34000015       2.40047171E-04
  -8.32999992       3.43227759E-04
  -8.31999969       4.29151958E-04
  -8.31000042       4.84912714E-04
  -8.30000019       5.02740033E-04
  -8.28999996       4.80877818E-04
  -8.27999973       4.23129561E-04
  -8.27000046       3.37476376E-04
  -8.26000023       2.34358668E-04
  -8.25000000       1.25152728E-04
  -8.23999977       2.11216011E-05
  -8.22999954      -6.71963280E-05
  -8.22000027      -1.30433691E-04
  -8.21000004      -1.60998170E-04
  -8.19999981      -1.54005160E-04
  -8.18999958      -1.08431879E-04
  -8.18000031      -2.81150114E-05
  -8.17000008       7.79131733E-05
  -8.15999985       1.96156951E-04
  -8.14999962       3.10556847E-04
  -8.14000034       4.05247905E-04
  -8.13000011       4.67518548E-04
  -8.11999989       4.90167295E-04
  -8.10999966       4.72589338E-04
  -8.10000038       4.20307479E-04
  -8.09000015       3.43156251E-04
  -8.07999992       2.52751051E-04
  -8.06999969       1.60070034E-04
  -8.06000042       7.38633680E-05
  -8.05000019       2.30359746E-07
  -8.03999996      -5.67819734E-05
  -8.02999973      -9.41124890E-05
  -8.02000046      -1.08867403E-04
  -8.01000023      -9.83110804E-05
  -8.00000000      -6.08164082E-05
  -7.98999977       2.56964063E-06
  -7.98000002       8.66662522E-05
  -7.96999979       1.81612500E-04
  -7.96000004       2.73783313E-04
  -7.94999981       3.48195899E-04
  -7.94000006       3.91844602E-04
  -7.92999983       3.96979827E-04
  -7.92000008       3.63265921E-04
  -7.90999985       2.98064435E-04
  -7.90000010       2.14697386E-04
  -7.88999987       1.29219901E-04
  -7.88000011       5.67260395E-05
  -7.86999989       8.33093418E-06
  -7.86000013      -1.03303792E-05
  -7.84999990       1.14535737E-06
  -7.84000015       3.94888666E-05
  -7.82999992       9.97256939E-05
  -7.82000017       1.76580535E-04
  -7.80999994       2.64705683E-04
  -7.80000019       3.57763871E-04
  -7.78999996       4.47050319E-04
  -7.78000021       5.20711357E-04
  -7.76999998       5.64519549E-04
  -7.76000023       5.64592367E-04
  -7.75000000       5.11586200E-04
  -7.73999977       4.05098137E-04
  -7.73000002       2.56596977E-04
  -7.71999979       8.94043260E-05
  -7.71000004      -6.49383219E-05
  -7.69999981      -1.73398555E-04
  -7.69000006      -2.09616599E-04
  -7.67999983      -1.61152799E-04
  -7.67000008      -3.35255318E-05
  -7.65999985       1.50408639E-04
  -7.65000010       3.55798955E-04
  -7.63999987       5.44460083E-04
  -7.63000011       6.84365805E-04
  -7.61999989       7.57204543E-04
  -7.61000013       7.61832809E-04
  -7.59999990       7.12760375E-04
  -7.59000015       6.34372409E-04
  -7.57999992       5.52897924E-04
  -7.57000017       4.88741964E-04
  -7.55999994       4.51522123E-04
  -7.55000019       4.39120835E-04
  -7.53999996       4.40648961E-04
  -7.53000021       4.41926531E-04
  -7.51999998       4.31362336E-04
  -7.51000023       4.04169288E-04
  -7.50000000       3.63626081E-04
  -7.48999977       3.19263898E-04
  -7.48000002       2.82971072E-04
  -7.46999979       2.64664384E-04
  -7.46000004       2.69167067E-04
  -7.44999981       2.95305188E-04
  -7.44000006       3.37274396E-04