  -16.0000000       0.00000000    
  -15.9899998       0.00000000    
  -15.9799995       0.00000000    
  -15.9700003       0.00000000    
  -15.9600000       0.00000000    
  -15.9499998       0.00000000    
  -15.9399996       0.00000000    
  -15.9300003       0.00000000    
  -15.9200001       0.00000000    
  -15.9099998       0.00000000    
  -15.8999996      -9.34372980E-38
  -15.8900003      -1.47669469E-36
  -15.8800001      -2.05468449E-35
  -15.8699999      -2.31729311E-34
  -15.8599997      -1.87212151E-33
  -15.8500004      -1.11072263E-32
  -15.8400002      -5.08212464E-32
  -15.8299999      -1.86765187E-31
  -15.8199997      -5.68769054E-31
  -15.8100004      -1.47318331E-30
  -15.8000002      -3.32875324E-30
  -15.7900000      -6.75097126E-30
  -15.7799997      -1.26660197E-29
  -15.7700005      -2.24004024E-29
  -15.7600002      -3.66194815E-29
  -15.7500000      -5.01193807E-29
  -15.7399998      -3.86895974E-29
  -15.7299995       6.00461503E-29
  -15.7200003       3.51681163E-28
  -15.7100000       9.29236257E-28
  -15.6999998       1.70526460E-27
  -15.6899996       2.15719330E-27
  -15.6800003       1.21229114E-27
  -15.6700001      -2.25623386E-27
  -15.6599998      -7.87884767E-27
  -15.6499996      -1.15430935E-26
  -15.6400003      -4.61707423E-27
  -15.6300001       2.12638828E-26
  -15.6199999       6.04252970E-26
  -15.6099997       7.40586439E-26
  -15.6000004      -1.56626792E-26
  -15.5900002      -2.84238368E-25
  -15.5799999      -6.86500779E-25
  -15.5699997      -8.83836899E-25
  -15.5600004      -1.52704625E-25
  -15.5500002       2.35909741E-24
  -15.5400000       6.74691354E-24
  -15.5299997       1.08548610E-23
  -15.5200005       8.94942897E-24
  -15.5100002      -7.62344056E-24
  -15.5000000      -4.53927951E-23
  -15.4899998      -9.80660444E-23
  -15.4799995      -1.33036583E-22
  -15.4700003      -8.49338390E-23
  -15.4600000       1.27206169E-22
  -15.4499998       5.42959355E-22
  -15.4399996       1.06386231E-21
  -15.4300003       1.35440667E-21
  -15.4200001       8.27869963E-22
  -15.4099998      -1.16238061E-21
  -15.3999996      -4.83715270E-21
  -15.3900003      -9.26754821E-21
  -15.3800001      -1.17351419E-20
  -15.3699999      -7.80022109E-21
  -15.3599997       7.16553364E-21
  -15.3500004       3.45502937E-20
  -15.3400002       6.77556371E-20
  -15.3299999       8.83385726E-20
  -15.3199997       6.68898439E-20
  -15.3100004      -2.70602735E-20
  -15.3000002      -2.04076198E-19
  -15.2900000      -4.26702618E-19
  -15.2799997      -5.87010324E-19
  -15.2700005      -5.10974848E-19
  -15.2600002      -1.23988970E-20
  -15.2500000       9.93445570E-19
  -15.2399998       2.33700960E-18
  -15.2299995       3.46752210E-18
  -15.2200003       3.45784512E-18
  -15.2100000       1.25480869E-18
  -15.1999998      -3.76958117E-18
  -15.1899996      -1.10528328E-17
  -15.1800003      -1.81549915E-17
  -15.1700001      -2.06356367E-17
  -15.1599998      -1.30333067E-17
  -15.1499996       8.74350173E-18
  -15.1400003       4.38970557E-17
  -15.1300001       8.32581109E-17
  -15.1199999       1.07880015E-16
  -15.1099997       9.21038282E-17
  -15.1000004       1.27433915E-17
  -15.0900002      -1.36178599E-16
  -15.0799999      -3.27208378E-16
  -15.0699997      -4.89551268E-16
  -15.0600004      -5.15359833E-16
  -15.0500002      -2.90290023E-16
  -15.0400000       2.50979092E-16
  -15.0299997       1.05627264E-15
  -15.0200005       1.90133846E-15
  -15.0100002       2.38659622E-15
  -15.0000000       2.02081097E-15
  -14.9899998       4.06091974E-16
  -14.9799995      -2.50322609E-15
  -14.9700003      -6.14939143E-15
  -14.9600000      -9.25616683E-15
  -14.9499998      -9.99035805E-15
  -14.9399996      -6.49111417E-15
  -14.9300003       2.26446466E-15
  -14.9200001       1.54699827E-14
  -14.9099998       2.97655441E-14
  -14.8999996       3.92742818E-14
  -14.8900003       3.68197057E-14
  -14.8800001       1.64346025E-14
  -14.8699999      -2.32577815E-14
  -14.8599997      -7.58352596E-14
  -14.8500004      -1.25573244E-13
  -14.8400002      -1.49234859E-13
  -14.8299999      -1.22120860E-13
  -14.8199997      -2.79745506E-14
  -14.8100004       1.29553594E-13
  -14.8000002       3.18019347E-13
  -14.7900000       4.74982521E-13
  -14.7799997       5.18849070E-13
  -14.7700005       3.73154876E-13
  -14.7600002       7.15609062E-16
  -14.7500000      -5.61750245E-13
  -14.7399998      -1.18254798E-12
  -14.7299995      -1.64246806E-12
  -14.7200003      -1.68102956E-12
  -14.7100000      -1.08071158E-12
  -14.6999998       2.27235101E-13
  -14.6899996       2.06767567E-12
  -14.6800003       3.97934029E-12
  -14.6700001       5.26502583E-12
  -14.6599998       5.15465231E-12
  -14.6499996       3.06646223E-12
  -14.6400003      -1.09219285E-12
  -14.6300001      -6.68216654E-12
  -14.6199999      -1.22631245E-11
  -14.6099997      -1.57934828E-11
  -14.6000004      -1.51329713E-11
  -14.5900002      -8.78187020E-12
  -14.5799999       3.32149802E-12
  -14.5699997       1.92123175E-11
  -14.5600004       3.48111748E-11
  -14.5500002       4.45547974E-11
  -14.5400000       4.27864168E-11
  -14.5299997       2.56914212E-11
  -14.5200005      -6.70409128E-12
  -14.5100002      -4.91446571E-11
  -14.5000000      -9.10587925E-11
  -14.4899998      -1.18252103E-10
  -14.4799995      -1.16407925E-10
  -14.4700003      -7.58175536E-11
  -14.4600000       3.84037116E-12
  -14.4499998       1.10246874E-10
  -14.4399996       2.18279936E-10
  -14.4300003       2.93971653E-10
  -14.4200001       3.02578462E-10
  -14.4099998       2.19416818E-10
  -14.3999996       4.08210861E-11
  -14.3900003      -2.08230905E-10
  -14.3800001      -4.73215411E-10
  -14.3699999      -6.78108736E-10
  -14.3599997      -7.42419293E-10
  -14.3500004      -6.04453654E-10
  -14.3400002      -2.45387433E-10
  -14.3299999       2.92982028E-10
  -14.3199997       9.03869479E-10
  -14.3100004       1.42936185E-09
  -14.3000002       1.69309744E-09
  -14.2900000       1.54688473E-09
  -14.2799997       9.21050625E-10
  -14.2700005      -1.35271350E-10
  -14.2600002      -1.43805257E-09
  -14.2500000      -2.68692135E-09
  -14.2399998      -3.52123042E-09
  -14.2299995      -3.60642560E-09
  -14.2200003      -2.73328093E-09
  -14.2100000      -9.05073960E-10
  -14.1999998       1.61424230E-09
  -14.1899996       4.31270886E-09
  -14.1800003       6.51345999E-09
  -14.1700001       7.52042961E-09
  -14.1599998       6.80015377E-09
  -14.1499996       4.15799217E-09
  -14.1400003      -1.39598944E-10
  -14.1300001      -5.34003997E-09
  -14.1199999      -1.03024345E-08
  -14.1099997      -1.37159715E-08
  -14.1000004      -1.44043826E-08
  -14.0900002      -1.16529923E-08
  -14.0799999      -5.47757883E-09
  -14.0699997       3.24480220E-09
  -14.0600004       1.28409061E-08
  -14.0500002       2.11194617E-08
  -14.0400000       2.58275978E-08
  -14.0299997       2.51993360E-08
  -14.0200005       1.84725710E-08
  -14.0100002       6.23940455E-09
  -14.0000000      -9.48395584E-09
  -13.9899998      -2.55279335E-08
  -13.9799995      -3.81642273E-08
  -13.9700003      -4.39238832E-08
  -13.9600000      -4.04680804E-08
  -13.9499998      -2.73041394E-08
  -13.9399996      -6.15001738E-09
  -13.9300003       1.91878211E-08
  -13.9200001       4.34546479E-08
  -13.9099998       6.10127557E-08
  -13.8999996       6.71226132E-08
  -13.8900003       5.91530238E-08
  -13.8800001       3.74190954E-08
  -13.8699999       5.40597433E-09
  -13.8599997      -3.07377981E-08
  -13.8500004      -6.33852366E-08
  -13.8400002      -8.50707522E-08
  -13.8299999      -9.02291291E-08
  -13.8199997      -7.66225909E-08
  -13.8100004      -4.60871057E-08
  -13.8000002      -4.36709513E-09
  -13.7900000       3.99855260E-08
  -13.7799997       7.74434454E-08
  -13.7700005       9.96683127E-08
  -13.7600002       1.01500490E-07
  -13.7500000       8.22791080E-08
  -13.7399998       4.61349359E-08
  -13.7299995       1.13425713E-09
  -13.7200003      -4.25665547E-08
  -13.7100000      -7.51393259E-08
  -13.6999998      -8.94926515E-08
  -13.6899996      -8.30616429E-08
  -13.6800003      -5.84977755E-08
  -13.6700001      -2.30364599E-08
  -13.6599998       1.33493785E-08
  -13.6499996       4.05800940E-08
  -13.6400003       5.12262446E-08
  -13.6300001       4.26631317E-08
  -13.6199999       1.80103132E-08
  -13.6099997      -1.44724810E-08
  -13.6000004      -4.34714664E-08
  -13.5900002      -5.77242787E-08
  -13.5799999      -4.93729431E-08
  -13.5699997      -1.66641581E-08
  -13.5600004       3.48041489E-08
  -13.5500002       9.27708399E-08
  -13.5400000       1.40939520E-07
  -13.5299997       1.63031430E-07
  -13.5200005       1.47315632E-07
  -13.5100002       9.04453472E-08
  -13.5000000      -5.06074849E-10
  -13.4899998      -1.08552143E-07
  -13.4799995      -2.09988016E-07
  -13.4700003      -2.79719472E-07
  -13.4600000      -2.97547103E-07
  -13.4499998      -2.53847702E-07
  -13.4399996      -1.53088550E-07
  -13.4300003      -1.40196299E-08
  -13.4200001       1.33850307E-07
  -13.4099998       2.56936261E-07
  -13.3999996       3.25955796E-07
  -13.3900003       3.23926997E-07
  -13.3800001       2.51585050E-07
  -13.3699999       1.28474269E-07
  -13.3599997      -1.10447713E-08
  -13.3500004      -1.26330420E-07
  -13.3400002      -1.81681784E-07
  -13.3299999      -1.57429270E-07
  -13.3199997      -5.77607935E-08
  -13.3100004       8.73470825E-08
  -13.3000002       2.27443209E-07
  -13.2900000       3.03696311E-07
  -13.2799997       2.65381658E-07
  -13.2700005       8.68342198E-08
  -13.2600002      -2.19745942E-07
  -13.2500000      -5.99802661E-07
  -13.2399998      -9.62803711E-07
  -13.2299995      -1.19955405E-06
  -13.2200003      -1.20765867E-06
  -13.2100000      -9.19836509E-07
  -13.1999998      -3.28301070E-07
  -13.1899996       5.01552961E-07
  -13.1800003       1.43319892E-06
  -13.1700001       2.27862370E-06
  -13.1599998       2.83339614E-06
  -13.1499996       2.92098889E-06
  -13.1400003       2.43720501E-06
  -13.1300001       1.38439668E-06
  -13.1199999      -1.13675007E-07
  -13.1099997      -1.82208419E-06
  -13.1000004      -3.43071611E-06
  -13.0900002      -4.61082118E-06
  -13.0799999      -5.08182484E-06
  -13.0699997      -4.67474911E-06
  -13.0600004      -3.37808183E-06
  -13.0500002      -1.35454809E-06
  -13.0400000       1.07732035E-06
  -13.0299997       3.49566130E-06
  -13.0200005       5.45308421E-06
  -13.0100002       6.56490738E-06
  -13.0000000       6.58963700E-06
  -12.9899998       5.48405342E-06
  -12.9799995       3.41977761E-06
  -12.9700003       7.55922485E-07
  -12.9600000      -2.02821002E-06
  -12.9499998      -4.42744795E-06
  -12.9399996      -6.01264583E-06
  -12.9300003      -6.51829760E-06
  -12.9200001      -5.89643059E-06
  -12.9099998      -4.32429124E-06
  -12.8999996      -2.16336048E-06
  -12.8900003       1.21784751E-07
  -12.8800001       2.06694972E-06
  -12.8699999       3.31081401E-06
  -12.8599997       3.67294524E-06
  -12.8500004       3.18914135E-06
  -12.8400002       2.09563427E-06
  -12.8299999       7.65645382E-07
  -12.8199997      -3.86812644E-07
  -12.8100004      -1.01290289E-06
  -12.8000002      -9.18975331E-07
  -12.7900000      -1.18292192E-07
  -12.7799997       1.16896467E-06
  -12.7700005       2.56845442E-06
  -12.7600002       3.64532411E-06
  -12.7500000       4.01647230E-06
  -12.7399998       3.45395415E-06
  -12.7299995       1.95339248E-06
  -12.7200003      -2.50919214E-07
  -12.7100000      -2.73001842E-06
  -12.6999998      -4.95484574E-06
  -12.6899996      -6.42010309E-06
  -12.6800003      -6.76813534E-06
  -12.6700001      -5.88245121E-06
  -12.6599998      -3.92673837E-06
  -12.6499996      -1.31752893E-06
  -12.6400003       1.36561289E-06
  -12.6300001       3.51324707E-06
  -12.6199999       4.63211109E-06
  -12.6099997       4.46927561E-06
  -12.6000004       3.08346489E-06
  -12.5900002       8.44107035E-07
  -12.5799999      -1.64478513E-06
  -12.5699997      -3.68087581E-06
  -12.5600004      -4.62994831E-06
  -12.5500002      -4.08426649E-06
  -12.5400000      -1.97517920E-06
  -12.5299997       1.38813425E-06
  -12.5200005       5.36526613E-06
  -12.5100002       9.10826020E-06
  -12.5000000       1.17358022E-05
  -12.4899998       1.25190372E-05
  -12.4799995       1.10368492E-05
  -12.4700003       7.26528697E-06
  -12.4600000       1.58112289E-06
  -12.4499998      -5.32016293E-06
  -12.4399996      -1.25714178E-05
  -12.4300003      -1.93100677E-05
  -12.4200001      -2.48413489E-05
  -12.4099998      -2.87503772E-05
  -12.3999996      -3.09385578E-05
  -12.3900003      -3.15795187E-05
  -12.3800001      -3.10106916E-05
  -12.3699999      -2.95931532E-05
  -12.3599997      -2.75805887E-05
  -12.3500004      -2.50353642E-05
  -12.3400002      -2.18169935E-05
  -12.3299999      -1.76483791E-05
  -12.3199997      -1.22434731E-05
  -12.3100004      -5.46191359E-06
  -12.3000002       2.55342707E-06
  -12.2900000       1.12983480E-05
  -12.2799997       1.99183087E-05
  -12.2700005       2.73169862E-05
  -12.2600002       3.23465501E-05
  -12.2500000       3.40419210E-05
  -12.2399998       3.18477250E-05
  -12.2299995       2.57845877E-05
  -12.2200003       1.65119473E-05
  -12.2100000       5.26568965E-06
  -12.1999998      -6.32430783E-06
  -12.1899996      -1.65047913E-05
  -12.1800003      -2.37056393E-05
  -12.1700001      -2.68206841E-05
  -12.1599998      -2.54053302E-05
  -12.1499996      -1.97502832E-05
  -12.1400003      -1.08164477E-05
  -12.1300001      -4.54631603E-08
  -12.1199999       1.09136572E-05
  -12.1099997       2.05040269E-05
  -12.1000004       2.75244602E-05
  -12.0900002       3.13043529E-05
  -12.0799999       3.17581253E-05
  -12.0699997       2.93150915E-05
  -12.0600004       2.47488169E-05
  -12.0500002       1.89519087E-05
  -12.0400000       1.27130670E-05
  -12.0299997       6.55044732E-06
  -12.0200005       6.39834184E-07
  -12.0100002      -5.14860358E-06
  -12.0000000      -1.11189293E-05
  -11.9899998      -1.75616296E-05
  -11.9799995      -2.45623378E-05
  -11.9700003      -3.18617531E-05
  -11.9600000      -3.88095032E-05
  -11.9499998      -4.44319485E-05
  -11.9399996      -4.76054702E-05
  -11.9300003      -4.72997781E-05
  -11.9200001      -4.28361964E-05
  -11.9099998      -3.40990591E-05
  -11.8999996      -2.16459339E-05
  -11.8900003      -6.68307712E-06
  -11.8800001       9.09811297E-06
  -11.8699999       2.37963359E-05
  -11.8599997       3.56335513E-05
  -11.8500004       4.32770066E-05
  -11.8400002       4.60808806E-05
  -11.8299999       4.41935481E-05
  -11.8199997       3.85044659E-05
  -11.8100004       3.04393361E-05
  -11.8000002       2.16460285E-05
  -11.7900000       1.36389135E-05
  -11.7799997       7.48021330E-06
  -11.7700005       3.57011936E-06
  -11.7600002       1.59430829E-06
  -11.7500000       6.42470297E-07
  -11.7399998      -5.27600719E-07
  -11.7299995      -3.14010094E-06
  -11.7200003      -8.04657975E-06
  -11.7100000      -1.54506779E-05
  -11.6999998      -2.47798253E-05
  -11.6899996      -3.47388086E-05
  -11.6800003      -4.35386610E-05
  -11.6700001      -4.92535946E-05
  -11.6599998      -5.02287257E-05
  -11.6499996      -4.54488654E-05
  -11.6400003      -3.47872665E-05
  -11.6300001      -1.90803148E-05
  -11.6199999      -1.35190321E-08
  -11.6099997       2.01541352E-05
  -11.6000004       3.89662418E-05
  -11.5900002       5.41655390E-05
  -11.5799999       6.40318467E-05
  -11.5699997       6.76008931E-05
  -11.5600004       6.47348934E-05
  -11.5500002       5.60504523E-05
  -11.5400000       4.27391715E-05
  -11.5299997       2.63336369E-05
  -11.5200005       8.47366664E-06
  -11.5100002      -9.28431109E-06
  -11.5000000      -2.55926116E-05
  -11.4899998      -3.93729424E-05
  -11.4799995      -4.98302543E-05
  -11.4700003      -5.64454822E-05
  -11.4600000      -5.89694646E-05
  -11.4499998      -5.74288970E-05
  -11.4399996      -5.21400907E-05
  -11.4300003      -4.37142844E-05
  -11.4200001      -3.30334842E-05
  -11.4099998      -2.11806400E-05
  -11.3999996      -9.32095736E-06
  -11.3900003       1.45192746E-06
  -11.3800001       1.02760296E-05
  -11.3699999       1.66506670E-05
  -11.3599997       2.05016422E-05
  -11.3500004       2.21612972E-05
  -11.3400002       2.22634681E-05
  -11.3299999       2.15757809E-05
  -11.3199997       2.08091005E-05
  -11.3100004       2.04513126E-05
  -11.3000002       2.06668501E-05
  -11.2900000       2.12862196E-05
  -11.2799997       2.18851383E-05
  -11.2700005       2.19280446E-05
  -11.2600002       2.09326572E-05
  -11.2500000       1.86065026E-05
  -11.2399998       1.49149091E-05
  -11.2299995       1.00611005E-05
  -11.2200003       4.38663574E-06
  -11.2100000      -1.77316485E-06
  -11.1999998      -8.22731454E-06
  -11.1899996      -1.50077312E-05
  -11.1800003      -2.23504849E-05
  -11.1700001      -3.05708854E-05
  -11.1599998      -3.98585107E-05
  -11.1499996      -5.00491515E-05
  -11.1400003      -6.04477900E-05
  -11.1300001      -6.97733631E-05
  -11.1199999      -7.62711643E-05
  -11.1099997      -7.79971160E-05
  -11.1000004      -7.32298868E-05
  -11.0900002      -6.09249691E-05
  -11.0799999      -4.11016226E-05
  -11.0699997      -1.50566930E-05
  -11.0600004       1.46692555E-05
  -11.0500002       4.45952865E-05
  -11.0400000       7.08322841E-05
  -11.0299997       8.97470527E-05
  -11.0200005       9.86252780E-05
  -11.0100002       9.61946498E-05
  -11.0000000       8.28951306E-05
  -10.9899998       6.08357623E-05
  -10.9799995       3.34426040E-05
  -10.9700003       4.86616500E-06
  -10.9600000      -2.07362864E-05
  -10.9499998      -3.99072633E-05
  -10.9399996      -5.04561685E-05
  -10.9300003      -5.17914123E-05
  -10.9200001      -4.49700456E-05
  -10.9099998      -3.24692228E-05
  -10.8999996      -1.77286529E-05
  -10.8900003      -4.54478641E-06
  -10.8800001       3.58710668E-06
  -10.8699999       4.08578944E-06
  -10.8599997      -4.23559595E-06
  -10.8500004      -2.08919100E-05
  -10.8400002      -4.36988048E-05
  -10.8299999      -6.90160814E-05
  -10.8199997      -9.22485051E-05
  -10.8100004      -1.08553104E-04
  -10.8000002      -1.13662230E-04
  -10.7900000      -1.04697770E-04
  -10.7799997      -8.08321565E-05
  -10.7700005      -4.36566261E-05
  -10.7600002       2.84853104E-06
  -10.7500000       5.27833836E-05
  -10.7399998       9.91954221E-05
  -10.7299995       1.35214636E-04
  -10.7200003       1.55256610E-04
  -10.7100000       1.56059483E-04
  -10.6999998       1.37335446E-04
  -10.6899996       1.01884376E-04
  -10.6800003       5.51226149E-05
  -10.6700001       4.10398161E-06
  -10.6599998      -4.37772142E-05
  -10.6499996      -8.21374051E-05
  -10.6400003      -1.06729283E-04
  -10.6300001      -1.16109200E-04
  -10.6199999      -1.11715839E-04
  -10.6099997      -9.73611459E-05
  -10.6000004      -7.82656643E-05
  -10.5900002      -5.98686202E-05
  -10.5799999      -4.66853344E-05
  -10.5699997      -4.14615351E-05
  -10.5600004      -4.47923267E-05
  -10.5500002      -5.52548699E-05
  -10.5400000      -6.99785160E-05
  -10.5299997      -8.54756145E-05
  -10.5200005      -9.85050501E-05
  -10.5100002      -1.06750173E-04
  -10.5000000      -1.09157903E-04
  -10.4899998      -1.05888001E-04
  -10.4799995      -9.79320539E-05
  -10.4700003      -8.65508555E-05
  -10.4600000      -7.27229199E-05
  -10.4499998      -5.67846109E-05
  -10.4399996      -3.83782135E-05
  -10.4300003      -1.67268245E-05
  -10.4200001       8.84861765E-06
  -10.4099998       3.83349034E-05
  -10.3999996       7.05532439E-05
  -10.3900003       1.02982340E-04
  -10.3800001       1.31978319E-04
  -10.3699999       1.53384579E-04
  -10.3599997       1.63413730E-04
  -10.3500004       1.59598319E-04
  -10.3400002       1.41572091E-04
  -10.3299999       1.11468507E-04
  -10.3199997       7.38034068E-05
  -10.3100004       3.48251051E-05
  -10.3000002       1.43901707E-06
  -10.2900000      -2.00854429E-05
  -10.2799997      -2.53636463E-05
  -10.2700005      -1.28424736E-05
  -10.2600002       1.57522281E-05
  -10.2500000       5.55639017E-05
  -10.2399998       9.93284557E-05
  -10.2299995       1.38543313E-04
  -10.2200003       1.64875382E-04
  -10.2100000       1.71565349E-04
  -10.1999998       1.54594891E-04
  -10.1899996       1.13429793E-04
  -10.1800003       5.12236402E-05
  -10.1700001      -2.55491759E-05
  -10.1599998      -1.07979948E-04
  -10.1499996      -1.86006655E-04
  -10.1400003      -2.49906792E-04
  -10.1300001      -2.91783421E-04
  -10.1199999      -3.06814502E-04
  -10.1099997      -2.94056837E-04
  -10.1000004      -2.56648695E-04
  -10.0900002      -2.01342657E-04
  -10.0799999      -1.37409530E-04
  -10.0699997      -7.50722756E-05
  -10.0600004      -2.37311651E-05
  -10.0500002       9.69724897E-06
  -10.0400000       2.20033235E-05
  -10.0299997       1.42140470E-05
  -10.0200005      -8.69615087E-06
  -10.0100002      -3.88711887E-05
  -10.0000000      -6.72052338E-05
  -9.98999977      -8.52014200E-05
  -9.97999954      -8.66632981E-05
  -9.97000027      -6.88606451E-05
  -9.96000004      -3.29317481E-05
  -9.94999981       1.65381371E-05
  -9.93999958       7.26315775E-05
  -9.93000031       1.27620224E-04
  -9.92000008       1.74523550E-04
  -9.90999985       2.08347352E-04
  -9.89999962       2.26744451E-04
  -9.89000034       2.29999598E-04
  -9.88000011       2.20416769E-04
  -9.86999989       2.01331859E-04
  -9.85999966       1.76051282E-04
  -9.85000038       1.47009399E-04
  -9.84000015       1.15353207E-04
  -9.82999992       8.10260244E-05
  -9.81999969       4.32767847E-05
  -9.81000042       1.40484860E-06
  -9.80000019      -4.45062869E-05
  -9.78999996      -9.30977476E-05
  -9.77999973      -1.41639961E-04
  -9.77000046      -1.86370235E-04
  -9.76000023      -2.23179130E-04
  -9.75000000      -2.48468306E-04
  -9.73999977      -2.59959052E-04
  -9.72999954      -2.57247040E-04
  -9.72000027      -2.41964997E-04
  -9.71000004      -2.17513065E-04
  -9.69999981      -1.88418562E-04
  -9.68999958      -1.59470990E-04
  -9.68000031      -1.34821516E-04
  -9.67000008      -1.17235584E-04
  -9.65999985      -1.07644228E-04
  -9.64999962      -1.05067571E-04
  -9.64000034      -1.06902080E-04
  -9.63000011      -1.09489876E-04
  -9.61999989      -1.08839893E-04
  -9.60999966      -1.01355188E-04
  -9.60000038      -8.44382594E-05
  -9.59000015      -5.68888718E-05
  -9.57999992      -1.90637820E-05
  -9.56999969       2.71815879E-05
  -9.56000042       7.87153986E-05
  -9.55000019       1.31450739E-04
  -9.53999996       1.80714167E-04
  -9.52999973       2.21636146E-04
  -9.52000046       2.49565172E-04
  -9.51000023       2.60520901E-04
  -9.50000000       2.51690624E-04
  -9.48999977       2.21940412E-04
  -9.47999954       1.72264263E-04
  -9.47000027       1.06053172E-04
  -9.46000004       2.90511525E-05
  -9.44999981      -5.11058606E-05
  -9.43999958      -1.25795574E-04
  -9.43000031      -1.86675141E-04
  -9.42000008      -2.27103388E-04
  -9.40999985      -2.43426897E-04
  -9.39999962      -2.35811618E-04
  -9.39000034      -2.08363228E-04
  -9.38000011      -1.68421291E-04
  -9.36999989      -1.25109204E-04
  -9.35999966      -8.74211255E-05
  -9.35000038      -6.22737498E-05
  -9.34000015      -5.29942299E-05
  -9.32999992      -5.86355127E-05
  -9.31999969      -7.43172714E-05
  -9.31000042      -9.25319036E-05
  -9.30000019      -1.05099840E-04
  -9.28999996      -1.05279447E-04
  -9.27999973      -8.94876503E-05
  -9.27000046      -5.81877830E-05
  -9.26000023      -1.57242594E-05
  -9.25000000       3.08306080E-05
  -9.23999977       7.34863352E-05
  -9.22999954       1.05298997E-04
  -9.22000027       1.21963625E-04
  -9.21000004       1.22630881E-04
  -9.19999981       1.09778528E-04
  -9.18999958       8.82401655E-05
  -9.18000031       6.37229896E-05
  -9.17000008       4.12652917E-05
  -9.15999985       2.40637837E-05
  -9.14999962       1.29546497E-05
  -9.14000034       6.61330569E-06
  -9.13000011       2.31943363E-06
  -9.11999989      -3.01624823E-06
  -9.10999966      -1.19051992E-05
  -9.10000038      -2.56803432E-05
  -9.09000015      -4.43531862E-05
  -9.07999992      -6.68680004E-05
  -9.06999969      -9.15637793E-05
  -9.06000042      -1.16614094E-04
  -9.05000019      -1.40269563E-04
  -9.03999996      -1.60851167E-04
  -9.02999973      -1.76581045E-04
  -9.02000046      -1.85432917E-04
  -9.01000023      -1.85195386E-04
  -9.00000000      -1.73860521E-04
  -8.98999977      -1.50303880E-04
  -8.97999954      -1.15067713E-04
  -8.97000027      -7.09569867E-05
  -8.96000004      -2.31556660E-05
  -8.94999981       2.13201383E-05
  -8.93999958       5.48216667E-05
  -8.93000031       7.06917490E-05
  -8.92000008       6.49175709E-05
  -8.90999985       3.73566982E-05
  -8.89999962      -7.84130316E-06
  -8.89000034      -6.27967383E-05
  -8.88000011      -1.17362615E-04
  -8.86999989      -1.61158649E-04
  -8.85999966      -1.85689787E-04
  -8.85000038      -1.86041856E-04
  -8.84000015      -1.61769320E-04
  -8.82999992      -1.16813091E-04
  -8.81999969      -5.85417547E-05
  -8.81000042       3.78029995E-06
  -8.80000019       6.06888316E-05
  -8.78999996       1.03991748E-04
  -8.77999973       1.27757725E-04
  -8.77000046       1.28744563E-04
  -8.76000023       1.06361054E-04
  -8.75000000       6.23579181E-05
  -8.73999977       4.51161014E-07
  -8.72999954      -7.39971074E-05
  -8.72000027      -1.54235750E-04
  -8.71000004      -2.32421429E-04
  -8.69999981      -3.00101325E-04
  -8.68999958      -3.48986505E-04
  -8.68000031      -3.72006645E-04
  -8.67000008      -3.64492851E-04
  -8.65999985      -3.25221190E-04
  -8.64999962      -2.57012405E-04
  -8.64000034      -1.66652419E-04
  -8.63000011      -6.40557992E-05
  -8.61999989       3.92043221E-05
  -8.60999966       1.31695066E-04
  -8.60000038       2.03849777E-04
  -8.59000015       2.49237433E-04
  -8.57999992       2.65124399E-04
  -8.56999969       2.52279860E-04
  -8.56000042       2.14184460E-04
  -8.55000019       1.55946735E-04
  -8.53999996       8.32705846E-05
  -8.52999973       1.74121226E-06
  -8.52000046      -8.34620369E-05
  -8.51000023      -1.67496401E-04
  -8.50000000      -2.45635456E-04
  -8.48999977      -3.13145021E-04
  -8.47999954      -3.65438726E-04
  -8.47000027      -3.98554315E-04
  -8.46000004      -4.09829372E-04
  -8.44999981      -3.98537697E-04
  -8.43999958      -3.66223772E-04
  -8.43000031      -3.16556980E-04
  -8.42000008      -2.54690414E-04
  -8.40999985      -1.86291931E-04
  -8.39999962      -1.16545612E-04
  -8.39000034      -4.94463893E-05
  -8.38000011       1.23860518E-05
  -8.36999989       6.73383693E-05
  -8.35999966       1.14059199E-04
  -8.35000038       1.50679582E-04
  -8.34000015       1.74378394E-04
  -8.32999992       1.81567360E-04
  -8.31999969       1.68748986E-04
  -8.31000042       1.33834663E-04
  -8.30000019       7.74957152E-05
  -8.28999996       4.03994227E-06
  -8.27999973      -7.86001256E-05
  -8.27000046      -1.59931442E-04
  -8.26000023      -2.28851219E-04
  -8.25000000      -2.76014674E-04
  -8.23999977      -2.95978738E-04
  -8.22999954      -2.88501906E-04
  -8.22000027      -2.58602086E-04
  -8.21000004      -2.15325548E-04
  -8.19999981      -1.69554041E-04
  -8.18999958      -1.31453926E-04
  -8.18000031      -1.08261287E-04
  -8.17000008      -1.02972896E-04
  -8.15999985      -1.14219169E-04
  -8.14999962      -1.37230905E-04
  -8.14000034      -1.65495774E-04
  -8.13000011      -1.92537656E-04
  -8.11999989      -2.13285966E-04
  -8.10999966      -2.24710268E-04
  -8.10000038      -2.25695403E-04
  -8.09000015      -2.16409331E-04
  -8.07999992      -1.97571047E-04
  -8.06999969      -1.70006446E-04
  -8.06000042      -1.34699600E-04
  -8.05000019      -9.32849580E-05
  -8.03999996      -4.86879435E-05
  -8.02999973      -5.50593586E-06
  -8.02000046       3.02168064E-05
  -8.01000023       5.19456371E-05
  -8.00000000       5.41696172E-05
  -7.98999977       3.40354418E-05
  -7.98000002      -7.45843136E-06
  -7.96999979      -6.51863302E-05
  -7.96000004      -1.30750486E-04
  -7.94999981      -1.94310720E-04
  -7.94000006      -2.46890821E-04
  -7.92999983      -2.82473105E-04
  -7.92000008      -2.99229810E-04
  -7.90999985      -2.99502281E-04
  -7.90000010      -2.88541400E-04
  -7.88999987      -2.72434350E-04
  -7.88000011      -2.55916646E-04
  -7.86999989      -2.40809852E-04
  -7.86000013      -2.25611977E-04
  -7.84999990      -2.06374956E-04
  -7.84000015      -1.78560513E-04
  -7.82999992      -1.39226409E-04
  -7.82000017      -8.87773931E-05
  -7.80999994      -3.16592450E-05
  -7.80000019       2.42711430E-05
  -7.78999996       6.95227864E-05
  -7.78000021       9.53400086E-05
  -7.76999998       9.59247845E-05
  -7.76000023       6.98393997E-05
  -7.75000000       2.02066640E-05
  -7.73999977      -4.62699318E-05
  -7.73000002      -1.21069424E-04
  -7.71999979      -1.95787492E-04
  -7.71000004      -2.63638358E-04
  -7.69999981      -3.20143707E-04
  -7.69000006      -3.62966268E-04
  -7.67999983      -3.91169277E-04
  -7.67000008      -4.04371734E-04
  -7.65999985      -4.02252277E-04
  -7.65000010      -3.84650484E-04
  -7.63999987      -3.52208066E-04
  -7.63000011      -3.07210983E-04
  -7.61999989      -2.54155078E-04
  -7.61000013      -1.99621150E-04
  -7.59999990      -1.51297296E-04
  -7.59000015      -1.16326119E-04
  -7.57999992      -9.94579677E-05
  -7.57000017      -1.01633617E-04
  -7.55999994      -1.19535500E-04
  -7.55000019      -1.46355524E-04
  -7.53999996      -1.73627763E-04
  -7.53000021      -1.93604443E-04
  -7.51999998      -2.01448478E-04
  -7.51000023      -1.96554174E-04
  -7.50000000      -1.82577642E-04
  -7.48999977      -1.66173777E-04
  -7.48000002      -1.54851892E-04
  -7.46999979      -1.54635520E-04
  -7.46000004      -1.68254875E-04
  -7.44999981      -1.94400069E-04
  -7.44000006      -2.28199628E-04