  -16.0000000       0.00000000    
  -15.9899998       0.00000000    
  -15.9799995       0.00000000    
  -15.9700003       0.00000000    
  -15.9600000       0.00000000    
  -15.9499998       0.00000000    
  -15.9399996       0.00000000    
  -15.9300003       0.00000000    
  -15.9200001       0.00000000    
  -15.9099998       0.00000000    
  -15.8999996       0.00000000    
  -15.8900003       8.80892648E-40
  -15.8800001       3.30277080E-39
  -15.8699999      -1.57604016E-37
  -15.8599997      -2.91804276E-36
  -15.8500004      -2.92687016E-35
  -15.8400002      -2.13203199E-34
  -15.8299999      -1.24678120E-33
  -15.8199997      -6.14986539E-33
  -15.8100004      -2.63267359E-32
  -15.8000002      -9.95857890E-32
  -15.7900000      -3.36896023E-31
  -15.7799997      -1.02775342E-30
  -15.7700005      -2.84311063E-30
  -15.7600002      -7.15525179E-30
  -15.7500000      -1.63971855E-29
  -15.7399998      -3.41461662E-29
  -15.7299995      -6.42049492E-29
  -15.7200003      -1.07476292E-28
  -15.7100000      -1.55272444E-28
  -15.6999998      -1.78644447E-28
  -15.6899996      -1.16358897E-28
  -15.6800003       1.30118343E-28
  -15.6700001       6.78908313E-28
  -15.6599998       1.60674769E-27
  -15.6499996       2.82997725E-27
  -15.6400003       3.93889651E-27
  -15.6300001       4.04928466E-27
  -15.6199999       1.80499599E-27
  -15.6099997      -4.27985006E-27
  -15.6000004      -1.49720438E-26
  -15.5900002      -2.89665010E-26
  -15.5799999      -4.13922805E-26
  -15.5699997      -4.30400815E-26
  -15.5600004      -2.16111881E-26
  -15.5500002       3.37037771E-26
  -15.5400000       1.23871019E-25
  -15.5299997       2.29474806E-25
  -15.5200005       3.02620774E-25
  -15.5100002       2.68963013E-25
  -15.5000000       4.86515449E-26
  -15.4899998      -3.98485420E-25
  -15.4799995      -1.00867345E-24
  -15.4700003      -1.55374823E-24
  -15.4600000      -1.62837072E-24
  -15.4499998      -7.42148457E-25
  -15.4399996       1.43739292E-24
  -15.4300003       4.70013346E-24
  -15.4200001       7.88438549E-24
  -15.4099998       8.70406088E-24
  -15.3999996       4.18538081E-24
  -15.3900003      -7.94648462E-24
  -15.3800001      -2.69073544E-23
  -15.3699999      -4.61770680E-23
  -15.3599997      -5.20995896E-23
  -15.3500004      -2.61335213E-23
  -15.3400002       4.70000645E-23
  -15.3299999       1.64928841E-22
  -15.3199997       2.90805507E-22
  -15.3100004       3.43547031E-22
  -15.3000002       2.09312187E-22
  -15.2900000      -2.12346639E-22
  -15.2799997      -9.25236957E-22
  -15.2700005      -1.73732102E-21
  -15.2600002      -2.19832113E-21
  -15.2500000      -1.65223945E-21
  -15.2399998       5.21488808E-22
  -15.2299995       4.46307157E-21
  -15.2200003       9.29091687E-21
  -15.2100000       1.27321587E-20
  -15.1999998       1.13207712E-20
  -15.1899996       1.53842477E-21
  -15.1800003      -1.80082777E-20
  -15.1700001      -4.38618918E-20
  -15.1599998      -6.56863995E-20
  -15.1499996      -6.67860004E-20
  -15.1400003      -2.89561682E-20
  -15.1300001       5.77655959E-20
  -15.1199999       1.82417158E-19
  -15.1099997       3.02791092E-19
  -15.1000004       3.45478859E-19
  -15.0900002       2.24277047E-19
  -15.0799999      -1.19792077E-19
  -15.0699997      -6.63783077E-19
  -15.0600004      -1.25402732E-18
  -15.0500002      -1.59545738E-18
  -15.0400000      -1.31284441E-18
  -15.0299997      -1.01204611E-19
  -15.0200005       2.05516518E-18
  -15.0100002       4.66801967E-18
  -15.0000000       6.65570449E-18
  -14.9899998       6.51346540E-18
  -14.9799995       2.82766626E-18
  -14.9700003      -4.91108462E-18
  -14.9600000      -1.54300104E-17
  -14.9499998      -2.51519006E-17
  -14.9399996      -2.85321096E-17
  -14.9300003      -1.96303608E-17
  -14.9200001       5.10950085E-18
  -14.9099998       4.35346480E-17
  -14.8999996       8.52595174E-17
  -14.8900003       1.11701649E-16
  -14.8800001       1.00208723E-16
  -14.8699999       3.26864356E-17
  -14.8599997      -9.28379808E-17
  -14.8500004      -2.51619263E-16
  -14.8400002      -3.88231225E-16
  -14.8299999      -4.24922363E-16
  -14.8199997      -2.85288188E-16
  -14.8100004       6.93132090E-17
  -14.8000002       6.00537942E-16
  -14.7900000       1.16761046E-15
  -14.7799997       1.53471899E-15
  -14.7700005       1.42535486E-15
  -14.7600002       6.23796461E-16
  -14.7500000      -8.97072160E-16
  -14.7399998      -2.86460889E-15
  -14.7299995      -4.66902009E-15
  -14.7200003      -5.45272886E-15
  -14.7100000      -4.35043110E-15
  -14.6999998      -8.50714100E-16
  -14.6899996       4.81519215E-15
  -14.6800003       1.14072612E-14
  -14.6700001       1.67004116E-14
  -14.6599998       1.79214469E-14
  -14.6499996       1.26086241E-14
  -14.6400003      -2.63504353E-16
  -14.6300001      -1.92254541E-14
  -14.6199999      -3.97663639E-14
  -14.6099997      -5.47312304E-14
  -14.6000004      -5.59042186E-14
  -14.5900002      -3.66627776E-14
  -14.5799999       4.86562830E-15
  -14.5699997       6.31236667E-14
  -14.5600004       1.24099827E-13
  -14.5500002       1.66974968E-13
  -14.5400000       1.68861656E-13
  -14.5299997       1.12101883E-13
  -14.5200005      -7.50951459E-15
  -14.5100002      -1.74106186E-13
  -14.5000000      -3.49585649E-13
  -14.4899998      -4.78195717E-13
  -14.4799995      -4.98664857E-13
  -14.4700003      -3.62429027E-13
  -14.4600000      -5.40536989E-14
  -14.4499998       3.91990992E-13
  -14.4399996       8.84707292E-13
  -14.4300003       1.28544300E-12
  -14.4200001       1.43447808E-12
  -14.4099998       1.19286905E-12
  -14.3999996       4.91842027E-13
  -14.3900003      -6.22476517E-13
  -14.3800001      -1.96349209E-12
  -14.3699999      -3.21115855E-12
  -14.3599997      -3.95993741E-12
  -14.3500004      -3.80731427E-12
  -14.3400002      -2.47123741E-12
  -14.3299999       8.67212186E-14
  -14.3199997       3.56483181E-12
  -14.3100004       7.28725066E-12
  -14.3000002       1.02639000E-11
  -14.2900000       1.13607257E-11
  -14.2799997       9.57228567E-12
  -14.2700005       4.35699003E-12
  -14.2600002      -4.03737764E-12
  -14.2500000      -1.43550640E-11
  -14.2399998      -2.43243273E-11
  -14.2299995      -3.09420718E-11
  -14.2200003      -3.10784107E-11
  -14.2100000      -2.23432904E-11
  -14.1999998      -4.05602114E-12
  -14.1899996       2.19338176E-11
  -14.1800003       5.08759319E-11
  -14.1700001       7.54768331E-11
  -14.1599998       8.71423697E-11
  -14.1499996       7.80476447E-11
  -14.1400003       4.37013307E-11
  -14.1300001      -1.45985429E-11
  -14.1199999      -8.81965126E-11
  -14.1099997      -1.61171632E-10
  -14.1000004      -2.12611248E-10
  -14.0900002      -2.21092644E-10
  -14.0799999      -1.70733622E-10
  -14.0699997      -5.74955326E-11
  -14.0600004       1.06058440E-10
  -14.0500002       2.89422125E-10
  -14.0400000       4.47618276E-10
  -14.0299997       5.29841171E-10
  -14.0200005       4.92189234E-10
  -14.0100002       3.11899562E-10
  -14.0000000      -6.36593317E-13
  -13.9899998      -3.96114419E-10
  -13.9799995      -7.90047194E-10
  -13.9700003      -1.07726705E-09
  -13.9600000      -1.15566934E-09
  -13.9499998      -9.54668677E-10
  -13.9399996      -4.61461674E-10
  -13.9300003       2.62700667E-10
  -13.9200001       1.08286502E-09
  -13.9099998       1.81068460E-09
  -13.8999996       2.24310592E-09
  -13.8900003       2.21244889E-09
  -13.8800001       1.63645342E-09
  -13.8699999       5.54843504E-10
  -13.8599997      -8.59664562E-10
  -13.8500004      -2.32300157E-09
  -13.8400002      -3.49341533E-09
  -13.8299999      -4.04783052E-09
  -13.8199997      -3.76417031E-09
  -13.8100004      -2.58906763E-09
  -13.8000002      -6.71707800E-10
  -13.7900000       1.64877312E-09
  -13.7799997       3.90400601E-09
  -13.7700005       5.59439695E-09
  -13.7600002       6.30279295E-09
  -13.7500000       5.79626214E-09
  -13.7399998       4.08956202E-09
  -13.7299995       1.45230128E-09
  -13.7200003      -1.64419178E-09
  -13.7100000      -4.62833993E-09
  -13.6999998      -6.95267310E-09
  -13.6899996      -8.20875456E-09
  -13.6800003      -8.20258794E-09
  -13.6700001      -6.97171432E-09
  -13.6599998      -4.74272577E-09
  -13.6499996      -1.84663240E-09
  -13.6400003       1.37651346E-09
  -13.6300001       4.64813210E-09
  -13.6199999       7.76922615E-09
  -13.6099997       1.05775833E-08
  -13.6000004       1.28605535E-08
  -13.5900002       1.42629419E-08
  -13.5799999       1.42421825E-08
  -13.5699997       1.21185222E-08
  -13.5600004       7.24417060E-09
  -13.5500002      -7.23901050E-10
  -13.5400000      -1.15083143E-08
  -13.5299997      -2.39512943E-08
  -13.5200005      -3.59246783E-08
  -13.5100002      -4.45071962E-08
  -13.5000000      -4.64731933E-08
  -13.4899998      -3.90545480E-08
  -13.4799995      -2.08433537E-08
  -13.4700003       7.37842365E-09
  -13.4600000       4.21375184E-08
  -13.4499998       7.73308173E-08
  -13.4399996       1.04992807E-07
  -13.4300003       1.16757512E-07
  -13.4200001       1.05814244E-07
  -13.4099998       6.89748276E-08
  -13.3999996       8.34886560E-09
  -13.3900003      -6.78930618E-08
  -13.3800001      -1.46072196E-07
  -13.3699999      -2.09027235E-07
  -13.3599997      -2.39429426E-07
  -13.3500004      -2.23839749E-07
  -13.3400002      -1.56661798E-07
  -13.3299999      -4.30012648E-08
  -13.3199997       1.00478651E-07
  -13.3100004       2.47292775E-07
  -13.3000002       3.65517110E-07
  -13.2900000       4.24236362E-07
  -13.2799997       4.00863058E-07
  -13.2700005       2.87720269E-07
  -13.2600002       9.61887920E-08
  -13.2500000      -1.42963472E-07
  -13.2399998      -3.83746737E-07
  -13.2299995      -5.73302373E-07
  -13.2200003      -6.63078765E-07
  -13.2100000      -6.20583023E-07
  -13.1999998      -4.38999848E-07
  -13.1899996      -1.42101442E-07
  -13.1800003       2.17349296E-07
  -13.1700001       5.66178812E-07
  -13.1599998       8.25230131E-07
  -13.1499996       9.26954385E-07
  -13.1400003       8.32388309E-07
  -13.1300001       5.43423027E-07
  -13.1199999       1.06898185E-07
  -13.1099997      -3.91396554E-07
  -13.1000004      -8.42547365E-07
  -13.0900002      -1.13752537E-06
  -13.0799999      -1.19272443E-06
  -13.0699997      -9.72255975E-07
  -13.0600004      -5.01371403E-07
  -13.0500002       1.33113247E-07
  -13.0400000       7.96860490E-07
  -13.0299997       1.33471542E-06
  -13.0200005       1.60507477E-06
  -13.0100002       1.51460358E-06
  -13.0000000       1.04516562E-06
  -12.9899998       2.65867641E-07
  -12.9799995      -6.74073476E-07
  -12.9700003      -1.57183581E-06
  -12.9600000      -2.21254913E-06
  -12.9499998      -2.41766247E-06
  -12.9399996      -2.08954748E-06
  -12.9300003      -1.24170151E-06
  -12.9200001      -6.32558672E-09
  -12.9099998       1.38441294E-06
  -12.8999996       2.64135747E-06
  -12.8900003       3.47776768E-06
  -12.8800001       3.67296980E-06
  -12.8699999       3.12618636E-06
  -12.8599997       1.88770093E-06
  -12.8500004       1.58789703E-07
  -12.8400002      -1.74163756E-06
  -12.8299999      -3.43832653E-06
  -12.8199997      -4.57689748E-06
  -12.8100004      -4.90071443E-06
  -12.8000002      -4.31032413E-06
  -12.7900000      -2.89142918E-06
  -12.7799997      -9.03767955E-07
  -12.7700005       1.26828900E-06
  -12.7600002       3.19399442E-06
  -12.7500000       4.48706624E-06
  -12.7399998       4.88944670E-06
  -12.7299995       4.32927209E-06
  -12.7200003       2.93953735E-06
  -12.7100000       1.03239574E-06
  -12.6999998      -9.66198854E-07
  -12.6899996      -2.60783531E-06
  -12.6800003      -3.51928998E-06
  -12.6700001      -3.48509184E-06
  -12.6599998      -2.49675008E-06
  -12.6499996      -7.57645637E-07
  -12.6400003       1.35762957E-06
  -12.6300001       3.38062205E-06
  -12.6199999       4.84612247E-06
  -12.6099997       5.38787208E-06
  -12.6000004       4.81229836E-06
  -12.5900002       3.13495298E-06
  -12.5799999       5.72938347E-07
  -12.5699997      -2.50337416E-06
  -12.5600004      -5.64697530E-06
  -12.5500002      -8.42081590E-06
  -12.5400000      -1.04743731E-05
  -12.5299997      -1.15932680E-05
  -12.5200005      -1.17120353E-05
  -12.5100002      -1.08894064E-05
  -12.5000000      -9.25476434E-06
  -12.4899998      -6.94153550E-06
  -12.4799995      -4.02659407E-06
  -12.4700003      -4.93360290E-07
  -12.4600000       3.76946946E-06
  -12.4499998       8.93045762E-06
  -12.4399996       1.51460672E-05
  -12.4300003       2.24749929E-05
  -12.4200001       3.07972914E-05
  -12.4099998       3.97602125E-05
  -12.3999996       4.87684738E-05
  -12.3900003       5.70281190E-05
  -12.3800001       6.36417826E-05
  -12.3699999       6.77414719E-05
  -12.3599997       6.86354833E-05
  -12.3500004       6.59407597E-05
  -12.3400002       5.96727004E-05
  -12.3299999       5.02708499E-05
  -12.3199997       3.85506755E-05
  -12.3100004       2.55861523E-05
  -12.3000002       1.25424558E-05
  -12.2900000       4.89481238E-07
  -12.2799997      -9.76742558E-06
  -12.2700005      -1.78050286E-05
  -12.2600002      -2.36228498E-05
  -12.2500000      -2.75971706E-05
  -12.2399998      -3.03569741E-05
  -12.2299995      -3.26078698E-05
  -12.2200003      -3.49424881E-05
  -12.2100000      -3.76802818E-05
  -12.1999998      -4.07743573E-05
  -12.1899996      -4.38088209E-05
  -12.1800003      -4.60896044E-05
  -12.1700001      -4.68098697E-05
  -12.1599998      -4.52524073E-05
  -12.1499996      -4.09811219E-05
  -12.1400003      -3.39745093E-05
  -12.1300001      -2.46663622E-05
  -12.1199999      -1.38804307E-05
  -12.1099997      -2.67146629E-06
  -12.1000004       7.89110618E-06
  -12.0900002       1.69448904E-05
  -12.0799999       2.40062527E-05
  -12.0699997       2.90473436E-05
  -12.0600004       3.24559769E-05
  -12.0500002       3.48852773E-05
  -12.0400000       3.70288071E-05
  -12.0299997       3.93780974E-05
  -12.0200005       4.20270262E-05
  -12.0100002       4.45791702E-05
  -12.0000000       4.61908858E-05
  -11.9899998       4.57500792E-05
  -11.9799995       4.21560690E-05
  -11.9700003       3.46380330E-05
  -11.9600000       2.30356982E-05
  -11.9499998       7.97001030E-06
  -11.9399996      -9.14686643E-06
  -11.9300003      -2.62781159E-05
  -11.9200001      -4.10815810E-05
  -11.9099998      -5.13223640E-05
  -11.8999996      -5.52961028E-05
  -11.8900003      -5.21751244E-05
  -11.8800001      -4.22038502E-05
  -11.8699999      -2.67000960E-05
  -11.8599997      -7.85837801E-06
  -11.8500004       1.16083975E-05
  -11.8400002       2.89206164E-05
  -11.8299999       4.16914881E-05
  -11.8199997       4.83094846E-05
  -11.8100004       4.81762945E-05
  -11.8000002       4.17628762E-05
  -11.7900000       3.04818241E-05
  -11.7799997       1.64079265E-05
  -11.7700005       1.90435401E-06
  -11.7600002      -1.07754931E-05
  -11.7500000      -1.98413618E-05
  -11.7399998      -2.42189562E-05
  -11.7299995      -2.36682918E-05
  -11.7200003      -1.87589612E-05
  -11.7100000      -1.07179012E-05
  -11.6999998      -1.18411390E-06
  -11.6899996       8.08392724E-06
  -11.6800003       1.54993704E-05
  -11.6700001       1.98923062E-05
  -11.6599998       2.06754157E-05
  -11.6499996       1.79099061E-05
  -11.6400003       1.22671099E-05
  -11.6300001       4.89580361E-06
  -11.6199999      -2.78195421E-06
  -11.6099997      -9.31431077E-06
  -11.6000004      -1.34650518E-05
  -11.5900002      -1.44230380E-05
  -11.5799999      -1.19421620E-05
  -11.5699997      -6.38769234E-06
  -11.5600004       1.32157481E-06
  -11.5500002       9.86975738E-06
  -11.5400000       1.77764014E-05
  -11.5299997       2.36676860E-05
  -11.5200005       2.65390408E-05
  -11.5100002       2.59593271E-05
  -11.5000000       2.21733371E-05
  -11.4899998       1.60749460E-05
  -11.4799995       9.04627086E-06
  -11.4700003       2.68495069E-06
  -11.4600000      -1.53294127E-06
  -11.4499998      -2.58830141E-06
  -11.4399996      -1.79880459E-07
  -11.4300003       5.15378815E-06
  -11.4200001       1.20922914E-05
  -11.4099998       1.87765709E-05
  -11.3999996       2.32018247E-05
  -11.3900003       2.36866181E-05
  -11.3800001       1.93191081E-05
  -11.3699999       1.02753575E-05
  -11.3599997      -2.07759285E-06
  -11.3500004      -1.53414603E-05
  -11.3400002      -2.65017188E-05
  -11.3299999      -3.25310539E-05
  -11.3199997      -3.10643809E-05
  -11.3100004      -2.10007220E-05
  -11.3000002      -2.89002401E-06
  -11.2900000       2.10013532E-05
  -11.2799997       4.69893203E-05
  -11.2700005       7.05997372E-05
  -11.2600002       8.74137986E-05
  -11.2500000       9.39635647E-05
  -11.2399998       8.84884212E-05
  -11.2299995       7.13830595E-05
  -11.2200003       4.52260865E-05
  -11.2100000       1.43653087E-05
  -11.1999998      -1.58694838E-05
  -11.1899996      -4.01724319E-05
  -11.1800003      -5.42819580E-05
  -11.1700001      -5.58047504E-05
  -11.1599998      -4.46724189E-05
  -11.1499996      -2.31376052E-05
  -11.1400003       4.68597455E-06
  -11.1300001       3.36390585E-05
  -11.1199999       5.85151538E-05
  -11.1099997       7.50354084E-05
  -11.1000004       8.06063836E-05
  -11.0900002       7.47202066E-05
  -11.0799999       5.89369993E-05
  -11.0699997       3.64782209E-05
  -11.0600004       1.15358243E-05
  -11.0500002      -1.15492330E-05
  -11.0400000      -2.90727585E-05
  -11.0299997      -3.85735439E-05
  -11.0200005      -3.91649592E-05
  -11.0100002      -3.15584184E-05
  -11.0000000      -1.78052178E-05
  -10.9899998      -8.29408975E-07
  -10.9799995       1.61491353E-05
  -10.9700003       3.01972032E-05
  -10.9600000       3.91639987E-05
  -10.9499998       4.20204233E-05
  -10.9399996       3.89996749E-05
  -10.9300003       3.15246216E-05
  -10.9200001       2.19336289E-05
  -10.9099998       1.30414983E-05
  -10.8999996       7.59544582E-06
  -10.8900003       7.70693623E-06
  -10.8800001       1.43549123E-05
  -10.8699999       2.70588316E-05
  -10.8599997       4.38055904E-05
  -10.8500004       6.12796721E-05
  -10.8400002       7.53924833E-05
  -10.8299999       8.20429268E-05
  -10.8199997       7.79800976E-05
  -10.8100004       6.15967438E-05
  -10.8000002       3.34731340E-05
  -10.7900000      -3.47642413E-06
  -10.7799997      -4.43296849E-05
  -10.7700005      -8.29312266E-05
  -10.7600002      -1.12986359E-04
  -10.7500000      -1.29259861E-04
  -10.7399998      -1.28623753E-04
  -10.7299995      -1.10714915E-04
  -10.7200003      -7.80385817E-05
  -10.7100000      -3.54734839E-05
  -10.6999998       1.07283331E-05
  -10.6899996       5.42321031E-05
  -10.6800003       8.99105653E-05
  -10.6700001       1.14835238E-04
  -10.6599998       1.28733809E-04
  -10.6499996       1.33802227E-04
  -10.6400003       1.33914495E-04
  -10.6300001       1.33421345E-04
  -10.6199999       1.35834402E-04
  -10.6099997       1.42728255E-04
  -10.6000004       1.53147601E-04
  -10.5900002       1.63690129E-04
  -10.5799999       1.69274223E-04
  -10.5699997       1.64431432E-04
  -10.5600004       1.44829290E-04
  -10.5500002       1.08660533E-04
  -10.5400000       5.75515842E-05
  -10.5299997      -3.25951601E-06
  -10.5200005      -6.55658587E-05
  -10.5100002      -1.19561410E-04
  -10.5000000      -1.55676549E-04
  -10.4899998      -1.66505648E-04
  -10.4799995      -1.48421415E-04
  -10.4700003      -1.02526581E-04
  -10.4600000      -3.47260466E-05
  -10.4499998       4.51187589E-05
  -10.4399996       1.24805243E-04
  -10.4300003       1.91871339E-04
  -10.4200001       2.35749350E-04
  -10.4099998       2.49587145E-04
  -10.3999996       2.31402766E-04
  -10.3900003       1.84371122E-04
  -10.3800001       1.16208983E-04
  -10.3699999       3.77909855E-05
  -10.3599997      -3.87369837E-05
  -10.3500004      -1.02002385E-04
  -10.3400002      -1.43252109E-04
  -10.3299999      -1.57694900E-04
  -10.3199997      -1.45136044E-04
  -10.3100004      -1.09828332E-04
  -10.3000002      -5.95957390E-05
  -10.2900000      -4.40153190E-06
  -10.2799997       4.53869507E-05
  -10.2700005       8.07468095E-05
  -10.2600002       9.54802381E-05
  -10.2500000       8.71967786E-05
  -10.2399998       5.76505881E-05
  -10.2299995       1.23906075E-05
  -10.2200003      -4.02086298E-05
  -10.2100000      -9.03693071E-05
  -10.1999998      -1.28546977E-04
  -10.1899996      -1.47009006E-04
  -10.1800003      -1.41093391E-04
  -10.1700001      -1.09943205E-04
  -10.1599998      -5.66032359E-05
  -10.1499996       1.25219431E-05
  -10.1400003       8.87379865E-05
  -10.1300001       1.62458979E-04
  -10.1199999       2.24683725E-04
  -10.1099997       2.68297648E-04
  -10.1000004       2.88993848E-04
  -10.0900002       2.85688846E-04
  -10.0799999       2.60408677E-04
  -10.0699997       2.17718334E-04
  -10.0600004       1.63840727E-04
  -10.0500002       1.05650412E-04
  -10.0400000       4.97240471E-05
  -10.0299997       1.59166132E-06
  -10.0200005      -3.47287132E-05
  -10.0100002      -5.69001677E-05
  -10.0000000      -6.41877123E-05
  -9.98999977      -5.72190911E-05
  -9.97999954      -3.76867283E-05
  -9.97000027      -8.07737979E-06
  -9.96000004       2.85204478E-05
  -9.94999981       6.85277555E-05
  -9.93999958       1.07946005E-04
  -9.93000031       1.42458288E-04
  -9.92000008       1.67635968E-04
  -9.90999985       1.79303155E-04
  -9.89999962       1.74062443E-04
  -9.89000034       1.49923246E-04
  -9.88000011       1.06913314E-04
  -9.86999989       4.75158049E-05
  -9.85999966      -2.32270086E-05
  -9.85000038      -9.80566401E-05
  -9.84000015      -1.68313592E-04
  -9.82999992      -2.25136988E-04
  -9.81999969      -2.60850764E-04
  -9.81000042      -2.70262477E-04
  -9.80000019      -2.51586927E-04
  -9.78999996      -2.06766679E-04
  -9.77999973      -1.41089316E-04
  -9.77000046      -6.21659419E-05
  -9.76000023       2.15033597E-05
  -9.75000000       1.02041493E-04
  -9.73999977       1.73424967E-04
  -9.72999954       2.32148683E-04
  -9.72000027       2.77197571E-04
  -9.71000004       3.09394032E-04
  -9.69999981       3.30368057E-04
  -9.68999958       3.41502746E-04
  -9.68000031       3.43206804E-04
  -9.67000008       3.34753015E-04
  -9.65999985       3.14733596E-04
  -9.64999962       2.81973451E-04
  -9.64000034       2.36580425E-04
  -9.63000011       1.80749936E-04
  -9.61999989       1.19002660E-04
  -9.60999966       5.77036699E-05
  -9.60000038       3.93701066E-06
  -9.59000015      -3.59791375E-05
  -9.57999992      -5.79228545E-05
  -9.56999969      -6.09271883E-05
  -9.56000042      -4.73756591E-05
  -9.55000019      -2.23608204E-05
  -9.53999996       7.62493528E-06
  -9.52999973       3.63036888E-05
  -9.52000046       5.90840573E-05
  -9.51000023       7.39926254E-05
  -9.50000000       8.18318877E-05
  -9.48999977       8.55609178E-05
  -9.47999954       8.91167947E-05
  -9.47000027       9.60432953E-05
  -9.46000004       1.08327331E-04
  -9.44999981       1.25759281E-04
  -9.43999958       1.45962724E-04
  -9.43000031       1.65039281E-04
  -9.42000008       1.78607370E-04
  -9.40999985       1.82924166E-04
  -9.39999962       1.75788897E-04
  -9.39000034       1.57018498E-04
  -9.38000011       1.28426545E-04
  -9.36999989       9.33760020E-05
  -9.35999966       5.60759727E-05
  -9.35000038       2.08277670E-05
  -9.34000015      -8.60276123E-06
  -9.32999992      -2.93809899E-05
  -9.31999969      -3.97471958E-05
  -9.31000042      -3.89590787E-05
  -9.30000019      -2.71227946E-05
  -9.28999996      -5.00378201E-06
  -9.27999973       2.61166570E-05
  -9.27000046       6.45113760E-05
  -9.26000023       1.08013584E-04
  -9.25000000       1.53993795E-04
  -9.23999977       1.99354356E-04
  -9.22999954       2.40588721E-04
  -9.22000027       2.73942744E-04
  -9.21000004       2.95700331E-04
  -9.19999981       3.02591216E-04
  -9.18999958       2.92288052E-04
  -9.18000031       2.63923750E-04
  -9.17000008       2.18525776E-04
  -9.15999985       1.59247560E-04
  -9.14999962       9.12881515E-05
  -9.14000034       2.14383454E-05
  -9.13000011      -4.27289779E-05
  -9.11999989      -9.39126840E-05
  -9.10999966      -1.26189145E-04
  -9.10000038      -1.35937764E-04
  -9.09000015      -1.22376092E-04
  -9.07999992      -8.75790865E-05
  -9.06999969      -3.59839069E-05
  -9.06000042       2.64861301E-05
  -9.05000019       9.34496929E-05
  -9.03999996       1.58993062E-04
  -9.02999973       2.18292946E-04
  -9.02000046       2.67851370E-04
  -9.01000023       3.05395020E-04
  -9.00000000       3.29598726E-04
  -8.98999977       3.39832593E-04
  -8.97999954       3.36086348E-04
  -8.97000027       3.19114304E-04
  -8.96000004       2.90711381E-04
  -8.94999981       2.53930251E-04
  -8.93999958       2.13031759E-04
  -8.93000031       1.73035442E-04
  -8.92000008       1.38888587E-04
  -8.90999985       1.14440198E-04
  -8.89999962       1.01529295E-04
  -8.89000034       9.95165246E-05
  -8.88000011       1.05482206E-04
  -8.86999989       1.15111077E-04
  -8.85999966       1.24046332E-04
  -8.85000038       1.29310210E-04
  -8.84000015       1.30325425E-04
  -8.82999992       1.29167645E-04
  -8.81999969       1.29912369E-04
  -8.81000042       1.37237163E-04
  -8.80000019       1.54705092E-04
  -8.78999996       1.83290016E-04
  -8.77999973       2.20656715E-04
  -8.77000046       2.61484151E-04
  -8.76000023       2.98787170E-04
  -8.75000000       3.25857371E-04
  -8.73999977       3.38222977E-04
  -8.72999954       3.34997487E-04
  -8.72000027       3.19164130E-04
  -8.71000004       2.96673534E-04
  -8.69999981       2.74611637E-04
  -8.68999958       2.58995191E-04
  -8.68000031       2.52880942E-04
  -8.67000008       2.55380844E-04
  -8.65999985       2.61896668E-04
  -8.64999962       2.65509036E-04
  -8.64000034       2.59100721E-04
  -8.63000011       2.37578279E-04
  -8.61999989       1.99537899E-04
  -8.60999966       1.47907107E-04
  -8.60000038       8.94125915E-05
  -8.59000015       3.30710318E-05
  -8.57999992      -1.18311336E-05
  -8.56999969      -3.76948592E-05
  -8.56000042      -3.99996243E-05
  -8.55000019      -1.78419214E-05
  -8.53999996       2.63895145E-05
  -8.52999973       8.79645231E-05
  -8.52000046       1.61009637E-04
  -8.51000023       2.39573768E-04
  -8.50000000       3.18301289E-04
  -8.48999977       3.92641232E-04
  -8.47999954       4.58701950E-04
  -8.47000027       5.12974977E-04
  -8.46000004       5.52164915E-04
  -8.44999981       5.73281082E-04
  -8.43999958       5.74012636E-04
  -8.43000031       5.53272257E-04
  -8.42000008       5.11710998E-04
  -8.40999985       4.52000328E-04
  -8.39999962       3.78746685E-04
  -8.39000034       2.98019149E-04
  -8.38000011       2.16590415E-04
  -8.36999989       1.41070617E-04
  -8.35999966       7.71355262E-05
  -8.35000038       2.90055814E-05
  -8.34000015      -7.54987411E-07
  -8.32999992      -1.11471081E-05
  -8.31999969      -2.45793262E-06
  -8.31000042       2.40671307E-05
  -8.30000019       6.64794716E-05
  -8.28999996       1.22243538E-04
  -8.27999973       1.88218008E-04
  -8.27000046       2.60572357E-04
  -8.26000023       3.34746903E-04
  -8.25000000       4.05563362E-04
  -8.23999977       4.67556616E-04
  -8.22999954       5.15535416E-04
  -8.22000027       5.45305840E-04
  -8.21000004       5.54425118E-04
  -8.19999981       5.42817172E-04
  -8.18999958       5.13078587E-04
  -8.18000031       4.70349012E-04
  -8.17000008       4.21698060E-04
  -8.15999985       3.75089294E-04
  -8.14999962       3.38085811E-04
  -8.14000034       3.16541438E-04
  -8.13000011       3.13553377E-04
  -8.11999989       3.28913389E-04
  -8.10999966       3.59196914E-04
  -8.10000038       3.98486649E-04
  -8.09000015       4.39574418E-04
  -8.07999992       4.75366396E-04
  -8.06999969       5.00166498E-04
  -8.06000042       5.10549580E-04
  -8.05000019       5.05653035E-04
  -8.03999996       4.86876728E-04
  -8.02999973       4.57146059E-04
  -8.02000046       4.20004333E-04
  -8.01000023       3.78827041E-04
  -8.00000000       3.36386729E-04
  -7.98999977       2.94854690E-04
  -7.98000002       2.56166095E-04
  -7.96999979       2.22542265E-04
  -7.96000004       1.96903813E-04
  -7.94999981       1.82943637E-04
  -7.94000006       1.84746139E-04
  -7.92999983       2.05998265E-04
  -7.92000008       2.48985772E-04
  -7.90999985       3.13655182E-04
  -7.90000010       3.97020078E-04
  -7.88999987       4.93106490E-04
  -7.88000011       5.93489269E-04
  -7.86999989       6.88324741E-04
  -7.86000013       7.67670805E-04
  -7.84999990       8.22838629E-04
  -7.84000015       8.47547082E-04
  -7.82999992       8.38722568E-04
  -7.82000017       7.96879642E-04
  -7.80999994       7.26086611E-04
  -7.80000019       6.33565185E-04
  -7.78999996       5.28977718E-04
  -7.78000021       4.23446472E-04
  -7.76999998       3.28353519E-04
  -7.76000023       2.53998965E-04
  -7.75000000       2.08255660E-04
  -7.73999977       1.95419736E-04
  -7.73000002       2.15492415E-04
  -7.71999979       2.64102448E-04
  -7.71000004       3.33182194E-04
  -7.69999981       4.12345253E-04
  -7.69000006       4.90729988E-04
  -7.67999983       5.58929052E-04
  -7.67000008       6.10564253E-04
  -7.65999985       6.43136795E-04
  -7.65000010       6.57956291E-04
  -7.63999987       6.59200887E-04
  -7.63000011       6.52399962E-04
  -7.61999989       6.42783882E-04
  -7.61000013       6.33973803E-04
  -7.59999990       6.27358735E-04
  -7.59000015       6.22280058E-04
  -7.57999992       6.16883044E-04
  -7.57000017       6.09288807E-04
  -7.55999994       5.98651473E-04
  -7.55000019       5.85732399E-04
  -7.53999996       5.72810008E-04
  -7.53000021       5.62989328E-04
  -7.51999998       5.59188775E-04
  -7.51000023       5.63194742E-04
  -7.50000000       5.75134822E-04
  -7.48999977       5.93558070E-04
  -7.48000002       6.16072852E-04
  -7.46999979       6.40280196E-04
  -7.46000004       6.64623862E-04
  -7.44999981       6.88808621E-04
  -7.44000006       7.13606423E-04