  -16.0000000       0.00000000    
  -15.9899998       0.00000000    
  -15.9799995       0.00000000    
  -15.9700003       0.00000000    
  -15.9600000       0.00000000    
  -15.9499998       0.00000000    
  -15.9399996       0.00000000    
  -15.9300003       0.00000000    
  -15.9200001       0.00000000    
  -15.9099998       0.00000000    
  -15.8999996       3.71949006E-37
  -15.8900003       9.49560591E-36
  -15.8800001       1.09448913E-34
  -15.8699999       7.80142081E-34
  -15.8599997       3.86270676E-33
  -15.8500004       1.37489405E-32
  -15.8400002       3.30971249E-32
  -15.8299999       3.05968484E-32
  -15.8199997      -1.76257385E-31
  -15.8100004      -1.22194810E-30
  -15.8000002      -4.76322687E-30
  -15.7900000      -1.41852038E-29
  -15.7799997      -3.46262132E-29
  -15.7700005      -7.01088634E-29
  -15.7600002      -1.13621417E-28
  -15.7500000      -1.24954251E-28
  -15.7399998       5.12606567E-30
  -15.7299995       4.90578509E-28
  -15.7200003       1.63962621E-27
  -15.7100000       3.70944007E-27
  -15.6999998       6.52150386E-27
  -15.6899996       8.82361954E-27
  -15.6800003       7.67319148E-27
  -15.6700001      -1.40301213E-27
  -15.6599998      -2.23403344E-26
  -15.6499996      -5.38783000E-26
  -15.6400003      -8.38523828E-26
  -15.6300001      -8.81744285E-26
  -15.6199999      -4.42137401E-26
  -15.6099997       3.40469563E-26
  -15.6000004       4.91435045E-26
  -15.5900002      -1.91247074E-25
  -15.5799999      -8.59338725E-25
  -15.5699997      -1.77037446E-24
  -15.5600004      -1.83959701E-24
  -15.5500002       1.35527418E-24
  -15.5400000       1.11474518E-23
  -15.5299997       2.93964409E-23
  -15.5200005       5.13873681E-23
  -15.5100002       5.89738971E-23
  -15.5000000       1.63677578E-23
  -15.4899998      -1.22756501E-22
  -15.4799995      -3.86106620E-22
  -15.4700003      -7.26124779E-22
  -15.4600000      -9.48372670E-22
  -15.4499998      -6.68938700E-22
  -15.4399996       6.20392629E-22
  -15.4300003       3.28856962E-21
  -15.4200001       7.06280330E-21
  -15.4099998       1.03938960E-20
  -15.3999996       1.00373537E-20
  -15.3900003       1.45135028E-21
  -15.3800001      -1.93084101E-20
  -15.3699999      -5.18715527E-20
  -15.3599997      -8.66906737E-20
  -15.3500004      -1.01321037E-19
  -15.3400002      -6.18165255E-20
  -15.3299999       6.61586550E-20
  -15.3199997       2.93882537E-19
  -15.3100004       5.77014622E-19
  -15.3000002       7.86675439E-19
  -15.2900000       7.07273855E-19
  -15.2799997       8.92277271E-20
  -15.2700005      -1.22393128E-18
  -15.2600002      -3.10404343E-18
  -15.2500000      -4.94280369E-18
  -15.2399998      -5.57097168E-18
  -15.2299995      -3.44775414E-18
  -15.2200003       2.75074384E-18
  -15.2100000       1.31431472E-17
  -15.1999998       2.54922142E-17
  -15.1899996       3.44288585E-17
  -15.1800003       3.18211981E-17
  -15.1700001       9.03769844E-18
  -15.1599998      -3.86143659E-17
  -15.1499996      -1.05994553E-16
  -15.1400003      -1.72882958E-16
  -15.1300001      -2.02777994E-16
  -15.1199999      -1.49553103E-16
  -15.1099997       2.55475592E-17
  -15.1000004       3.27752464E-16
  -15.0900002       7.00340499E-16
  -15.0799999       1.00708014E-15
  -15.0699997       1.04251100E-15
  -15.0600004       5.84871380E-16
  -15.0500002      -5.04757151E-16
  -15.0400000      -2.15426504E-15
  -15.0299997      -3.96666122E-15
  -15.0200005      -5.18615870E-15
  -15.0100002      -4.81451537E-15
  -15.0000000      -1.92159525E-15
  -14.9899998       3.87031631E-15
  -14.9799995       1.18444073E-14
  -14.9700003       1.98058478E-14
  -14.9600000       2.41345081E-14
  -14.9499998       2.05212281E-14
  -14.9399996       5.47296363E-15
  -14.9300003      -2.16249426E-14
  -14.9200001      -5.64763927E-14
  -14.9099998      -8.87887582E-14
  -14.8999996      -1.03161349E-13
  -14.8900003      -8.26974326E-14
  -14.8800001      -1.53297005E-14
  -14.8699999       9.83223851E-14
  -14.8599997       2.38042713E-13
  -14.8500004       3.61472977E-13
  -14.8400002       4.09338579E-13
  -14.8299999       3.20414160E-13
  -14.8199997       5.52054672E-14
  -14.8100004      -3.76758141E-13
  -14.8000002      -8.95163501E-13
  -14.7900000      -1.34414832E-12
  -14.7799997      -1.51483958E-12
  -14.7700005      -1.19969312E-12
  -14.7600002      -2.72800473E-13
  -14.7500000       1.22251731E-12
  -14.7399998       3.00897827E-12
  -14.7299995       4.56863280E-12
  -14.7200003       5.22312358E-12
  -14.7100000       4.30988752E-12
  -14.6999998       1.43129183E-12
  -14.6899996      -3.28330375E-12
  -14.6800003      -8.99280043E-12
  -14.6700001      -1.41366042E-11
  -14.6599998      -1.66802804E-11
  -14.6499996      -1.46307029E-11
  -14.6400003      -6.74672124E-12
  -14.6300001       6.72703256E-12
  -14.6199999       2.35504290E-11
  -14.6099997       3.94649383E-11
  -14.6000004       4.88493690E-11
  -14.5900002       4.60824642E-11
  -14.5799999       2.74086032E-11
  -14.5699997      -7.14054944E-12
  -14.5600004      -5.23907029E-11
  -14.5500002      -9.78814182E-11
  -14.5400000      -1.29393621E-10
  -14.5299997      -1.32206329E-10
  -14.5200005      -9.55915486E-11
  -14.5100002      -1.74960567E-11
  -14.5000000       9.20293217E-11
  -14.4899998       2.10128595E-10
  -14.4799995       3.04212183E-10
  -14.4700003       3.38952533E-10
  -14.4600000       2.86159346E-10
  -14.4499998       1.35294470E-10
  -14.4399996      -9.84263504E-11
  -14.4300003      -3.71465775E-10
  -14.4200001      -6.17160822E-10
  -14.4099998      -7.59102892E-10
  -14.3999996      -7.30734251E-10
  -14.3900003      -4.96839125E-10
  -14.3800001      -7.10231110E-11
  -14.3699999       4.76865769E-10
  -14.3599997       1.02776154E-09
  -14.3500004       1.43589129E-09
  -14.3400002       1.56346047E-09
  -14.3299999       1.31996269E-09
  -14.3199997       6.95755731E-10
  -14.3100004      -2.20700735E-10
  -14.3000002      -1.24968635E-09
  -14.2900000      -2.15322249E-09
  -14.2799997      -2.68907985E-09
  -14.2700005      -2.67376565E-09
  -14.2600002      -2.03807882E-09
  -14.2500000      -8.58677351E-10
  -14.2399998       6.46163012E-10
  -14.2299995       2.15947660E-09
  -14.2200003       3.33914718E-09
  -14.2100000       3.90406329E-09
  -14.1999998       3.70925668E-09
  -14.1899996       2.78733014E-09
  -14.1800003       1.34158262E-09
  -14.1700001      -3.10166753E-10
  -14.1599998      -1.82658966E-09
  -14.1499996      -2.94167268E-09
  -14.1400003      -3.53915453E-09
  -14.1300001      -3.67531894E-09
  -14.1199999      -3.53771834E-09
  -14.1099997      -3.34860051E-09
  -14.1000004      -3.24319172E-09
  -14.0900002      -3.16730042E-09
  -14.0799999      -2.83987056E-09
  -14.0699997      -1.81140325E-09
  -14.0600004       3.79347914E-10
  -14.0500002       3.98332922E-09
  -14.0400000       8.81834783E-09
  -14.0299997       1.41267522E-08
  -14.0200005       1.85883700E-08
  -14.0100002       2.05309405E-08
  -14.0000000       1.83270181E-08
  -13.9899998       1.09047313E-08
  -13.9799995      -1.75271919E-09
  -13.9700003      -1.82699367E-08
  -13.9600000      -3.58423513E-08
  -13.9499998      -5.05813418E-08
  -13.9399996      -5.82335247E-08
  -13.9300003      -5.51621966E-08
  -13.9200001      -3.93870465E-08
  -13.9099998      -1.14257324E-08
  -13.8999996       2.53117118E-08
  -13.8900003       6.47516814E-08
  -13.8800001       9.90556828E-08
  -13.8699999       1.20077004E-07
  -13.8599997       1.21112279E-07
  -13.8500004       9.85803297E-08
  -13.8400002       5.32342810E-08
  -13.8299999      -9.42201694E-09
  -13.8199997      -7.96918229E-08
  -13.8100004      -1.45191080E-07
  -13.8000002      -1.93059748E-07
  -13.7900000      -2.12461927E-07
  -13.7799997      -1.96866722E-07
  -13.7700005      -1.45621328E-07
  -13.7600002      -6.44571685E-08
  -13.7500000       3.52156952E-08
  -13.7399998       1.38118494E-07
  -13.7299995       2.27678370E-07
  -13.7200003       2.88868108E-07
  -13.7100000       3.10761465E-07
  -13.6999998       2.88325168E-07
  -13.6899996       2.23142649E-07
  -13.6800003       1.22997221E-07
  -13.6700001       4.80040063E-10
  -13.6599998      -1.29028578E-07
  -13.6499996      -2.49566966E-07
  -13.6400003      -3.46574865E-07
  -13.6300001      -4.08359170E-07
  -13.6199999      -4.26932615E-07
  -13.6099997      -3.98301466E-07
  -13.6000004      -3.22413968E-07
  -13.5900002      -2.03024626E-07
  -13.5799999      -4.76665711E-08
  -13.5699997       1.32224358E-07
  -13.5600004       3.21178447E-07
  -13.5500002       4.99860050E-07
  -13.5400000       6.45910973E-07
  -13.5299997       7.35784397E-07
  -13.5200005       7.47674278E-07
  -13.5100002       6.65333346E-07
  -13.5000000       4.82219775E-07
  -13.4899998       2.05124948E-07
  -13.4799995      -1.43695701E-07
  -13.4700003      -5.26768645E-07
  -13.4600000      -8.94561026E-07
  -13.4499998      -1.19153549E-06
  -13.4399996      -1.36443805E-06
  -13.4300003      -1.37154598E-06
  -13.4200001      -1.19119636E-06
  -13.4099998      -8.27832025E-07
  -13.3999996      -3.14099651E-07
  -13.3900003       2.91803502E-07
  -13.3800001       9.13437020E-07
  -13.3699999       1.46702587E-06
  -13.3599997       1.87411808E-06
  -13.3500004       2.07370249E-06
  -13.3400002       2.03154195E-06
  -13.3299999       1.74501406E-06
  -13.3199997       1.24268604E-06
  -13.3100004       5.78965796E-07
  -13.3000002      -1.74806203E-07
  -13.2900000      -9.40763925E-07
  -13.2799997      -1.64420157E-06
  -13.2700005      -2.22071822E-06
  -13.2600002      -2.61988839E-06
  -13.2500000      -2.80563290E-06
  -13.2399998      -2.75450429E-06
  -13.2299995      -2.45373622E-06
  -13.2200003      -1.90093567E-06
  -13.2100000      -1.10663927E-06
  -13.1999998      -9.97746668E-08
  -13.1899996       1.06535276E-06
  -13.1800003       2.30313890E-06
  -13.1700001       3.49502511E-06
  -13.1599998       4.49499385E-06
  -13.1499996       5.14382555E-06
  -13.1400003       5.29164572E-06
  -13.1300001       4.82588666E-06
  -13.1199999       3.69965755E-06
  -13.1099997       1.95426605E-06
  -13.1000004      -2.70251604E-07
  -13.0900002      -2.74108788E-06
  -13.0799999      -5.15665170E-06
  -13.0699997      -7.18637739E-06
  -13.0600004      -8.52049288E-06
  -13.0500002      -8.92115349E-06
  -13.0400000      -8.26526957E-06
  -13.0299997      -6.57039891E-06
  -13.0200005      -3.99800319E-06
  -13.0100002      -8.32777516E-07
  -13.0000000       2.55846248E-06
  -12.9899998       5.78065919E-06
  -12.9799995       8.46696184E-06
  -12.9700003       1.03272887E-05
  -12.9600000       1.11806276E-05
  -12.9499998       1.09666171E-05
  -12.9399996       9.73680653E-06
  -12.9300003       7.63046955E-06
  -12.9200001       4.84296424E-06
  -12.9099998       1.59545050E-06
  -12.8999996      -1.88676847E-06
  -12.8900003      -5.38354561E-06
  -12.8800001      -8.67764811E-06
  -12.8699999      -1.15460361E-05
  -12.8599997      -1.37524412E-05
  -12.8500004      -1.50494097E-05
  -12.8400002      -1.51956483E-05
  -12.8299999      -1.39900958E-05
  -12.8199997      -1.13185779E-05
  -12.8100004      -7.20380467E-06
  -12.8000002      -1.84608211E-06
  -12.7900000       4.35821494E-06
  -12.7799997       1.08305130E-05
  -12.7700005       1.68604711E-05
  -12.7600002       2.16896224E-05
  -12.7500000       2.46171749E-05
  -12.7399998       2.51108868E-05
  -12.7299995       2.29031448E-05
  -12.7200003       1.80534589E-05
  -12.7100000       1.09638204E-05
  -12.6999998       2.34139293E-06
  -12.6899996      -6.88729097E-06
  -12.6800003      -1.56975693E-05
  -12.6700001      -2.31035738E-05
  -12.6599998      -2.82883811E-05
  -12.6499996      -3.07063710E-05
  -12.6400003      -3.01424188E-05
  -12.6300001      -2.67206851E-05
  -12.6199999      -2.08652582E-05
  -12.6099997      -1.32231826E-05
  -12.6000004      -4.56627367E-06
  -12.5900002       4.30968521E-06
  -12.5799999       1.26715286E-05
  -12.5699997       1.99092628E-05
  -12.5600004       2.55657433E-05
  -12.5500002       2.93379580E-05
  -12.5400000       3.10583418E-05
  -12.5299997       3.06678012E-05
  -12.5200005       2.81921184E-05
  -12.5100002       2.37302156E-05
  -12.5000000       1.74574961E-05
  -12.4899998       9.64127048E-06
  -12.4799995       6.60130127E-07
  -12.4700003      -8.98386133E-06
  -12.4600000      -1.86710131E-05
  -12.4499998      -2.76952487E-05
  -12.4399996      -3.53220676E-05
  -12.4300003      -4.08673077E-05
  -12.4200001      -4.37843628E-05
  -12.4099998      -4.37433555E-05
  -12.3999996      -4.06853869E-05
  -12.3900003      -3.48387039E-05
  -12.3800001      -2.66909865E-05
  -12.3699999      -1.69211944E-05
  -12.3599997      -6.30379827E-06
  -12.3500004       4.39503174E-06
  -12.3400002       1.45072554E-05
  -12.3299999       2.35196858E-05
  -12.3199997       3.10863652E-05
  -12.3100004       3.69967929E-05
  -12.3000002       4.11122637E-05
  -12.2900000       4.32922498E-05
  -12.2799997       4.33373571E-05
  -12.2700005       4.09728236E-05
  -12.2600002       3.58871766E-05
  -12.2500000       2.78259176E-05
  -12.2399998       1.67234994E-05
  -12.2299995       2.84262251E-06
  -12.2200003      -1.31180550E-05
  -12.2100000      -2.99853782E-05
  -12.1999998      -4.61687741E-05
  -12.1899996      -5.98199767E-05
  -12.1800003      -6.90789821E-05
  -12.1700001      -7.23674384E-05
  -12.1599998      -6.86754429E-05
  -12.1499996      -5.77832325E-05
  -12.1400003      -4.03681152E-05
  -12.1300001      -1.79675844E-05
  -12.1199999       7.20240496E-06
  -12.1099997       3.25450237E-05
  -12.1000004       5.54429571E-05
  -12.0900002       7.36152579E-05
  -12.0799999       8.54056416E-05
  -12.0699997       8.99526640E-05
  -12.0600004       8.72185556E-05
  -12.0500002       7.78841131E-05
  -12.0400000       6.31451403E-05
  -12.0299997       4.44642392E-05
  -12.0200005       2.33370483E-05
  -12.0100002       1.12226940E-06
  -12.0000000      -2.10361941E-05
  -11.9899998      -4.21936493E-05
  -11.9799995      -6.15204481E-05
  -11.9700003      -7.81921772E-05
  -11.9600000      -9.13033728E-05
  -11.9499998      -9.98459145E-05
  -11.9399996      -1.02774437E-04
  -11.9300003      -9.91552806E-05
  -11.9200001      -8.83705143E-05
  -11.9099998      -7.03299811E-05
  -11.8999996      -4.56375419E-05
  -11.8900003      -1.56642564E-05
  -11.8800001       1.75008099E-05
  -11.8699999       5.12256338E-05
  -11.8599997       8.26131654E-05
  -11.8500004       1.08837390E-04
  -11.8400002       1.27480947E-04
  -11.8299999       1.36818402E-04
  -11.8199997       1.36001268E-04
  -11.8100004       1.25120947E-04
  -11.8000002       1.05149709E-04
  -11.7900000       7.77809037E-05
  -11.7799997       4.52046261E-05
  -11.7700005       9.86063333E-06
  -11.7600002      -2.57929623E-05
  -11.7500000      -5.94674530E-05
  -11.7399998      -8.91741656E-05
  -11.7299995      -1.13298454E-04
  -11.7200003      -1.30628046E-04
  -11.7100000      -1.40352160E-04
  -11.6999998      -1.42047444E-04
  -11.6899996      -1.35662194E-04
  -11.6800003      -1.21504396E-04
  -11.6700001      -1.00232093E-04
  -11.6599998      -7.28411251E-05
  -11.6499996      -4.06436484E-05
  -11.6400003      -5.23200242E-06
  -11.6300001       3.15747311E-05
  -11.6199999       6.78011347E-05
  -11.6099997       1.01400430E-04
  -11.6000004       1.30350614E-04
  -11.5900002       1.52758497E-04
  -11.5799999       1.66968632E-04
  -11.5699997       1.71674255E-04
  -11.5600004       1.66025857E-04
  -11.5500002       1.49731117E-04
  -11.5400000       1.23136953E-04
  -11.5299997       8.72825985E-05
  -11.5200005       4.39116557E-05
  -11.5100002      -4.56729003E-06
  -11.5000000      -5.51785961E-05
  -11.4899998      -1.04537721E-04
  -11.4799995      -1.49065236E-04
  -11.4700003      -1.85246157E-04
  -11.4600000      -2.09918435E-04
  -11.4499998      -2.20569433E-04
  -11.4399996      -2.15614855E-04
  -11.4300003      -1.94631488E-04
  -11.4200001      -1.58512557E-04
  -11.4099998      -1.09515313E-04
  -11.3999996      -5.11751932E-05
  -11.3900003       1.19287452E-05
  -11.3800001       7.45552315E-05
  -11.3699999       1.31304434E-04
  -11.3599997       1.77194685E-04
  -11.3500004       2.08240337E-04
  -11.3400002       2.21945418E-04
  -11.3299999       2.17628418E-04
  -11.3199997       1.96511275E-04
  -11.3100004       1.61540433E-04
  -11.3000002       1.16954252E-04
  -11.2900000       6.76601267E-05
  -11.2799997       1.85254903E-05
  -11.2700005      -2.62905996E-05
  -11.2600002      -6.38425481E-05
  -11.2500000      -9.26475332E-05
  -11.2399998      -1.12639180E-04
  -11.2299995      -1.24849277E-04
  -11.2200003      -1.30900793E-04
  -11.2100000      -1.32437199E-04
  -11.1999998      -1.30626257E-04
  -11.1899996      -1.25856895E-04
  -11.1800003      -1.17699543E-04
  -11.1700001      -1.05135281E-04
  -11.1599998      -8.69917494E-05
  -11.1499996      -6.24719905E-05
  -11.1400003      -3.16376936E-05
  -11.1300001       4.28222575E-06
  -11.1199999       4.28461244E-05
  -11.1099997       8.06432727E-05
  -11.1000004       1.13784197E-04
  -11.0900002       1.38537100E-04
  -11.0799999       1.51975444E-04
  -11.0699997       1.52499255E-04
  -11.0600004       1.40121701E-04
  -11.0500002       1.16465344E-04
  -11.0400000       8.44758251E-05
  -11.0299997       4.79198679E-05
  -11.0200005       1.07761543E-05
  -11.0100002      -2.33574319E-05
  -11.0000000      -5.17291010E-05
  -10.9899998      -7.26960716E-05
  -10.9799995      -8.57591440E-05
  -10.9700003      -9.13934709E-05
  -10.9600000      -9.07396388E-05
  -10.9499998      -8.52407757E-05
  -10.9399996      -7.63108765E-05
  -10.9300003      -6.51004448E-05
  -10.9200001      -5.23934614E-05
  -10.9099998      -3.86341962E-05
  -10.8999996      -2.40519093E-05
  -10.8900003      -8.83243410E-06
  -10.8800001       6.71854195E-06
  -10.8699999       2.20666352E-05
  -10.8599997       3.64216939E-05
  -10.8500004       4.87971411E-05
  -10.8400002       5.81396926E-05
  -10.8299999       6.34989046E-05
  -10.8199997       6.41996448E-05
  -10.8100004       5.99825908E-05
  -10.8000002       5.10857717E-05
  -10.7900000       3.82519975E-05
  -10.7799997       2.26593475E-05
  -10.7700005       5.78396930E-06
  -10.7600002      -1.07857823E-05
  -10.7500000      -2.55569157E-05
  -10.7399998      -3.73294824E-05
  -10.7299995      -4.53513749E-05
  -10.7200003      -4.94009510E-05
  -10.7100000      -4.97777000E-05
  -10.6999998      -4.71964995E-05
  -10.6899996      -4.26008519E-05
  -10.6800003      -3.69306763E-05
  -10.6700001      -3.08960007E-05
  -10.6599998      -2.48136785E-05
  -10.6499996      -1.85557892E-05
  -10.6400003      -1.16355441E-05
  -10.6300001      -3.42221847E-06
  -10.6199999       6.56073098E-06
  -10.6099997       1.83307839E-05
  -10.6000004       3.12244883E-05
  -10.5900002       4.38384159E-05
  -10.5799999       5.41782683E-05
  -10.5699997       6.00094972E-05
  -10.5600004       5.93458353E-05
  -10.5500002       5.09659003E-05
  -10.5400000       3.48269641E-05
  -10.5299997       1.22576284E-05
  -10.5200005      -1.41426717E-05
  -10.5100002      -4.09000349E-05
  -10.5000000      -6.42856030E-05
  -10.4899998      -8.10246565E-05
  -10.4799995      -8.89329385E-05
  -10.4700003      -8.73304380E-05
  -10.4600000      -7.71350024E-05
  -10.4499998      -6.06163012E-05
  -10.4399996      -4.08743872E-05
  -10.4300003      -2.11734332E-05
  -10.4200001      -4.29186730E-06
  -10.4099998       7.96226504E-06
  -10.3999996       1.49731832E-05
  -10.3900003       1.72533782E-05
  -10.3800001       1.61459739E-05
  -10.3699999       1.34004658E-05
  -10.3599997       1.07482929E-05
  -10.3500004       9.58514829E-06
  -10.3400002       1.08173545E-05
  -10.3299999       1.48678337E-05
  -10.3199997       2.17843590E-05
  -10.3100004       3.13661294E-05
  -10.3000002       4.32325905E-05
  -10.2900000       5.67966999E-05
  -10.2799997       7.11587054E-05
  -10.2700005       8.49860007E-05
  -10.2600002       9.64698338E-05
  -10.2500000       1.03439437E-04
  -10.2399998       1.03669074E-04
  -10.2299995       9.53461567E-05
  -10.2200003       7.76006200E-05
  -10.2100000       5.09508827E-05
  -10.1999998       1.75172372E-05
  -10.1899996      -1.91042818E-05
  -10.1800003      -5.43340648E-05
  -10.1700001      -8.33959857E-05
  -10.1599998      -1.02240789E-04
  -10.1499996      -1.08396343E-04
  -10.1400003      -1.01537349E-04
  -10.1300001      -8.36248219E-05
  -10.1199999      -5.85651251E-05
  -10.1099997      -3.14534409E-05
  -10.1000004      -7.56783766E-06
  -10.0900002       8.66085793E-06
  -10.0799999       1.44756150E-05
  -10.0699997       9.24296728E-06
  -10.0600004      -5.55132601E-06
  -10.0500002      -2.67275173E-05
  -10.0400000      -5.01289142E-05
  -10.0299997      -7.14451380E-05
  -10.0200005      -8.69511787E-05
  -10.0100002      -9.40164609E-05
  -10.0000000      -9.13160984E-05
  -9.98999977      -7.87631798E-05
  -9.97999954      -5.72513673E-05
  -9.97000027      -2.83314985E-05
  -9.96000004       6.06244748E-06
  -9.94999981       4.37671479E-05
  -9.93999958       8.24173258E-05
  -9.93000031       1.19401520E-04
  -9.92000008       1.51838525E-04
  -9.90999985       1.76667469E-04
  -9.89999962       1.90908017E-04
  -9.89000034       1.92084175E-04
  -9.88000011       1.78737013E-04
  -9.86999989       1.50899519E-04
  -9.85999966       1.10389374E-04
  -9.85000038       6.08016890E-05
  -9.84000015       7.14796215E-06
  -9.82999992      -4.48259780E-05
  -9.81999969      -8.95248377E-05
  -9.81000042      -1.22413854E-04
  -9.80000019      -1.40759657E-04
  -9.78999996      -1.44040372E-04
  -9.77999973      -1.33938011E-04
  -9.77000046      -1.13922652E-04
  -9.76000023      -8.85316767E-05
  -9.75000000      -6.25125322E-05
  -9.73999977      -4.00180434E-05
  -9.72999954      -2.40152203E-05
  -9.72000027      -1.60013133E-05
  -9.71000004      -1.60356703E-05
  -9.69999981      -2.30178121E-05
  -9.68999958      -3.50933624E-05
  -9.68000031      -5.00618335E-05
  -9.67000008      -6.56928314E-05
  -9.65999985      -7.99150293E-05
  -9.64999962      -9.09034643E-05
  -9.64000034      -9.71317277E-05
  -9.63000011      -9.74614159E-05
  -9.61999989      -9.13092081E-05
  -9.60999966      -7.88742909E-05
  -9.60000038      -6.13486918E-05
  -9.59000015      -4.09959430E-05
  -9.57999992      -2.09896916E-05
  -9.56999969      -4.95801351E-06
  -9.56000042       3.72959994E-06
  -9.55000019       2.79568212E-06
  -9.53999996      -8.20289370E-06
  -9.52999973      -2.74539434E-05
  -9.52000046      -5.09679448E-05
  -9.51000023      -7.32156332E-05
  -9.50000000      -8.82331151E-05
  -9.48999977      -9.09576847E-05
  -9.47999954      -7.84668009E-05
  -9.47000027      -5.07893747E-05
  -9.46000004      -1.10503961E-05
  -9.44999981       3.51224771E-05
  -9.43999958       8.08043696E-05
  -9.43000031       1.19293545E-04
  -9.42000008       1.45557162E-04
  -9.40999985       1.57229762E-04
  -9.39999962       1.54914887E-04
  -9.39000034       1.41735523E-04
  -9.38000011       1.22289479E-04
  -9.36999989       1.01328027E-04
  -9.35999966       8.25417228E-05
  -9.35000038       6.77882272E-05
  -9.34000015       5.69480253E-05
  -9.32999992       4.83952463E-05
  -9.31999969       3.98836528E-05
  -9.31000042       2.95311547E-05
  -9.30000019       1.65747133E-05
  -9.28999996       1.66141001E-06
  -9.27999973      -1.33929616E-05
  -9.27000046      -2.62658596E-05
  -9.26000023      -3.49627517E-05
  -9.25000000      -3.85293606E-05
  -9.23999977      -3.73997500E-05
  -9.22999954      -3.32715790E-05
  -9.22000027      -2.85646511E-05
  -9.21000004      -2.56582698E-05
  -9.19999981      -2.61698788E-05
  -9.18999958      -3.05118592E-05
  -9.18000031      -3.78572149E-05
  -9.17000008      -4.64984041E-05
  -9.15999985      -5.44495961E-05
  -9.14999962      -6.00677522E-05
  -9.14000034      -6.24769018E-05
  -9.13000011      -6.16655088E-05
  -9.11999989      -5.82559805E-05
  -9.10999966      -5.30681173E-05
  -9.10000038      -4.66705096E-05
  -9.09000015      -3.91089707E-05
  -9.07999992      -2.99237818E-05
  -9.06999969      -1.84480523E-05
  -9.06000042      -4.26432416E-06
  -9.05000019       1.23702157E-05
  -9.03999996       3.03124252E-05
  -9.02999973       4.76398745E-05
  -9.02000046       6.20595383E-05
  -9.01000023       7.14869893E-05
  -9.00000000       7.45971192E-05
  -8.98999977       7.11543544E-05
  -8.97999954       6.20092687E-05
  -8.97000027       4.87701982E-05
  -8.96000004       3.32767559E-05
  -8.94999981       1.70720577E-05
  -8.93999958       1.06542575E-06
  -8.93000031      -1.45012073E-05
  -8.92000008      -2.97912793E-05
  -8.90999985      -4.49418840E-05
  -8.89999962      -5.96564205E-05
  -8.89000034      -7.30067404E-05
  -8.88000011      -8.35456958E-05
  -8.86999989      -8.97041027E-05
  -8.85999966      -9.03246982E-05
  -8.85000038      -8.51195946E-05
  -8.84000015      -7.48542734E-05
  -8.82999992      -6.11581054E-05
  -8.81999969      -4.60044321E-05
  -8.81000042      -3.10381511E-05
  -8.80000019      -1.70026997E-05
  -8.78999996      -3.49870493E-06
  -8.77999973       1.08042959E-05
  -8.77000046       2.75463335E-05
  -8.76000023       4.78487382E-05
  -8.75000000       7.15763017E-05
  -8.73999977       9.69768516E-05
  -8.72999954       1.20868754E-04
  -8.72000027       1.39361626E-04
  -8.71000004       1.48905208E-04
  -8.69999981       1.47334489E-04
  -8.68999958       1.34563772E-04
  -8.68000031       1.12686663E-04
  -8.67000008       8.54309692E-05
  -8.65999985       5.71312994E-05
  -8.64999962       3.15431935E-05
  -8.64000034       1.08755885E-05
  -8.63000011      -4.65730818E-06
  -8.61999989      -1.66400405E-05
  -8.60999966      -2.77072577E-05
  -8.60000038      -4.05139326E-05
  -8.59000015      -5.67781608E-05
  -8.57999992      -7.67073216E-05
  -8.56999969      -9.89693071E-05
  -8.56000042      -1.21171877E-04
  -8.55000019      -1.40637567E-04
  -8.53999996      -1.55173009E-04
  -8.52999973      -1.63558783E-04
  -8.52000046      -1.65615740E-04
  -8.51000023      -1.61882621E-04
  -8.50000000      -1.53097993E-04
  -8.48999977      -1.39753422E-04
  -8.47999954      -1.21945901E-04
  -8.47000027      -9.96199378E-05
  -8.46000004      -7.31072723E-05
  -8.44999981      -4.37189374E-05
  -8.43999958      -1.40834081E-05
  -8.43000031       1.20119812E-05
  -8.42000008       3.03474699E-05
  -8.40999985       3.74151568E-05
  -8.39999962       3.16421829E-05
  -8.39000034       1.42704930E-05
  -8.38000011      -1.04668725E-05
  -8.36999989      -3.60367048E-05
  -8.35999966      -5.50569457E-05
  -8.35000038      -6.11455325E-05
  -8.34000015      -5.06509969E-05
  -8.32999992      -2.37549084E-05
  -8.31999969       1.53957044E-05
  -8.31000042       5.95883648E-05
  -8.30000019       1.00237812E-04
  -8.28999996       1.29402630E-04
  -8.27999973       1.41574230E-04
  -8.27000046       1.34772563E-04
  -8.26000023       1.10706314E-04
  -8.25000000       7.40393589E-05
  -8.23999977       3.10569885E-05
  -8.22999954      -1.18339185E-05
  -8.22000027      -4.93430343E-05
  -8.21000004      -7.79872280E-05
  -8.19999981      -9.61650876E-05
  -8.18999958      -1.03759383E-04
  -8.18000031      -1.01544792E-04
  -8.17000008      -9.06929199E-05
  -8.15999985      -7.25666468E-05
  -8.14999962      -4.88286896E-05
  -8.14000034      -2.17247689E-05
  -8.13000011       5.69507893E-06
  -8.11999989       2.96432445E-05
  -8.10999966       4.60632364E-05
  -8.10000038       5.14431194E-05
  -8.09000015       4.37537237E-05
  -8.07999992       2.32015136E-05
  -8.06999969      -7.49334140E-06
  -8.06000042      -4.34534231E-05
  -8.05000019      -7.85987577E-05
  -8.03999996      -1.06967207E-04
  -8.02999973      -1.24041369E-04
  -8.02000046      -1.27711173E-04
  -8.01000023      -1.18609292E-04
  -8.00000000      -9.97477764E-05
  -7.98999977      -7.55970032E-05
  -7.98000002      -5.09081947E-05
  -7.96999979      -2.96386133E-05
  -7.96000004      -1.42758645E-05
  -7.94999981      -5.70114571E-06
  -7.94000006      -3.53730638E-06
  -7.92999983      -6.76662194E-06
  -7.92000008      -1.43291609E-05
  -7.90999985      -2.54498700E-05
  -7.90000010      -3.95748939E-05
  -7.88999987      -5.59743094E-05
  -7.88000011      -7.32219778E-05
  -7.86999989      -8.88357245E-05
  -7.86000013      -9.93226349E-05
  -7.84999990      -1.00734404E-04
  -7.84000015      -8.96446581E-05
  -7.82999992      -6.42811210E-05
  -7.82000017      -2.54456318E-05
  -7.80999994       2.31231497E-05
  -7.80000019       7.51464613E-05
  -7.78999996       1.22940502E-04
  -7.78000021       1.59035044E-04
  -7.76999998       1.77852853E-04
  -7.76000023       1.76982066E-04
  -7.75000000       1.57672432E-04
  -7.73999977       1.24401078E-04
  -7.73000002       8.36229956E-05
  -7.71999979       4.20612814E-05
  -7.71000004       5.02716557E-06
  -7.69999981      -2.47505468E-05
  -7.69000006      -4.74629705E-05
  -7.67999983      -6.56554330E-05
  -7.67000008      -8.29617638E-05
  -7.65999985      -1.02551043E-04
  -7.65000010      -1.25779799E-04
  -7.63999987      -1.51471235E-04
  -7.63000011      -1.76043730E-04
  -7.61999989      -1.94446679E-04
  -7.61000013      -2.01613657E-04
  -7.59999990      -1.93989166E-04
  -7.59000015      -1.70670377E-04
  -7.57999992      -1.33830690E-04
  -7.57000017      -8.83147222E-05
  -7.55999994      -4.05426690E-05
  -7.55000019       2.94160282E-06
  -7.53999996       3.68584442E-05
  -7.53000021       5.81432978E-05
  -7.51999998       6.62453531E-05
  -7.51000023       6.27714617E-05
  -7.50000000       5.06689648E-05
  -7.48999977       3.32592535E-05
  -7.48000002       1.34389647E-05
  -7.46999979      -6.73443219E-06
  -7.46000004      -2.60210309E-05
  -7.44999981      -4.36570554E-05
  -7.44000006      -5.89203592E-05