  -16.0000000       0.00000000    
  -15.9899998       0.00000000    
  -15.9799995       0.00000000    
  -15.9700003       0.00000000    
  -15.9600000       0.00000000    
  -15.9499998       0.00000000    
  -15.9399996       0.00000000    
  -15.9300003       0.00000000    
  -15.9200001       0.00000000    
  -15.9099998       0.00000000    
  -15.8999996       1.11938524E-40
  -15.8900003       1.70085684E-38
  -15.8800001       4.49181133E-37
  -15.8699999       6.54996444E-36
  -15.8599997       6.62742739E-35
  -15.8500004       5.12833334E-34
  -15.8400002       3.20252856E-33
  -15.8299999       1.67059714E-32
  -15.8199997       7.45765061E-32
  -15.8100004       2.90009879E-31
  -15.8000002       9.95716784E-31
  -15.7900000       3.04909655E-30
  -15.7799997       8.38939372E-30
  -15.7700005       2.08413681E-29
  -15.7600002       4.68495158E-29
  -15.7500000       9.51845074E-29
  -15.7399998       1.73725598E-28
  -15.7299995       2.80615865E-28
  -15.7200003       3.87484634E-28
  -15.7100000       4.15775438E-28
  -15.6999998       2.15336181E-28
  -15.6899996      -4.32484325E-28
  -15.6800003      -1.75128411E-27
  -15.6700001      -3.80745873E-27
  -15.6599998      -6.24085773E-27
  -15.6499996      -7.96111723E-27
  -15.6400003      -7.01411976E-27
  -15.6300001      -9.47459792E-28
  -15.6199999       1.20157175E-26
  -15.6099997       3.10336185E-26
  -15.6000004       5.07447843E-26
  -15.5900002       6.11712575E-26
  -15.5799999       5.15034127E-26
  -15.5699997       1.82445778E-26
  -15.5600004      -2.62339731E-26
  -15.5500002      -5.48202862E-26
  -15.5400000      -4.95305794E-26
  -15.5299997      -5.24031240E-26
  -15.5200005      -2.19534394E-25
  -15.5100002      -8.10413374E-25
  -15.5000000      -2.01235183E-24
  -15.4899998      -3.53418245E-24
  -15.4799995      -4.06639180E-24
  -15.4700003      -1.00764241E-24
  -15.4600000       8.82142524E-24
  -15.4499998       2.67265317E-23
  -15.4399996       4.78945634E-23
  -15.4300003       5.70076707E-23
  -15.4200001       2.77695384E-23
  -15.4099998      -6.79030200E-23
  -15.3999996      -2.36743241E-22
  -15.3900003      -4.30002501E-22
  -15.3800001      -5.14750244E-22
  -15.3699999      -2.82285280E-22
  -15.3599997       4.68809661E-22
  -15.3500004       1.75675431E-21
  -15.3400002       3.18612261E-21
  -15.3299999       3.78920130E-21
  -15.3199997       2.14723506E-21
  -15.3100004      -2.99750079E-21
  -15.3000002      -1.15891082E-20
  -15.2900000      -2.08838806E-20
  -15.2799997      -2.46750836E-20
  -15.2700005      -1.43213350E-20
  -15.2600002       1.73572575E-20
  -15.2500000       6.93231766E-20
  -15.2399998       1.24821955E-19
  -15.2299995       1.47842896E-19
  -15.2200003       8.98898335E-20
  -15.2100000      -8.79321555E-20
  -15.1999998      -3.78623004E-19
  -15.1899996      -6.90807481E-19
  -15.1800003      -8.32513963E-19
  -15.1700001      -5.48415421E-19
  -15.1599998       3.66690122E-19
  -15.1499996       1.88638270E-18
  -15.1400003       3.56347629E-18
  -15.1300001       4.45032227E-18
  -15.1199999       3.27380364E-18
  -15.1099997      -1.03176905E-18
  -15.1000004      -8.47294584E-18
  -15.0900002      -1.70986025E-17
  -15.0799999      -2.25760502E-17
  -15.0699997      -1.88874500E-17
  -15.0600004      -6.17601066E-19
  -15.0500002       3.32917730E-17
  -15.0400000       7.54236650E-17
  -15.0299997       1.07566752E-16
  -15.0200005       1.02937591E-16
  -15.0100002       3.50888328E-17
  -15.0000000      -1.06629001E-16
  -14.9899998      -2.99036723E-16
  -14.9799995      -4.72856090E-16
  -14.9700003      -5.17256975E-16
  -14.9600000      -3.10742110E-16
  -14.9499998       2.19984502E-16
  -14.9399996       1.02568871E-15
  -14.9300003       1.87430392E-15
  -14.9200001       2.34657074E-15
  -14.9099998       1.92781353E-15
  -14.8999996       2.11907910E-16
  -14.8900003      -2.81470340E-15
  -14.8800001      -6.50341309E-15
  -14.8699999      -9.43577000E-15
  -14.8599997      -9.63597556E-15
  -14.8500004      -5.19895948E-15
  -14.8400002       4.71989798E-15
  -14.8299999       1.88200031E-14
  -14.8199997       3.29503033E-14
  -14.8100004       4.03560886E-14
  -14.8000002       3.33268501E-14
  -14.7900000       6.28246285E-15
  -14.7799997      -4.03293257E-14
  -14.7700005      -9.66929038E-14
  -14.7600002      -1.42720850E-13
  -14.7500000      -1.51376619E-13
  -14.7399998      -9.70479122E-14
  -14.7299995       3.20726417E-14
  -14.7200003       2.21027095E-13
  -14.7100000       4.20063235E-13
  -14.6999998       5.47735143E-13
  -14.6899996       5.09600771E-13
  -14.6800003       2.32393803E-13
  -14.6700001      -2.93292598E-13
  -14.6599998      -9.75961608E-13
  -14.6499996      -1.61053094E-12
  -14.6400003      -1.90746030E-12
  -14.6300001      -1.57178329E-12
  -14.6199999      -4.22942416E-13
  -14.6099997       1.47507527E-12
  -14.6000004       3.72229894E-12
  -14.5900002       5.58559449E-12
  -14.5799999       6.13790485E-12
  -14.5699997       4.53943090E-12
  -14.5600004       4.11323726E-13
  -14.5500002      -5.80634932E-12
  -14.5400000      -1.26611334E-11
  -14.5299997      -1.78063640E-11
  -14.5200005      -1.85176249E-11
  -14.5100002      -1.25746236E-11
  -14.5000000       6.79610719E-13
  -14.4899998       1.94348808E-11
  -14.4799995       3.90717424E-11
  -14.4700003       5.27346847E-11
  -14.4600000       5.29665374E-11
  -14.4499998       3.42083965E-11
  -14.4399996      -4.42691283E-12
  -14.4300003      -5.70225984E-11
  -14.4200001      -1.10383890E-10
  -14.4099998      -1.46004611E-10
  -14.3999996      -1.44653567E-10
  -14.3900003      -9.28810362E-11
  -14.3800001       1.01850212E-11
  -14.3699999       1.48046325E-10
  -14.3599997       2.86409729E-10
  -14.3500004       3.78755305E-10
  -14.3400002       3.77971932E-10
  -14.3299999       2.52063703E-10
  -14.3199997      -1.03694973E-13
  -14.3100004      -3.38327033E-10
  -14.3000002      -6.81030177E-10
  -14.2900000      -9.18904675E-10
  -14.2799997      -9.41865141E-10
  -14.2700005      -6.74434675E-10
  -14.2600002      -1.10487348E-10
  -14.2500000       6.64111710E-10
  -14.2399998       1.47170465E-09
  -14.2299995       2.07221218E-09
  -14.2200003       2.22038143E-09
  -14.2100000       1.74039405E-09
  -14.1999998       5.99083672E-10
  -14.1899996      -1.04538123E-09
  -14.1800003      -2.84069124E-09
  -14.1700001      -4.29589786E-09
  -14.1599998      -4.89276708E-09
  -14.1499996      -4.23287272E-09
  -14.1400003      -2.18477902E-09
  -14.1300001       1.01258502E-09
  -14.1199999       4.73105333E-09
  -14.1099997       8.04347700E-09
  -14.1000004       9.92087212E-09
  -14.0900002       9.50243173E-09
  -14.0799999       6.37608633E-09
  -14.0699997       7.91496424E-10
  -14.0600004      -6.26892094E-09
  -14.0500002      -1.32094051E-08
  -14.0400000      -1.81345836E-08
  -14.0299997      -1.93073948E-08
  -14.0200005      -1.56514997E-08
  -14.0100002      -7.16806259E-09
  -14.0000000       4.86257612E-09
  -13.9899998       1.79872117E-08
  -13.9799995       2.90185760E-08
  -13.9700003       3.47449003E-08
  -13.9600000       3.27653140E-08
  -13.9499998       2.22491714E-08
  -13.9399996       4.40626824E-09
  -13.9300003      -1.75007067E-08
  -13.9200001      -3.86739103E-08
  -13.9099998      -5.37712204E-08
  -13.8999996      -5.81804613E-08
  -13.8900003      -4.92861147E-08
  -13.8800001      -2.73997980E-08
  -13.8699999       3.93043242E-09
  -13.8599997       3.83922298E-08
  -13.8500004       6.81396060E-08
  -13.8400002       8.55587956E-08
  -13.8299999       8.51795861E-08
  -13.8199997       6.52578507E-08
  -13.8100004       2.85863369E-08
  -13.8000002      -1.77578077E-08
  -13.7900000      -6.37733564E-08
  -13.7799997      -9.87615749E-08
  -13.7700005      -1.13923647E-07
  -13.7600002      -1.04685313E-07
  -13.7500000      -7.21148723E-08
  -13.7399998      -2.29833148E-08
  -13.7299995       3.16593933E-08
  -13.7200003       7.91249448E-08
  -13.7100000       1.08318730E-07
  -13.6999998       1.12718048E-07
  -13.6899996       9.22484844E-08
  -13.6800003       5.34485167E-08
  -13.6700001       7.75045894E-09
  -13.6599998      -3.17620277E-08
  -13.6499996      -5.42768959E-08
  -13.6400003      -5.47298207E-08
  -13.6300001      -3.57261207E-08
  -13.6199999      -7.15597670E-09
  -13.6099997       1.66257106E-08
  -13.6000004       2.14454854E-08
  -13.5900002      -1.47068990E-09
  -13.5799999      -5.13067491E-08
  -13.5699997      -1.15994403E-07
  -13.5600004      -1.74011433E-07
  -13.5500002      -1.99639715E-07
  -13.5400000      -1.70618208E-07
  -13.5299997      -7.62289716E-08
  -13.5200005       7.65833406E-08
  -13.5100002       2.61248033E-07
  -13.5000000       4.35063697E-07
  -13.4899998       5.48061394E-07
  -13.4799995       5.55580641E-07
  -13.4700003       4.31593833E-07
  -13.4600000       1.79171593E-07
  -13.4499998      -1.65235704E-07
  -13.4399996      -5.35774745E-07
  -13.4300003      -8.49516198E-07
  -13.4200001      -1.02497029E-06
  -13.4099998      -1.00269381E-06
  -13.3999996      -7.62838624E-07
  -13.3900003      -3.34707124E-07
  -13.3800001       2.05064694E-07
  -13.3699999       7.46446858E-07
  -13.3599997       1.16973263E-06
  -13.3500004       1.37389281E-06
  -13.3400002       1.30271212E-06
  -13.3299999       9.61778028E-07
  -13.3199997       4.21126316E-07
  -13.3100004      -1.98371723E-07
  -13.3000002      -7.52718563E-07
  -13.2900000      -1.11052486E-06
  -13.2799997      -1.18803018E-06
  -13.2700005      -9.74048135E-07
  -13.2600002      -5.37273138E-07
  -13.2500000      -1.23621060E-08
  -13.2399998       4.33464550E-07
  -13.2299995       6.46148408E-07
  -13.2200003       5.31611192E-07
  -13.2100000       9.09060702E-08
  -13.1999998      -5.67354789E-07
  -13.1899996      -1.24352312E-06
  -13.1800003      -1.69157568E-06
  -13.1700001      -1.68346151E-06
  -13.1599998      -1.07837297E-06
  -13.1499996       1.21003325E-07
  -13.1400003       1.74206775E-06
  -13.1300001       3.45689500E-06
  -13.1199999       4.83980693E-06
  -13.1099997       5.45914008E-06
  -13.1000004       4.98462214E-06
  -13.0900002       3.28560441E-06
  -13.0799999       4.94727601E-07
  -13.0699997      -2.98277132E-06
  -13.0600004      -6.52283143E-06
  -13.0500002      -9.39381425E-06
  -13.0400000      -1.09053080E-05
  -13.0299997      -1.05638037E-05
  -13.0200005      -8.20021705E-06
  -13.0100002      -4.03789727E-06
  -13.0000000       1.31887180E-06
  -12.9899998       6.97905671E-06
  -12.9799995       1.19262941E-05
  -12.9700003       1.52160201E-05
  -12.9600000       1.61671724E-05
  -12.9499998       1.45067697E-05
  -12.9399996       1.04346882E-05
  -12.9300003       4.59275179E-06
  -12.9200001      -2.05683295E-06
  -12.9099998      -8.41839119E-06
  -12.8999996      -1.34748980E-05
  -12.8900003      -1.64793219E-05
  -12.8800001      -1.70839394E-05
  -12.8699999      -1.53806523E-05
  -12.8599997      -1.18460603E-05
  -12.8500004      -7.20724574E-06
  -12.8400002      -2.26274415E-06
  -12.8299999       2.29657371E-06
  -12.8199997       6.02259661E-06
  -12.8100004       8.76843296E-06
  -12.8000002       1.06575089E-05
  -12.7900000       1.19740998E-05
  -12.7799997       1.30074977E-05
  -12.7700005       1.38958403E-05
  -12.7600002       1.45179256E-05
  -12.7500000       1.44709975E-05
  -12.7399998       1.31512070E-05
  -12.7299995       9.92603145E-06
  -12.7200003       4.36087430E-06
  -12.7100000      -3.55759039E-06
  -12.6999998      -1.32654295E-05
  -12.6899996      -2.35875577E-05
  -12.6800003      -3.28562164E-05
  -12.6700001      -3.91772010E-05
  -12.6599998      -4.08015185E-05
  -12.6499996      -3.65288033E-05
  -12.6400003      -2.60522775E-05
  -12.6300001      -1.01584719E-05
  -12.6199999       9.28043755E-06
  -12.6099997       2.95420286E-05
  -12.6000004       4.74871558E-05
  -12.5900002       6.01146858E-05
  -12.5799999       6.51276860E-05
  -12.5699997       6.13916272E-05
  -12.5600004       4.91823994E-05
  -12.5500002       3.01634791E-05
  -12.5400000       7.08933658E-06
  -12.5299997      -1.67072503E-05
  -12.5200005      -3.79367702E-05
  -12.5100002      -5.39500215E-05
  -12.5000000      -6.31813600E-05
  -12.4899998      -6.53438910E-05
  -12.4799995      -6.13398151E-05
  -12.4700003      -5.29169447E-05
  -12.4600000      -4.21632612E-05
  -12.4499998      -3.09708230E-05
  -12.4399996      -2.06071090E-05
  -12.4300003      -1.15040157E-05
  -12.4200001      -3.31733327E-06
  -12.4099998       4.76333798E-06
  -12.3999996       1.35447772E-05
  -12.3900003       2.33403280E-05
  -12.3800001       3.36141529E-05
  -12.3699999       4.28865715E-05
  -12.3599997       4.89634549E-05
  -12.3500004       4.94659434E-05
  -12.3400002       4.25481558E-05
  -12.3299999       2.76239007E-05
  -12.3199997       5.89745241E-06
  -12.3100004      -1.94803160E-05
  -12.3000002      -4.37335548E-05
  -12.2900000      -6.12528893E-05
  -12.2799997      -6.67280765E-05
  -12.2700005      -5.63922076E-05
  -12.2600002      -2.90938733E-05
  -12.2500000       1.30753933E-05
  -12.2399998       6.47927955E-05
  -12.2299995       1.18217344E-04
  -12.2200003       1.64308934E-04
  -12.2100000       1.94511405E-04
  -12.1999998       2.02457843E-04
  -12.1899996       1.85330136E-04
  -12.1800003       1.44562917E-04
  -12.1700001       8.57133346E-05
  -12.1599998       1.74970319E-05
  -12.1499996      -4.98265981E-05
  -12.1400003      -1.06388936E-04
  -12.1300001      -1.44561112E-04
  -12.1199999      -1.60327676E-04
  -12.1099997      -1.53899207E-04
  -12.1000004      -1.29446169E-04
  -12.0900002      -9.40302998E-05
  -12.0799999      -5.59845212E-05
  -12.0699997      -2.31078993E-05
  -12.0600004      -1.07346091E-06
  -12.0500002       7.61254068E-06
  -12.0400000       3.89464640E-06
  -12.0299997      -8.33440299E-06
  -12.0200005      -2.33765622E-05
  -12.0100002      -3.52282586E-05
  -12.0000000      -3.90847345E-05
  -11.9899998      -3.25092187E-05
  -11.9799995      -1.60144918E-05
  -11.9700003       7.05595949E-06
  -11.9600000       3.13013152E-05
  -11.9499998       5.05032112E-05
  -11.9399996       5.90485397E-05
  -11.9300003       5.32216036E-05
  -11.9200001       3.20896143E-05
  -11.9099998      -2.19946014E-06
  -11.8999996      -4.47592793E-05
  -11.8900003      -8.88661161E-05
  -11.8800001      -1.27225605E-04
  -11.8699999      -1.53345041E-04
  -11.8599997      -1.62739336E-04
  -11.8500004      -1.53741363E-04
  -11.8400002      -1.27773354E-04
  -11.8299999      -8.90452502E-05
  -11.8199997      -4.37555027E-05
  -11.8100004       1.04032802E-06
  -11.8000002       3.86751854E-05
  -11.7900000       6.40025391E-05
  -11.7799997       7.42196789E-05
  -11.7700005       6.92524918E-05
  -11.7600002       5.16552500E-05
  -11.7500000       2.60646048E-05
  -11.7399998      -1.68051076E-06
  -11.7299995      -2.55922514E-05
  -11.7200003      -4.05797909E-05
  -11.7100000      -4.33166715E-05
  -11.6999998      -3.27931521E-05
  -11.6899996      -1.04701767E-05
  -11.6800003       1.99853803E-05
  -11.6700001       5.33403690E-05
  -11.6599998       8.37086045E-05
  -11.6499996       1.05592815E-04
  -11.6400003       1.14886730E-04
  -11.6300001       1.09668945E-04
  -11.6199999       9.06463465E-05
  -11.6099997       6.11545038E-05
  -11.6000004       2.66910520E-05
  -11.5900002      -5.96412929E-06
  -11.5799999      -2.99136482E-05
  -11.5699997      -3.94052076E-05
  -11.5600004      -3.09747593E-05
  -11.5500002      -4.25832695E-06
  -11.5400000       3.76958924E-05
  -11.5299997       8.87069036E-05
  -11.5200005       1.40325123E-04
  -11.5100002       1.83170545E-04
  -11.5000000       2.08541736E-04
  -11.4899998       2.10029873E-04
  -11.4799995       1.84851553E-04
  -11.4700003       1.34642367E-04
  -11.4600000       6.55300173E-05
  -11.4499998      -1.25797496E-05
  -11.4399996      -8.74349134E-05
  -11.4300003      -1.46381979E-04
  -11.4200001      -1.78510425E-04
  -11.4099998      -1.76623958E-04
  -11.3999996      -1.38670832E-04
  -11.3900003      -6.83435137E-05
  -11.3800001       2.53040034E-05
  -11.3699999       1.29192587E-04
  -11.3599997       2.28294623E-04
  -11.3500004       3.08084796E-04
  -11.3400002       3.56913341E-04
  -11.3299999       3.67856264E-04
  -11.3199997       3.39695747E-04
  -11.3100004       2.76860199E-04
  -11.3000002       1.88367063E-04
  -11.2900000       8.60166692E-05
  -11.2799997      -1.77654802E-05
  -11.2700005      -1.11983878E-04
  -11.2600002      -1.88616046E-04
  -11.2500000      -2.43372444E-04
  -11.2399998      -2.75594095E-04
  -11.2299995      -2.87410978E-04
  -11.2200003      -2.82444409E-04
  -11.2100000      -2.64421687E-04
  -11.1999998      -2.36062173E-04
  -11.1899996      -1.98501322E-04
  -11.1800003      -1.51368367E-04
  -11.1700001      -9.34652999E-05
  -11.1599998      -2.38477223E-05
  -11.1499996       5.69858094E-05
  -11.1400003       1.46115184E-04
  -11.1300001       2.37706205E-04
  -11.1199999       3.23180895E-04
  -11.1099997       3.92093847E-04
  -11.1000004       4.33614943E-04
  -11.0900002       4.38389688E-04
  -11.0799999       4.00452380E-04
  -11.0699997       3.18822713E-04
  -11.0600004       1.98433874E-04
  -11.0500002       5.01254835E-05
  -11.0400000      -1.10417575E-04
  -11.0299997      -2.64704460E-04
  -11.0200005      -3.94172210E-04
  -11.0100002      -4.83150448E-04
  -11.0000000      -5.21488662E-04
  -10.9899998      -5.06286218E-04
  -10.9799995      -4.42305813E-04
  -10.9700003      -3.40905652E-04
  -10.9600000      -2.17653025E-04
  -10.9499998      -8.91012896E-05
  -10.9399996       3.05535505E-05
  -10.9300003       1.32147892E-04
  -10.9200001       2.12889965E-04
  -10.9099998       2.75999832E-04
  -10.8999996       3.28707829E-04
  -10.8900003       3.79104778E-04
  -10.8800001       4.32670553E-04
  -10.8699999       4.89443890E-04
  -10.8599997       5.42681664E-04
  -10.8500004       5.79508604E-04
  -10.8400002       5.83556597E-04
  -10.8299999       5.39058121E-04
  -10.8199997       4.35439288E-04
  -10.8100004       2.71258526E-04
  -10.8000002       5.64315342E-05
  -10.7900000      -1.87950660E-04
  -10.7799997      -4.32347908E-04
  -10.7700005      -6.43567357E-04
  -10.7600002      -7.90647464E-04
  -10.7500000      -8.50566779E-04
  -10.7399998      -8.12536571E-04
  -10.7299995      -6.79958321E-04
  -10.7200003      -4.69662715E-04
  -10.7100000      -2.08668600E-04
  -10.6999998       7.07527943E-05
  -10.6899996       3.36582627E-04
  -10.6800003       5.61945606E-04
  -10.6700001       7.28436687E-04
  -10.6599998       8.27380863E-04
  -10.6499996       8.59062071E-04
  -10.6400003       8.30438861E-04
  -10.6300001       7.52167136E-04
  -10.6199999       6.35804434E-04
  -10.6099997       4.91876854E-04
  -10.6000004       3.29125673E-04
  -10.5900002       1.54837529E-04
  -10.5799999      -2.41742582E-05
  -10.5699997      -2.00524548E-04
  -10.5600004      -3.65674321E-04
  -10.5500002      -5.10095619E-04
  -10.5400000      -6.24140725E-04
  -10.5299997      -6.99281518E-04
  -10.5200005      -7.29241699E-04
  -10.5100002      -7.10604247E-04
  -10.5000000      -6.42715138E-04
  -10.4899998      -5.27035969E-04
  -10.4799995      -3.66380787E-04
  -10.4700003      -1.64590470E-04
  -10.4600000       7.29327512E-05
  -10.4499998       3.37761798E-04
  -10.4399996       6.16457604E-04
  -10.4300003       8.88885348E-04
  -10.4200001       1.12785248E-03
  -10.4099998       1.30092702E-03
  -10.3999996       1.37476937E-03
  -10.3900003       1.32153765E-03
  -10.3800001       1.12612487E-03
  -10.3699999       7.92417384E-04
  -10.3599997       3.46653687E-04
  -10.3500004      -1.63581470E-04
  -10.3400002      -6.75238553E-04
  -10.3299999      -1.11983367E-03
  -10.3199997      -1.43571931E-03
  -10.3100004      -1.57991063E-03
  -10.3000002      -1.53666048E-03
  -10.2900000      -1.32061017E-03
  -10.2799997      -9.73580230E-04
  -10.2700005      -5.55625127E-04
  -10.2600002      -1.32413858E-04
  -10.2500000       2.38058507E-04
  -10.2399998       5.16257482E-04
  -10.2299995       6.86886779E-04
  -10.2200003       7.58468232E-04
  -10.2100000       7.57154252E-04
  -10.1999998       7.16686365E-04
  -10.1899996       6.67355140E-04
  -10.1800003       6.26981608E-04
  -10.1700001       5.96292084E-04
  -10.1599998       5.59797045E-04
  -10.1499996       4.91761661E-04
  -10.1400003       3.65489715E-04
  -10.1300001       1.63291203E-04
  -10.1199999      -1.15624571E-04
  -10.1099997      -4.51489846E-04
  -10.1000004      -8.05571734E-04
  -10.0900002      -1.12667412E-03
  -10.0799999      -1.36098510E-03
  -10.0699997      -1.46292942E-03
  -10.0600004      -1.40452490E-03
  -10.0500002      -1.18119980E-03
  -10.0400000      -8.12943326E-04
  -10.0299997      -3.40781116E-04
  -10.0200005       1.80406860E-04
  -10.0100002       6.91014400E-04
  -10.0000000       1.13584450E-03
  -9.98999977       1.47155719E-03
  -9.97999954       1.67132658E-03
  -9.97000027       1.72635668E-03
  -9.96000004       1.64459203E-03
  -9.94999981       1.44743058E-03
  -9.93999958       1.16541225E-03
  -9.93000031       8.33739643E-04
  -9.92000008       4.88193473E-04
  -9.90999985       1.61686010E-04
  -9.89999962      -1.18538337E-04
  -9.89000034      -3.33098113E-04
  -9.88000011      -4.72011801E-04
  -9.86999989      -5.35353494E-04
  -9.85999966      -5.32692124E-04
  -9.85000038      -4.81036870E-04
  -9.84000015      -4.01281693E-04
  -9.82999992      -3.13581579E-04
  -9.81999969      -2.32558232E-04
  -9.81000042      -1.63544304E-04
  -9.80000019      -1.01063204E-04
  -9.78999996      -3.03294892E-05
  -9.77999973       6.82013997E-05
  -9.77000046       2.12121100E-04
  -9.76000023       4.09873552E-04
  -9.75000000       6.55152777E-04
  -9.73999977       9.24776541E-04
  -9.72999954       1.18112902E-03
  -9.72000027       1.37904705E-03
  -9.71000004       1.47572486E-03
  -9.69999981       1.44120830E-03
  -9.68999958       1.26668846E-03
  -9.68000031       9.68231936E-04
  -9.67000008       5.84724999E-04
  -9.65999985       1.70345593E-04
  -9.64999962      -2.16618195E-04
  -9.64000034      -5.25774376E-04
  -9.63000011      -7.24410929E-04
  -9.61999989      -8.02654249E-04
  -9.60999966      -7.72913569E-04
  -9.60000038      -6.64110121E-04
  -9.59000015      -5.12571365E-04
  -9.57999992      -3.52256669E-04
  -9.56999969      -2.06960874E-04
  -9.56000042      -8.63720925E-05
  -9.55000019       1.33808271E-05
  -9.53999996       1.05365078E-04
  -9.52999973       2.05320655E-04
  -9.52000046       3.25031666E-04
  -9.51000023       4.67411301E-04
  -9.50000000       6.24409004E-04
  -9.48999977       7.77944573E-04
  -9.47999954       9.03285923E-04
  -9.47000027       9.73821909E-04
  -9.46000004       9.66118590E-04
  -9.44999981       8.64376896E-04
  -9.43999958       6.63766114E-04
  -9.43000031       3.72402312E-04
  -9.42000008       1.18637363E-05
  -9.40999985      -3.83884588E-04
  -9.39999962      -7.71339925E-04
  -9.39000034      -1.10219943E-03
  -9.38000011      -1.32980745E-03
  -9.36999989      -1.41663256E-03
  -9.35999966      -1.34153117E-03
  -9.35000038      -1.10517035E-03
  -9.34000015      -7.32003304E-04
  -9.32999992      -2.67735537E-04
  -9.31999969       2.27769924E-04
  -9.31000042       6.90980291E-04
  -9.30000019       1.06634584E-03
  -9.28999996       1.31635985E-03
  -9.27999973       1.42750738E-03
  -9.27000046       1.41058280E-03
  -9.26000023       1.29537308E-03
  -9.25000000       1.12127408E-03
  -9.23999977       9.26563866E-04
  -9.22999954       7.39402254E-04
  -9.22000027       5.73040277E-04
  -9.21000004       4.26375656E-04
  -9.19999981       2.89292570E-04
  -9.18999958       1.50724154E-04
  -9.18000031       6.54895712E-06
  -9.17000008      -1.35455717E-04
  -9.15999985      -2.55371531E-04
  -9.14999962      -3.25798988E-04
  -9.14000034      -3.19981511E-04
  -9.13000011      -2.20803413E-04
  -9.11999989      -2.77576673E-05
  -9.10999966       2.40401598E-04
  -9.10000038       5.48268610E-04
  -9.09000015       8.50986864E-04
  -9.07999992       1.10399642E-03
  -9.06999969       1.27257244E-03
  -9.06000042       1.33856421E-03
  -9.05000019       1.30269118E-03
  -9.03999996       1.18215184E-03
  -9.02999973       1.00468658E-03
  -9.02000046       8.01165297E-04
  -9.01000023       5.98976214E-04
  -9.00000000       4.17947362E-04
  -8.98999977       2.69475597E-04
  -8.97999954       1.58353127E-04
  -8.97000027       8.58947315E-05
  -8.96000004       5.26726035E-05
  -8.94999981       5.95439924E-05
  -8.93999958       1.06544649E-04
  -8.93000031       1.90268387E-04
  -8.92000008       3.01153021E-04
  -8.90999985       4.22324927E-04
  -8.89999962       5.31196769E-04
  -8.89000034       6.03999943E-04
  -8.88000011       6.22219581E-04
  -8.86999989       5.78931300E-04
  -8.85999966       4.82706208E-04
  -8.85000038       3.57251411E-04
  -8.84000015       2.36189007E-04
  -8.82999992       1.53987028E-04
  -8.81999969       1.35507333E-04
  -8.81000042       1.87404512E-04
  -8.80000019       2.94364494E-04
  -8.78999996       4.21896752E-04
  -8.77999973       5.25423791E-04
  -8.77000046       5.63348527E-04
  -8.76000023       5.10296493E-04
  -8.75000000       3.66367633E-04
  -8.73999977       1.59190255E-04
  -8.72999954      -6.23736414E-05
  -8.72000027      -2.41462811E-04
  -8.71000004      -3.29713192E-04
  -8.69999981      -3.02112254E-04
  -8.68999958      -1.65566962E-04
  -8.68000031       4.17308584E-05
  -8.67000008       2.60344852E-04
  -8.65999985       4.26368933E-04
  -8.64999962       4.90129634E-04
  -8.64000034       4.31297696E-04
  -8.63000011       2.65848823E-04
  -8.61999989       4.26721090E-05
  -8.60999966      -1.69339415E-04
  -8.60000038      -3.00092506E-04
  -8.59000015      -2.97674094E-04
  -8.57999992      -1.42880119E-04
  -8.56999969       1.45060403E-04
  -8.56000042       5.12953091E-04
  -8.55000019       8.86827707E-04
  -8.53999996       1.19007460E-03
  -8.52999973       1.36164331E-03
  -8.52000046       1.36972021E-03
  -8.51000023       1.21781160E-03
  -8.50000000       9.42342449E-04
  -8.48999977       6.03049179E-04
  -8.47999954       2.69026321E-04
  -8.47000027       3.94753897E-06
  -8.46000004      -1.46299994E-04
  -8.44999981      -1.61287157E-04
  -8.43999958      -4.80191302E-05
  -8.43000031       1.62557466E-04
  -8.42000008       4.23347956E-04
  -8.40999985       6.81456178E-04
  -8.39999962       8.89095711E-04
  -8.39000034       1.01309444E-03
  -8.38000011       1.04125938E-03
  -8.36999989       9.84340790E-04
  -8.35999966       8.73054902E-04
  -8.35000038       7.50575331E-04
  -8.34000015       6.61948288E-04
  -8.32999992       6.42771134E-04
  -8.31999969       7.09897082E-04
  -8.31000042       8.56657629E-04
  -8.30000019       1.05406996E-03
  -8.28999996       1.25792623E-03
  -8.27999973       1.41998066E-03
  -8.27000046       1.50019967E-03
  -8.26000023       1.47666363E-03
  -8.25000000       1.35039317E-03
  -8.23999977       1.14394084E-03
  -8.22999954       8.94521363E-04
  -8.22000027       6.44106593E-04
  -8.21000004       4.29687236E-04
  -8.19999981       2.76550621E-04
  -8.18999958       1.96086999E-04
  -8.18000031       1.87856072E-04
  -8.17000008       2.44116847E-04
  -8.15999985       3.54343618E-04
  -8.14999962       5.07672841E-04
  -8.14000034       6.92538917E-04
  -8.13000011       8.94363679E-04
  -8.11999989       1.09333766E-03
  -8.10999966       1.26450753E-03
  -8.10000038       1.38141867E-03
  -8.09000015       1.42283051E-03
  -8.07999992       1.38025708E-03
  -8.06999969       1.26312685E-03
  -8.06000042       1.09872769E-03
  -8.05000019       9.25830915E-04
  -8.03999996       7.83365569E-04
  -8.02999973       6.97780051E-04
  -8.02000046       6.73775445E-04
  -8.01000023       6.92353526E-04
  -8.00000000       7.17686431E-04
  -7.98999977       7.11001980E-04
  -7.98000002       6.46740955E-04
  -7.96999979       5.24898991E-04
  -7.96000004       3.74387571E-04
  -7.94999981       2.45280942E-04
  -7.94000006       1.91931234E-04
  -7.92999983       2.52608821E-04
  -7.92000008       4.33101464E-04
  -7.90999985       7.00762088E-04
  -7.90000010       9.92008718E-04
  -7.88999987       1.23144488E-03
  -7.88000011       1.35634514E-03
  -7.86999989       1.33794779E-03
  -7.86000013       1.19179219E-03
  -7.84999990       9.73059039E-04
  -7.84000015       7.58227368E-04
  -7.82999992       6.19397208E-04
  -7.82000017       6.00409287E-04
  -7.80999994       7.03327707E-04
  -7.80000019       8.90073949E-04
  -7.78999996       1.09837402E-03
  -7.78000021       1.26582524E-03
  -7.76999998       1.35285291E-03
  -7.76000023       1.35580439E-03
  -7.75000000       1.30529259E-03
  -7.73999977       1.25069369E-03
  -7.73000002       1.23718579E-03
  -7.71999979       1.28474855E-03
  -7.71000004       1.37787987E-03
  -7.69999981       1.47063239E-03
  -7.69000006       1.50547177E-03
  -7.67999983       1.43879093E-03
  -7.67000008       1.26292917E-03
  -7.65999985       1.01548084E-03
  -7.65000010       7.71289633E-04
  -7.63999987       6.19115424E-04
  -7.63000011       6.30989496E-04
  -7.61999989       8.35421670E-04
  -7.61000013       1.20457809E-03
  -7.59999990       1.66061975E-03
  -7.59000015       2.09939457E-03
  -7.57999992       2.42324197E-03
  -7.57000017       2.57125963E-03
  -7.55999994       2.53631873E-03
  -7.55000019       2.36306759E-03
  -7.53999996       2.12823972E-03
  -7.53000021       1.91114086E-03
  -7.51999998       1.76565070E-03
  -7.51000023       1.70419994E-03
  -7.50000000       1.69928977E-03
  -7.48999977       1.70115521E-03
  -7.48000002       1.66384224E-03
  -7.46999979       1.56874594E-03
  -7.46000004       1.43579266E-03
  -7.44999981       1.31747546E-03
  -7.44000006       1.27790915E-03