  -16.0000000       0.00000000    
  -15.9899998       0.00000000    
  -15.9799995       0.00000000    
  -15.9700003       0.00000000    
  -15.9600000       0.00000000    
  -15.9499998       0.00000000    
  -15.9399996       0.00000000    
  -15.9300003       0.00000000    
  -15.9200001       0.00000000    
  -15.9099998       0.00000000    
  -15.8999996      -1.35968876E-37
  -15.8900003      -2.67726964E-36
  -15.8800001      -2.52421283E-35
  -15.8699999      -1.55336803E-34
  -15.8599997      -7.14577781E-34
  -15.8500004      -2.62742512E-33
  -15.8400002      -7.69065342E-33
  -15.8299999      -1.51645530E-32
  -15.8199997       2.94134841E-33
  -15.8100004       2.02210913E-31
  -15.8000002       1.14167068E-30
  -15.7900000       4.26379599E-30
  -15.7799997       1.20834628E-29
  -15.7700005       2.62157343E-29
  -15.7600002       3.95637529E-29
  -15.7500000       1.97552821E-29
  -15.7399998      -1.08979288E-28
  -15.7299995      -4.52299833E-28
  -15.7200003      -1.03403997E-27
  -15.7100000      -1.52664701E-27
  -15.6999998      -9.08408481E-28
  -15.6899996       2.49746140E-27
  -15.6800003       9.64939436E-27
  -15.6700001       1.70610846E-26
  -15.6599998       1.12027639E-26
  -15.6499996      -3.42552186E-26
  -15.6400003      -1.47170790E-25
  -15.6300001      -3.16553660E-25
  -15.6199999      -4.17520066E-25
  -15.6099997      -1.32471021E-25
  -15.6000004       1.03367215E-24
  -15.5900002       3.47753671E-24
  -15.5799999       6.80444832E-24
  -15.5699997       8.77701553E-24
  -15.5600004       4.47869862E-24
  -15.5500002      -1.30024945E-23
  -15.5400000      -4.85667454E-23
  -15.5299997      -9.65873151E-23
  -15.5200005      -1.29480145E-22
  -15.5100002      -9.02594642E-23
  -15.5000000       9.77522355E-23
  -15.4899998       4.88304244E-22
  -15.4799995       1.02941658E-21
  -15.4700003       1.45961522E-21
  -15.4600000       1.24660561E-21
  -15.4499998      -3.22505094E-22
  -15.4399996      -3.78028850E-21
  -15.4300003      -8.80551776E-21
  -15.4200001      -1.33999414E-20
  -15.4099998      -1.33930170E-20
  -15.3999996      -3.05330539E-21
  -15.3900003       2.23779788E-20
  -15.3800001       6.19611205E-20
  -15.3699999       1.03213393E-19
  -15.3599997       1.18208930E-19
  -15.3500004       6.65402438E-20
  -15.3400002      -8.96933652E-20
  -15.3299999      -3.56848611E-19
  -15.3199997      -6.72316789E-19
  -15.3100004      -8.75730324E-19
  -15.3000002      -7.16626941E-19
  -15.2900000       7.10377088E-20
  -15.2799997       1.61212911E-18
  -15.2700005       3.67464730E-18
  -15.2600002       5.47727858E-18
  -15.2500000       5.66175516E-18
  -15.2399998       2.59493713E-18
  -15.2299995      -4.89222283E-18
  -15.2200003      -1.63935518E-17
  -15.2100000      -2.87859019E-17
  -15.1999998      -3.57011318E-17
  -15.1899996      -2.84281363E-17
  -15.1800003       1.10097192E-18
  -15.1700001       5.52498416E-17
  -15.1599998       1.24724807E-16
  -15.1499996       1.84324097E-16
  -15.1400003       1.94029149E-16
  -15.1300001       1.08914170E-16
  -15.1199999      -1.00807853E-16
  -15.1099997      -4.22707848E-16
  -15.1000004      -7.77070143E-16
  -15.0900002      -1.00825021E-15
  -15.0799999      -9.08536115E-16
  -15.0699997      -2.85154780E-16
  -15.0600004       9.33426284E-16
  -15.0500002       2.57792974E-15
  -15.0400000       4.15526962E-15
  -15.0299997       4.86667354E-15
  -15.0200005       3.78418110E-15
  -15.0100002       2.03336228E-16
  -15.0000000      -5.88249813E-15
  -14.9899998      -1.33316625E-14
  -14.9799995      -1.96506816E-14
  -14.9700003      -2.12813742E-14
  -14.9600000      -1.45430780E-14
  -14.9499998       2.80522447E-15
  -14.9399996       2.97159114E-14
  -14.9300003       6.03667371E-14
  -14.9200001       8.38932466E-14
  -14.9099998       8.61385683E-14
  -14.8999996       5.37862432E-14
  -14.8900003      -1.95793885E-14
  -14.8800001      -1.26998130E-13
  -14.8699999      -2.43723580E-13
  -14.8599997      -3.27778630E-13
  -14.8500004      -3.27809692E-13
  -14.8400002      -1.98765632E-13
  -14.8299999       7.69781781E-14
  -14.8199997       4.68769771E-13
  -14.8100004       8.85464391E-13
  -14.8000002       1.18076295E-12
  -14.7900000       1.18233971E-12
  -14.7799997       7.44665939E-13
  -14.7700005      -1.83679610E-13
  -14.7600002      -1.49703459E-12
  -14.7500000      -2.89946886E-12
  -14.7399998      -3.92676083E-12
  -14.7299995      -4.03933441E-12
  -14.7200003      -2.78260184E-12
  -14.7100000       1.47607909E-14
  -14.6999998       4.05970136E-12
  -14.6899996       8.50186501E-12
  -14.6800003       1.19967135E-11
  -14.6700001       1.29642330E-11
  -14.6599998       1.00300922E-11
  -14.6499996       2.56850639E-12
  -14.6400003      -8.79825379E-12
  -14.6300001      -2.19267261E-11
  -14.6199999      -3.32781268E-11
  -14.6099997      -3.85443760E-11
  -14.6000004      -3.37464848E-11
  -14.5900002      -1.66148189E-11
  -14.5799999       1.20928684E-11
  -14.5699997       4.77722688E-11
  -14.5600004       8.20716203E-11
  -14.5500002       1.04174294E-10
  -14.5400000       1.03246578E-10
  -14.5299997       7.16714466E-11
  -14.5200005       8.33800390E-12
  -14.5100002      -7.89731683E-11
  -14.5000000      -1.73076942E-10
  -14.4899998      -2.49435333E-10
  -14.4799995      -2.80915069E-10
  -14.4700003      -2.44654907E-10
  -14.4600000      -1.29689773E-10
  -14.4499998       5.65893998E-11
  -14.4399996       2.85233032E-10
  -14.4300003       5.07518638E-10
  -14.4200001       6.62534805E-10
  -14.4099998       6.90016044E-10
  -14.3999996       5.46353629E-10
  -14.3900003       2.20377841E-10
  -14.3800001      -2.55239996E-10
  -14.3699999      -8.00958300E-10
  -14.3599997      -1.29849065E-09
  -14.3500004      -1.61068736E-09
  -14.3400002      -1.61097014E-09
  -14.3299999      -1.21724764E-09
  -14.3199997      -4.22998303E-10
  -14.3100004       6.82727985E-10
  -14.3000002       1.91377914E-09
  -14.2900000       3.00840419E-09
  -14.2799997       3.67381858E-09
  -14.2700005       3.64836006E-09
  -14.2600002       2.77036882E-09
  -14.2500000       1.03898046E-09
  -14.2399998      -1.34926470E-09
  -14.2299995      -4.00182909E-09
  -14.2200003      -6.37741682E-09
  -14.2100000      -7.87771803E-09
  -14.1999998      -7.97161626E-09
  -14.1899996      -6.32974562E-09
  -14.1800003      -2.94041613E-09
  -14.1700001       1.82345161E-09
  -14.1599998       7.21118232E-09
  -14.1499996       1.21873427E-08
  -14.1400003       1.56055382E-08
  -14.1300001       1.64380989E-08
  -14.1199999       1.40196157E-08
  -14.1099997       8.25223889E-09
  -14.1000004      -2.78898349E-10
  -14.0900002      -1.03191207E-08
  -14.0799999      -2.01021422E-08
  -14.0699997      -2.76379524E-08
  -14.0600004      -3.10855839E-08
  -14.0500002      -2.91419937E-08
  -14.0400000      -2.13675992E-08
  -14.0299997      -8.37529157E-09
  -14.0200005       8.16740631E-09
  -14.0100002       2.57378776E-08
  -14.0000000       4.13341148E-08
  -13.9899998       5.19647969E-08
  -13.9799995       5.51682540E-08
  -13.9700003       4.94689161E-08
  -13.9600000       3.46927571E-08
  -13.9499998       1.20908830E-08
  -13.9399996      -1.57447513E-08
  -13.9300003      -4.51561988E-08
  -13.9200001      -7.18436155E-08
  -13.9099998      -9.13859921E-08
  -13.8999996      -9.98062291E-08
  -13.8900003      -9.41348262E-08
  -13.8800001      -7.29315417E-08
  -13.8699999      -3.67215058E-08
  -13.8599997       1.17099086E-08
  -13.8500004       6.72371030E-08
  -13.8400002       1.22614779E-07
  -13.8299999       1.69078064E-07
  -13.8199997       1.97362951E-07
  -13.8100004       1.99113686E-07
  -13.8000002       1.68539870E-07
  -13.7900000       1.04073287E-07
  -13.7799997       9.68277458E-09
  -13.7700005      -1.04530628E-07
  -13.7600002      -2.22786994E-07
  -13.7500000      -3.25312811E-07
  -13.7399998      -3.91209937E-07
  -13.7299995      -4.02180774E-07
  -13.7200003      -3.46513474E-07
  -13.7100000      -2.22543306E-07
  -13.6999998      -4.07623730E-08
  -13.6899996       1.76111698E-07
  -13.6800003       3.95474984E-07
  -13.6700001       5.79492223E-07
  -13.6599998       6.91460741E-07
  -13.6499996       7.02823627E-07
  -13.6400003       5.99489226E-07
  -13.6300001       3.86093035E-07
  -13.6199999       8.71118715E-08
  -13.6099997      -2.55714923E-07
  -13.6000004      -5.89483136E-07
  -13.5900002      -8.58817145E-07
  -13.5799999      -1.01562171E-06
  -13.5699997      -1.02802733E-06
  -13.5600004      -8.86718624E-07
  -13.5500002      -6.07284733E-07
  -13.5400000      -2.28004325E-07
  -13.5299997       1.96587109E-07
  -13.5200005       6.05105072E-07
  -13.5100002       9.39808217E-07
  -13.5000000       1.15604757E-06
  -13.4899998       1.22878578E-06
  -13.4799995       1.15498085E-06
  -13.4700003       9.51594643E-07
  -13.4600000       6.50012453E-07
  -13.4499998       2.88491094E-07
  -13.4399996      -9.53298809E-08
  -13.4300003      -4.69932615E-07
  -13.4200001      -8.12155008E-07
  -13.4099998      -1.10587462E-06
  -13.3999996      -1.33797971E-06
  -13.3900003      -1.49338712E-06
  -13.3800001      -1.55131886E-06
  -13.3699999      -1.48486208E-06
  -13.3599997      -1.26499447E-06
  -13.3500004      -8.68946756E-07
  -13.3400002      -2.91296146E-07
  -13.3299999       4.45049750E-07
  -13.3199997       1.28143529E-06
  -13.3100004       2.12280497E-06
  -13.3000002       2.84584030E-06
  -13.2900000       3.31598198E-06
  -13.2799997       3.41118312E-06
  -13.2700005       3.04818400E-06
  -13.2600002       2.20578750E-06
  -13.2500000       9.39473921E-07
  -13.2399998      -6.17104149E-07
  -13.2299995      -2.26581460E-06
  -13.2200003      -3.77184392E-06
  -13.2100000      -4.90130287E-06
  -13.1999998      -5.46181991E-06
  -13.1899996      -5.33810089E-06
  -13.1800003      -4.51498499E-06
  -13.1700001      -3.08279778E-06
  -13.1599998      -1.22336780E-06
  -13.1499996       8.20779746E-07
  -13.1400003       2.78782841E-06
  -13.1300001       4.44002762E-06
  -13.1199999       5.59989439E-06
  -13.1099997       6.17184969E-06
  -13.1000004       6.14539840E-06
  -13.0900002       5.58051170E-06
  -13.0799999       4.58032991E-06
  -13.0699997       3.25952124E-06
  -13.0600004       1.71768670E-06
  -13.0500002       2.57266084E-08
  -13.0400000      -1.77070342E-06
  -13.0299997      -3.63173922E-06
  -13.0200005      -5.49423294E-06
  -13.0100002      -7.24334586E-06
  -13.0000000      -8.69638734E-06
  -12.9899998      -9.60850412E-06
  -12.9799995      -9.70476685E-06
  -12.9700003      -8.73609952E-06
  -12.9600000      -6.54899486E-06
  -12.9499998      -3.15313628E-06
  -12.9399996       1.23148141E-06
  -12.9300003       6.16431953E-06
  -12.9200001       1.10208630E-05
  -12.9099998       1.50759834E-05
  -12.8999996       1.76228878E-05
  -12.8900003       1.81065443E-05
  -12.8800001       1.62444830E-05
  -12.8699999       1.21075946E-05
  -12.8599997       6.13971542E-06
  -12.8500004      -8.93667334E-07
  -12.8400002      -8.02244904E-06
  -12.8299999      -1.42347644E-05
  -12.8199997      -1.86544985E-05
  -12.8100004      -2.06973673E-05
  -12.8000002      -2.01724961E-05
  -12.7900000      -1.73070275E-05
  -12.7799997      -1.26875475E-05
  -12.7700005      -7.13040617E-06
  -12.7600002      -1.50915309E-06
  -12.7500000       3.42251110E-06
  -12.7399998       7.17232660E-06
  -12.7299995       9.58347937E-06
  -12.7200003       1.08244749E-05
  -12.7100000       1.12983244E-05
  -12.6999998       1.14941940E-05
  -12.6899996       1.18193439E-05
  -12.6800003       1.24550843E-05
  -12.6700001       1.32758514E-05
  -12.6599998       1.38559953E-05
  -12.6499996       1.35677010E-05
  -12.6400003       1.17503851E-05
  -12.6300001       7.91260300E-06
  -12.6199999       1.91675963E-06
  -12.6099997      -5.90222726E-06
  -12.6000004      -1.47202873E-05
  -12.5900002      -2.33232968E-05
  -12.5799999      -3.03087836E-05
  -12.5699997      -3.43519678E-05
  -12.5600004      -3.44804612E-05
  -12.5500002      -3.02967146E-05
  -12.5400000      -2.20961483E-05
  -12.5299997      -1.08499999E-05
  -12.5200005       1.94880977E-06
  -12.5100002       1.45481208E-05
  -12.5000000       2.52536465E-05
  -12.4899998       3.27341077E-05
  -12.4799995       3.62494393E-05
  -12.4700003       3.57538847E-05
  -12.4600000       3.18538041E-05
  -12.4499998       2.56327112E-05
  -12.4399996       1.83861885E-05
  -12.4300003       1.13294327E-05
  -12.4200001       5.34555056E-06
  -12.4099998       8.31975512E-07
  -12.3999996      -2.32199909E-06
  -12.3900003      -4.62587832E-06
  -12.3800001      -6.77842581E-06
  -12.3699999      -9.41406779E-06
  -12.3599997      -1.28721231E-05
  -12.3500004      -1.70498479E-05
  -12.3400002      -2.13792027E-05
  -12.3299999      -2.49360455E-05
  -12.3199997      -2.66566985E-05
  -12.3100004      -2.56091225E-05
  -12.3000002      -2.12509731E-05
  -12.2900000      -1.36087820E-05
  -12.2799997      -3.33094658E-06
  -12.2700005       8.40219309E-06
  -12.2600002       2.00926825E-05
  -12.2500000       3.02141052E-05
  -12.2399998       3.75069685E-05
  -12.2299995       4.12097179E-05
  -12.2200003       4.11706496E-05
  -12.2100000       3.78157201E-05
  -12.1999998       3.19840074E-05
  -12.1899996       2.46764084E-05
  -12.1800003       1.67859671E-05
  -12.1700001       8.88336672E-06
  -12.1599998       1.11716679E-06
  -12.1499996      -6.74181683E-06
  -12.1400003      -1.51216091E-05
  -12.1300001      -2.43831855E-05
  -12.1199999      -3.45421940E-05
  -12.1099997      -4.50614643E-05
  -12.1000004      -5.47844102E-05
  -12.0900002      -6.20473947E-05
  -12.0799999      -6.49646900E-05
  -12.0699997      -6.18341728E-05
  -12.0600004      -5.15762113E-05
  -12.0500002      -3.41019113E-05
  -12.0400000      -1.05150921E-05
  -12.0299997       1.69157611E-05
  -12.0200005       4.50306106E-05
  -12.0100002       7.02559555E-05
  -12.0000000       8.91996824E-05
  -11.9899998       9.92445057E-05
  -11.9799995       9.90175758E-05
  -11.9700003       8.86373964E-05
  -11.9600000       6.96851348E-05
  -11.9499998       4.49057552E-05
  -11.9399996       1.77020556E-05
  -11.9300003      -8.47179945E-06
  -11.9200001      -3.06913716E-05
  -11.9099998      -4.70006198E-05
  -11.8999996      -5.66260424E-05
  -11.8900003      -5.99370360E-05
  -11.8800001      -5.81806016E-05
  -11.8699999      -5.30680154E-05
  -11.8599997      -4.63201141E-05
  -11.8500004      -3.92806724E-05
  -11.8400002      -3.26839217E-05
  -11.8299999      -2.66185725E-05
  -11.8199997      -2.06785153E-05
  -11.8100004      -1.42426070E-05
  -11.8000002      -6.79460891E-06
  -11.7900000       1.81272890E-06
  -11.7799997       1.12269772E-05
  -11.7700005       2.06370059E-05
  -11.7600002       2.89744476E-05
  -11.7500000       3.52175011E-05
  -11.7399998       3.87075197E-05
  -11.7299995       3.93811752E-05
  -11.7200003       3.78402474E-05
  -11.7100000       3.52227653E-05
  -11.6999998       3.28936512E-05
  -11.6899996       3.20256986E-05
  -11.6800003       3.31793926E-05
  -11.6700001       3.60013219E-05
  -11.6599998       3.91414724E-05
  -11.6499996       4.04422135E-05
  -11.6400003       3.73864568E-05
  -11.6300001       2.77243780E-05
  -11.6199999       1.01439919E-05
  -11.6099997      -1.51747736E-05
  -11.6000004      -4.62718090E-05
  -11.5900002      -7.94857333E-05
  -11.5799999      -1.09925539E-04
  -11.5699997      -1.32272340E-04
  -11.5600004      -1.41768716E-04
  -11.5500002      -1.35199225E-04
  -11.5400000      -1.11653411E-04
  -11.5299997      -7.28955638E-05
  -11.5200005      -2.32397651E-05
  -11.5100002       3.10709911E-05
  -11.5000000       8.28777775E-05
  -11.4899998       1.25320512E-04
  -11.4799995       1.53016052E-04
  -11.4700003       1.62963639E-04
  -11.4600000       1.54995287E-04
  -11.4499998       1.31682697E-04
  -11.4399996       9.77266100E-05
  -11.4300003       5.89641095E-05
  -11.4200001       2.12088671E-05
  -11.4099998      -1.08276708E-05
  -11.3999996      -3.43091233E-05
  -11.3900003      -4.85883247E-05
  -11.3800001      -5.50159857E-05
  -11.3699999      -5.63120702E-05
  -11.3599997      -5.56660707E-05
  -11.3500004      -5.57906351E-05
  -11.3400002      -5.81587119E-05
  -11.3299999      -6.26064357E-05
  -11.3199997      -6.73940231E-05
  -11.3100004      -6.97059440E-05
  -11.3000002      -6.64659092E-05
  -11.2900000      -5.52658857E-05
  -11.2799997      -3.51790113E-05
  -11.2700005      -7.25122118E-06
  -11.2600002       2.54614897E-05
  -11.2500000       5.83392575E-05
  -11.2399998       8.60460059E-05
  -11.2299995       1.03602768E-04
  -11.2200003       1.07456115E-04
  -11.2100000       9.63067432E-05
  -11.1999998       7.15107817E-05
  -11.1899996       3.69551344E-05
  -11.1800003      -1.58183332E-06
  -11.1700001      -3.74645206E-05
  -11.1599998      -6.44266038E-05
  -11.1499996      -7.77465830E-05
  -11.1400003      -7.51390253E-05
  -11.1300001      -5.71859455E-05
  -11.1199999      -2.72256275E-05
  -11.1099997       9.27552537E-06
  -11.1000004       4.57412134E-05
  -11.0900002       7.56925729E-05
  -11.0799999       9.39113670E-05
  -11.0699997       9.73404021E-05
  -11.0600004       8.55596008E-05
  -11.0500002       6.07632792E-05
  -11.0400000       2.72626094E-05
  -11.0299997      -9.37319146E-06
  -11.0200005      -4.33591122E-05
  -11.0100002      -6.97159485E-05
  -11.0000000      -8.50813958E-05
  -10.9899998      -8.81713131E-05
  -10.9799995      -7.98266628E-05
  -10.9700003      -6.26651527E-05
  -10.9600000      -4.04315761E-05
  -10.9499998      -1.71936335E-05
  -10.9399996       3.44889349E-06
  -10.9300003       1.89870279E-05
  -10.9200001       2.83458139E-05
  -10.9099998       3.18993043E-05
  -10.8999996       3.11786971E-05
  -10.8900003       2.83574045E-05
  -10.8800001       2.56398471E-05
  -10.8699999       2.46954769E-05
  -10.8599997       2.62643625E-05
  -10.8500004       3.00182201E-05
  -10.8400002       3.47008536E-05
  -10.8299999       3.85071216E-05
  -10.8199997       3.96040487E-05
  -10.8100004       3.66638815E-05
  -10.8000002       2.92753157E-05
  -10.7900000       1.81269988E-05
  -10.7799997       4.91141100E-06
  -10.7700005      -8.03462899E-06
  -10.7600002      -1.82704734E-05
  -10.7500000      -2.38427892E-05
  -10.7399998      -2.37799468E-05
  -10.7299995      -1.83617340E-05
  -10.7200003      -9.08899710E-06
  -10.7100000       1.64868311E-06
  -10.6999998       1.11327872E-05
  -10.6899996       1.69690611E-05
  -10.6800003       1.76733756E-05
  -10.6700001       1.30435692E-05
  -10.6599998       4.22279754E-06
  -10.6499996      -6.56266639E-06
  -10.6400003      -1.65257898E-05
  -10.6300001      -2.29702928E-05
  -10.6199999      -2.39089168E-05
  -10.6099997      -1.84976889E-05
  -10.6000004      -7.18643787E-06
  -10.5900002       8.43783891E-06
  -10.5799999       2.60577035E-05
  -10.5699997       4.31627268E-05
  -10.5600004       5.75708036E-05
  -10.5500002       6.78007636E-05
  -10.5400000       7.32144399E-05
  -10.5299997       7.39176321E-05
  -10.5200005       7.04806880E-05
  -10.5100002       6.35889519E-05
  -10.5000000       5.37483684E-05
  -10.4899998       4.11470173E-05
  -10.4799995       2.57192241E-05
  -10.4700003       7.39018969E-06
  -10.4600000      -1.35823511E-05
  -10.4499998      -3.62892461E-05
  -10.4399996      -5.89941519E-05
  -10.4300003      -7.91855055E-05
  -10.4200001      -9.38798185E-05
  -10.4099998      -1.00129582E-04
  -10.3999996      -9.56298827E-05
  -10.3900003      -7.92853753E-05
  -10.3800001      -5.16015461E-05
  -10.3699999      -1.48003746E-05
  -10.3599997       2.73794540E-05
  -10.3500004       7.01692043E-05
  -10.3400002       1.08454748E-04
  -10.3299999       1.37531941E-04
  -10.3199997       1.53795918E-04
  -10.3100004       1.55246496E-04
  -10.3000002       1.41733370E-04
  -10.2900000       1.14916642E-04
  -10.2799997       7.79697948E-05
  -10.2700005       3.50921800E-05
  -10.2600002      -9.07846788E-06
  -10.2500000      -5.00592141E-05
  -10.2399998      -8.40381254E-05
  -10.2299995      -1.08254491E-04
  -10.2200003      -1.21211997E-04
  -10.2100000      -1.22720812E-04
  -10.1999998      -1.13787421E-04
  -10.1899996      -9.63856146E-05
  -10.1800003      -7.31498731E-05
  -10.1700001      -4.70330015E-05
  -10.1599998      -2.09662230E-05
  -10.1499996       2.44690068E-06
  -10.1400003       2.11792776E-05
  -10.1300001       3.39560102E-05
  -10.1199999       4.03480008E-05
  -10.1099997       4.07801454E-05
  -10.1000004       3.64554799E-05
  -10.0900002       2.92012191E-05
  -10.0799999       2.12471386E-05
  -10.0699997       1.49518619E-05
  -10.0600004       1.24984736E-05
  -10.0500002       1.55866419E-05
  -10.0400000       2.51537222E-05
  -10.0299997       4.11602377E-05
  -10.0200005       6.24748936E-05
  -10.0100002       8.68891875E-05
  -10.0000000       1.11281079E-04
  -9.98999977       1.31930836E-04
  -9.97999954       1.44971476E-04
  -9.97000027       1.46932492E-04
  -9.96000004       1.35313167E-04
  -9.94999981       1.09103567E-04
  -9.93999958       6.91633177E-05
  -9.93000031       1.83736411E-05
  -9.92000008      -3.85001622E-05
  -9.90999985      -9.52605915E-05
  -9.89999962      -1.45018203E-04
  -9.89000034      -1.81138443E-04
  -9.88000011      -1.98262962E-04
  -9.86999989      -1.93239073E-04
  -9.85999966      -1.65785270E-04
  -9.85000038      -1.18748037E-04
  -9.84000015      -5.78648214E-05
  -9.82999992       8.96625079E-06
  -9.81999969       7.28161394E-05
  -9.81000042       1.25076433E-04
  -9.80000019       1.58801558E-04
  -9.78999996       1.69801380E-04
  -9.77999973       1.57283881E-04
  -9.77000046       1.23931022E-04
  -9.76000023       7.53995773E-05
  -9.75000000       1.93494761E-05
  -9.73999977      -3.58099096E-05
  -9.72999954      -8.22204820E-05
  -9.72000027      -1.13695336E-04
  -9.71000004      -1.26484782E-04
  -9.69999981      -1.19602133E-04
  -9.68999958      -9.47176886E-05
  -9.68000031      -5.57085696E-05
  -9.67000008      -7.99726786E-06
  -9.65999985       4.21835284E-05
  -9.64999962       8.84922847E-05
  -9.64000034       1.25088001E-04
  -9.63000011       1.47137136E-04
  -9.61999989       1.51236658E-04
  -9.60999966       1.35771523E-04
  -9.60000038       1.01200232E-04
  -9.59000015       5.02230469E-05
  -9.57999992      -1.22432057E-05
  -9.56999969      -7.93661529E-05
  -9.56000042      -1.43026977E-04
  -9.55000019      -1.94765395E-04
  -9.53999996      -2.26944816E-04
  -9.52999973      -2.33962477E-04
  -9.52000046      -2.13280728E-04
  -9.51000023      -1.66056401E-04
  -9.50000000      -9.72022463E-05
  -9.48999977      -1.48187755E-05
  -9.47999954       7.09385422E-05
  -9.47000027       1.49371845E-04
  -9.46000004       2.10866609E-04
  -9.44999981       2.48339609E-04
  -9.43999958       2.58256798E-04
  -9.43000031       2.41058922E-04
  -9.42000008       2.00950803E-04
  -9.40999985       1.45127706E-04
  -9.39999962       8.26025062E-05
  -9.39000034       2.28454555E-05
  -9.38000011      -2.55488649E-05
  -9.36999989      -5.59879227E-05
  -9.35999966      -6.46767439E-05
  -9.35000038      -5.10179416E-05
  -9.34000015      -1.76029971E-05
  -9.32999992       3.01797754E-05
  -9.31999969       8.48676573E-05
  -9.31000042       1.37900250E-04
  -9.30000019       1.80750474E-04
  -9.28999996       2.06085679E-04
  -9.27999973       2.08814425E-04
  -9.27000046       1.86869394E-04
  -9.26000023       1.41594865E-04
  -9.25000000       7.76558009E-05
  -9.23999977       2.45701494E-06
  -9.22999954      -7.48537859E-05
  -9.22000027      -1.44648657E-04
  -9.21000004      -1.98147216E-04
  -9.19999981      -2.28598845E-04
  -9.18999958      -2.32143342E-04
  -9.18000031      -2.08240424E-04
  -9.17000008      -1.59642761E-04
  -9.15999985      -9.19618469E-05
  -9.14999962      -1.29290165E-05
  -9.14000034       6.85275809E-05
  -9.13000011       1.43277633E-04
  -9.11999989       2.02967436E-04
  -9.10999966       2.40918205E-04
  -9.10000038       2.52888422E-04
  -9.09000015       2.37637709E-04
  -9.07999992       1.97213623E-04
  -9.06999969       1.36875809E-04
  -9.06000042       6.45893961E-05
  -9.05000019      -9.92561672E-06
  -9.03999996      -7.65168370E-05
  -9.02999973      -1.26121493E-04
  -9.02000046      -1.52232620E-04
  -9.01000023      -1.52018096E-04
  -9.00000000      -1.26835148E-04
  -8.98999977      -8.19871493E-05
  -8.97999954      -2.57287302E-05
  -8.97000027       3.23029635E-05
  -8.96000004       8.29118871E-05
  -8.94999981       1.19034106E-04
  -8.93999958       1.36934716E-04
  -8.93000031       1.36665694E-04
  -8.92000008       1.21716679E-04
  -8.90999985       9.79816177E-05
  -8.89999962       7.23168632E-05
  -8.89000034       5.10433892E-05
  -8.88000011       3.87296786E-05
  -8.86999989       3.74928168E-05
  -8.85999966       4.69074221E-05
  -8.85000038       6.44581596E-05
  -8.84000015       8.63539972E-05
  -8.82999992       1.08467233E-04
  -8.81999969       1.27173684E-04
  -8.81000042       1.39936659E-04
  -8.80000019       1.45568483E-04
  -8.78999996       1.44189660E-04
  -8.77999973       1.36963441E-04
  -8.77000046       1.25705497E-04
  -8.76000023       1.12459558E-04
  -8.75000000       9.91048146E-05
  -8.73999977       8.70369040E-05
  -8.72999954       7.69505423E-05
  -8.72000027       6.87484280E-05
  -8.71000004       6.16004545E-05
  -8.69999981       5.41671398E-05
  -8.68999958       4.49737818E-05
  -8.68000031       3.28799360E-05
  -8.67000008       1.75424339E-05
  -8.65999985      -2.58902844E-07
  -8.64999962      -1.85581539E-05
  -8.64000034      -3.44788896E-05
  -8.63000011      -4.48367537E-05
  -8.61999989      -4.69535371E-05
  -8.60999966      -3.94802264E-05
  -8.60000038      -2.29876787E-05
  -8.59000015      -1.14989056E-07
  -8.57999992       2.48326687E-05
  -8.56999969       4.67968894E-05
  -8.56000042       6.11944706E-05
  -8.55000019       6.51525479E-05
  -8.53999996       5.84064401E-05
  -8.52999973       4.35785878E-05
  -8.52000046       2.57050833E-05
  -8.51000023       1.10736983E-05
  -8.50000000       5.63002732E-06
  -8.48999977       1.33419662E-05
  -8.47999954       3.49475740E-05
  -8.47000027       6.74341645E-05
  -8.46000004       1.04425460E-04
  -8.44999981       1.37432129E-04
  -8.43999958       1.57705173E-04
  -8.43000031       1.58277922E-04
  -8.42000008       1.35727692E-04
  -8.40999985       9.12450996E-05
  -8.39999962       3.07508890E-05
  -8.39000034      -3.59902406E-05
  -8.38000011      -9.70929104E-05
  -8.36999989      -1.40769393E-04
  -8.35999966      -1.57602088E-04
  -8.35000038      -1.42422883E-04
  -8.34000015      -9.54337738E-05
  -8.32999992      -2.23524603E-05
  -8.31999969       6.64493564E-05
  -8.31000042       1.57663759E-04
  -8.30000019       2.37316810E-04
  -8.28999996       2.93191319E-04
  -8.27999973       3.16973747E-04
  -8.27000046       3.05741822E-04
  -8.26000023       2.62518442E-04
  -8.25000000       1.95775996E-04
  -8.23999977       1.17958640E-04
  -8.22999954       4.32691631E-05
  -8.22000027      -1.48911640E-05
  -8.21000004      -4.63624419E-05
  -8.19999981      -4.60855081E-05
  -8.18999958      -1.50168871E-05
  -8.18000031       4.00918980E-05
  -8.17000008       1.08022345E-04
  -8.15999985       1.75273541E-04
  -8.14999962       2.28675242E-04
  -8.14000034       2.57908687E-04
  -8.13000011       2.57431355E-04
  -8.11999989       2.27427096E-04
  -8.10999966       1.73609878E-04
  -8.10000038       1.05951171E-04
  -8.09000015       3.66239547E-05
  -8.07999992      -2.23918105E-05
  -8.06999969      -6.15482713E-05
  -8.06000042      -7.53805216E-05
  -8.05000019      -6.32867959E-05
  -8.03999996      -2.93546782E-05
  -8.02999973       1.86532052E-05
  -8.02000046       7.08893713E-05
  -8.01000023       1.17247422E-04
  -8.00000000       1.49088475E-04
  -7.98999977       1.60602460E-04
  -7.98000002       1.49641433E-04
  -7.96999979       1.17967989E-04
  -7.96000004       7.09440210E-05
  -7.94999981       1.67373219E-05
  -7.94000006      -3.48502872E-05
  -7.92999983      -7.38125818E-05
  -7.92000008      -9.14818665E-05
  -7.90999985      -8.20063360E-05
  -7.90000010      -4.35457987E-05
  -7.88999987       2.10485414E-05
  -7.88000011       1.04277075E-04
  -7.86999989       1.94873865E-04
  -7.86000013       2.79493135E-04
  -7.84999990       3.44978558E-04
  -7.84000015       3.80820013E-04
  -7.82999992       3.81293648E-04
  -7.82000017       3.46786430E-04
  -7.80999994       2.83942558E-04
  -7.80000019       2.04514887E-04
  -7.78999996       1.23106220E-04
  -7.78000021       5.42646667E-05
  -7.76999998       9.57266730E-06
  -7.76000023      -4.61074660E-06
  -7.75000000       1.17550189E-05
  -7.73999977       5.26867625E-05
  -7.73000002       1.07748558E-04
  -7.71999979       1.64482452E-04
  -7.71000004       2.11096543E-04
  -7.69999981       2.38785331E-04
  -7.69000006       2.43197763E-04
  -7.67999983       2.24820891E-04
  -7.67000008       1.88332633E-04
  -7.65999985       1.41212760E-04
  -7.65000010       9.20269595E-05
  -7.63999987       4.87953366E-05
  -7.63000011       1.77471320E-05
  -7.61999989       2.59759622E-06
  -7.61000013       4.32887873E-06
  -7.59999990       2.13605563E-05
  -7.59000015       4.99741909E-05
  -7.57999992       8.48958298E-05
  -7.57000017       1.20000681E-04
  -7.55999994       1.49140091E-04
  -7.55000019       1.67075050E-04
  -7.53999996       1.70434985E-04
  -7.53000021       1.58534080E-04
  -7.51999998       1.33818190E-04
  -7.51000023       1.01728663E-04
  -7.50000000       6.98734002E-05
  -7.48999977       4.65723751E-05
  -7.48000002       3.90451460E-05
  -7.46999979       5.16615473E-05
  -7.46000004       8.47207266E-05
  -7.44999981       1.34129587E-04
  -7.44000006       1.92133084E-04