  -16.0000000       0.00000000    
  -15.9899998       0.00000000    
  -15.9799995       0.00000000    
  -15.9700003       0.00000000    
  -15.9600000       0.00000000    
  -15.9499998       0.00000000    
  -15.9399996       0.00000000    
  -15.9300003       0.00000000    
  -15.9200001       0.00000000    
  -15.9099998       0.00000000    
  -15.8999996      -0.00000000    
  -15.8900003      -5.22607256E-40
  -15.8800001      -1.70925903E-38
  -15.8699999      -2.85517723E-37
  -15.8599997      -3.15762184E-36
  -15.8500004      -2.58071548E-35
  -15.8400002      -1.66172037E-34
  -15.8299999      -8.79280887E-34
  -15.8199997      -3.93783922E-33
  -15.8100004      -1.52468582E-32
  -15.8000002      -5.18332236E-32
  -15.7900000      -1.56438961E-31
  -15.7799997      -4.22284779E-31
  -15.7700005      -1.02355785E-30
  -15.7600002      -2.22811644E-30
  -15.7500000      -4.33434446E-30
  -15.7399998      -7.43279861E-30
  -15.7299995      -1.08800891E-29
  -15.7200003      -1.24560241E-29
  -15.7100000      -7.44150291E-30
  -15.6999998       1.16571905E-29
  -15.6899996       5.34251041E-29
  -15.6800003       1.22306061E-28
  -15.6700001       2.08965325E-28
  -15.6599998       2.77885884E-28
  -15.6499996       2.58264557E-28
  -15.6400003       4.93721259E-29
  -15.6300001      -4.45976090E-28
  -15.6199999      -1.25122757E-27
  -15.6099997      -2.21736320E-27
  -15.6000004      -2.93216556E-27
  -15.5900002      -2.70512441E-27
  -15.5799999      -7.10906628E-28
  -15.5699997       3.64974856E-27
  -15.5600004       1.01931175E-26
  -15.5500002       1.73521003E-26
  -15.5400000       2.18285300E-26
  -15.5299997       1.88829358E-26
  -15.5200005       3.60387522E-27
  -15.5100002      -2.67273039E-26
  -15.5000000      -6.94728845E-26
  -15.4899998      -1.13525318E-25
  -15.4799995      -1.37698839E-25
  -15.4700003      -1.12619496E-25
  -15.4600000      -8.33861106E-27
  -15.4499998       1.90651978E-25
  -15.4399996       4.63462438E-25
  -15.4300003       7.28983602E-25
  -15.4200001       8.32550882E-25
  -15.4099998       5.63401648E-25
  -15.3999996      -2.73625773E-25
  -15.3900003      -1.71929079E-24
  -15.3800001      -3.47443373E-24
  -15.3699999      -4.74533282E-24
  -15.3599997      -4.26207308E-24
  -15.3500004      -6.42459217E-25
  -15.3400002       6.79073792E-24
  -15.3299999       1.68446794E-23
  -15.3199997       2.54075547E-23
  -15.3100004       2.53686308E-23
  -15.3000002       8.52539651E-24
  -15.2900000      -2.99018389E-23
  -15.2799997      -8.47495422E-23
  -15.2700005      -1.34955168E-22
  -15.2600002      -1.42769347E-22
  -15.2500000      -6.34875004E-23
  -15.2399998       1.31179756E-22
  -15.2299995       4.19346542E-22
  -15.2200003       6.97931572E-22
  -15.2100000       7.77345858E-22
  -15.1999998       4.28057738E-22
  -15.1899996      -5.06071007E-22
  -15.1800003      -1.94346105E-21
  -15.1700001      -3.41173390E-21
  -15.1599998      -4.01338663E-21
  -15.1499996      -2.63181810E-21
  -15.1400003       1.55246261E-21
  -15.1300001       8.30379394E-21
  -15.1199999       1.56068658E-20
  -15.1099997       1.94523800E-20
  -15.1000004       1.46749369E-20
  -15.0900002      -2.83187807E-21
  -15.0799999      -3.27840014E-20
  -15.0699997      -6.72008444E-20
  -15.0600004      -8.91338098E-20
  -15.0500002      -7.57584996E-20
  -15.0400000      -7.32978473E-21
  -15.0299997       1.18841737E-19
  -15.0200005       2.73817540E-19
  -15.0100002       3.89918258E-19
  -15.0000000       3.70712133E-19
  -14.9899998       1.24908318E-19
  -14.9799995      -3.77833382E-19
  -14.9700003      -1.04506474E-18
  -14.9600000      -1.62426312E-18
  -14.9499998      -1.72840299E-18
  -14.9399996      -9.54322719E-19
  -14.9300003       9.06906245E-19
  -14.9200001       3.61956865E-18
  -14.9099998       6.32190940E-18
  -14.8999996       7.55859942E-18
  -14.8900003       5.65299325E-18
  -14.8800001      -5.53752701E-19
  -14.8699999      -1.07468265E-17
  -14.8599997      -2.23264832E-17
  -14.8500004      -3.02577937E-17
  -14.8400002      -2.80805650E-17
  -14.8299999      -1.02919913E-17
  -14.8199997       2.42577928E-17
  -14.8100004       6.90532361E-17
  -14.8000002       1.08402608E-16
  -14.7900000       1.19574357E-16
  -14.7799997       7.97018497E-17
  -14.7700005      -2.31247671E-17
  -14.7600002      -1.77560049E-16
  -14.7500000      -3.40782054E-16
  -14.7399998      -4.40659388E-16
  -14.7299995      -3.93160507E-16
  -14.7200003      -1.35257768E-16
  -14.7100000       3.33658375E-16
  -14.6999998       9.16674832E-16
  -14.6899996       1.41041298E-15
  -14.6800003       1.54048220E-15
  -14.6700001       1.04859778E-15
  -14.6599998      -1.81392675E-16
  -14.6499996      -1.99576124E-15
  -14.6400003      -3.89843949E-15
  -14.6300001      -5.09473123E-15
  -14.6199999      -4.69037422E-15
  -14.6099997      -2.03515992E-15
  -14.6000004       2.86917101E-15
  -14.5900002       9.04442215E-15
  -14.5799999       1.44769772E-14
  -14.5699997       1.64775386E-14
  -14.5600004       1.25037013E-14
  -14.5500002       1.31093383E-15
  -14.5400000      -1.59047597E-14
  -14.5299997      -3.48594817E-14
  -14.5200005      -4.85274933E-14
  -14.5100002      -4.87852997E-14
  -14.5000000      -2.92529062E-14
  -14.4899998       1.13074951E-14
  -14.4799995       6.61810152E-14
  -14.4700003       1.19874217E-13
  -14.4600000       1.50458246E-13
  -14.4499998       1.35487731E-13
  -14.4399996       6.06435407E-14
  -14.4300003      -7.11804612E-14
  -14.4200001      -2.33725474E-13
  -14.4099998      -3.77735576E-13
  -14.3999996      -4.40323911E-13
  -14.3900003      -3.63324280E-13
  -14.3800001      -1.17181858E-13
  -14.3699999       2.76478737E-13
  -14.3599997       7.32564400E-13
  -14.3500004       1.10897110E-12
  -14.3400002       1.23644476E-12
  -14.3299999       9.69616097E-13
  -14.3199997       2.48474581E-13
  -14.3100004      -8.48039466E-13
  -14.3000002      -2.07826052E-12
  -14.2900000      -3.06281107E-12
  -14.2799997      -3.36671403E-12
  -14.2700005      -2.62981585E-12
  -14.2600002      -7.17076030E-13
  -14.2500000       2.15594209E-12
  -14.2399998       5.37323875E-12
  -14.2299995       7.98601549E-12
  -14.2200003       8.91374387E-12
  -14.2100000       7.25546142E-12
  -14.1999998       2.64466205E-12
  -14.1899996      -4.45377676E-12
  -14.1800003      -1.26186605E-11
  -14.1700001      -1.96133110E-11
  -14.1599998      -2.28298561E-11
  -14.1499996      -1.99904312E-11
  -14.1400003      -9.96451619E-12
  -14.1300001       6.51603337E-12
  -14.1199999       2.64955766E-11
  -14.1099997       4.50037230E-11
  -14.1000004       5.59415708E-11
  -14.0900002       5.35784819E-11
  -14.0799999       3.43900082E-11
  -14.0699997      -1.21222379E-12
  -14.0600004      -4.78055477E-11
  -14.0500002      -9.50469495E-11
  -14.0400000      -1.29243449E-10
  -14.0299997      -1.36371900E-10
  -14.0200005      -1.06084468E-10
  -14.0100002      -3.58148997E-11
  -14.0000000       6.61820043E-11
  -13.9899998       1.80048906E-10
  -13.9799995       2.76676904E-10
  -13.9700003       3.23403138E-10
  -13.9600000       2.92359581E-10
  -13.9499998       1.69813913E-10
  -13.9399996      -3.59094976E-11
  -13.9300003      -2.90602348E-10
  -13.9200001      -5.36671041E-10
  -13.9099998      -7.02981895E-10
  -13.8999996      -7.21234017E-10
  -13.8900003      -5.45941570E-10
  -13.8800001      -1.73290174E-10
  -13.8699999       3.46793122E-10
  -13.8599997       9.10547471E-10
  -13.8500004       1.37536471E-09
  -13.8400002       1.58943703E-09
  -13.8299999       1.43136925E-09
  -13.8199997       8.51074322E-10
  -13.8100004      -9.91951521E-11
  -13.8000002      -1.25468747E-09
  -13.7900000      -2.35656628E-09
  -13.7799997      -3.10034221E-09
  -13.7700005      -3.20768812E-09
  -13.7600002      -2.50702015E-09
  -13.7500000      -1.00264030E-09
  -13.7399998       1.08887677E-09
  -13.7299995       3.35173311E-09
  -13.7200003       5.23987698E-09
  -13.7100000       6.19435125E-09
  -13.6999998       5.78683901E-09
  -13.6899996       3.85595422E-09
  -13.6800003       5.98616712E-10
  -13.6700001      -3.41578676E-09
  -13.6599998      -7.32570093E-09
  -13.6499996      -1.01471143E-08
  -13.6400003      -1.10030109E-08
  -13.6300001      -9.36226652E-09
  -13.6199999      -5.22731813E-09
  -13.6099997       7.85858378E-10
  -13.6000004       7.51200524E-09
  -13.5900002       1.34491254E-08
  -13.5799999       1.70851386E-08
  -13.5699997       1.72700076E-08
  -13.5600004       1.35437013E-08
  -13.5500002       6.33026165E-09
  -13.5400000      -3.06814174E-09
  -13.5299997      -1.26990836E-08
  -13.5200005      -2.03760582E-08
  -13.5100002      -2.41957956E-08
  -13.5000000      -2.30326638E-08
  -13.4899998      -1.68781007E-08
  -13.4799995      -6.91962887E-09
  -13.4700003       4.68719996E-09
  -13.4600000       1.53218345E-08
  -13.4499998       2.25646719E-08
  -13.4399996       2.48551402E-08
  -13.4300003       2.19531380E-08
  -13.4200001       1.50487871E-08
  -13.4099998       6.44928821E-09
  -13.3999996      -1.11110610E-09
  -13.3900003      -5.37019318E-09
  -13.3800001      -5.38712497E-09
  -13.3699999      -2.05547246E-09
  -13.3599997       1.95063454E-09
  -13.3500004       2.88988744E-09
  -13.3400002      -2.77528356E-09
  -13.3299999      -1.68552017E-08
  -13.3199997      -3.81126917E-08
  -13.3100004      -6.16433979E-08
  -13.3000002      -7.93492418E-08
  -13.2900000      -8.16467889E-08
  -13.2799997      -6.01985164E-08
  -13.2700005      -1.10830163E-08
  -13.2600002       6.24621421E-08
  -13.2500000       1.48679263E-07
  -13.2399998       2.28088965E-07
  -13.2299995       2.76779275E-07
  -13.2200003       2.71869823E-07
  -13.2100000       1.98135666E-07
  -13.1999998       5.42101510E-08
  -13.1899996      -1.43450862E-07
  -13.1800003      -3.60439856E-07
  -13.1700001      -5.48988169E-07
  -13.1599998      -6.57063538E-07
  -13.1499996      -6.40510166E-07
  -13.1400003      -4.75676046E-07
  -13.1300001      -1.69365947E-07
  -13.1199999       2.36909528E-07
  -13.1099997       6.70473014E-07
  -13.1000004       1.03924071E-06
  -13.0900002       1.25012411E-06
  -13.0799999       1.23057839E-06
  -13.0699997       9.48513048E-07
  -13.0600004       4.25522472E-07
  -13.0500002      -2.60627672E-07
  -13.0400000      -9.86207965E-07
  -13.0299997      -1.60353625E-06
  -13.0200005      -1.97096438E-06
  -13.0100002      -1.98471480E-06
  -13.0000000      -1.60539992E-06
  -12.9899998      -8.72661758E-07
  -12.9799995       9.64190860E-08
  -12.9700003       1.12606563E-06
  -12.9600000       2.01474586E-06
  -12.9499998       2.57592615E-06
  -12.9399996       2.67811220E-06
  -12.9300003       2.27537043E-06
  -12.9200001       1.42125100E-06
  -12.9099998       2.62418752E-07
  -12.8999996      -9.87382236E-07
  -12.8900003      -2.08813276E-06
  -12.8800001      -2.82095652E-06
  -12.8699999      -3.03248657E-06
  -12.8599997      -2.66708116E-06
  -12.8500004      -1.78026562E-06
  -12.8400002      -5.30609441E-07
  -12.8299999       8.48451464E-07
  -12.8199997       2.09144378E-06
  -12.8100004       2.95024802E-06
  -12.8000002       3.24091843E-06
  -12.7900000       2.87949501E-06
  -12.7799997       1.90051560E-06
  -12.7700005       4.55062434E-07
  -12.7600002      -1.21138237E-06
  -12.7500000      -2.79775418E-06
  -12.7399998      -3.99682904E-06
  -12.7299995      -4.54756673E-06
  -12.7200003      -4.28216208E-06
  -12.7100000      -3.16015735E-06
  -12.6999998      -1.28360523E-06
  -12.6899996       1.11017516E-06
  -12.6800003       3.67840562E-06
  -12.6700001       6.02173213E-06
  -12.6599998       7.74517594E-06
  -12.6499996       8.52145331E-06
  -12.6400003       8.14571376E-06
  -12.6300001       6.57152941E-06
  -12.6199999       3.92091124E-06
  -12.6099997       4.65921602E-07
  -12.6000004      -3.41473924E-06
  -12.5900002      -7.29527346E-06
  -12.5799999      -1.07657524E-05
  -12.5699997      -1.34848979E-05
  -12.5600004      -1.52115845E-05
  -12.5500002      -1.58096173E-05
  -12.5400000      -1.52277944E-05
  -12.5299997      -1.34645588E-05
  -12.5200005      -1.05315694E-05
  -12.5100002      -6.43142084E-06
  -12.5000000      -1.16093020E-06
  -12.4899998       5.25657333E-06
  -12.4799995       1.27165913E-05
  -12.4700003       2.09724021E-05
  -12.4600000       2.95890659E-05
  -12.4499998       3.79334379E-05
  -12.4399996       4.52139539E-05
  -12.4300003       5.05714015E-05
  -12.4200001       5.32071135E-05
  -12.4099998       5.25223259E-05
  -12.3999996       4.82354917E-05
  -12.3900003       4.04465354E-05
  -12.3800001       2.96279813E-05
  -12.3699999       1.65407964E-05
  -12.3599997       2.09296445E-06
  -12.3500004      -1.28246011E-05
  -12.3400002      -2.74821741E-05
  -12.3299999      -4.13963789E-05
  -12.3199997      -5.43327515E-05
  -12.3100004      -6.62250750E-05
  -12.3000002      -7.70358311E-05
  -12.2900000      -8.66015034E-05
  -12.2799997      -9.45139109E-05
  -12.2700005      -1.00082041E-04
  -12.2600002      -1.02397978E-04
  -12.2500000      -1.00501515E-04
  -12.2399998      -9.36086799E-05
  -12.2299995      -8.13482256E-05
  -12.2200003      -6.39435311E-05
  -12.2100000      -4.22886333E-05
  -12.1999998      -1.78925129E-05
  -12.1899996       7.30055945E-06
  -12.1800003       3.11752920E-05
  -12.1700001       5.17345907E-05
  -12.1599998       6.73508257E-05
  -12.1499996       7.69312392E-05
  -12.1400003       7.99779664E-05
  -12.1300001       7.65551158E-05
  -12.1199999       6.72012829E-05
  -12.1099997       5.28355413E-05
  -12.1000004       3.46958986E-05
  -12.0900002       1.43233401E-05
  -12.0799999      -6.42823579E-06
  -12.0699997      -2.54041115E-05
  -12.0600004      -4.02412516E-05
  -12.0500002      -4.85858618E-05
  -12.0400000      -4.84430857E-05
  -12.0299997      -3.86135944E-05
  -12.0200005      -1.91212366E-05
  -12.0100002       8.49521803E-06
  -12.0000000       4.11498295E-05
  -11.9899998       7.45164580E-05
  -11.9799995       1.03676750E-04
  -11.9700003       1.24016442E-04
  -11.9600000       1.32191926E-04
  -11.9499998       1.26939573E-04
  -11.9399996       1.09506625E-04
  -11.9300003       8.35498795E-05
  -11.9200001       5.44671602E-05
  -11.9099998       2.82685232E-05
  -11.8999996       1.02238173E-05
  -11.8900003       3.60312879E-06
  -11.8800001       8.83064695E-06
  -11.8699999       2.32920884E-05
  -11.8599997       4.18860982E-05
  -11.8500004       5.82250213E-05
  -11.8400002       6.62176608E-05
  -11.8299999       6.16525649E-05
  -11.8199997       4.33792084E-05
  -11.8100004       1.37672978E-05
  -11.8000002      -2.17051929E-05
  -11.7900000      -5.56675695E-05
  -11.7799997      -8.05990567E-05
  -11.7700005      -9.06772184E-05
  -11.7600002      -8.32701553E-05
  -11.7500000      -5.96882128E-05
  -11.7399998      -2.49897712E-05
  -11.7299995       1.31286424E-05
  -11.7200003       4.60958363E-05
  -11.7100000       6.64534236E-05
  -11.6999998       6.95788549E-05
  -11.6899996       5.47215277E-05
  -11.6800003       2.51029523E-05
  -11.6700001      -1.29318905E-05
  -11.6599998      -5.14885141E-05
  -11.6499996      -8.30223944E-05
  -11.6400003      -1.02092927E-04
  -11.6300001      -1.06550331E-04
  -11.6199999      -9.78877288E-05
  -11.6099997      -8.07057950E-05
  -11.6000004      -6.14562523E-05
  -11.5900002      -4.67969148E-05
  -11.5799999      -4.19661519E-05
  -11.5699997      -4.95549903E-05
  -11.5600004      -6.89360750E-05
  -11.5500002      -9.64377759E-05
  -11.5400000      -1.26175859E-04
  -11.5299997      -1.51318658E-04
  -11.5200005      -1.65492893E-04
  -11.5100002      -1.64042722E-04
  -11.5000000      -1.44921476E-04
  -11.4899998      -1.09095265E-04
  -11.4799995      -6.04406778E-05
  -11.4700003      -5.19891000E-06
  -11.4600000       4.89031991E-05
  -11.4499998       9.37375007E-05
  -11.4399996       1.21937068E-04
  -11.4300003       1.28013504E-04
  -11.4200001       1.09303837E-04
  -11.4099998       6.66156411E-05
  -11.3999996       4.44042780E-06
  -11.3900003      -6.93698166E-05
  -11.3800001      -1.44507634E-04
  -11.3699999      -2.09642953E-04
  -11.3599997      -2.54210201E-04
  -11.3500004      -2.70263117E-04
  -11.3400002      -2.54040322E-04
  -11.3299999      -2.06890138E-04
  -11.3199997      -1.35295544E-04
  -11.3100004      -4.99127309E-05
  -11.3000002       3.62478822E-05
  -11.2900000       1.10163266E-04
  -11.2799997       1.61186035E-04
  -11.2700005       1.82970354E-04
  -11.2600002       1.74517219E-04
  -11.2500000       1.40117234E-04
  -11.2399998       8.82234308E-05
  -11.2299995       2.95339669E-05
  -11.2200003      -2.52594109E-05
  -11.2100000      -6.75423726E-05
  -11.1999998      -9.22232211E-05
  -11.1899996      -9.82838246E-05
  -11.1800003      -8.83993853E-05
  -11.1700001      -6.78136130E-05
  -11.1599998      -4.28128624E-05
  -11.1499996      -1.91979052E-05
  -11.1400003      -1.10125745E-06
  -11.1300001       9.63356979E-06
  -11.1199999       1.34608499E-05
  -11.1099997       1.26312943E-05
  -11.1000004       1.03815037E-05
  -11.0900002       1.00443758E-05
  -11.0799999       1.42766567E-05
  -11.0699997       2.45278479E-05
  -11.0600004       4.07950174E-05
  -11.0500002       6.16463949E-05
  -11.0400000       8.44648530E-05
  -11.0299997       1.05855994E-04
  -11.0200005       1.22170750E-04
  -11.0100002       1.30092318E-04
  -11.0000000       1.27224237E-04
  -10.9899998       1.12593407E-04
  -10.9799995       8.69638970E-05
  -10.9700003       5.28634009E-05
  -10.9600000       1.42661675E-05
  -10.9499998      -2.40474037E-05
  -10.9399996      -5.73423749E-05
  -10.9300003      -8.18032058E-05
  -10.9200001      -9.52111295E-05
  -10.9099998      -9.72427661E-05
  -10.8999996      -8.93077522E-05
  -10.8900003      -7.39797106E-05
  -10.8800001      -5.42032576E-05
  -10.8699999      -3.25340552E-05
  -10.8599997      -1.06578700E-05
  -10.8500004       1.06633634E-05
  -10.8400002       3.12254670E-05
  -10.8299999       5.07614350E-05
  -10.8199997       6.83345352E-05
  -10.8100004       8.20195055E-05
  -10.8000002       8.90471565E-05
  -10.7900000       8.64162866E-05
  -10.7799997       7.17934818E-05
  -10.7700005       4.43969002E-05
  -10.7600002       5.54479811E-06
  -10.7500000      -4.13438065E-05
  -10.7399998      -9.13169570E-05
  -10.7299995      -1.38839474E-04
  -10.7200003      -1.78797971E-04
  -10.7100000      -2.07222154E-04
  -10.6999998      -2.21510840E-04
  -10.6899996      -2.20175119E-04
  -10.6800003      -2.02342431E-04
  -10.6700001      -1.67404200E-04
  -10.6599998      -1.15161631E-04
  -10.6499996      -4.66182755E-05
  -10.6400003       3.47566456E-05
  -10.6300001       1.21792509E-04
  -10.6199999       2.03088755E-04
  -10.6099997       2.63809430E-04
  -10.6000004       2.88080540E-04
  -10.5900002       2.62737711E-04
  -10.5799999       1.81603595E-04
  -10.5699997       4.90741841E-05
  -10.5600004      -1.18269418E-04
  -10.5500002      -2.92953715E-04
  -10.5400000      -4.41022858E-04
  -10.5299997      -5.28886099E-04
  -10.5200005      -5.31115860E-04
  -10.5100002      -4.37251671E-04
  -10.5000000      -2.55734747E-04
  -10.4899998      -1.37119096E-05
  -10.4799995       2.47534801E-04
  -10.4700003       4.80638235E-04
  -10.4600000       6.41847611E-04
  -10.4499998       7.00101082E-04
  -10.4399996       6.43349893E-04
  -10.4300003       4.80741670E-04
  -10.4200001       2.40341702E-04
  -10.4099998      -3.68295987E-05
  -10.3999996      -3.04849324E-04
  -10.3900003      -5.21123351E-04
  -10.3800001      -6.53104507E-04
  -10.3699999      -6.82440063E-04
  -10.3599997      -6.06291927E-04
  -10.3500004      -4.36264643E-04
  -10.3400002      -1.95762856E-04
  -10.3299999       8.33977901E-05
  -10.3199997       3.64587613E-04
  -10.3100004       6.10020361E-04
  -10.3000002       7.84597010E-04
  -10.2900000       8.60070228E-04
  -10.2799997       8.19381559E-04
  -10.2700005       6.60579943E-04
  -10.2600002       3.99333599E-04
  -10.2500000       6.89312947E-05
  -10.2399998      -2.83029687E-04
  -10.2299995      -6.01362321E-04
  -10.2200003      -8.32571939E-04
  -10.2100000      -9.34983254E-04
  -10.1999998      -8.87485221E-04
  -10.1899996      -6.94738817E-04
  -10.1800003      -3.87383014E-04
  -10.1700001      -1.69191826E-05
  -10.1599998       3.53755779E-04
  -10.1499996       6.62137580E-04
  -10.1400003       8.57656996E-04
  -10.1300001       9.10544302E-04
  -10.1199999       8.16318963E-04
  -10.1099997       5.95308142E-04
  -10.1000004       2.87731527E-04
  -10.0900002      -5.42525268E-05
  -10.0799999      -3.75744246E-04
  -10.0699997      -6.27833069E-04
  -10.0600004      -7.74583605E-04
  -10.0500002      -7.97565444E-04
  -10.0400000      -6.97710144E-04
  -10.0299997      -4.94586711E-04
  -10.0200005      -2.23315670E-04
  -10.0100002       7.06018109E-05
  -10.0000000       3.38143553E-04
  -9.98999977       5.34650753E-04
  -9.97999954       6.27686852E-04
  -9.97000027       6.03461289E-04
  -9.96000004       4.70288011E-04
  -9.94999981       2.57850945E-04
  -9.93999958       1.18223397E-05
  -9.93000031      -2.15491818E-04
  -9.92000008      -3.76634591E-04
  -9.90999985      -4.39926313E-04
  -9.89999962      -3.96994728E-04
  -9.89000034      -2.64730508E-04
  -9.88000011      -8.08828845E-05
  -9.86999989       1.05745319E-04
  -9.85999966       2.47962453E-04
  -9.85000038       3.12268618E-04
  -9.84000015       2.87005765E-04
  -9.82999992       1.84344666E-04
  -9.81999969       3.56873097E-05
  -9.81000042      -1.17986201E-04
  -9.80000019      -2.37824250E-04
  -9.78999996      -2.97342689E-04
  -9.77999973      -2.88268726E-04
  -9.77000046      -2.20566420E-04
  -9.76000023      -1.17126598E-04
  -9.75000000      -5.27087013E-06
  -9.73999977       9.18969381E-05
  -9.72999954       1.61438511E-04
  -9.72000027       2.02115625E-04
  -9.71000004       2.21474911E-04
  -9.69999981       2.30050224E-04
  -9.68999958       2.35213971E-04
  -9.68000031       2.37204236E-04
  -9.67000008       2.28908117E-04
  -9.65999985       1.99458736E-04
  -9.64999962       1.40176096E-04
  -9.64000034       5.04157615E-05
  -9.63000011      -5.91557982E-05
  -9.61999989      -1.67447593E-04
  -9.60999966      -2.48069875E-04
  -9.60000038      -2.77198153E-04
  -9.59000015      -2.41599264E-04
  -9.57999992      -1.44060919E-04
  -9.56999969      -4.25052531E-06
  -9.56000042       1.45496073E-04
  -9.55000019       2.68301024E-04
  -9.53999996       3.32368887E-04
  -9.52999973       3.19242914E-04
  -9.52000046       2.28321485E-04
  -9.51000023       7.65017248E-05
  -9.50000000      -1.06648622E-04
  -9.48999977      -2.86488474E-04
  -9.47999954      -4.31314722E-04
  -9.47000027      -5.18596382E-04
  -9.46000004      -5.38087799E-04
  -9.44999981      -4.91644721E-04
  -9.43999958      -3.90604866E-04
  -9.43000031      -2.52152473E-04
  -9.42000008      -9.60068792E-05
  -9.40999985       5.78099425E-05
  -9.39999962       1.90163613E-04
  -9.39000034       2.83613917E-04
  -9.38000011       3.23669112E-04
  -9.36999989       3.00975400E-04
  -9.35999966       2.14227271E-04
  -9.35000038       7.28532614E-05
  -9.34000015      -1.01872603E-04
  -9.32999992      -2.78482737E-04
  -9.31999969      -4.20184049E-04
  -9.31000042      -4.92305902E-04
  -9.30000019      -4.70640953E-04
  -9.28999996      -3.48387053E-04
  -9.27999973      -1.39505166E-04
  -9.27000046       1.22839687E-04
  -9.26000023       3.92735470E-04
  -9.25000000       6.21427200E-04
  -9.23999977       7.68169644E-04
  -9.22999954       8.09213263E-04
  -9.22000027       7.42624572E-04
  -9.21000004       5.87822869E-04
  -9.19999981       3.80185695E-04
  -9.18999958       1.62371056E-04
  -9.18000031      -2.52475929E-05
  -9.17000008      -1.52626075E-04
  -9.15999985      -2.04828364E-04
  -9.14999962      -1.82863238E-04
  -9.14000034      -1.01010031E-04
  -9.13000011       1.81209343E-05
  -9.11999989       1.49223692E-04
  -9.10999966       2.69236392E-04
  -9.10000038       3.60716687E-04
  -9.09000015       4.13413625E-04
  -9.07999992       4.24306025E-04
  -9.06999969       3.96631280E-04
  -9.06000042       3.38419224E-04
  -9.05000019       2.60869216E-04
  -9.03999996       1.76700720E-04
  -9.02999973       9.84934377E-05
  -9.02000046       3.70446614E-05
  -9.01000023      -1.21298868E-07
  -9.00000000      -9.84669623E-06
  -8.98999977       6.23030064E-06
  -8.97999954       4.20726283E-05
  -8.97000027       8.84258188E-05
  -8.96000004       1.34523114E-04
  -8.94999981       1.69917272E-04
  -8.93999958       1.86050340E-04
  -8.93000031       1.77319103E-04
  -8.92000008       1.41605371E-04
  -8.90999985       8.04102674E-05
  -8.89999962      -1.22416100E-06
  -8.89000034      -9.49244131E-05
  -8.88000011      -1.89430080E-04
  -8.86999989      -2.71528232E-04
  -8.85999966      -3.27729213E-04
  -8.85000038      -3.46721732E-04
  -8.84000015      -3.22267559E-04
  -8.82999992      -2.55800522E-04
  -8.81999969      -1.57776274E-04
  -8.81000042      -4.69347142E-05
  -8.80000019       5.28691489E-05
  -8.78999996       1.17850526E-04
  -8.77999973       1.30304019E-04
  -8.77000046       8.37448024E-05
  -8.76000023      -1.44922706E-05
  -8.75000000      -1.44267207E-04
  -8.73999977      -2.77289306E-04
  -8.72999954      -3.84278363E-04
  -8.72000027      -4.42623539E-04
  -8.71000004      -4.42272227E-04
  -8.69999981      -3.88066779E-04
  -8.68999958      -2.97845108E-04
  -8.68000031      -1.96969937E-04
  -8.67000008      -1.11082081E-04
  -8.65999985      -5.93870718E-05
  -8.64999962      -5.04954151E-05
  -8.64000034      -8.18549015E-05
  -8.63000011      -1.42506906E-04
  -8.61999989      -2.17757173E-04
  -8.60999966      -2.93804071E-04
  -8.60000038      -3.60610487E-04
  -8.59000015      -4.12225229E-04
  -8.57999992      -4.44967707E-04
  -8.56999969      -4.54880879E-04
  -8.56000042      -4.36199596E-04
  -8.55000019      -3.82111350E-04
  -8.53999996      -2.87970412E-04
  -8.52999973      -1.55820526E-04
  -8.52000046       1.84735836E-06
  -8.51000023       1.61282936E-04
  -8.50000000       2.90932541E-04
  -8.48999977       3.58921476E-04
  -8.47999954       3.42613930E-04
  -8.47000027       2.37135231E-04
  -8.46000004       5.96405625E-05
  -8.44999981      -1.52767941E-04
  -8.43999958      -3.51546681E-04
  -8.43000031      -4.89458209E-04
  -8.42000008      -5.33728744E-04
  -8.40999985      -4.75380395E-04
  -8.39999962      -3.31581599E-04
  -8.39000034      -1.40099321E-04
  -8.38000011       5.24094612E-05
  -8.36999989       2.04413285E-04
  -8.35999966       2.91170640E-04
  -8.35000038       3.10221658E-04
  -8.34000015       2.79089320E-04
  -8.32999992       2.26360760E-04
  -8.31999969       1.79674884E-04
  -8.31000042       1.55193222E-04
  -8.30000019       1.52469656E-04
  -8.28999996       1.56500959E-04
  -8.27999973       1.45927523E-04
  -8.27000046       1.03932027E-04
  -8.26000023       2.72888901E-05
  -8.25000000      -7.03009937E-05
  -8.23999977      -1.62225624E-04
  -8.22999954      -2.19018228E-04
  -8.22000027      -2.20619666E-04
  -8.21000004      -1.65914229E-04
  -8.19999981      -7.54172434E-05
  -8.18999958       1.45198164E-05
  -8.18000031       6.43585445E-05
  -8.17000008       4.64443256E-05
  -8.15999985      -4.31717708E-05
  -8.14999962      -1.80950083E-04
  -8.14000034      -3.22143489E-04
  -8.13000011      -4.15482151E-04
  -8.11999989      -4.21349017E-04
  -8.10999966      -3.26961308E-04
  -8.10000038      -1.52838344E-04
  -8.09000015       5.22408664E-05
  -8.07999992       2.26515753E-04
  -8.06999969       3.15721438E-04
  -8.06000042       2.91671371E-04
  -8.05000019       1.62309618E-04
  -8.03999996      -3.05301037E-05
  -8.02999973      -2.25116208E-04
  -8.02000046      -3.60818376E-04
  -8.01000023      -3.98801465E-04
  -8.00000000      -3.35122662E-04
  -7.98999977      -2.01584437E-04
  -7.98000002      -5.40328401E-05
  -7.96999979       4.77287795E-05
  -7.96000004       6.12419608E-05
  -7.94999981      -2.36829965E-05
  -7.94000006      -1.81703159E-04
  -7.92999983      -3.61405953E-04
  -7.92000008      -5.03978517E-04
  -7.90999985      -5.64269547E-04
  -7.90000010      -5.26625488E-04
  -7.88999987      -4.09850705E-04
  -7.88000011      -2.59645545E-04
  -7.86999989      -1.31444584E-04
  -7.86000013      -7.00342935E-05
  -7.84999990      -9.34197960E-05
  -7.84000015      -1.86757883E-04
  -7.82999992      -3.08412447E-04
  -7.82000017      -4.05725616E-04
  -7.80999994      -4.34580230E-04
  -7.80000019      -3.75539181E-04
  -7.78999996      -2.40727852E-04
  -7.78000021      -6.91265886E-05
  -7.76999998       8.77647617E-05
  -7.76000023       1.84443663E-04
  -7.75000000       1.97251735E-04
  -7.73999977       1.31856548E-04
  -7.73000002       1.99088317E-05
  -7.71999979      -9.35220087E-05
  -7.71000004      -1.66775615E-04
  -7.69999981      -1.76319299E-04
  -7.69000006      -1.23999620E-04
  -7.67999983      -3.44619475E-05
  -7.67000008       5.58356514E-05
  -7.65999985       1.13454516E-04
  -7.65000010       1.20798155E-04
  -7.63999987       8.20584828E-05
  -7.63000011       2.02522533E-05
  -7.61999989      -3.31416413E-05
  -7.61000013      -5.15712272E-05
  -7.59999990      -2.43721643E-05
  -7.59000015       3.90659297E-05
  -7.57999992       1.13499787E-04
  -7.57000017       1.68595492E-04
  -7.55999994       1.81830517E-04
  -7.55000019       1.48275911E-04
  -7.53999996       8.32665974E-05
  -7.53000021       1.68196348E-05
  -7.51999998      -1.80360566E-05
  -7.51000023       1.58748981E-06
  -7.50000000       7.90199847E-05
  -7.48999977       1.96111359E-04
  -7.48000002       3.19611892E-04
  -7.46999979       4.13377886E-04
  -7.46000004       4.51616012E-04
  -7.44999981       4.27968334E-04
  -7.44000006       3.56889854E-04