  -16.0000000       0.00000000    
  -15.9899998       0.00000000    
  -15.9799995       0.00000000    
  -15.9700003       0.00000000    
  -15.9600000       0.00000000    
  -15.9499998       0.00000000    
  -15.9399996       0.00000000    
  -15.9300003       0.00000000    
  -15.9200001       0.00000000    
  -15.9099998       0.00000000    
  -15.8999996       0.00000000    
  -15.8900003      -9.34956144E-40
  -15.8800001      -1.15063980E-38
  -15.8699999      -4.84543057E-38
  -15.8599997       9.73626545E-38
  -15.8500004       2.55860490E-36
  -15.8400002       1.90684182E-35
  -15.8299999       9.91743576E-35
  -15.8199997       4.25716024E-34
  -15.8100004       1.62017339E-33
  -15.8000002       5.62040730E-33
  -15.7900000       1.77770980E-32
  -15.7799997       5.05478322E-32
  -15.7700005       1.26521948E-31
  -15.7600002       2.70521664E-31
  -15.7500000       4.66226356E-31
  -15.7399998       5.41764281E-31
  -15.7299995      -2.71605552E-32
  -15.7200003      -2.29476509E-30
  -15.7100000      -7.66324440E-30
  -15.6999998      -1.67254106E-29
  -15.6899996      -2.65492031E-29
  -15.6800003      -2.67886955E-29
  -15.6700001       2.55300672E-30
  -15.6599998       8.54586093E-29
  -15.6499996       2.28431686E-28
  -15.6400003       3.80878839E-28
  -15.6300001       3.93320924E-28
  -15.6199999       1.95187854E-29
  -15.6099997      -9.66663335E-28
  -15.6000004      -2.48743251E-27
  -15.5900002      -3.76600309E-27
  -15.5799999      -3.08633914E-27
  -15.5699997       1.79605062E-27
  -15.5600004       1.20683054E-26
  -15.5500002       2.50658103E-26
  -15.5400000       3.14452992E-26
  -15.5299997       1.51581087E-26
  -15.5200005      -3.99201335E-26
  -15.5100002      -1.34286522E-25
  -15.5000000      -2.31240153E-25
  -15.4899998      -2.42283515E-25
  -15.4799995      -4.18493946E-26
  -15.4700003       4.65767637E-25
  -15.4600000       1.22377807E-24
  -15.4499998       1.88591359E-24
  -15.4399996       1.76623748E-24
  -15.4300003       1.70192873E-26
  -15.4200001      -3.85824651E-24
  -15.4099998      -9.20788031E-24
  -15.3999996      -1.34840357E-23
  -15.3900003      -1.21819340E-23
  -15.3800001      -2.18060112E-25
  -15.3699999       2.48516034E-23
  -15.3599997       5.83599739E-23
  -15.3500004       8.48694112E-23
  -15.3400002       7.87208904E-23
  -15.3299999       1.22808509E-23
  -15.3199997      -1.26911438E-22
  -15.3100004      -3.13977470E-22
  -15.3000002      -4.70099859E-22
  -15.2900000      -4.67165246E-22
  -15.2799997      -1.68115561E-22
  -15.2700005       4.94121569E-22
  -15.2600002       1.41857981E-21
  -15.2500000       2.26522118E-21
  -15.2399998       2.47443103E-21
  -15.2299995       1.43120654E-21
  -15.2200003      -1.22038443E-21
  -15.2100000      -5.19150346E-21
  -15.1999998      -9.26401169E-21
  -15.1899996      -1.13322233E-20
  -15.1800003      -8.95264605E-21
  -15.1700001      -4.12233390E-22
  -15.1599998       1.39488404E-20
  -15.1499996       3.07046955E-20
  -15.1400003       4.32818217E-20
  -15.1300001       4.33920079E-20
  -15.1199999       2.39835316E-20
  -15.1099997      -1.69971253E-20
  -15.1000004      -7.34106185E-20
  -15.0900002      -1.29908353E-19
  -15.0799999      -1.64232265E-19
  -15.0699997      -1.52828585E-19
  -15.0600004      -7.84146994E-20
  -15.0500002       6.27189989E-20
  -15.0400000       2.55640944E-19
  -15.0299997       4.64575755E-19
  -15.0200005       6.32721411E-19
  -15.0100002       6.83253771E-19
  -15.0000000       5.23514803E-19
  -14.9899998       5.95925470E-20
  -14.9799995      -7.67283069E-19
  -14.9700003      -1.91385337E-18
  -14.9600000      -3.14444748E-18
  -14.9499998      -3.95370537E-18
  -14.9399996      -3.57337971E-18
  -14.9300003      -1.15172120E-18
  -14.9200001       3.83446356E-18
  -14.9099998       1.09720909E-17
  -14.8999996       1.83066998E-17
  -14.8900003       2.21132443E-17
  -14.8800001       1.75045182E-17
  -14.8699999       2.16104489E-19
  -14.8599997      -3.05182497E-17
  -14.8500004      -6.87908014E-17
  -14.8400002      -1.00110844E-16
  -14.8299999      -1.02784642E-16
  -14.8199997      -5.42479902E-17
  -14.8100004       5.75253029E-17
  -14.8000002       2.20098163E-16
  -14.7900000       3.85817419E-16
  -14.7799997       4.72100960E-16
  -14.7700005       3.80074457E-16
  -14.7600002       3.41016457E-17
  -14.7500000      -5.64397058E-16
  -14.7399998      -1.28697837E-15
  -14.7299995      -1.85968328E-15
  -14.7200003      -1.90500717E-15
  -14.7100000      -1.06103085E-15
  -14.6999998       8.33482802E-16
  -14.6899996       3.53807271E-15
  -14.6800003       6.28080309E-15
  -14.6700001       7.80334185E-15
  -14.6599998       6.66088541E-15
  -14.6499996       1.78226616E-15
  -14.6400003      -6.82267124E-15
  -14.6300001      -1.74514859E-14
  -14.6199999      -2.65245267E-14
  -14.6099997      -2.91421855E-14
  -14.6000004      -2.05316331E-14
  -14.5900002       1.78902168E-15
  -14.5799999       3.57072126E-14
  -14.5699997       7.30061018E-14
  -14.5600004       9.97045328E-14
  -14.5500002       9.90280110E-14
  -14.5400000       5.70481908E-14
  -14.5299997      -3.00855464E-14
  -14.5200005      -1.49581329E-13
  -14.5100002      -2.69148175E-13
  -14.5000000      -3.40762574E-13
  -14.4899998      -3.12585217E-13
  -14.4799995      -1.47921849E-13
  -14.4700003       1.53218285E-13
  -14.4600000       5.37408713E-13
  -14.4499998       8.94673983E-13
  -14.4399996       1.07604453E-12
  -14.4300003       9.33789612E-13
  -14.4200001       3.78324677E-13
  -14.4099998      -5.63112924E-13
  -14.3999996      -1.70762850E-12
  -14.3900003      -2.72036321E-12
  -14.3800001      -3.17627370E-12
  -14.3699999      -2.67983335E-12
  -14.3599997      -1.02089355E-12
  -14.3500004       1.67661154E-12
  -14.3400002       4.86990786E-12
  -14.3299999       7.63092627E-12
  -14.3199997       8.82943631E-12
  -14.3100004       7.45462806E-12
  -14.3000002       3.01082770E-12
  -14.2900000      -4.12530166E-12
  -14.2799997      -1.25236713E-11
  -14.2700005      -1.98182842E-11
  -14.2600002      -2.31833181E-11
  -14.2500000      -2.01244056E-11
  -14.2399998      -9.42069426E-12
  -14.2299995       8.04963908E-12
  -14.2200003       2.89118694E-11
  -14.2100000       4.75898487E-11
  -14.1999998       5.74096742E-11
  -14.1899996       5.23975169E-11
  -14.1800003       2.93980153E-11
  -14.1700001      -1.00714914E-11
  -14.1599998      -5.88968735E-11
  -14.1499996      -1.04929856E-10
  -14.1400003      -1.33278152E-10
  -14.1300001      -1.30088315E-10
  -14.1199999      -8.70601577E-11
  -14.1099997      -5.50624086E-12
  -14.1000004       1.01398508E-10
  -14.0900002       2.09326848E-10
  -14.0799999       2.87016050E-10
  -14.0699997       3.03624625E-10
  -14.0600004       2.37839665E-10
  -14.0500002       8.64966085E-11
  -14.0400000      -1.29916466E-10
  -14.0299997      -3.67205627E-10
  -14.0200005      -5.64171598E-10
  -14.0100002      -6.55728694E-10
  -14.0000000      -5.90204163E-10
  -13.9899998      -3.46902201E-10
  -13.9799995       5.09192098E-11
  -13.9700003       5.32281719E-10
  -13.9600000       9.86993043E-10
  -13.9499998       1.28675393E-09
  -13.9399996       1.31580602E-09
  -13.9300003       1.00481945E-09
  -13.9200001       3.59535374E-10
  -13.9099998      -5.24637667E-10
  -13.8999996      -1.46888401E-09
  -13.8900003      -2.24068253E-09
  -13.8800001      -2.60378807E-09
  -13.8699999      -2.37929965E-09
  -13.8599997      -1.50386847E-09
  -13.8500004      -6.91425459E-11
  -13.8400002       1.67157310E-09
  -13.8299999       3.33748140E-09
  -13.8199997       4.49408999E-09
  -13.8100004       4.75477258E-09
  -13.8000002       3.88870181E-09
  -13.7900000       1.90814942E-09
  -13.7799997      -8.91372365E-10
  -13.7700005      -3.95699296E-09
  -13.7600002      -6.57524479E-09
  -13.7500000      -8.02671085E-09
  -13.7399998      -7.76805287E-09
  -13.7299995      -5.59840707E-09
  -13.7200003      -1.76406023E-09
  -13.7100000       3.03604852E-09
  -13.6999998       7.76118991E-09
  -13.6899996       1.12450831E-08
  -13.6800003       1.24765824E-08
  -13.6700001       1.08802132E-08
  -13.6599998       6.52195409E-09
  -13.6499996       1.74485607E-10
  -13.6400003      -6.79576972E-09
  -13.6300001      -1.27145521E-08
  -13.6199999      -1.60052736E-08
  -13.6099997      -1.56200315E-08
  -13.6000004      -1.13811502E-08
  -13.5900002      -4.12639212E-09
  -13.5799999       4.40985337E-09
  -13.5699997       1.19826602E-08
  -13.5600004       1.64179568E-08
  -13.5500002       1.62507323E-08
  -13.5400000       1.12440253E-08
  -13.5299997       2.61957056E-09
  -13.5200005      -7.11253767E-09
  -13.5100002      -1.47395109E-08
  -13.5000000      -1.72424315E-08
  -13.4899998      -1.27904149E-08
  -13.4799995      -1.55279667E-09
  -13.4700003       1.39473686E-08
  -13.4600000       2.91323268E-08
  -13.4499998       3.83611898E-08
  -13.4399996       3.64605057E-08
  -13.4300003       2.04542552E-08
  -13.4200001      -8.97119268E-09
  -13.4099998      -4.67490793E-08
  -13.3999996      -8.38288230E-08
  -13.3900003      -1.08815833E-07
  -13.3800001      -1.10662228E-07
  -13.3699999      -8.18859860E-08
  -13.3599997      -2.15441265E-08
  -13.3500004       6.29049239E-08
  -13.3400002       1.55590442E-07
  -13.3299999       2.34464281E-07
  -13.3199997       2.75659517E-07
  -13.3100004       2.59268376E-07
  -13.3000002       1.75327813E-07
  -13.2900000       2.85135364E-08
  -13.2799997      -1.59910115E-07
  -13.2700005      -3.53910536E-07
  -13.2600002      -5.08539244E-07
  -13.2500000      -5.79111202E-07
  -13.2399998      -5.32051104E-07
  -13.2299995      -3.55038082E-07
  -13.2200003      -6.38468975E-08
  -13.2100000       2.96347139E-07
  -13.1999998       6.56449856E-07
  -13.1899996       9.35520234E-07
  -13.1800003       1.05760807E-06
  -13.1700001       9.70097972E-07
  -13.1599998       6.59438513E-07
  -13.1499996       1.60145177E-07
  -13.1400003      -4.46031038E-07
  -13.1300001      -1.04197932E-06
  -13.1199999      -1.49690425E-06
  -13.1099997      -1.69406212E-06
  -13.1000004      -1.55888802E-06
  -13.0900002      -1.08101142E-06
  -13.0799999      -3.24277721E-07
  -13.0699997       5.79009964E-07
  -13.0600004       1.45015269E-06
  -13.0500002       2.09916789E-06
  -13.0400000       2.36625647E-06
  -13.0299997       2.16068383E-06
  -13.0200005       1.48777508E-06
  -13.0100002       4.56536100E-07
  -13.0000000      -7.35792526E-07
  -12.9899998      -1.84086878E-06
  -12.9799995      -2.61143805E-06
  -12.9700003      -2.85774922E-06
  -12.9600000      -2.49536220E-06
  -12.9499998      -1.57237764E-06
  -12.9399996      -2.67949133E-07
  -12.9300003       1.13995361E-06
  -12.9200001       2.33240667E-06
  -12.9099998       3.02136505E-06
  -12.8999996       3.01951991E-06
  -12.8900003       2.29143347E-06
  -12.8800001       9.72356361E-07
  -12.8699999      -6.52179835E-07
  -12.8599997      -2.20403581E-06
  -12.8500004      -3.29638056E-06
  -12.8400002      -3.62572746E-06
  -12.8299999      -3.05071944E-06
  -12.8199997      -1.63794493E-06
  -12.8100004       3.38445858E-07
  -12.8000002       2.44644571E-06
  -12.7900000       4.18682066E-06
  -12.7799997       5.10602013E-06
  -12.7700005       4.90625507E-06
  -12.7600002       3.52674215E-06
  -12.7500000       1.17529578E-06
  -12.7399998      -1.70015119E-06
  -12.7299995      -4.49713298E-06
  -12.7200003      -6.58497811E-06
  -12.7100000      -7.44525596E-06
  -12.6999998      -6.79514415E-06
  -12.6899996      -4.66489882E-06
  -12.6800003      -1.40971326E-06
  -12.6700001       2.34980644E-06
  -12.6599998       5.84854752E-06
  -12.6499996       8.33510421E-06
  -12.6400003       9.23408243E-06
  -12.6300001       8.27728127E-06
  -12.6199999       5.57421890E-06
  -12.6099997       1.60486786E-06
  -12.6000004      -2.86620957E-06
  -12.5900002      -6.93822994E-06
  -12.5799999      -9.75529565E-06
  -12.5699997      -1.06829648E-05
  -12.5600004      -9.44338535E-06
  -12.5500002      -6.18029662E-06
  -12.5400000      -1.43960426E-06
  -12.5299997       3.93126356E-06
  -12.5200005       8.94506229E-06
  -12.5100002       1.26645164E-05
  -12.5000000       1.43812422E-05
  -12.4899998       1.37470670E-05
  -12.4799995       1.08309123E-05
  -12.4700003       6.09006884E-06
  -12.4600000       2.62796163E-07
  -12.4499998      -5.79400512E-06
  -12.4399996      -1.12863709E-05
  -12.4300003      -1.56440165E-05
  -12.4200001      -1.86243742E-05
  -12.4099998      -2.03362106E-05
  -12.3999996      -2.11769038E-05
  -12.3900003      -2.16971221E-05
  -12.3800001      -2.24240539E-05
  -12.3699999      -2.36854466E-05
  -12.3599997      -2.54787828E-05
  -12.3500004      -2.74218310E-05
  -12.3400002      -2.88038191E-05
  -12.3299999      -2.87337953E-05
  -12.3199997      -2.63589936E-05
  -12.3100004      -2.11067545E-05
  -12.3000002      -1.28934234E-05
  -12.2900000      -2.24582232E-06
  -12.2799997       9.70394194E-06
  -12.2700005       2.13640196E-05
  -12.2600002       3.09510979E-05
  -12.2500000       3.68338042E-05
  -12.2399998       3.78818186E-05
  -12.2299995       3.37436286E-05
  -12.2200003       2.49850636E-05
  -12.2100000       1.30465314E-05
  -12.1999998       1.41065524E-08
  -12.1899996      -1.17590325E-05
  -12.1800003      -2.01085622E-05
  -12.1700001      -2.34983527E-05
  -12.1599998      -2.13475887E-05
  -12.1499996      -1.41702640E-05
  -12.1400003      -3.49008087E-06
  -12.1300001       8.45761042E-06
  -12.1199999       1.91772433E-05
  -12.1099997       2.64224745E-05
  -12.1000004       2.86534596E-05
  -12.0900002       2.53421422E-05
  -12.0799999       1.70595613E-05
  -12.0699997       5.32875993E-06
  -12.0600004      -7.71950363E-06
  -12.0500002      -1.98062571E-05
  -12.0400000      -2.89722302E-05
  -12.0299997      -3.39485741E-05
  -12.0200005      -3.43516695E-05
  -12.0100002      -3.06688307E-05
  -12.0000000      -2.40540830E-05
  -11.9899998      -1.59988995E-05
  -11.9799995      -7.96978566E-06
  -11.9700003      -1.10657265E-06
  -11.9600000       3.94823974E-06
  -11.9499998       7.06014862E-06
  -11.9399996       8.47207048E-06
  -11.9300003       8.59129705E-06
  -11.9200001       7.77376408E-06
  -11.9099998       6.18133708E-06
  -11.8999996       3.76006915E-06
  -11.8900003       3.44313236E-07
  -11.8800001      -4.15357999E-06
  -11.8699999      -9.54138613E-06
  -11.8599997      -1.52165412E-05
  -11.8500004      -2.01734583E-05
  -11.8400002      -2.31742852E-05
  -11.8299999      -2.30557253E-05
  -11.8199997      -1.90948649E-05
  -11.8100004      -1.13264241E-05
  -11.8000002      -7.03475052E-07
  -11.7900000       1.09736038E-05
  -11.7799997       2.13760777E-05
  -11.7700005       2.81594348E-05
  -11.7600002       2.95529208E-05
  -11.7500000       2.48739998E-05
  -11.7399998       1.48195350E-05
  -11.7299995       1.43118109E-06
  -11.7200003      -1.22893889E-05
  -11.7100000      -2.30480018E-05
  -11.6999998      -2.80596287E-05
  -11.6899996      -2.57876054E-05
  -11.6800003      -1.64247103E-05
  -11.6700001      -1.97296231E-06
  -11.6599998       1.41271094E-05
  -11.6499996       2.77543495E-05
  -11.6400003       3.50855771E-05
  -11.6300001       3.35625919E-05
  -11.6199999       2.26057418E-05
  -11.6099997       3.88370836E-06
  -11.6000004      -1.89483635E-05
  -11.5900002      -4.10018984E-05
  -11.5799999      -5.72357530E-05
  -11.5699997      -6.36159675E-05
  -11.5600004      -5.80797059E-05
  -11.5500002      -4.10704997E-05
  -11.5400000      -1.55115977E-05
  -11.5299997       1.37823445E-05
  -11.5200005       4.11214351E-05
  -11.5100002       6.11501600E-05
  -11.5000000       6.99731245E-05
  -11.4899998       6.59444268E-05
  -11.4799995       4.99528614E-05
  -11.4700003       2.51574947E-05
  -11.4600000      -3.74358910E-06
  -11.4499998      -3.15261677E-05
  -11.4399996      -5.34963692E-05
  -11.4300003      -6.63597821E-05
  -11.4200001      -6.87333741E-05
  -11.4099998      -6.12261792E-05
  -11.3999996      -4.61188174E-05
  -11.3900003      -2.67572341E-05
  -11.3800001      -6.82386917E-06
  -11.3699999       1.03481325E-05
  -11.3599997       2.22893905E-05
  -11.3500004       2.76707160E-05
  -11.3400002       2.63403090E-05
  -11.3299999       1.91718718E-05
  -11.3199997       7.79906441E-06
  -11.3100004      -5.69039230E-06
  -11.3000002      -1.90499250E-05
  -11.2900000      -3.01372293E-05
  -11.2799997      -3.71469177E-05
  -11.2700005      -3.88217522E-05
  -11.2600002      -3.46415654E-05
  -11.2500000      -2.49677560E-05
  -11.2399998      -1.11004383E-05
  -11.2299995       4.80246399E-06
  -11.2200003       1.99809401E-05
  -11.2100000       3.15035031E-05
  -11.1999998       3.68213077E-05
  -11.1899996       3.43432657E-05
  -11.1800003       2.38967150E-05
  -11.1700001       6.93835818E-06
  -11.1599998      -1.35799564E-05
  -11.1499996      -3.37115671E-05
  -11.1400003      -4.93092957E-05
  -11.1300001      -5.69543481E-05
  -11.1199999      -5.48042954E-05
  -11.1099997      -4.31395529E-05
  -11.1000004      -2.44410421E-05
  -11.0900002      -2.93536527E-06
  -11.0799999       1.63249424E-05
  -11.0699997       2.86524646E-05
  -11.0600004       3.09068855E-05
  -11.0500002       2.23666721E-05
  -11.0400000       5.04543777E-06
  -11.0299997      -1.66675436E-05
  -11.0200005      -3.69978843E-05
  -11.0100002      -5.01971736E-05
  -11.0000000      -5.20412214E-05
  -10.9899998      -4.10369394E-05
  -10.9799995      -1.90089249E-05
  -10.9700003       9.12606447E-06
  -10.9600000       3.63936524E-05
  -10.9499998       5.53964237E-05
  -10.9399996       6.01746724E-05
  -10.9300003       4.78394359E-05
  -10.9200001       1.95535267E-05
  -10.9099998      -1.94265103E-05
  -10.8999996      -6.07189759E-05
  -10.8900003      -9.46230284E-05
  -10.8800001      -1.12374699E-04
  -10.8699999      -1.08334396E-04
  -10.8599997      -8.15752064E-05
  -10.8500004      -3.64550542E-05
  -10.8400002       1.80254974E-05
  -10.8299999       7.00025485E-05
  -10.8199997       1.07317646E-04
  -10.8100004       1.20325407E-04
  -10.8000002       1.04303617E-04
  -10.7900000       6.08855225E-05
  -10.7799997      -1.87456430E-06
  -10.7700005      -7.09018714E-05
  -10.7600002      -1.30739470E-04
  -10.7500000      -1.66901504E-04
  -10.7399998      -1.69225677E-04
  -10.7299995      -1.34466114E-04
  -10.7200003      -6.74938346E-05
  -10.7100000       1.92513726E-05
  -10.6999998       1.08039734E-04
  -10.6899996       1.79449853E-04
  -10.6800003       2.16552056E-04
  -10.6700001       2.08767626E-04
  -10.6599998       1.54518275E-04
  -10.6499996       6.20096980E-05
  -10.6400003      -5.21138645E-05
  -10.6300001      -1.66032551E-04
  -10.6199999      -2.57271866E-04
  -10.6099997      -3.07508686E-04
  -10.6000004      -3.06591130E-04
  -10.5900002      -2.54849321E-04
  -10.5799999      -1.63144694E-04
  -10.5699997      -5.06127944E-05
  -10.5600004       5.94166340E-05
  -10.5500002       1.44418271E-04
  -10.5400000       1.87471553E-04
  -10.5299997       1.80795425E-04
  -10.5200005       1.27247462E-04
  -10.5100002       3.94907584E-05
  -10.5000000      -6.29354981E-05
  -10.4899998      -1.57940667E-04
  -10.4799995      -2.25612122E-04
  -10.4700003      -2.52306374E-04
  -10.4600000      -2.33244122E-04
  -10.4499998      -1.73121225E-04
  -10.4399996      -8.47040064E-05
  -10.4300003       1.41848241E-05
  -10.4200001       1.04562736E-04
  -10.4099998       1.70197032E-04
  -10.3999996       2.00709997E-04
  -10.3900003       1.93282729E-04
  -10.3800001       1.52690307E-04
  -10.3699999       8.97634163E-05
  -10.3599997       1.86932539E-05
  -10.3500004      -4.61857562E-05
  -10.3400002      -9.34208292E-05
  -10.3299999      -1.16629373E-04
  -10.3199997      -1.15408722E-04
  -10.3100004      -9.48170054E-05
  -10.3000002      -6.35992401E-05
  -10.2900000      -3.16205405E-05
  -10.2799997      -7.15630813E-06
  -10.2700005       5.27213524E-06
  -10.2600002       5.95578967E-06
  -10.2500000      -3.35968508E-07
  -10.2399998      -6.00610656E-06
  -10.2299995      -3.16247929E-06
  -10.2200003       1.36634535E-05
  -10.2100000       4.53900248E-05
  -10.1999998       8.74984034E-05
  -10.1899996       1.30711167E-04
  -10.1800003       1.63130928E-04
  -10.1700001       1.73311855E-04
  -10.1599998       1.53447807E-04
  -10.1499996       1.01797021E-04
  -10.1400003       2.36495871E-05
  -10.1300001      -6.94653936E-05
  -10.1199999      -1.62154363E-04
  -10.1099997      -2.38505629E-04
  -10.1000004      -2.85544869E-04
  -10.0900002      -2.95935490E-04
  -10.0799999      -2.69302109E-04
  -10.0699997      -2.11960098E-04
  -10.0600004      -1.35267343E-04
  -10.0500002      -5.31440928E-05
  -10.0400000       2.05638353E-05
  -10.0299997       7.42897391E-05
  -10.0200005       1.00179204E-04
  -10.0100002       9.47129884E-05
  -10.0000000       5.87150171E-05
  -9.98999977      -2.97408656E-06
  -9.97999954      -8.19556881E-05
  -9.97000027      -1.66844911E-04
  -9.96000004      -2.44117837E-04
  -9.94999981      -2.99468404E-04
  -9.93999958      -3.19807383E-04
  -9.93000031      -2.95775098E-04
  -9.92000008      -2.24311007E-04
  -9.90999985      -1.10567911E-04
  -9.89999962       3.15907673E-05
  -9.89000034       1.81042429E-04
  -9.88000011       3.12857563E-04
  -9.86999989       4.03201993E-04
  -9.85999966       4.34607704E-04
  -9.85000038       4.00263583E-04
  -9.84000015       3.06097674E-04
  -9.82999992       1.69931358E-04
  -9.81999969       1.77559923E-05
  -9.81000042      -1.22013269E-04
  -9.80000019      -2.24860531E-04
  -9.78999996      -2.75440601E-04
  -9.77999973      -2.70459132E-04
  -9.77000046      -2.18502857E-04
  -9.76000023      -1.37022958E-04
  -9.75000000      -4.74527224E-05
  -9.73999977       3.01048331E-05
  -9.72999954       8.11784266E-05
  -9.72000027       9.92038113E-05
  -9.71000004       8.54555838E-05
  -9.69999981       4.70470550E-05
  -9.68999958      -6.06750064E-06
  -9.68000031      -6.39918580E-05
  -9.67000008      -1.18814343E-04
  -9.65999985      -1.65182762E-04
  -9.64999962      -1.99716203E-04
  -9.64000034      -2.19870868E-04
  -9.63000011      -2.23017050E-04
  -9.61999989      -2.06302866E-04
  -9.60999966      -1.67465987E-04
  -9.60000038      -1.06281121E-04
  -9.59000015      -2.59894859E-05
  -9.57999992       6.60167861E-05
  -9.56999969       1.58754716E-04
  -9.56000042       2.39510104E-04
  -9.55000019       2.96555401E-04
  -9.53999996       3.21923522E-04
  -9.52999973       3.13346623E-04
  -9.52000046       2.74693448E-04
  -9.51000023       2.14706000E-04
  -9.50000000       1.44384758E-04
  -9.48999977       7.38203671E-05
  -9.47999954       9.46050113E-06
  -9.47000027      -4.73263281E-05
  -9.46000004      -9.99336771E-05
  -9.44999981      -1.54542286E-04
  -9.43999958      -2.17104462E-04
  -9.43000031      -2.90235446E-04
  -9.42000008      -3.71001690E-04
  -9.40999985      -4.50343563E-04
  -9.39999962      -5.14405605E-04
  -9.39000034      -5.47508826E-04
  -9.38000011      -5.36040461E-04
  -9.36999989      -4.72274784E-04
  -9.35999966      -3.57138371E-04
  -9.35000038      -2.01177463E-04
  -9.34000015      -2.34097952E-05
  -9.32999992       1.51764092E-04
  -9.31999969       2.98968516E-04
  -9.31000042       3.96653399E-04
  -9.30000019       4.31263325E-04
  -9.28999996       3.99875251E-04
  -9.27999973       3.10725620E-04
  -9.27000046       1.81499505E-04
  -9.26000023       3.57397294E-05
  -9.25000000      -1.01849218E-04
  -9.23999977      -2.10179292E-04
  -9.22999954      -2.75599596E-04
  -9.22000027      -2.93949503E-04
  -9.21000004      -2.70461314E-04
  -9.19999981      -2.17653185E-04
  -9.18999958      -1.51836124E-04
  -9.18000031      -8.91728414E-05
  -9.17000008      -4.22795456E-05
  -9.15999985      -1.81452378E-05
  -9.14999962      -1.77176589E-05
  -9.14000034      -3.70074631E-05
  -9.13000011      -6.91450405E-05
  -9.11999989      -1.06617139E-04
  -9.10999966      -1.42969715E-04
  -9.10000038      -1.73556939E-04
  -9.09000015      -1.95328466E-04
  -9.07999992      -2.06025405E-04
  -9.06999969      -2.03361196E-04
  -9.06000042      -1.84724428E-04
  -9.05000019      -1.47678729E-04
  -9.03999996      -9.11550742E-05
  -9.02999973      -1.68859569E-05
  -9.02000046       6.95430062E-05
  -9.01000023       1.58577532E-04
  -9.00000000       2.37774788E-04
  -8.98999977       2.93929304E-04
  -8.97999954       3.15721758E-04
  -8.97000027       2.96171289E-04
  -8.96000004       2.34221283E-04
  -8.94999981       1.35061608E-04
  -8.93999958       9.17971738E-06
  -8.93000031      -1.29505803E-04
  -8.92000008      -2.65874929E-04
  -8.90999985      -3.85658757E-04
  -8.89999962      -4.76972840E-04
  -8.89000034      -5.31268073E-04
  -8.88000011      -5.43858157E-04
  -8.86999989      -5.14252752E-04
  -8.85999966      -4.46420599E-04
  -8.85000038      -3.48889676E-04
  -8.84000015      -2.34394058E-04
  -8.82999992      -1.18722222E-04
  -8.81999969      -1.85847966E-05
  -8.81000042       5.13305531E-05
  -8.80000019       8.15383173E-05
  -8.78999996       7.02934849E-05
  -8.77999973       2.45924439E-05
  -8.77000046      -4.09429558E-05
  -8.76000023      -1.07285334E-04
  -8.75000000      -1.55630667E-04
  -8.73999977      -1.72211381E-04
  -8.72999954      -1.51902088E-04
  -8.72000027      -9.95150695E-05
  -8.71000004      -2.83595054E-05
  -8.69999981       4.35154398E-05
  -8.68999958       9.82455094E-05
  -8.68000031       1.22745259E-04
  -8.67000008       1.11626250E-04
  -8.65999985       6.77004573E-05
  -8.64999962       1.66603357E-07
  -8.64000034      -7.86617311E-05
  -8.63000011      -1.56817405E-04
  -8.61999989      -2.25147087E-04
  -8.60999966      -2.78130261E-04
  -8.60000038      -3.13145167E-04
  -8.59000015      -3.28939495E-04
  -8.57999992      -3.24360240E-04
  -8.56999969      -2.98206753E-04
  -8.56000042      -2.50463374E-04
  -8.55000019      -1.84400633E-04
  -8.53999996      -1.08438413E-04
  -8.52999973      -3.65214401E-05
  -8.52000046       1.38239475E-05
  -8.51000023       2.57187930E-05
  -8.50000000      -1.15829753E-05
  -8.48999977      -9.77201853E-05
  -8.47999954      -2.18681991E-04
  -8.47000027      -3.48062429E-04
  -8.46000004      -4.52347478E-04
  -8.44999981      -4.99128073E-04
  -8.43999958      -4.66041616E-04
  -8.43000031      -3.47808469E-04
  -8.42000008      -1.59138581E-04
  -8.40999985       6.75678384E-05
  -8.39999962       2.89263786E-04
  -8.39000034       4.62163152E-04
  -8.38000011       5.51794597E-04
  -8.36999989       5.40495501E-04
  -8.35999966       4.30480461E-04
  -8.35000038       2.41990521E-04
  -8.34000015       7.46439991E-06
  -8.32999992      -2.36297245E-04
  -8.31999969      -4.55679576E-04
  -8.31000042      -6.25648419E-04
  -8.30000019      -7.32088112E-04
  -8.28999996      -7.71285908E-04
  -8.27999973      -7.47607497E-04
  -8.27000046      -6.70721405E-04
  -8.26000023      -5.53459278E-04
  -8.25000000      -4.10733948E-04
  -8.23999977      -2.59197637E-04
  -8.22999954      -1.16849202E-04
  -8.22000027      -1.78524851E-06
  -8.21000004       7.02600737E-05
  -8.19999981       8.92328244E-05
  -8.18999958       5.39357061E-05
  -8.18000031      -2.62201411E-05
  -8.17000008      -1.31932407E-04
  -8.15999985      -2.37525644E-04
  -8.14999962      -3.16658610E-04
  -8.14000034      -3.48781818E-04
  -8.13000011      -3.24510038E-04
  -8.11999989      -2.48279684E-04
  -8.10999966      -1.37418916E-04
  -8.10000038      -1.78210757E-05
  -8.09000015       8.25733077E-05
  -8.07999992       1.40653196E-04
  -8.06999969       1.43493497E-04
  -8.06000042       9.08439179E-05
  -8.05000019      -5.69035910E-06
  -8.03999996      -1.26248575E-04
  -8.02999973      -2.47851887E-04
  -8.02000046      -3.49576643E-04
  -8.01000023      -4.16485389E-04
  -8.00000000      -4.41609940E-04
  -7.98999977      -4.25960141E-04
  -7.98000002      -3.77072167E-04
  -7.96999979      -3.06852395E-04
  -7.96000004      -2.29392521E-04
  -7.94999981      -1.59130359E-04
  -7.94000006      -1.09383036E-04
  -7.92999983      -9.10582894E-05
  -7.92000008      -1.11337969E-04
  -7.90999985      -1.72313914E-04
  -7.90000010      -2.69826705E-04
  -7.88999987      -3.92961228E-04
  -7.88000011      -5.24667848E-04
  -7.86999989      -6.43763284E-04
  -7.86000013      -7.28182087E-04
  -7.84999990      -7.58931506E-04
  -7.84000015      -7.23906211E-04
  -7.82999992      -6.20660139E-04
  -7.82000017      -4.57442598E-04
  -7.80999994      -2.52218859E-04
  -7.80000019      -2.98808554E-05
  -7.78999996       1.81737996E-04
  -7.78000021       3.56208475E-04
  -7.76999998       4.72385611E-04
  -7.76000023       5.17197419E-04
  -7.75000000       4.87016252E-04
  -7.73999977       3.87586129E-04
  -7.73000002       2.32699065E-04
  -7.71999979       4.19320677E-05
  -7.71000004      -1.62208482E-04
  -7.69999981      -3.57387296E-04
  -7.69000006      -5.24432398E-04
  -7.67999983      -6.49848138E-04
  -7.67000008      -7.27471721E-04
  -7.65999985      -7.58948270E-04
  -7.65000010      -7.52844673E-04
  -7.63999987      -7.22466270E-04
  -7.63000011      -6.82734710E-04
  -7.61999989      -6.46748638E-04
  -7.61000013      -6.22791704E-04
  -7.59999990      -6.12502918E-04
  -7.59000015      -6.10680727E-04
  -7.57999992      -6.06804038E-04
  -7.57000017      -5.87926130E-04
  -7.55999994      -5.42249763E-04
  -7.55000019      -4.62527008E-04
  -7.53999996      -3.48480069E-04
  -7.53000021      -2.07689605E-04
  -7.51999998      -5.47684576E-05
  -7.51000023       9.09731170E-05
  -7.50000000       2.08858488E-04
  -7.48999977       2.80488777E-04
  -7.48000002       2.93002871E-04
  -7.46999979       2.41375048E-04
  -7.46000004       1.29376975E-04
  -7.44999981      -3.09237039E-05
  -7.44000006      -2.21013135E-04