  -16.0000000       0.00000000    
  -15.9899998       0.00000000    
  -15.9799995       0.00000000    
  -15.9700003       0.00000000    
  -15.9600000       0.00000000    
  -15.9499998       0.00000000    
  -15.9399996       0.00000000    
  -15.9300003       0.00000000    
  -15.9200001       0.00000000    
  -15.9099998       0.00000000    
  -15.8999996       0.00000000    
  -15.8900003       1.32011984E-39
  -15.8800001       4.08208752E-38
  -15.8699999       5.41911084E-37
  -15.8599997       3.73082026E-36
  -15.8500004       9.12218055E-36
  -15.8400002      -8.37831475E-35
  -15.8299999      -1.16987117E-33
  -15.8199997      -8.16994655E-33
  -15.8100004      -4.10150403E-32
  -15.8000002      -1.62206172E-31
  -15.7900000      -5.22820767E-31
  -15.7799997      -1.38073670E-30
  -15.7700005      -2.90680813E-30
  -15.7600002      -4.35091799E-30
  -15.7500000      -1.95299227E-30
  -15.7399998       1.45862200E-29
  -15.7299995       6.51875286E-29
  -15.7200003       1.75520360E-28
  -15.7100000       3.53527264E-28
  -15.6999998       5.31925239E-28
  -15.6899996       4.77477274E-28
  -15.6800003      -2.84570570E-28
  -15.6700001      -2.39992576E-27
  -15.6599998      -6.25801546E-27
  -15.6499996      -1.10251316E-26
  -15.6400003      -1.32487124E-26
  -15.6300001      -5.82266439E-27
  -15.6199999       2.09484972E-26
  -15.6099997       7.38168087E-26
  -15.6000004       1.45025138E-25
  -15.5900002       1.96667745E-25
  -15.5799999       1.49584495E-25
  -15.5699997      -1.06777402E-25
  -15.5600004      -6.63487242E-25
  -15.5500002      -1.48890722E-24
  -15.5400000      -2.28987487E-24
  -15.5299997      -2.40078832E-24
  -15.5200005      -8.14213859E-25
  -15.5100002       3.51136425E-24
  -15.5000000       1.09761680E-23
  -15.4899998       2.03447338E-23
  -15.4799995       2.77062118E-23
  -15.4700003       2.59209848E-23
  -15.4600000       5.29246663E-24
  -15.4499998      -4.37216596E-23
  -15.4399996      -1.25064872E-22
  -15.4300003      -2.28627264E-22
  -15.4200001      -3.19494776E-22
  -15.4099998      -3.27745857E-22
  -15.3999996      -1.45592295E-22
  -15.3900003       3.55548647E-22
  -15.3800001       1.27004213E-21
  -15.3699999       2.54811958E-21
  -15.3599997       3.83188066E-21
  -15.3500004       4.28332620E-21
  -15.3400002       2.52506697E-21
  -15.3299999      -3.10380481E-21
  -15.3199997      -1.37435413E-20
  -15.3100004      -2.85419931E-20
  -15.3000002      -4.27493403E-20
  -15.2900000      -4.62282584E-20
  -15.2799997      -2.39516173E-20
  -15.2700005       3.95220564E-20
  -15.2600002       1.50142613E-19
  -15.2500000       2.89743920E-19
  -15.2399998       4.01430596E-19
  -15.2299995       3.84744063E-19
  -15.2200003       1.14045239E-19
  -15.2100000      -5.07982316E-19
  -15.1999998      -1.46066096E-18
  -15.1899996      -2.50052708E-18
  -15.1800003      -3.09224453E-18
  -15.1700001      -2.45176023E-18
  -15.1599998       2.19909895E-19
  -15.1499996       5.27838590E-18
  -15.1400003       1.20237510E-17
  -15.1300001       1.81585170E-17
  -15.1199999       1.96922306E-17
  -15.1099997       1.17301763E-17
  -15.1000004      -9.55753514E-18
  -15.0900002      -4.39163124E-17
  -15.0799999      -8.37618838E-17
  -15.0699997      -1.12318779E-16
  -15.0600004      -1.05256205E-16
  -15.0500002      -3.76682268E-17
  -15.0400000       1.03226674E-16
  -15.0299997       3.02063887E-16
  -15.0200005       5.01922290E-16
  -15.0100002       6.02431961E-16
  -15.0000000       4.78752339E-16
  -14.9899998       2.66917750E-17
  -14.9799995      -7.70387053E-16
  -14.9700003      -1.77125834E-15
  -14.9600000      -2.63576219E-15
  -14.9499998      -2.85310152E-15
  -14.9399996      -1.87218337E-15
  -14.9300003       6.61674875E-16
  -14.9200001       4.60803669E-15
  -14.9099998       9.07312979E-15
  -14.8999996       1.23400503E-14
  -14.8900003       1.21385175E-14
  -14.8800001       6.33923566E-15
  -14.8699999      -5.98775129E-15
  -14.8599997      -2.34155177E-14
  -14.8500004      -4.13705562E-14
  -14.8400002      -5.22839964E-14
  -14.8299999      -4.71638347E-14
  -14.8199997      -1.87064889E-14
  -14.8100004       3.45504638E-14
  -14.8000002       1.04268279E-13
  -14.7900000       1.70366935E-13
  -14.7799997       2.03045968E-13
  -14.7700005       1.70039872E-13
  -14.7600002       4.88149221E-14
  -14.7500000      -1.58837922E-13
  -14.7399998      -4.14683235E-13
  -14.7299995      -6.40708298E-13
  -14.7200003      -7.30410741E-13
  -14.7100000      -5.77398155E-13
  -14.6999998      -1.18206456E-13
  -14.6899996       6.21048243E-13
  -14.6800003       1.49109089E-12
  -14.6700001       2.21861548E-12
  -14.6599998       2.45384594E-12
  -14.6499996       1.87027976E-12
  -14.6400003       3.01497190E-13
  -14.6300001      -2.12137903E-12
  -14.6199999      -4.88438153E-12
  -14.6099997      -7.11329086E-12
  -14.6000004      -7.74248721E-12
  -14.5900002      -5.82894540E-12
  -14.5799999      -9.54751794E-13
  -14.5699997       6.39533261E-12
  -14.5600004       1.46318912E-11
  -14.5500002       2.11805955E-11
  -14.5400000       2.30091033E-11
  -14.5299997       1.75305326E-11
  -14.5200005       3.70346982E-12
  -14.5100002      -1.69917466E-11
  -14.5000000      -4.00969813E-11
  -14.4899998      -5.85979945E-11
  -14.4799995      -6.43997355E-11
  -14.4700003      -5.07213924E-11
  -14.4600000      -1.49057537E-11
  -14.4499998       3.91852835E-11
  -14.4399996       1.00159936E-10
  -14.4300003       1.50293777E-10
  -14.4200001       1.69275816E-10
  -14.4099998       1.40085735E-10
  -14.3999996       5.57243904E-11
  -14.3900003      -7.51785648E-11
  -14.3800001      -2.26103761E-10
  -14.3699999      -3.55525526E-10
  -14.3599997      -4.15580070E-10
  -14.3500004      -3.65442732E-10
  -14.3400002      -1.86475571E-10
  -14.3299999       1.05225877E-10
  -14.3199997       4.53665716E-10
  -14.3100004       7.68902664E-10
  -14.3000002       9.45338252E-10
  -14.2900000       8.89948060E-10
  -14.2799997       5.54277735E-10
  -14.2700005      -3.87743102E-11
  -14.2600002      -7.83034582E-10
  -14.2500000      -1.49943735E-09
  -14.2399998      -1.97108685E-09
  -14.2299995      -1.99834682E-09
  -14.2200003      -1.46207246E-09
  -14.2100000      -3.77868875E-10
  -14.1999998       1.07690812E-09
  -14.1899996       2.57754529E-09
  -14.1800003       3.71257403E-09
  -14.1700001       4.08266709E-09
  -14.1599998       3.41694739E-09
  -14.1499996       1.67647951E-09
  -14.1400003      -8.87491858E-10
  -14.1300001      -3.74606657E-09
  -14.1199999      -6.18578433E-09
  -14.1099997      -7.47071738E-09
  -14.1000004      -7.04018932E-09
  -14.0900002      -4.69287054E-09
  -14.0799999      -7.03598735E-10
  -14.0699997       4.17050616E-09
  -14.0600004       8.81394158E-09
  -14.0500002       1.19928139E-08
  -14.0400000       1.26628326E-08
  -14.0299997       1.02716129E-08
  -14.0200005       4.97304464E-09
  -14.0100002      -2.31556663E-09
  -14.0000000      -1.00491455E-08
  -13.9899998      -1.63713079E-08
  -13.9799995      -1.95498231E-08
  -13.9700003      -1.84304945E-08
  -13.9600000      -1.27930235E-08
  -13.9499998      -3.50612428E-09
  -13.9399996       7.57841079E-09
  -13.9300003       1.79905424E-08
  -13.9200001       2.51960444E-08
  -13.9099998       2.72150569E-08
  -13.8999996       2.31534187E-08
  -13.8900003       1.35054625E-08
  -13.8800001       1.34718306E-10
  -13.8699999      -1.40856766E-08
  -13.8599997      -2.59058641E-08
  -13.8500004      -3.24648823E-08
  -13.8400002      -3.20059570E-08
  -13.8299999      -2.43599469E-08
  -13.8199997      -1.10630403E-08
  -13.8100004       4.94094943E-09
  -13.8000002       1.99618615E-08
  -13.7900000       3.04418215E-08
  -13.7799997       3.38421486E-08
  -13.7700005       2.93154176E-08
  -13.7600002       1.79809181E-08
  -13.7500000       2.71108624E-09
  -13.7399998      -1.25448381E-08
  -13.7299995      -2.37539410E-08
  -13.7200003      -2.78721934E-08
  -13.7100000      -2.37211335E-08
  -13.6999998      -1.24226114E-08
  -13.6899996       2.75971712E-09
  -13.6800003       1.71813230E-08
  -13.6700001       2.60311310E-08
  -13.6599998       2.57148773E-08
  -13.6499996       1.50477000E-08
  -13.6400003      -4.09326706E-09
  -13.6300001      -2.69014055E-08
  -13.6199999      -4.66215688E-08
  -13.6099997      -5.62213529E-08
  -13.6000004      -5.03862232E-08
  -13.5900002      -2.73345773E-08
  -13.5799999       1.00724638E-08
  -13.5699997       5.43346168E-08
  -13.5600004       9.45940641E-08
  -13.5500002       1.19038283E-07
  -13.5400000       1.17942221E-07
  -13.5299997       8.66266774E-08
  -13.5200005       2.75290688E-08
  -13.5100002      -4.92947905E-08
  -13.5000000      -1.27597161E-07
  -13.4899998      -1.88191862E-07
  -13.4799995      -2.13437502E-07
  -13.4700003      -1.91950264E-07
  -13.4600000      -1.22355715E-07
  -13.4499998      -1.49856501E-08
  -13.4399996       1.09177826E-07
  -13.4300003       2.22384173E-07
  -13.4200001       2.96177660E-07
  -13.4099998       3.08364037E-07
  -13.3999996       2.49226588E-07
  -13.3900003       1.25343291E-07
  -13.3800001      -4.02161042E-08
  -13.3699999      -2.11754553E-07
  -13.3599997      -3.48343661E-07
  -13.3500004      -4.13286784E-07
  -13.3400002      -3.83526015E-07
  -13.3299999      -2.56675548E-07
  -13.3199997      -5.37254436E-08
  -13.3100004       1.83664682E-07
  -13.3000002       4.01144234E-07
  -13.2900000       5.43493115E-07
  -13.2799997       5.67799134E-07
  -13.2700005       4.54959320E-07
  -13.2600002       2.16607404E-07
  -13.2500000      -1.04589176E-07
  -13.2399998      -4.41922452E-07
  -13.2299995      -7.17920159E-07
  -13.2200003      -8.61336162E-07
  -13.2100000      -8.24208598E-07
  -13.1999998      -5.95028439E-07
  -13.1899996      -2.04658264E-07
  -13.1800003       2.76940568E-07
  -13.1700001       7.53132440E-07
  -13.1599998       1.12003295E-06
  -13.1499996       1.28901854E-06
  -13.1400003       1.20742163E-06
  -13.1300001       8.72599799E-07
  -13.1199999       3.35770977E-07
  -13.1099997      -3.05876398E-07
  -13.1000004      -9.27694657E-07
  -13.0900002      -1.40311477E-06
  -13.0799999      -1.63081188E-06
  -13.0699997      -1.55745022E-06
  -13.0600004      -1.19068818E-06
  -13.0500002      -5.99119630E-07
  -13.0400000       1.01296862E-07
  -13.0299997       7.71661178E-07
  -13.0200005       1.28013960E-06
  -13.0100002       1.53081498E-06
  -13.0000000       1.48470076E-06
  -12.9899998       1.16789852E-06
  -12.9799995       6.64782533E-07
  -12.9700003       9.75964483E-08
  -12.9600000      -4.02876623E-07
  -12.9499998      -7.28665327E-07
  -12.9399996      -8.20436583E-07
  -12.9300003      -6.81433562E-07
  -12.9200001      -3.75914055E-07
  -12.9099998      -1.21913759E-08
  -12.8999996       2.85825195E-07
  -12.8900003       4.11750619E-07
  -12.8800001       3.06310227E-07
  -12.8699999      -2.41934135E-08
  -12.8599997      -5.05626758E-07
  -12.8500004      -1.01125875E-06
  -12.8400002      -1.39148926E-06
  -12.8299999      -1.51138488E-06
  -12.8199997      -1.28711258E-06
  -12.8100004      -7.12206258E-07
  -12.8000002       1.33386735E-07
  -12.7900000       1.09473990E-06
  -12.7799997       1.97239319E-06
  -12.7700005       2.56573526E-06
  -12.7600002       2.71985618E-06
  -12.7500000       2.36505343E-06
  -12.7399998       1.53930080E-06
  -12.7299995       3.87389150E-07
  -12.7200003      -8.64511208E-07
  -12.7100000      -1.95452776E-06
  -12.6999998      -2.64178584E-06
  -12.6899996      -2.76187279E-06
  -12.6800003      -2.26838802E-06
  -12.6700001      -1.25035888E-06
  -12.6599998       7.98411932E-08
  -12.6499996       1.42704107E-06
  -12.6400003       2.47479511E-06
  -12.6300001       2.95524637E-06
  -12.6199999       2.71209410E-06
  -12.6099997       1.74214756E-06
  -12.6000004       2.04937166E-07
  -12.5900002      -1.60355103E-06
  -12.5799999      -3.30912235E-06
  -12.5699997      -4.53831126E-06
  -12.5600004      -5.00144006E-06
  -12.5500002      -4.56136422E-06
  -12.5400000      -3.27161774E-06
  -12.5299997      -1.37355494E-06
  -12.5200005       7.49341893E-07
  -12.5100002       2.65243966E-06
  -12.5000000       3.93032497E-06
  -12.4899998       4.31543049E-06
  -12.4799995       3.75282889E-06
  -12.4700003       2.43291811E-06
  -12.4600000       7.71723421E-07
  -12.4499998      -6.60845103E-07
  -12.4399996      -1.25327335E-06
  -12.4300003      -4.84454347E-07
  -12.4200001       1.95077723E-06
  -12.4099998       6.04900424E-06
  -12.3999996       1.14596860E-05
  -12.3900003       1.75120531E-05
  -12.3800001       2.33062801E-05
  -12.3699999       2.78549705E-05
  -12.3599997       3.02505923E-05
  -12.3500004       2.98285722E-05
  -12.3400002       2.62956128E-05
  -12.3299999       1.97986938E-05
  -12.3199997       1.09207240E-05
  -12.3100004       6.02378179E-07
  -12.3000002      -9.99683652E-06
  -12.2900000      -1.96741603E-05
  -12.2799997      -2.73651222E-05
  -12.2700005      -3.22997112E-05
  -12.2600002      -3.41069754E-05
  -12.2500000      -3.28516762E-05
  -12.2399998      -2.89991331E-05
  -12.2299995      -2.33173232E-05
  -12.2200003      -1.67358594E-05
  -12.2100000      -1.01883206E-05
  -12.1999998      -4.46592048E-06
  -12.1899996      -1.07134461E-07
  -12.1800003       2.65977360E-06
  -12.1700001       3.91471258E-06
  -12.1599998       3.98858037E-06
  -12.1499996       3.36498442E-06
  -12.1400003       2.56174667E-06
  -12.1300001       2.01584317E-06
  -12.1199999       1.99390956E-06
  -12.1099997       2.54490919E-06
  -12.1000004       3.50311075E-06
  -12.0900002       4.53955772E-06
  -12.0799999       5.25061023E-06
  -12.0699997       5.26463282E-06
  -12.0600004       4.34383719E-06
  -12.0500002       2.45877777E-06
  -12.0400000      -1.82058116E-07
  -12.0299997      -3.15626812E-06
  -12.0200005      -5.90290165E-06
  -12.0100002      -7.83562973E-06
  -12.0000000      -8.47130377E-06
  -11.9899998      -7.54675966E-06
  -11.9799995      -5.09752272E-06
  -11.9700003      -1.47866115E-06
  -11.9600000       2.68077861E-06
  -11.9499998       6.58463568E-06
  -11.9399996       9.41929375E-06
  -11.9300003       1.05175886E-05
  -11.9200001       9.50385038E-06
  -11.9099998       6.38931760E-06
  -11.8999996       1.59588888E-06
  -11.8900003      -4.09998756E-06
  -11.8800001      -9.69579469E-06
  -11.8699999      -1.41415958E-05
  -11.8599997      -1.65361471E-05
  -11.8500004      -1.63035238E-05
  -11.8400002      -1.33163039E-05
  -11.8299999      -7.94082825E-06
  -11.8199997      -9.94170250E-07
  -11.8100004       6.38146366E-06
  -11.8000002       1.29062237E-05
  -11.7900000       1.73801454E-05
  -11.7799997       1.88933318E-05
  -11.7700005       1.69924588E-05
  -11.7600002       1.17744594E-05
  -11.7500000       3.89034221E-06
  -11.7399998      -5.54303779E-06
  -11.7299995      -1.51101440E-05
  -11.7200003      -2.33166556E-05
  -11.7100000      -2.88268257E-05
  -11.6999998      -3.06798211E-05
  -11.6899996      -2.84493817E-05
  -11.6800003      -2.23201096E-05
  -11.6700001      -1.30670269E-05
  -11.6599998      -1.94102381E-06
  -11.6499996       9.52132996E-06
  -11.6400003       1.97323516E-05
  -11.6300001       2.72931557E-05
  -11.6199999       3.11991098E-05
  -11.6099997       3.09772877E-05
  -11.6000004       2.67348605E-05
  -11.5900002       1.91135314E-05
  -11.5799999       9.16244426E-06
  -11.5699997      -1.84365490E-06
  -11.5600004      -1.26052819E-05
  -11.5500002      -2.19807098E-05
  -11.5400000      -2.91189172E-05
  -11.5299997      -3.35241457E-05
  -11.5200005      -3.50492883E-05
  -11.5100002      -3.38309583E-05
  -11.5000000      -3.01912460E-05
  -11.4899998      -2.45365009E-05
  -11.4799995      -1.72811015E-05
  -11.4700003      -8.81444248E-06
  -11.4600000       4.84797454E-07
  -11.4499998       1.01986252E-05
  -11.4399996       1.98076505E-05
  -11.4300003       2.86464492E-05
  -11.4200001       3.59032383E-05
  -11.4099998       4.06799663E-05
  -11.3999996       4.21126897E-05
  -11.3900003       3.95337047E-05
  -11.3800001       3.26422341E-05
  -11.3699999       2.16427143E-05
  -11.3599997       7.31190767E-06
  -11.3500004      -9.03168166E-06
  -11.3400002      -2.56629264E-05
  -11.3299999      -4.06738036E-05
  -11.3199997      -5.22490118E-05
  -11.3100004      -5.89436204E-05
  -11.3000002      -5.99103369E-05
  -11.2900000      -5.50327095E-05
  -11.2799997      -4.49391082E-05
  -11.2700005      -3.08960043E-05
  -11.2600002      -1.46027442E-05
  -11.2500000       2.07185553E-06
  -11.2399998       1.73615972E-05
  -11.2299995       2.98359773E-05
  -11.2200003       3.85577514E-05
  -11.2100000       4.31460830E-05
  -11.1999998       4.37460112E-05
  -11.1899996       4.09220884E-05
  -11.1800003       3.55052871E-05
  -11.1700001       2.84264897E-05
  -11.1599998       2.05667056E-05
  -11.1499996       1.26461264E-05
  -11.1400003       5.16350838E-06
  -11.1300001      -1.61320099E-06
  -11.1199999      -7.61257888E-06
  -11.1099997      -1.28950551E-05
  -11.1000004      -1.75737387E-05
  -11.0900002      -2.17369361E-05
  -11.0799999      -2.53870567E-05
  -11.0699997      -2.84076177E-05
  -11.0600004      -3.05659087E-05
  -11.0500002      -3.15531106E-05
  -11.0400000      -3.10568830E-05
  -11.0299997      -2.88538904E-05
  -11.0200005      -2.49031673E-05
  -11.0100002      -1.94173062E-05
  -11.0000000      -1.28888896E-05
  -10.9899998      -6.05612240E-06
  -10.9799995       1.96928653E-07
  -10.9700003       4.99446924E-06
  -10.9600000       7.65087498E-06
  -10.9499998       7.84183612E-06
  -10.9399996       5.72205590E-06
  -10.9300003       1.95270991E-06
  -10.9200001      -2.38201119E-06
  -10.9099998      -5.96627251E-06
  -10.8999996      -7.52273172E-06
  -10.8900003      -6.10972302E-06
  -10.8800001      -1.38111159E-06
  -10.8699999       6.25438088E-06
  -10.8599997       1.56213664E-05
  -10.8500004       2.49316399E-05
  -10.8400002       3.20865147E-05
  -10.8299999       3.50760965E-05
  -10.8199997       3.23988679E-05
  -10.8100004       2.34152012E-05
  -10.8000002       8.55735561E-06
  -10.7900000      -1.06555763E-05
  -10.7799997      -3.18109451E-05
  -10.7700005      -5.19749919E-05
  -10.7600002      -6.81781457E-05
  -10.7500000      -7.79226830E-05
  -10.7399998      -7.96163658E-05
  -10.7299995      -7.28498053E-05
  -10.7200003      -5.84653280E-05
  -10.7100000      -3.84060659E-05
  -10.6999998      -1.53761048E-05
  -10.6899996       7.62227046E-06
  -10.6800003       2.77864401E-05
  -10.6700001       4.29549436E-05
  -10.6599998       5.19147143E-05
  -10.6499996       5.45242438E-05
  -10.6400003       5.16391301E-05
  -10.6300001       4.48637984E-05
  -10.6199999       3.61843959E-05
  -10.6099997       2.75578514E-05
  -10.6000004       2.05371143E-05
  -10.5900002       1.60029886E-05
  -10.5799999       1.40503898E-05
  -10.5699997       1.40460743E-05
  -10.5600004       1.48412782E-05
  -10.5500002       1.50923061E-05
  -10.5400000       1.36206236E-05
  -10.5299997       9.73520036E-06
  -10.5200005       3.44593673E-06
  -10.5100002      -4.48249148E-06
  -10.5000000      -1.26556588E-05
  -10.4899998      -1.93354190E-05
  -10.4799995      -2.28334520E-05
  -10.4700003      -2.19321373E-05
  -10.4600000      -1.62410797E-05
  -10.4499998      -6.40466669E-06
  -10.4399996       5.89793444E-06
  -10.4300003       1.81784399E-05
  -10.4200001       2.75614129E-05
  -10.4099998       3.13286764E-05
  -10.3999996       2.74808372E-05
  -10.3900003       1.51998547E-05
  -10.3800001      -4.88970363E-06
  -10.3699999      -3.07265691E-05
  -10.3599997      -5.90991294E-05
  -10.3500004      -8.61677472E-05
  -10.3400002      -1.08128086E-04
  -10.3299999      -1.21888181E-04
  -10.3199997      -1.25625505E-04
  -10.3100004      -1.19111923E-04
  -10.3000002      -1.03739294E-04
  -10.2900000      -8.22383736E-05
  -10.2799997      -5.81450113E-05
  -10.2700005      -3.51186063E-05
  -10.2600002      -1.62474716E-05
  -10.2500000      -3.47800869E-06
  -10.2399998       2.72039460E-06
  -10.2299995       3.38992504E-06
  -10.2200003       8.13246061E-07
  -10.2100000      -2.00828640E-06
  -10.1999998      -2.02329898E-06
  -10.1899996       3.18635057E-06
  -10.1800003       1.48427762E-05
  -10.1700001       3.26416121E-05
  -10.1599998       5.47214258E-05
  -10.1499996       7.79432667E-05
  -10.1400003       9.84313374E-05
  -10.1300001       1.12275426E-04
  -10.1199999       1.16263647E-04
  -10.1099997       1.08506589E-04
  -10.1000004       8.88326831E-05
  -10.0900002       5.88761650E-05
  -10.0799999       2.18367950E-05
  -10.0699997      -1.80473799E-05
  -10.0600004      -5.62170608E-05
  -10.0500002      -8.85635382E-05
  -10.0400000      -1.12108355E-04
  -10.0299997      -1.25460239E-04
  -10.0200005      -1.28961867E-04
  -10.0100002      -1.24500119E-04
  -10.0000000      -1.15021205E-04
  -9.98999977      -1.03852050E-04
  -9.97999954      -9.39699312E-05
  -9.97000027      -8.73735844E-05
  -9.96000004      -8.46884795E-05
  -9.94999981      -8.50902215E-05
  -9.93999958      -8.65624097E-05
  -9.93000031      -8.64333342E-05
  -9.92000008      -8.20742716E-05
  -9.90999985      -7.16048671E-05
  -9.89999962      -5.44460818E-05
  -9.89000034      -3.15913057E-05
  -9.88000011      -5.52426127E-06
  -9.86999989       2.02120227E-05
  -9.85999966       4.17147276E-05
  -9.85000038       5.55477345E-05
  -9.84000015       5.95216661E-05
  -9.82999992       5.32583690E-05
  -9.81999969       3.84118466E-05
  -9.81000042       1.84866349E-05
  -9.80000019      -1.72207035E-06
  -9.78999996      -1.69627601E-05
  -9.77999973      -2.24741052E-05
  -9.77000046      -1.48569097E-05
  -9.76000023       7.29991416E-06
  -9.75000000       4.31589069E-05
  -9.73999977       8.97815989E-05
  -9.72999954       1.42641860E-04
  -9.72000027       1.96389112E-04
  -9.71000004       2.45699688E-04
  -9.69999981       2.86047201E-04
  -9.68999958       3.14252480E-04
  -9.68000031       3.28733731E-04
  -9.67000008       3.29450617E-04
  -9.65999985       3.17603583E-04
  -9.64999962       2.95195438E-04
  -9.64000034       2.64575210E-04
  -9.63000011       2.28065095E-04
  -9.61999989       1.87728117E-04
  -9.60999966       1.45281607E-04
  -9.60000038       1.02119069E-04
  -9.59000015       5.93793848E-05
  -9.57999992       1.80070092E-05
  -9.56999969      -2.12278919E-05
  -9.56000042      -5.77454739E-05
  -9.55000019      -9.11750903E-05
  -9.53999996      -1.21334502E-04
  -9.52999973      -1.48140898E-04
  -9.52000046      -1.71459760E-04
  -9.51000023      -1.90937004E-04
  -9.50000000      -2.05888413E-04
  -9.48999977      -2.15320659E-04
  -9.47999954      -2.18126559E-04
  -9.47000027      -2.13437947E-04
  -9.46000004      -2.01053510E-04
  -9.44999981      -1.81808675E-04
  -9.43999958      -1.57743634E-04
  -9.43000031      -1.31963781E-04
  -9.42000008      -1.08169028E-04
  -9.40999985      -8.99328952E-05
  -9.39999962      -7.99044647E-05
  -9.39000034      -7.91535131E-05
  -9.38000011      -8.68606658E-05
  -9.36999989      -1.00468591E-04
  -9.35999966      -1.16279938E-04
  -9.35000038      -1.30351429E-04
  -9.34000015      -1.39435928E-04
  -9.32999992      -1.41701123E-04
  -9.31999969      -1.37015712E-04
  -9.31000042      -1.26726343E-04
  -9.30000019      -1.13009417E-04
  -9.28999996      -9.80202312E-05
  -9.27999973      -8.31285506E-05
  -9.27000046      -6.85020423E-05
  -9.26000023      -5.31802762E-05
  -9.25000000      -3.56134369E-05
  -9.23999977      -1.44752421E-05
  -9.22999954       1.05420122E-05
  -9.22000027       3.82449980E-05
  -9.21000004       6.59644720E-05
  -9.19999981       9.01112217E-05
  -9.18999958       1.07101376E-04
  -9.18000031       1.14356204E-04
  -9.17000008       1.11046385E-04
  -9.15999985       9.83293430E-05
  -9.14999962       7.89942424E-05
  -9.14000034       5.66275121E-05
  -9.13000011       3.45735389E-05
  -9.11999989       1.50336446E-05
  -9.10999966      -1.40303780E-06
  -9.10000038      -1.56539209E-05
  -9.09000015      -2.95186510E-05
  -9.07999992      -4.47700804E-05
  -9.06999969      -6.22888547E-05
  -9.06000042      -8.15482999E-05
  -9.05000019      -1.00627047E-04
  -9.03999996      -1.16737072E-04
  -9.02999973      -1.27073406E-04
  -9.02000046      -1.29682783E-04
  -9.01000023      -1.24049984E-04
  -9.00000000      -1.11209578E-04
  -8.98999977      -9.33640476E-05
  -8.97999954      -7.31647306E-05
  -8.97000027      -5.29230310E-05
  -8.96000004      -3.40288934E-05
  -8.94999981      -1.67610106E-05
  -8.93999958      -5.17515502E-07
  -8.93000031       1.56615879E-05
  -8.92000008       3.25083201E-05
  -8.90999985       5.01100585E-05
  -8.89999962       6.78086217E-05
  -8.89000034       8.44206515E-05
  -8.88000011       9.86495943E-05
  -8.86999989       1.09486413E-04
  -8.85999966       1.16414682E-04
  -8.85000038       1.19336510E-04
  -8.84000015       1.18275035E-04
  -8.82999992       1.13025533E-04
  -8.81999969       1.02967439E-04
  -8.81000042       8.71897209E-05
  -8.80000019       6.49437206E-05
  -8.78999996       3.62743594E-05
  -8.77999973       2.56430417E-06
  -8.77000046      -3.32879026E-05
  -8.76000023      -6.72281458E-05
  -8.75000000      -9.49225359E-05
  -8.73999977      -1.12912392E-04
  -8.72999954      -1.19665783E-04
  -8.72000027      -1.16131247E-04
  -8.71000004      -1.05539053E-04
  -8.69999981      -9.24482374E-05
  -8.68999958      -8.13146544E-05
  -8.68000031      -7.50538966E-05
  -8.67000008      -7.41096665E-05
  -8.65999985      -7.63885619E-05
  -8.64999962      -7.81271156E-05
  -8.64000034      -7.54183493E-05
  -8.63000011      -6.58658973E-05
  -8.61999989      -4.97559195E-05
  -8.60999966      -3.02796343E-05
  -8.60000038      -1.26619561E-05
  -8.59000015      -2.44599892E-06
  -8.57999992      -3.50721166E-06
  -8.56999969      -1.65023212E-05
  -8.56000042      -3.83397310E-05
  -8.55000019      -6.29214483E-05
  -8.53999996      -8.29639539E-05
  -8.52999973      -9.23134648E-05
  -8.52000046      -8.79719883E-05
  -8.51000023      -7.11234679E-05
  -8.50000000      -4.67765203E-05
  -8.48999977      -2.21132523E-05
  -8.47999954      -4.08712003E-06
  -8.47000027       2.91494939E-06
  -8.46000004      -1.46029129E-06
  -8.44999981      -1.34507936E-05
  -8.43999958      -2.65224044E-05
  -8.43000031      -3.36816847E-05
  -8.42000008      -2.99649164E-05
  -8.40999985      -1.42478475E-05
  -8.39999962       1.02433323E-05
  -8.39000034       3.68880756E-05
  -8.38000011       5.77563405E-05
  -8.36999989       6.61010490E-05
  -8.35999966       5.84109257E-05
  -8.35000038       3.53487994E-05
  -8.34000015       1.30606145E-06
  -8.32999992      -3.72067370E-05
  -8.31999969      -7.37157388E-05
  -8.31000042      -1.03703198E-04
  -8.30000019      -1.25629667E-04
  -8.28999996      -1.40754739E-04
  -8.27999973      -1.51909393E-04
  -8.27000046      -1.61760530E-04
  -8.26000023      -1.71283245E-04
  -8.25000000      -1.79058930E-04
  -8.23999977      -1.81684896E-04
  -8.22999954      -1.75144582E-04
  -8.22000027      -1.56606489E-04
  -8.21000004      -1.25941035E-04
  -8.19999981      -8.63322493E-05
  -8.18999958      -4.36865266E-05
  -8.18000031      -4.98328700E-06
  -8.17000008       2.38887715E-05
  -8.15999985       4.00584540E-05
  -8.14999962       4.46689228E-05
  -8.14000034       4.25587459E-05
  -8.13000011       4.06879844E-05
  -8.11999989       4.58009999E-05
  -8.10999966       6.20823703E-05
  -8.10000038       8.95702178E-05
  -8.09000015       1.23843842E-04
  -8.07999992       1.57088318E-04
  -8.06999969       1.80199961E-04
  -8.06000042       1.85279976E-04
  -8.05000019       1.67768259E-04
  -8.03999996       1.27615524E-04
  -8.02999973       6.92183385E-05
  -8.02000046       2.30012091E-07
  -8.01000023      -7.03194601E-05
  -8.00000000      -1.34006725E-04
  -7.98999977      -1.84558987E-04
  -7.98000002      -2.18622547E-04
  -7.96999979      -2.35703221E-04
  -7.96000004      -2.37481421E-04
  -7.94999981      -2.26851713E-04
  -7.94000006      -2.07040532E-04
  -7.92999983      -1.81038748E-04
  -7.92000008      -1.51410713E-04
  -7.90999985      -1.20380799E-04
  -7.90000010      -9.00115774E-05
  -7.88999987      -6.22973021E-05
  -7.88000011      -3.90808746E-05
  -7.86999989      -2.18180357E-05
  -7.86000013      -1.13023934E-05
  -7.84999990      -7.49400215E-06
  -7.84000015      -9.55326050E-06
  -7.82999992      -1.60939690E-05
  -7.82000017      -2.55759023E-05
  -7.80999994      -3.66982058E-05
  -7.80000019      -4.86543904E-05
  -7.78999996      -6.11650030E-05
  -7.78000021      -7.42913544E-05
  -7.76999998      -8.81151282E-05
  -7.76000023      -1.02413353E-04
  -7.75000000      -1.16452247E-04
  -7.73999977      -1.28972504E-04
  -7.73000002      -1.38368225E-04
  -7.71999979      -1.42999736E-04
  -7.71000004      -1.41548328E-04
  -7.69999981      -1.33324342E-04
  -7.69000006      -1.18469943E-04
  -7.67999983      -9.80330951E-05
  -7.67000008      -7.39142997E-05
  -7.65999985      -4.86945137E-05
  -7.65000010      -2.53481376E-05
  -7.63999987      -6.84533507E-06
  -7.63000011       4.33523155E-06
  -7.61999989       6.72285523E-06
  -7.61000013       2.91117772E-07
  -7.59999990      -1.33273670E-05
  -7.59000015      -3.09793832E-05
  -7.57999992      -4.85457676E-05
  -7.57000017      -6.18576305E-05
  -7.55999994      -6.77861462E-05
  -7.55000019      -6.52156086E-05
  -7.53999996      -5.55852348E-05
  -7.53000021      -4.27663945E-05
  -7.51999998      -3.22165033E-05
  -7.51000023      -2.95719674E-05
  -7.50000000      -3.90388268E-05
  -7.48999977      -6.20413048E-05
  -7.48000002      -9.65503350E-05
  -7.46999979      -1.37337323E-04
  -7.46000004      -1.77131515E-04
  -7.44999981      -2.08384736E-04
  -7.44000006      -2.25155920E-04