  -16.0000000       0.00000000    
  -15.9899998       0.00000000    
  -15.9799995       0.00000000    
  -15.9700003       0.00000000    
  -15.9600000       0.00000000    
  -15.9499998       0.00000000    
  -15.9399996       0.00000000    
  -15.9300003       0.00000000    
  -15.9200001       0.00000000    
  -15.9099998       0.00000000    
  -15.8999996       1.50581151E-39
  -15.8900003       1.15301304E-38
  -15.8800001      -5.28680595E-38
  -15.8699999      -1.24836313E-36
  -15.8599997      -8.95258980E-36
  -15.8500004      -3.73795437E-35
  -15.8400002      -9.87870759E-35
  -15.8299999      -1.71837001E-34
  -15.8199997      -4.50288356E-34
  -15.8100004      -3.51386926E-33
  -15.8000002      -2.31146491E-32
  -15.7900000      -1.06343342E-31
  -15.7799997      -3.63339403E-31
  -15.7700005      -9.40272853E-31
  -15.7600002      -1.73580586E-30
  -15.7500000      -1.49816454E-30
  -15.7399998       3.96005653E-30
  -15.7299995       2.36674130E-29
  -15.7200003       7.00255007E-29
  -15.7100000       1.46292652E-28
  -15.6999998       2.13273582E-28
  -15.6899996       1.34457788E-28
  -15.6800003      -3.68607199E-28
  -15.6700001      -1.65819217E-27
  -15.6599998      -3.86500475E-27
  -15.6499996      -6.18261723E-27
  -15.6400003      -5.88449329E-27
  -15.6300001       2.23747261E-27
  -15.6199999       2.44883441E-26
  -15.6099997       6.29262758E-26
  -15.6000004       1.05068150E-25
  -15.5900002       1.11578471E-25
  -15.5799999       1.20884791E-26
  -15.5699997      -2.72824635E-25
  -15.5600004      -7.64287099E-25
  -15.5500002      -1.31013497E-24
  -15.5400000      -1.46466374E-24
  -15.5299997      -4.73471604E-25
  -15.5200005       2.46837693E-24
  -15.5100002       7.53808423E-24
  -15.5000000       1.32278492E-23
  -15.4899998       1.53515440E-23
  -15.4799995       7.08890604E-24
  -15.4700003      -1.86062847E-23
  -15.4600000      -6.32615138E-23
  -15.4499998      -1.14455273E-22
  -15.4399996      -1.38405797E-22
  -15.4300003      -8.09283504E-23
  -15.4200001       1.13936380E-22
  -15.4099998       4.61563399E-22
  -15.3999996       8.76313848E-22
  -15.3900003       1.11915578E-21
  -15.3800001       8.02484293E-22
  -15.3699999      -4.87762063E-22
  -15.3599997      -2.91470094E-21
  -15.3500004      -5.99319011E-21
  -15.3400002      -8.23210065E-21
  -15.3299999      -7.11319347E-21
  -15.3199997       2.29213394E-22
  -15.3100004       1.53830472E-20
  -15.3000002       3.62485505E-20
  -15.2900000       5.46952242E-20
  -15.2799997       5.59202011E-20
  -15.2700005       2.15843798E-20
  -15.2600002      -6.17012824E-20
  -15.2500000      -1.88954367E-19
  -15.2399998      -3.22415383E-19
  -15.2299995      -3.84334582E-19
  -15.2200003      -2.68005459E-19
  -15.2100000       1.23324151E-19
  -15.1999998       8.08584610E-19
  -15.1899996       1.64753419E-18
  -15.1800003       2.28274676E-18
  -15.1700001       2.15921499E-18
  -15.1599998       6.75962432E-19
  -15.1499996      -2.50729404E-18
  -15.1400003      -7.05542628E-18
  -15.1300001      -1.15815642E-17
  -15.1199999      -1.35513906E-17
  -15.1099997      -9.74601155E-18
  -15.1000004       2.52896183E-18
  -15.0900002       2.35628419E-17
  -15.0799999       4.91834445E-17
  -15.0699997       6.94905962E-17
  -15.0600004       6.96495870E-17
  -15.0500002       3.38708458E-17
  -15.0400000      -4.71360005E-17
  -15.0299997      -1.66536299E-16
  -15.0200005      -2.92925857E-16
  -15.0100002      -3.68201384E-16
  -15.0000000      -3.17299045E-16
  -14.9899998      -7.32706991E-17
  -14.9799995       3.84064035E-16
  -14.9700003       9.85540834E-16
  -14.9600000       1.54421825E-15
  -14.9499998       1.76433839E-15
  -14.9399996       1.30826409E-15
  -14.9300003      -7.22801007E-17
  -14.9200001      -2.36071386E-15
  -14.9099998      -5.10951788E-15
  -14.8999996      -7.36673448E-15
  -14.8900003      -7.78734733E-15
  -14.8800001      -4.99390678E-15
  -14.8699999       1.82353573E-15
  -14.8599997       1.21925700E-14
  -14.8500004       2.37791862E-14
  -14.8400002       3.22826076E-14
  -14.8299999       3.21309853E-14
  -14.8199997       1.81417686E-14
  -14.8100004      -1.20168920E-14
  -14.8000002      -5.51678725E-14
  -14.7900000      -1.00798079E-13
  -14.7799997      -1.31306248E-13
  -14.7700005      -1.25370607E-13
  -14.7600002      -6.47326092E-14
  -14.7500000       5.65794766E-14
  -14.7399998       2.23098192E-13
  -14.7299995       3.92637664E-13
  -14.7200003       4.99075065E-13
  -14.7100000       4.66245532E-13
  -14.6999998       2.33051940E-13
  -14.6899996      -2.14574655E-13
  -14.6800003      -8.14135597E-13
  -14.6700001      -1.41231644E-12
  -14.6599998      -1.77911711E-12
  -14.6499996      -1.65860966E-12
  -14.6400003      -8.54217467E-13
  -14.6300001       6.67943402E-13
  -14.6199999       2.68870429E-12
  -14.6099997       4.69879777E-12
  -14.6000004       5.95348510E-12
  -14.5900002       5.63983148E-12
  -14.5799999       3.14462909E-12
  -14.5699997      -1.63177067E-12
  -14.5600004      -8.01112128E-12
  -14.5500002      -1.44403890E-11
  -14.5400000      -1.86687870E-11
  -14.5299997      -1.82500404E-11
  -14.5200005      -1.13248837E-11
  -14.5100002       2.48015432E-12
  -14.5000000       2.13088418E-11
  -14.4899998       4.08100498E-11
  -14.4799995       5.46331452E-11
  -14.4700003       5.58084204E-11
  -14.4600000       3.88764194E-11
  -14.4499998       2.31964187E-12
  -14.4399996      -4.94197600E-11
  -14.4300003      -1.05173849E-10
  -14.4200001      -1.48249690E-10
  -14.4099998      -1.59903549E-10
  -14.3999996      -1.24739719E-10
  -14.3900003      -3.69219655E-11
  -14.3800001       9.45647796E-11
  -14.3699999       2.43646464E-10
  -14.3599997       3.69629383E-10
  -14.3500004       4.25178781E-10
  -14.3400002       3.69044462E-10
  -14.3299999       1.80999465E-10
  -14.3199997      -1.25045155E-10
  -14.3100004      -4.94454699E-10
  -14.3000002      -8.35887748E-10
  -14.2900000      -1.03787656E-09
  -14.2799997      -9.96584482E-10
  -14.2700005      -6.49476195E-10
  -14.2600002      -6.30795980E-12
  -14.2500000       8.32754310E-10
  -14.2399998       1.68096981E-09
  -14.2299995       2.29569963E-09
  -14.2200003       2.43402298E-09
  -14.2100000       1.92340877E-09
  -14.1999998       7.30506766E-10
  -14.1899996      -9.92623206E-10
  -14.1800003      -2.90403346E-09
  -14.1700001      -4.52081927E-09
  -14.1599998      -5.32035704E-09
  -14.1499996      -4.87731411E-09
  -14.1400003      -3.00576342E-09
  -14.1300001       1.32715325E-10
  -14.1199999       3.99310451E-09
  -14.1099997       7.70925102E-09
  -14.1000004       1.02583710E-08
  -14.0900002       1.07039302E-08
  -14.0799999       8.46633341E-09
  -14.0699997       3.55292373E-09
  -14.0600004      -3.32353101E-09
  -14.0500002      -1.07918012E-08
  -14.0400000      -1.70536900E-08
  -14.0299997      -2.02726032E-08
  -14.0200005      -1.90444140E-08
  -14.0100002      -1.28404691E-08
  -14.0000000      -2.30097186E-09
  -13.9899998       1.07239746E-08
  -13.9799995       2.34386288E-08
  -13.9700003       3.26524656E-08
  -13.9600000       3.55208769E-08
  -13.9499998       3.03146166E-08
  -13.9399996       1.70250178E-08
  -13.9300003      -2.37385667E-09
  -13.9200001      -2.41226719E-08
  -13.9099998      -4.33489689E-08
  -13.8999996      -5.51101103E-08
  -13.8900003      -5.55949171E-08
  -13.8800001      -4.32038973E-08
  -13.8699999      -1.92226111E-08
  -13.8599997       1.21305135E-08
  -13.8500004       4.43705233E-08
  -13.8400002       7.00468661E-08
  -13.8299999       8.24313702E-08
  -13.8199997       7.72208892E-08
  -13.8100004       5.38362528E-08
  -13.8000002       1.59533666E-08
  -13.7900000      -2.89468804E-08
  -13.7799997      -7.10026100E-08
  -13.7700005      -1.00119244E-07
  -13.7600002      -1.08386814E-07
  -13.7500000      -9.21976024E-08
  -13.7399998      -5.35119611E-08
  -13.7299995       1.23796390E-10
  -13.7200003       5.69326275E-08
  -13.7100000       1.03430850E-07
  -13.6999998       1.27605261E-07
  -13.6899996       1.22013745E-07
  -13.6800003       8.60276046E-08
  -13.6700001       2.65729376E-08
  -13.6599998      -4.29574349E-08
  -13.6499996      -1.05521288E-07
  -13.6400003      -1.44427489E-07
  -13.6300001      -1.47621307E-07
  -13.6199999      -1.11196080E-07
  -13.6099997      -4.11645296E-08
  -13.6000004       4.71296637E-08
  -13.5900002       1.32041350E-07
  -13.5799999       1.90562915E-07
  -13.5699997       2.04102960E-07
  -13.5600004       1.63716464E-07
  -13.5500002       7.34015657E-08
  -13.5400000      -4.95641572E-08
  -13.5299997      -1.77622056E-07
  -13.5200005      -2.78826661E-07
  -13.5100002      -3.24421478E-07
  -13.5000000      -2.96341568E-07
  -13.4899998      -1.92746228E-07
  -13.4799995      -3.00137089E-08
  -13.4700003       1.59611304E-07
  -13.4600000       3.34496889E-07
  -13.4499998       4.52945443E-07
  -13.4399996       4.83250062E-07
  -13.4300003       4.12025031E-07
  -13.4200001       2.48598724E-07
  -13.4099998       2.40951223E-08
  -13.3999996      -2.14916227E-07
  -13.3900003      -4.16939429E-07
  -13.3800001      -5.37819290E-07
  -13.3699999      -5.51720746E-07
  -13.3599997      -4.57914666E-07
  -13.3500004      -2.81371797E-07
  -13.3400002      -6.66651161E-08
  -13.3299999       1.33569259E-07
  -13.3199997       2.72811320E-07
  -13.3100004       3.23750470E-07
  -13.3000002       2.86570526E-07
  -13.2900000       1.89722741E-07
  -13.2799997       8.23282917E-08
  -13.2700005       1.96164152E-08
  -13.2600002       4.49092319E-08
  -13.2500000       1.73029633E-07
  -13.2399998       3.80186350E-07
  -13.2299995       6.04200352E-07
  -13.2200003       7.56545319E-07
  -13.2100000       7.44583303E-07
  -13.1999998       4.99324415E-07
  -13.1899996       1.84467308E-09
  -13.1800003      -6.99160807E-07
  -13.1700001      -1.48496247E-06
  -13.1599998      -2.18272976E-06
  -13.1499996      -2.59870944E-06
  -13.1400003      -2.56292992E-06
  -13.1300001      -1.97593909E-06
  -13.1199999      -8.46213595E-07
  -13.1099997       6.92406900E-07
  -13.1000004       2.39043607E-06
  -13.0900002       3.92112679E-06
  -13.0799999       4.94232199E-06
  -13.0699997       5.17030094E-06
  -13.0600004       4.44993520E-06
  -13.0500002       2.80450195E-06
  -13.0400000       4.51440343E-07
  -13.0299997      -2.22322615E-06
  -13.0200005      -4.73023965E-06
  -13.0100002      -6.57134296E-06
  -13.0000000      -7.34386140E-06
  -12.9899998      -6.83306644E-06
  -12.9799995      -5.07063260E-06
  -12.9700003      -2.34348113E-06
  -12.9600000       8.52571532E-07
  -12.9499998       3.90775995E-06
  -12.9399996       6.22371726E-06
  -12.9300003       7.34283321E-06
  -12.9200001       7.05258753E-06
  -12.9099998       5.43972101E-06
  -12.8999996       2.87915600E-06
  -12.8900003      -4.32435776E-08
  -12.8800001      -2.65966810E-06
  -12.8699999      -4.37379276E-06
  -12.8599997      -4.80401241E-06
  -12.8500004      -3.88221679E-06
  -12.8400002      -1.88228239E-06
  -12.8299999       6.32496040E-07
  -12.8199997       2.93529047E-06
  -12.8100004       4.30934369E-06
  -12.8000002       4.23074744E-06
  -12.7900000       2.51717256E-06
  -12.7799997      -5.95482959E-07
  -12.7700005      -4.47207731E-06
  -12.7600002      -8.19545221E-06
  -12.7500000      -1.07615942E-05
  -12.7399998      -1.13127726E-05
  -12.7299995      -9.35705066E-06
  -12.7200003      -4.92216122E-06
  -12.7100000       1.39669817E-06
  -12.6999998       8.51397181E-06
  -12.6899996       1.50473606E-05
  -12.6800003       1.95925986E-05
  -12.6700001       2.10235648E-05
  -12.6599998       1.87529477E-05
  -12.6499996       1.28938573E-05
  -12.6400003       4.28155681E-06
  -12.6300001      -5.65653272E-06
  -12.6199999      -1.51616023E-05
  -12.6099997      -2.24843589E-05
  -12.6000004      -2.62359845E-05
  -12.5900002      -2.56743333E-05
  -12.5799999      -2.08625006E-05
  -12.5699997      -1.26630248E-05
  -12.5600004      -2.56624048E-06
  -12.5500002       7.61238744E-06
  -12.5400000       1.61015614E-05
  -12.5299997       2.15301498E-05
  -12.5200005       2.31920112E-05
  -12.5100002       2.11615279E-05
  -12.5000000       1.62350170E-05
  -12.4899998       9.71264762E-06
  -12.4799995       3.07210689E-06
  -12.4700003      -2.38946427E-06
  -12.4600000      -5.86087617E-06
  -12.4499998      -7.19706077E-06
  -12.4399996      -6.93041557E-06
  -12.4300003      -6.10952702E-06
  -12.4200001      -6.00285694E-06
  -12.4099998      -7.73823012E-06
  -12.3999996      -1.19660281E-05
  -12.3900003      -1.86304660E-05
  -12.3800001      -2.69095162E-05
  -12.3699999      -3.53451906E-05
  -12.3599997      -4.21407894E-05
  -12.3500004      -4.55609188E-05
  -12.3400002      -4.43433564E-05
  -12.3299999      -3.80260135E-05
  -12.3199997      -2.71089102E-05
  -12.3100004      -1.30072085E-05
  -12.3000002       2.20129459E-06
  -12.2900000       1.61831249E-05
  -12.2799997       2.68224485E-05
  -12.2700005       3.26554109E-05
  -12.2600002       3.31670817E-05
  -12.2500000       2.88823758E-05
  -12.2399998       2.12286122E-05
  -12.2299995       1.21996418E-05
  -12.2200003       3.89735715E-06
  -12.2100000      -1.94450104E-06
  -12.1999998      -4.34442563E-06
  -12.1899996      -3.27586076E-06
  -12.1800003       3.59063648E-07
  -12.1700001       4.97909787E-06
  -12.1599998       8.73850695E-06
  -12.1499996       1.00088673E-05
  -12.1400003       7.81300150E-06
  -12.1300001       2.10561166E-06
  -12.1199999      -6.17026717E-06
  -12.1099997      -1.52701086E-05
  -12.1000004      -2.30398709E-05
  -12.0900002      -2.74255253E-05
  -12.0799999      -2.69826523E-05
  -12.0699997      -2.12654159E-05
  -12.0600004      -1.09990524E-05
  -12.0500002       2.01229682E-06
  -12.0400000       1.52307221E-05
  -12.0299997       2.59123153E-05
  -12.0200005       3.17034137E-05
  -12.0100002       3.11723816E-05
  -12.0000000       2.41551606E-05
  -11.9899998       1.18316320E-05
  -11.9799995      -3.49139464E-06
  -11.9700003      -1.88496160E-05
  -11.9600000      -3.12448210E-05
  -11.9499998      -3.82879261E-05
  -11.9399996      -3.87198706E-05
  -11.9300003      -3.26934023E-05
  -11.9200001      -2.17497400E-05
  -11.9099998      -8.49057142E-06
  -11.8999996       3.98681686E-06
  -11.8900003       1.27703779E-05
  -11.8800001       1.57820468E-05
  -11.8699999       1.22516039E-05
  -11.8599997       2.90961293E-06
  -11.8500004      -1.01461728E-05
  -11.8400002      -2.38856464E-05
  -11.8299999      -3.49911570E-05
  -11.8199997      -4.05746432E-05
  -11.8100004      -3.88128428E-05
  -11.8000002      -2.93631983E-05
  -11.7900000      -1.34698757E-05
  -11.7799997       6.26423571E-06
  -11.7700005       2.63919264E-05
  -11.7600002       4.33136374E-05
  -11.7500000       5.40005130E-05
  -11.7399998       5.65961564E-05
  -11.7299995       5.07716322E-05
  -11.7200003       3.77619181E-05
  -11.7100000       2.00804898E-05
  -11.6999998       9.77205445E-07
  -11.6899996      -1.62416964E-05
  -11.6800003      -2.88853535E-05
  -11.6700001      -3.53999058E-05
  -11.6599998      -3.56328528E-05
  -11.6499996      -3.07898918E-05
  -11.6400003      -2.31007343E-05
  -11.6300001      -1.52722314E-05
  -11.6199999      -9.85082170E-06
  -11.6099997      -8.63341302E-06
  -11.6000004      -1.22525098E-05
  -11.5900002      -2.00220202E-05
  -11.5799999      -3.00733518E-05
  -11.5699997      -3.97497570E-05
  -11.5600004      -4.61736527E-05
  -11.5500002      -4.68674843E-05
  -11.5400000      -4.03003069E-05
  -11.5299997      -2.62501344E-05
  -11.5200005      -5.91173148E-06
  -11.5100002       1.82683452E-05
  -11.5000000       4.29938082E-05
  -11.4899998       6.46778135E-05
  -11.4799995       8.00522757E-05
  -11.4700003       8.67150447E-05
  -11.4600000       8.35189639E-05
  -11.4499998       7.07394793E-05
  -11.4399996       5.00002534E-05
  -11.4300003       2.39795172E-05
  -11.4200001      -4.04304319E-06
  -11.4099998      -3.07154114E-05
  -11.3999996      -5.31261503E-05
  -11.3900003      -6.92168614E-05
  -11.3800001      -7.80307601E-05
  -11.3699999      -7.97642060E-05
  -11.3599997      -7.56220761E-05
  -11.3500004      -6.75103292E-05
  -11.3400002      -5.76249986E-05
  -11.3299999      -4.80132730E-05
  -11.3199997      -4.01853904E-05
  -11.3100004      -3.48470167E-05
  -11.3000002      -3.18003913E-05
  -11.2900000      -3.00326265E-05
  -11.2799997      -2.79755477E-05
  -11.2700005      -2.38887878E-05
  -11.2600002      -1.62929555E-05
  -11.2500000      -4.36717437E-06
  -11.2399998       1.17712107E-05
  -11.2299995       3.09672905E-05
  -11.2200003       5.11388607E-05
  -11.2100000       6.95847848E-05
  -11.1999998       8.34392558E-05
  -11.1899996       9.01880485E-05
  -11.1800003       8.81468077E-05
  -11.1700001       7.68057143E-05
  -11.1599998       5.69689582E-05
  -11.1499996       3.06572765E-05
  -11.1400003       7.89387968E-07
  -11.1300001      -2.92972090E-05
  -11.1199999      -5.63925641E-05
  -11.1099997      -7.79211259E-05
  -11.1000004      -9.23115585E-05
  -11.0900002      -9.91617126E-05
  -11.0799999      -9.91743946E-05
  -11.0699997      -9.38877638E-05
  -11.0600004      -8.52658704E-05
  -11.0500002      -7.52416017E-05
  -11.0400000      -6.53105162E-05
  -11.0299997      -5.62590867E-05
  -11.0200005      -4.80784329E-05
  -11.0100002      -4.00728932E-05
  -11.0000000      -3.11305666E-05
  -10.9899998      -2.00897866E-05
  -10.9799995      -6.11771429E-06
  -10.9700003       1.09821203E-05
  -10.9600000       3.05985159E-05
  -10.9499998       5.13124214E-05
  -10.9399996       7.10669774E-05
  -10.9300003       8.74733742E-05
  -10.9200001       9.81933263E-05
  -10.9099998       1.01327329E-04
  -10.8999996       9.57401207E-05
  -10.8900003       8.12696380E-05
  -10.8800001       5.87890172E-05
  -10.8699999       3.01175442E-05
  -10.8599997      -2.19901199E-06
  -10.8500004      -3.51998096E-05
  -10.8400002      -6.58631470E-05
  -10.8299999      -9.14534903E-05
  -10.8199997      -1.09817687E-04
  -10.8100004      -1.19598430E-04
  -10.8000002      -1.20347016E-04
  -10.7900000      -1.12530593E-04
  -10.7799997      -9.74410941E-05
  -10.7700005      -7.70210900E-05
  -10.7600002      -5.36279040E-05
  -10.7500000      -2.97610713E-05
  -10.7399998      -7.78094909E-06
  -10.7299995       1.03520861E-05
  -10.7200003       2.32878883E-05
  -10.7100000       3.04186960E-05
  -10.6999998       3.19116298E-05
  -10.6899996       2.86311188E-05
  -10.6800003       2.19565991E-05
  -10.6700001       1.35194505E-05
  -10.6599998       4.90089042E-06
  -10.6499996      -2.65475364E-06
  -10.6400003      -8.45412524E-06
  -10.6300001      -1.24486205E-05
  -10.6199999      -1.51823742E-05
  -10.6099997      -1.76001104E-05
  -10.6000004      -2.07540033E-05
  -10.5900002      -2.54762253E-05
  -10.5799999      -3.20973450E-05
  -10.5699997      -4.02851947E-05
  -10.5600004      -4.90535058E-05
  -10.5500002      -5.69494041E-05
  -10.5400000      -6.23835731E-05
  -10.5299997      -6.40276194E-05
  -10.5200005      -6.11813593E-05
  -10.5100002      -5.40150322E-05
  -10.5000000      -4.36183582E-05
  -10.4899998      -3.18340863E-05
  -10.4799995      -2.09065529E-05
  -10.4700003      -1.30222134E-05
  -10.4600000      -9.84656981E-06
  -10.4499998      -1.21636785E-05
  -10.4399996      -1.96998953E-05
  -10.4300003      -3.11693875E-05
  -10.4200001      -4.45272781E-05
  -10.4099998      -5.73700818E-05
  -10.3999996      -6.73936665E-05
  -10.3900003      -7.28118612E-05
  -10.3800001      -7.26546205E-05
  -10.3699999      -6.68958601E-05
  -10.3599997      -5.63998328E-05
  -10.3500004      -4.27107625E-05
  -10.3400002      -2.77362105E-05
  -10.3299999      -1.33878293E-05
  -10.3199997      -1.24293354E-06
  -10.3100004       7.71855412E-06
  -10.3000002       1.32620871E-05
  -10.2900000       1.59091142E-05
  -10.2799997       1.68066199E-05
  -10.2700005       1.74720499E-05
  -10.2600002       1.94505374E-05
  -10.2500000       2.39407036E-05
  -10.2399998       3.14596327E-05
  -10.2299995       4.16208386E-05
  -10.2200003       5.30870784E-05
  -10.2100000       6.37304984E-05
  -10.1999998       7.09892120E-05
  -10.1899996       7.23613557E-05
  -10.1800003       6.59368379E-05
  -10.1700001       5.08468511E-05
  -10.1599998       2.75208477E-05
  -10.1499996      -2.31973695E-06
  -10.1400003      -3.59392543E-05
  -10.1300001      -7.00768433E-05
  -10.1199999      -1.01530961E-04
  -10.1099997      -1.27698630E-04
  -10.1000004      -1.46942242E-04
  -10.0900002      -1.58706724E-04
  -10.0799999      -1.63381192E-04
  -10.0699997      -1.61971766E-04
  -10.0600004      -1.55701840E-04
  -10.0500002      -1.45669139E-04
  -10.0400000      -1.32660163E-04
  -10.0299997      -1.17162635E-04
  -10.0200005      -9.95452501E-05
  -10.0100002      -8.03150760E-05
  -10.0000000      -6.03357730E-05
  -9.98999977      -4.09045751E-05
  -9.97999954      -2.36362521E-05
  -9.97000027      -1.01716596E-05
  -9.96000004      -1.79350570E-06
  -9.94999981       9.30524948E-07
  -9.93999958      -1.64091500E-06
  -9.93000031      -8.23399569E-06
  -9.92000008      -1.69029736E-05
  -9.90999985      -2.54444785E-05
  -9.89999962      -3.18707789E-05
  -9.89000034      -3.48143658E-05
  -9.88000011      -3.37602651E-05
  -9.86999989      -2.90565476E-05
  -9.85999966      -2.17196739E-05
  -9.85000038      -1.31070192E-05
  -9.84000015      -4.55794225E-06
  -9.82999992       2.89965601E-06
  -9.81999969       8.71347129E-06
  -9.81000042       1.28255933E-05
  -9.80000019       1.55739672E-05
  -9.78999996       1.75310179E-05
  -9.77999973       1.93365886E-05
  -9.77000046       2.15641412E-05
  -9.76000023       2.46315358E-05
  -9.75000000       2.87445200E-05
  -9.73999977       3.38518876E-05
  -9.72999954       3.96001305E-05
  -9.72000027       4.52956556E-05
  -9.71000004       4.99031739E-05
  -9.69999981       5.21177280E-05
  -9.68999958       5.05363314E-05
  -9.68000031       4.39257565E-05
  -9.67000008       3.15435063E-05
  -9.65999985       1.34358988E-05
  -9.64999962      -9.37582445E-06
  -9.64000034      -3.48946633E-05
  -9.63000011      -6.03625049E-05
  -9.61999989      -8.26631731E-05
  -9.60999966      -9.88323081E-05
  -9.60000038      -1.06560175E-04
  -9.59000015      -1.04574370E-04
  -9.57999992      -9.28234876E-05
  -9.56999969      -7.24393467E-05
  -9.56000042      -4.55146510E-05
  -9.55000019      -1.47754072E-05
  -9.53999996       1.67602575E-05
  -9.52999973       4.60655938E-05
  -9.52000046       7.03024343E-05
  -9.51000023       8.69502474E-05
  -9.50000000       9.39161619E-05
  -9.48999977       8.96772472E-05
  -9.47999954       7.34780187E-05
  -9.47000027       4.55589034E-05
  -9.46000004       7.34423975E-06
  -9.44999981      -3.85052554E-05
  -9.43999958      -8.82587337E-05
  -9.43000031      -1.37532435E-04
  -9.42000008      -1.81915530E-04
  -9.40999985      -2.17686742E-04
  -9.39999962      -2.42455688E-04
  -9.39000034      -2.55560270E-04
  -9.38000011      -2.58102606E-04
  -9.36999989      -2.52595870E-04
  -9.35999966      -2.42299764E-04
  -9.35000038      -2.30410325E-04
  -9.34000015      -2.19312002E-04
  -9.32999992      -2.10082420E-04
  -9.31999969      -2.02369614E-04
  -9.31000042      -1.94656459E-04
  -9.30000019      -1.84821358E-04
  -9.28999996      -1.70828353E-04
  -9.27999973      -1.51356930E-04
  -9.27000046      -1.26212341E-04
  -9.26000023      -9.64325664E-05
  -9.25000000      -6.40973813E-05
  -9.23999977      -3.19237988E-05
  -9.22999954      -2.77405934E-06
  -9.22000027       2.07991416E-05
  -9.21000004       3.68837500E-05
  -9.19999981       4.43857534E-05
  -9.18999958       4.30738219E-05
  -9.18000031       3.35394543E-05
  -9.17000008       1.71174888E-05
  -9.15999985      -4.21511959E-06
  -9.14999962      -2.79775213E-05
  -9.14000034      -5.13957239E-05
  -9.13000011      -7.17147122E-05
  -9.11999989      -8.66042683E-05
  -9.10999966      -9.45983629E-05
  -9.10000038      -9.54607895E-05
  -9.09000015      -9.03509208E-05
  -9.07999992      -8.16893735E-05
  -9.06999969      -7.26929065E-05
  -9.06000042      -6.66446867E-05
  -9.05000019      -6.60598307E-05
  -9.03999996      -7.19638774E-05
  -9.02999973      -8.34988969E-05
  -9.02000046      -9.80025143E-05
  -9.01000023      -1.11583526E-04
  -9.00000000      -1.20078206E-04
  -8.98999977      -1.20156110E-04
  -8.97999954      -1.10288333E-04
  -8.97000027      -9.13165495E-05
  -8.96000004      -6.64600302E-05
  -8.94999981      -4.07450643E-05
  -8.93999958      -1.99926526E-05
  -8.93000031      -9.61138721E-06
  -8.92000008      -1.34836628E-05
  -8.90999985      -3.31951596E-05
  -8.89999962      -6.77549324E-05
  -8.89000034      -1.13821101E-04
  -8.88000011      -1.66326732E-04
  -8.86999989      -2.19325302E-04
  -8.85999966      -2.66860763E-04
  -8.85000038      -3.03709880E-04
  -8.84000015      -3.25918983E-04
  -8.82999992      -3.31131887E-04
  -8.81999969      -3.18751612E-04
  -8.81000042      -2.89986085E-04
  -8.80000019      -2.47796474E-04
  -8.78999996      -1.96723515E-04
  -8.77999973      -1.42535602E-04
  -8.77000046      -9.16503923E-05
  -8.76000023      -5.03290612E-05
  -8.75000000      -2.37252734E-05
  -8.73999977      -1.49540519E-05
  -8.72999954      -2.43982959E-05
  -8.72000027      -4.94639426E-05
  -8.71000004      -8.49162025E-05
  -8.69999981      -1.23797159E-04
  -8.68999958      -1.58771189E-04
  -8.68000031      -1.83614728E-04
  -8.67000008      -1.94503620E-04
  -8.65999985      -1.90779436E-04
  -8.64999962      -1.74992165E-04
  -8.64000034      -1.52193054E-04
  -8.63000011      -1.28642016E-04
  -8.61999989      -1.10243323E-04
  -8.60999966      -1.01095415E-04
  -8.60000038      -1.02511185E-04
  -8.59000015      -1.12746136E-04
  -8.57999992      -1.27495441E-04
  -8.56999969      -1.41031123E-04
  -8.56000042      -1.47699247E-04
  -8.55000019      -1.43417637E-04
  -8.53999996      -1.26821062E-04
  -8.52999973      -9.97909738E-05
  -8.52000046      -6.72499664E-05
  -8.51000023      -3.62658466E-05
  -8.50000000      -1.46570337E-05
  -8.48999977      -9.39021356E-06
  -8.47999954      -2.50974499E-05
  -8.47000027      -6.30082432E-05
  -8.46000004      -1.20504767E-04
  -8.44999981      -1.91383922E-04
  -8.43999958      -2.66773393E-04
  -8.43000031      -3.36528581E-04
  -8.42000008      -3.90852510E-04
  -8.40999985      -4.21849487E-04
  -8.39999962      -4.24745405E-04
  -8.39000034      -3.98582895E-04
  -8.38000011      -3.46303888E-04
  -8.36999989      -2.74246529E-04
  -8.35999966      -1.91182568E-04
  -8.35000038      -1.07081178E-04
  -8.34000015      -3.18039019E-05
  -8.32999992       2.60896813E-05
  -8.31999969       6.02970176E-05
  -8.31000042       6.74174735E-05
  -8.30000019       4.72620050E-05
  -8.28999996       2.82783185E-06
  -8.27999973      -6.00544518E-05
  -8.27000046      -1.33391906E-04
  -8.26000023      -2.07995559E-04
  -8.25000000      -2.74681574E-04
  -8.23999977      -3.25585948E-04
  -8.22999954      -3.55405413E-04
  -8.22000027      -3.62329534E-04
  -8.21000004      -3.48432717E-04
  -8.19999981      -3.19367275E-04
  -8.18999958      -2.83334550E-04
  -8.18000031      -2.49484292E-04
  -8.17000008      -2.26057848E-04
  -8.15999985      -2.18687390E-04
  -8.14999962      -2.29258891E-04
  -8.14000034      -2.55626946E-04
  -8.13000011      -2.92257901E-04
  -8.11999989      -3.31633113E-04
  -8.10999966      -3.66039400E-04
  -8.10000038      -3.89270281E-04
  -8.09000015      -3.97798081E-04
  -8.07999992      -3.91141395E-04
  -8.06999969      -3.71399918E-04
  -8.06000042      -3.42175219E-04
  -8.05000019      -3.07268609E-04
  -8.03999996      -2.69591110E-04
  -8.02999973      -2.30621154E-04
  -8.02000046      -1.90542400E-04
  -8.01000023      -1.48957712E-04
  -8.00000000      -1.05879153E-04
  -7.98999977      -6.26123147E-05
  -7.98000002      -2.21991231E-05
  -7.96999979       1.07581454E-05
  -7.96000004       3.08579984E-05
  -7.94999981       3.30232469E-05
  -7.94000006       1.36582048E-05
  -7.92999983      -2.84808157E-05
  -7.92000008      -9.19134545E-05
  -7.90999985      -1.72607382E-04
  -7.90000010      -2.64583010E-04
  -7.88999987      -3.60742910E-04
  -7.88000011      -4.53705958E-04
  -7.86999989      -5.36494132E-04
  -7.86000013      -6.03023858E-04
  -7.84999990      -6.48449524E-04
  -7.84000015      -6.69446832E-04
  -7.82999992      -6.64502033E-04
  -7.82000017      -6.34198252E-04
  -7.80999994      -5.81410015E-04
  -7.80000019      -5.11270657E-04
  -7.78999996      -4.30795073E-04
  -7.78000021      -3.48126807E-04
  -7.76999998      -2.71500525E-04
  -7.76000023      -2.08120720E-04
  -7.75000000      -1.63210527E-04
  -7.73999977      -1.39452168E-04
  -7.73000002      -1.36929739E-04
  -7.71999979      -1.53534071E-04
  -7.71000004      -1.85655401E-04
  -7.69999981      -2.28920850E-04
  -7.69000006      -2.78759224E-04
  -7.67999983      -3.30683106E-04
  -7.67000008      -3.80322337E-04
  -7.65999985      -4.23366553E-04
  -7.65000010      -4.55620582E-04
  -7.63999987      -4.73328313E-04
  -7.63000011      -4.73786815E-04
  -7.61999989      -4.56114096E-04
  -7.61000013      -4.21908044E-04
  -7.59999990      -3.75505886E-04
  -7.59000015      -3.23637651E-04
  -7.57999992      -2.74445600E-04
  -7.57000017      -2.36049804E-04
  -7.55999994      -2.15008084E-04
  -7.55000019      -2.15075561E-04
  -7.53999996      -2.36596112E-04
  -7.53000021      -2.76672392E-04
  -7.51999998      -3.30027629E-04
  -7.51000023      -3.90271074E-04
  -7.50000000      -4.51182947E-04
  -7.48999977      -5.07667835E-04
  -7.48000002      -5.56178275E-04
  -7.46999979      -5.94618439E-04
  -7.46000004      -6.21917599E-04
  -7.44999981      -6.37558056E-04
  -7.44000006      -6.41311752E-04