  -16.0000000       0.00000000    
  -15.9899998       0.00000000    
  -15.9799995       0.00000000    
  -15.9700003       0.00000000    
  -15.9600000       0.00000000    
  -15.9499998       0.00000000    
  -15.9399996       0.00000000    
  -15.9300003       0.00000000    
  -15.9200001       0.00000000    
  -15.9099998       0.00000000    
  -15.8999996       1.03218244E-40
  -15.8900003       3.10698278E-39
  -15.8800001       4.83592304E-38
  -15.8699999       6.46770943E-37
  -15.8599997       7.33435509E-36
  -15.8500004       6.59549332E-35
  -15.8400002       4.71430678E-34
  -15.8299999       2.75734112E-33
  -15.8199997       1.36015305E-32
  -15.8100004       5.80210905E-32
  -15.8000002       2.18241764E-31
  -15.7900000       7.34577940E-31
  -15.7799997       2.23670695E-30
  -15.7700005       6.20882386E-30
  -15.7600002       1.57921546E-29
  -15.7500000       3.69033726E-29
  -15.7399998       7.92501274E-29
  -15.7299995       1.56006597E-28
  -15.7200003       2.79701554E-28
  -15.7100000       4.50794381E-28
  -15.6999998       6.35832964E-28
  -15.6899996       7.36207088E-28
  -15.6800003       5.58483958E-28
  -15.6700001      -1.86985734E-28
  -15.6599998      -1.81678923E-27
  -15.6499996      -4.49018972E-27
  -15.6400003      -7.89775568E-27
  -15.6300001      -1.08940150E-26
  -15.6199999      -1.12745102E-26
  -15.6099997      -6.02346839E-27
  -15.6000004       7.62235309E-27
  -15.5900002       3.01676742E-26
  -15.5799999       5.73296528E-26
  -15.5699997       7.81993686E-26
  -15.5600004       7.60072289E-26
  -15.5500002       3.33964634E-26
  -15.5400000      -5.72844289E-26
  -15.5299997      -1.81221688E-25
  -15.5200005      -2.92498875E-25
  -15.5100002      -3.19126210E-25
  -15.5000000      -1.89991627E-25
  -15.4899998       1.16464059E-25
  -15.4799995       5.17956456E-25
  -15.4700003       8.02996553E-25
  -15.4600000       6.78701016E-25
  -15.4499998      -7.81069918E-26
  -15.4399996      -1.38559138E-24
  -15.4300003      -2.63653545E-24
  -15.4200001      -2.67241285E-24
  -15.4099998      -1.53609559E-25
  -15.3999996       5.57734008E-24
  -15.3900003       1.33136812E-23
  -15.3800001       1.90496735E-23
  -15.3699999       1.62004767E-23
  -15.3599997      -2.11272609E-24
  -15.3500004      -3.84366323E-23
  -15.3400002      -8.51290474E-23
  -15.3299999      -1.20206978E-22
  -15.3199997      -1.09219421E-22
  -15.3100004      -1.70918248E-23
  -15.3000002       1.69449872E-22
  -15.2900000       4.14766832E-22
  -15.2799997       6.16281363E-22
  -15.2700005       6.14469230E-22
  -15.2600002       2.46693314E-22
  -15.2500000      -5.55054700E-22
  -15.2399998      -1.65030125E-21
  -15.2299995      -2.61902507E-21
  -15.2200003      -2.80906033E-21
  -15.2100000      -1.55883338E-21
  -15.1999998       1.41598811E-21
  -15.1899996       5.59326080E-21
  -15.1800003       9.40541515E-21
  -15.1700001       1.04675078E-20
  -15.1599998       6.45033624E-21
  -15.1499996      -3.50094985E-21
  -15.1400003      -1.73074796E-20
  -15.1300001      -2.93268356E-20
  -15.1199999      -3.14929050E-20
  -15.1099997      -1.66956245E-20
  -15.1000004       1.62095912E-20
  -15.0900002       5.78012616E-20
  -15.0799999       8.70591956E-20
  -15.0699997       7.69686196E-20
  -15.0600004       7.77237644E-21
  -15.0500002      -1.15193612E-19
  -15.0400000      -2.47091127E-19
  -15.0299997      -3.03985256E-19
  -15.0200005      -1.88177411E-19
  -15.0100002       1.59670919E-19
  -15.0000000       6.94665917E-19
  -14.9899998       1.21822797E-18
  -14.9799995       1.38599168E-18
  -14.9700003       8.08069225E-19
  -14.9600000      -7.53233458E-19
  -14.9499998      -3.13533443E-18
  -14.9399996      -5.58317714E-18
  -14.9300003      -6.75692285E-18
  -14.9200001      -5.06608296E-18
  -14.9099998       6.39902476E-19
  -14.8999996       1.01658735E-17
  -14.8900003       2.11905541E-17
  -14.8800001       2.90920249E-17
  -14.8699999       2.78338567E-17
  -14.8599997       1.20958977E-17
  -14.8500004      -1.96812043E-17
  -14.8400002      -6.23035349E-17
  -14.8299999      -1.02356116E-16
  -14.8199997      -1.19797696E-16
  -14.8100004      -9.35220856E-17
  -14.8000002      -1.04057840E-17
  -14.7900000       1.24493064E-16
  -14.7799997       2.80610236E-16
  -14.7700005       4.02125371E-16
  -14.7600002       4.19363868E-16
  -14.7500000       2.71699159E-16
  -14.7399998      -6.25323860E-17
  -14.7299995      -5.38610728E-16
  -14.7200003      -1.03310713E-15
  -14.7100000      -1.35830976E-15
  -14.6999998      -1.30884240E-15
  -14.6899996      -7.34985206E-16
  -14.6800003       3.75696143E-16
  -14.6700001       1.83714183E-15
  -14.6599998       3.25539495E-15
  -14.6499996       4.09369160E-15
  -14.6400003       3.81434691E-15
  -14.6300001       2.07187668E-15
  -14.6199999      -1.09516945E-15
  -14.6099997      -5.14187878E-15
  -14.6000004      -9.02800241E-15
  -14.5900002      -1.13982801E-14
  -14.5799999      -1.09210228E-14
  -14.5699997      -6.72001932E-15
  -14.5600004       1.20926669E-15
  -14.5500002       1.17268832E-14
  -14.5400000       2.25310086E-14
  -14.5299997       3.04599790E-14
  -14.5200005       3.21088981E-14
  -14.5100002       2.46835701E-14
  -14.5000000       6.95295804E-15
  -14.4899998      -1.98824179E-14
  -14.4799995      -5.16168529E-14
  -14.4700003      -8.09879439E-14
  -14.4600000      -9.83744200E-14
  -14.4499998      -9.34289741E-14
  -14.4399996      -5.77051834E-14
  -14.4300003       1.19196340E-14
  -14.4200001       1.09623329E-13
  -14.4099998       2.17897911E-13
  -14.3999996       3.07165697E-13
  -14.3900003       3.39297438E-13
  -14.3800001       2.76045137E-13
  -14.3699999       9.21066879E-14
  -14.3599997      -2.09431580E-13
  -14.3500004      -5.83733528E-13
  -14.3400002      -9.39029778E-13
  -14.3299999      -1.14578637E-12
  -14.3199997      -1.06406767E-12
  -14.3100004      -5.87914700E-13
  -14.3000002       3.01449214E-13
  -14.2900000       1.48895458E-12
  -14.2799997       2.70554976E-12
  -14.2700005       3.55371375E-12
  -14.2600002       3.58934475E-12
  -14.2500000       2.45483473E-12
  -14.2399998       3.75432819E-14
  -14.2299995      -3.39161511E-12
  -14.2200003      -7.11562797E-12
  -14.2100000      -1.00360510E-11
  -14.1999998      -1.08911118E-11
  -14.1899996      -8.61029737E-12
  -14.1800003      -2.73577471E-12
  -14.1700001       6.20613023E-12
  -14.1599998       1.65235221E-11
  -14.1499996       2.54916956E-11
  -14.1400003       2.98615022E-11
  -14.1300001       2.67020711E-11
  -14.1199999       1.44158999E-11
  -14.1099997      -6.34029591E-12
  -14.1000004      -3.21451060E-11
  -14.0900002      -5.69919043E-11
  -14.0799999      -7.33032107E-11
  -14.0699997      -7.37087197E-11
  -14.0600004      -5.32646115E-11
  -14.0500002      -1.15747594E-11
  -14.0400000       4.58347145E-11
  -14.0299997       1.07477742E-10
  -14.0200005       1.57552318E-10
  -14.0100002       1.79209064E-10
  -14.0000000       1.58912980E-10
  -13.9899998       9.09419831E-11
  -13.9799995      -1.91790472E-11
  -13.9700003      -1.53470653E-10
  -13.9600000      -2.83315676E-10
  -13.9499998      -3.74450138E-10
  -13.9399996      -3.94472288E-10
  -13.9300003      -3.21438653E-10
  -13.9200001      -1.51578652E-10
  -13.9099998       9.59633553E-11
  -13.8999996       3.79071469E-10
  -13.8900003       6.38136710E-10
  -13.8800001       8.06727574E-10
  -13.8699999       8.25823077E-10
  -13.8599997       6.58898214E-10
  -13.8500004       3.04544556E-10
  -13.8400002      -1.96622982E-10
  -13.8299999      -7.63225039E-10
  -13.8199997      -1.28355593E-09
  -13.8100004      -1.63437597E-09
  -13.8000002      -1.70533832E-09
  -13.7900000      -1.42477041E-09
  -13.7799997      -7.81650522E-10
  -13.7700005       1.61313018E-10
  -13.7600002       1.26750799E-09
  -13.7500000       2.34113751E-09
  -13.7399998       3.15617599E-09
  -13.7299995       3.49604989E-09
  -13.7200003       3.19801940E-09
  -13.7100000       2.19452145E-09
  -13.6999998       5.43267098E-10
  -13.6899996      -1.56118862E-09
  -13.6800003      -3.79936349E-09
  -13.6700001      -5.76378945E-09
  -13.6599998      -7.01846714E-09
  -13.6499996      -7.17418969E-09
  -13.6400003      -5.96951333E-09
  -13.6300001      -3.34458550E-09
  -13.6199999       5.06042930E-10
  -13.6099997       5.11482678E-09
  -13.6000004       9.76739667E-09
  -13.5900002       1.35792391E-08
  -13.5799999       1.56216728E-08
  -13.5699997       1.50870907E-08
  -13.5600004       1.14735084E-08
  -13.5500002       4.75867123E-09
  -13.5400000      -4.47325910E-09
  -13.5299997      -1.49917980E-08
  -13.5200005      -2.50008423E-08
  -13.5100002      -3.23588267E-08
  -13.5000000      -3.49322917E-08
  -13.4899998      -3.10449160E-08
  -13.4799995      -1.99501571E-08
  -13.4700003      -2.22844165E-09
  -13.4600000       2.00021066E-08
  -13.4499998       4.31604228E-08
  -13.4399996       6.26219716E-08
  -13.4300003       7.34762509E-08
  -13.4200001       7.15333854E-08
  -13.4099998       5.44086340E-08
  -13.3999996       2.24528325E-08
  -13.3900003      -2.07221849E-08
  -13.3800001      -6.83359858E-08
  -13.3699999      -1.11263773E-07
  -13.3599997      -1.39558296E-07
  -13.3500004      -1.44464011E-07
  -13.3400002      -1.20560983E-07
  -13.3299999      -6.75751934E-08
  -13.3199997       8.61881855E-09
  -13.3100004       9.61762368E-08
  -13.3000002       1.78809401E-07
  -13.2900000       2.38552360E-07
  -13.2799997       2.59349946E-07
  -13.2700005       2.30805767E-07
  -13.2600002       1.51283231E-07
  -13.2500000       2.95770821E-08
  -13.2399998      -1.15424356E-07
  -13.2299995      -2.57301735E-07
  -13.2200003      -3.66646248E-07
  -13.2100000      -4.16863656E-07
  -13.1999998      -3.90151712E-07
  -13.1899996      -2.82379574E-07
  -13.1800003      -1.05673770E-07
  -13.1700001       1.12136306E-07
  -13.1599998       3.31484671E-07
  -13.1499996       5.08008270E-07
  -13.1400003       6.01323904E-07
  -13.1300001       5.83967108E-07
  -13.1199999       4.48584700E-07
  -13.1099997       2.11623174E-07
  -13.1000004      -8.76834321E-08
  -13.0900002      -3.93335654E-07
  -13.0799999      -6.42843872E-07
  -13.0699997      -7.79974243E-07
  -13.0600004      -7.67431459E-07
  -13.0500002      -5.96671839E-07
  -13.0400000      -2.92366366E-07
  -13.0299997       9.00393360E-08
  -13.0200005       4.73830482E-07
  -13.0100002       7.76168179E-07
  -13.0000000       9.26005043E-07
  -12.9899998       8.80961181E-07
  -12.9799995       6.39193274E-07
  -12.9700003       2.43045406E-07
  -12.9600000      -2.27132617E-07
  -12.9499998      -6.68465020E-07
  -12.9399996      -9.77544005E-07
  -12.9300003      -1.07434460E-06
  -12.9200001      -9.22576646E-07
  -12.9099998      -5.41344946E-07
  -12.8999996      -4.61752814E-09
  -12.8900003       5.72355589E-07
  -12.8800001       1.05743868E-06
  -12.8699999       1.33176388E-06
  -12.8599997       1.31876163E-06
  -12.8500004       1.00491673E-06
  -12.8400002       4.46577445E-07
  -12.8299999      -2.39830513E-07
  -12.8199997      -9.02904560E-07
  -12.8100004      -1.39147585E-06
  -12.8000002      -1.59180502E-06
  -12.7900000      -1.45753916E-06
  -12.7799997      -1.02436093E-06
  -12.7700005      -4.04542021E-07
  -12.7600002       2.38628786E-07
  -12.7500000       7.31456566E-07
  -12.7399998       9.36179674E-07
  -12.7299995       7.91548928E-07
  -12.7200003       3.36716511E-07
  -12.7100000      -2.89139933E-07
  -12.6999998      -8.73527426E-07
  -12.6899996      -1.17932848E-06
  -12.6800003      -1.00531827E-06
  -12.6700001      -2.44654132E-07
  -12.6599998       1.07308188E-06
  -12.6499996       2.76780315E-06
  -12.6400003       4.52848326E-06
  -12.6300001       5.96453538E-06
  -12.6199999       6.67971153E-06
  -12.6099997       6.35363767E-06
  -12.6000004       4.81371762E-06
  -12.5900002       2.08170150E-06
  -12.5799999      -1.61560729E-06
  -12.5699997      -5.87434170E-06
  -12.5600004      -1.01746891E-05
  -12.5500002      -1.39624181E-05
  -12.5400000      -1.67338385E-05
  -12.5299997      -1.81069081E-05
  -12.5200005      -1.78648406E-05
  -12.5100002      -1.59652645E-05
  -12.5000000      -1.25160877E-05
  -12.4899998      -7.72682688E-06
  -12.4799995      -1.84939165E-06
  -12.4700003       4.87596617E-06
  -12.4600000       1.22559459E-05
  -12.4499998       2.01525418E-05
  -12.4399996       2.84634370E-05
  -12.4300003       3.70807902E-05
  -12.4200001       4.58403301E-05
  -12.4099998       5.44754657E-05
  -12.3999996       6.25902539E-05
  -12.3900003       6.96611169E-05
  -12.3800001       7.50712206E-05
  -12.3699999       7.81744166E-05
  -12.3599997       7.83793512E-05
  -12.3500004       7.52405031E-05
  -12.3400002       6.85406994E-05
  -12.3299999       5.83511246E-05
  -12.3199997       4.50579173E-05
  -12.3100004       2.93492449E-05
  -12.3000002       1.21626708E-05
  -12.2900000      -5.40216615E-06
  -12.2799997      -2.21954197E-05
  -12.2700005      -3.71396200E-05
  -12.2600002      -4.93468469E-05
  -12.2500000      -5.82139837E-05
  -12.2399998      -6.34813550E-05
  -12.2299995      -6.52439703E-05
  -12.2200003      -6.39111313E-05
  -12.2100000      -6.01183310E-05
  -12.1999998      -5.46039519E-05
  -12.1899996      -4.80713679E-05
  -12.1800003      -4.10621033E-05
  -12.1700001      -3.38663522E-05
  -12.1599998      -2.64924547E-05
  -12.1499996      -1.87065343E-05
  -12.1400003      -1.01393152E-05
  -12.1300001      -4.41489362E-07
  -12.1199999       1.05445133E-05
  -12.1099997       2.26362790E-05
  -12.1000004       3.52260649E-05
  -12.0900002       4.72878455E-05
  -12.0799999       5.74883779E-05
  -12.0699997       6.43910316E-05
  -12.0600004       6.67185668E-05
  -12.0500002       6.36240729E-05
  -12.0400000       5.49123070E-05
  -12.0299997       4.11592373E-05
  -12.0200005       2.36957203E-05
  -12.0100002       4.44809166E-06
  -12.0000000      -1.43412244E-05
  -11.9899998      -3.04634141E-05
  -11.9799995      -4.20965698E-05
  -11.9700003      -4.80932031E-05
  -11.9600000      -4.81448660E-05
  -11.9499998      -4.27920459E-05
  -11.9399996      -3.32796371E-05
  -11.9300003      -2.12908271E-05
  -11.9200001      -8.61702301E-06
  -11.9099998       3.16647470E-06
  -11.8999996       1.29529326E-05
  -11.8900003       2.02367100E-05
  -11.8800001       2.51058464E-05
  -11.8699999       2.81062421E-05
  -11.8599997       3.00167339E-05
  -11.8500004       3.15920843E-05
  -11.8400002       3.33351309E-05
  -11.8299999       3.53497162E-05
  -11.8199997       3.73052135E-05
  -11.8100004       3.85169551E-05
  -11.8000002       3.81205718E-05
  -11.7900000       3.52981297E-05
  -11.7799997       2.95037953E-05
  -11.7700005       2.06384939E-05
  -11.7600002       9.13513031E-06
  -11.7500000      -4.06451409E-06
  -11.7399998      -1.76374688E-05
  -11.7299995      -3.00872071E-05
  -11.7200003      -3.99912569E-05
  -11.7100000      -4.62414755E-05
  -11.6999998      -4.82313735E-05
  -11.6899996      -4.59548501E-05
  -11.6800003      -3.99968267E-05
  -11.6700001      -3.14161953E-05
  -11.6599998      -2.15413747E-05
  -11.6499996      -1.17157815E-05
  -11.6400003      -3.04143373E-06
  -11.6300001       3.82832968E-06
  -11.6199999       8.80280459E-06
  -11.6099997       1.23461396E-05
  -11.6000004       1.53423698E-05
  -11.5900002       1.88541453E-05
  -11.5799999       2.38208722E-05
  -11.5699997       3.07596674E-05
  -11.5600004       3.95385105E-05
  -11.5500002       4.92820909E-05
  -11.5400000       5.84473892E-05
  -11.5299997       6.50714428E-05
  -11.5200005       6.71545422E-05
  -11.5100002       6.31071380E-05
  -11.5000000       5.21668262E-05
  -11.4899998       3.46886009E-05
  -11.4799995       1.22313932E-05
  -11.4700003      -1.25976467E-05
  -11.4600000      -3.65285050E-05
  -11.4499998      -5.61786874E-05
  -11.4399996      -6.86631174E-05
  -11.4300003      -7.21385732E-05
  -11.4200001      -6.61654194E-05
  -11.4099998      -5.18040106E-05
  -11.3999996      -3.14178251E-05
  -11.3900003      -8.21828871E-06
  -11.3800001       1.43570551E-05
  -11.3699999       3.33036623E-05
  -11.3599997       4.66076017E-05
  -11.3500004       5.35838808E-05
  -11.3400002       5.49249307E-05
  -11.3299999       5.24514107E-05
  -11.3199997       4.86216995E-05
  -11.3100004       4.59084076E-05
  -11.3000002       4.61781929E-05
  -11.2900000       5.02103831E-05
  -11.2799997       5.74601654E-05
  -11.2700005       6.61209633E-05
  -11.2600002       7.34786227E-05
  -11.2500000       7.64896831E-05
  -11.2399998       7.24697820E-05
  -11.2299995       5.97537983E-05
  -11.2200003       3.81918799E-05
  -11.2100000       9.37372897E-06
  -11.1999998      -2.34773579E-05
  -11.1899996      -5.59380314E-05
  -11.1800003      -8.30807840E-05
  -11.1700001      -1.00314210E-04
  -11.1599998      -1.04216662E-04
  -11.1499996      -9.32065668E-05
  -11.1400003      -6.79161312E-05
  -11.1300001      -3.11862968E-05
  -11.1199999       1.23296595E-05
  -11.1099997       5.68902869E-05
  -11.1000004       9.65880317E-05
  -11.0900002       1.26296960E-04
  -11.0799999       1.42466728E-04
  -11.0699997       1.43615034E-04
  -11.0600004       1.30434768E-04
  -11.0500002       1.05516148E-04
  -11.0400000       7.27665683E-05
  -11.0299997       3.66725617E-05
  -11.0200005       1.57225020E-06
  -11.0100002      -2.89128366E-05
  -11.0000000      -5.21950315E-05
  -10.9899998      -6.67740824E-05
  -10.9799995      -7.20905155E-05
  -10.9700003      -6.82929458E-05
  -10.9600000      -5.60422923E-05
  -10.9499998      -3.64397529E-05
  -10.9399996      -1.10960200E-05
  -10.9300003       1.77197780E-05
  -10.9200001       4.69730985E-05
  -10.9099998       7.29375970E-05
  -10.8999996       9.15499259E-05
  -10.8900003       9.90594708E-05
  -10.8800001       9.28755908E-05
  -10.8699999       7.24133206E-05
  -10.8599997       3.96845317E-05
  -10.8500004      -6.01026272E-07
  -10.8400002      -4.15649738E-05
  -10.8299999      -7.53058193E-05
  -10.8199997      -9.44726999E-05
  -10.8100004      -9.39347956E-05
  -10.8000002      -7.21437536E-05
  -10.7900000      -3.18198145E-05
  -10.7799997       2.02725168E-05
  -10.7700005       7.44842109E-05
  -10.7600002       1.20171171E-04
  -10.7500000       1.47915693E-04
  -10.7399998       1.51581931E-04
  -10.7299995       1.29728258E-04
  -10.7200003       8.60396103E-05
  -10.7100000       2.86672894E-05
  -10.6999998      -3.13823912E-05
  -10.6899996      -8.24518356E-05
  -10.6800003      -1.14540526E-04
  -10.6700001      -1.21220211E-04
  -10.6599998      -1.00765566E-04
  -10.6499996      -5.63006761E-05
  -10.6400003       5.01247223E-06
  -10.6300001       7.35134818E-05
  -10.6199999       1.38944873E-04
  -10.6099997       1.92306514E-04
  -10.6000004       2.27304699E-04
  -10.5900002       2.41158225E-04
  -10.5799999       2.34679464E-04
  -10.5699997       2.11699560E-04
  -10.5600004       1.78022252E-04
  -10.5500002       1.40154036E-04
  -10.5400000       1.04065162E-04
  -10.5299997       7.41967888E-05
  -10.5200005       5.28612836E-05
  -10.5100002       4.01001016E-05
  -10.5000000       3.39830840E-05
  -10.4899998       3.12626653E-05
  -10.4799995       2.82433684E-05
  -10.4700003       2.16960016E-05
  -10.4600000       9.64074661E-06
  -10.4499998      -8.15284875E-06
  -10.4399996      -3.00488900E-05
  -10.4300003      -5.28363416E-05
  -10.4200001      -7.23689518E-05
  -10.4099998      -8.44181559E-05
  -10.3999996      -8.55540857E-05
  -10.3900003      -7.38633826E-05
  -10.3800001      -4.93537955E-05
  -10.3699999      -1.39742060E-05
  -10.3599997       2.87241983E-05
  -10.3500004       7.41733093E-05
  -10.3400002       1.17458134E-04
  -10.3299999       1.53911795E-04
  -10.3199997       1.79528128E-04
  -10.3100004       1.91169034E-04
  -10.3000002       1.86628109E-04
  -10.2900000       1.64665456E-04
  -10.2799997       1.25127917E-04
  -10.2700005       6.92101967E-05
  -10.2600002      -1.83930482E-07
  -10.2500000      -7.81202179E-05
  -10.2399998      -1.57553761E-04
  -10.2299995      -2.29682206E-04
  -10.2200003      -2.84835813E-04
  -10.2100000      -3.13857541E-04
  -10.1999998      -3.09756404E-04
  -10.1899996      -2.69283046E-04
  -10.1800003      -1.94027467E-04
  -10.1700001      -9.07019057E-05
  -10.1599998       2.95609861E-05
  -10.1499996       1.52829569E-04
  -10.1400003       2.64615228E-04
  -10.1300001       3.52267234E-04
  -10.1199999       4.07002255E-04
  -10.1099997       4.25135862E-04
  -10.1000004       4.08282067E-04
  -10.0900002       3.62544029E-04
  -10.0799999       2.96958722E-04
  -10.0699997       2.21617607E-04
  -10.0600004       1.45917336E-04
  -10.0500002       7.73030988E-05
  -10.0400000       2.06843561E-05
  -10.0299997      -2.15067703E-05
  -10.0200005      -4.88149308E-05
  -10.0100002      -6.21005820E-05
  -10.0000000      -6.29757342E-05
  -9.98999977      -5.34835381E-05
  -9.97999954      -3.60221893E-05
  -9.97000027      -1.33896101E-05
  -9.96000004       1.12291655E-05
  -9.94999981       3.44755499E-05
  -9.93999958       5.32690319E-05
  -9.93000031       6.53997631E-05
  -9.92000008       7.00603778E-05
  -9.90999985       6.80873782E-05
  -9.89999962       6.17502737E-05
  -9.89000034       5.40720903E-05
  -9.88000011       4.78396287E-05
  -9.86999989       4.46009180E-05
  -9.85999966       4.39941286E-05
  -9.85000038       4.36813280E-05
  -9.84000015       3.99845921E-05
  -9.82999992       2.90933967E-05
  -9.81999969       8.50664037E-06
  -9.81000042      -2.17389934E-05
  -9.80000019      -5.84746631E-05
  -9.78999996      -9.56926742E-05
  -9.77999973      -1.25721723E-04
  -9.77000046      -1.41003940E-04
  -9.76000023      -1.35993978E-04
  -9.75000000      -1.08639775E-04
  -9.73999977      -6.10085335E-05
  -9.72999954       1.13901979E-06
  -9.72000027       6.97188298E-05
  -9.71000004       1.36255287E-04
  -9.69999981       1.93828819E-04
  -9.68999958       2.38493129E-04
  -9.68000031       2.69778538E-04
  -9.67000008       2.90171098E-04
  -9.65999985       3.03758192E-04
  -9.64999962       3.14469944E-04
  -9.64000034       3.24452179E-04
  -9.63000011       3.33055010E-04
  -9.61999989       3.36732686E-04
  -9.60999966       3.29884730E-04
  -9.60000038       3.06408067E-04
  -9.59000015       2.61544570E-04
  -9.57999992       1.93546337E-04
  -9.56999969       1.04745399E-04
  -9.56000042       1.77844220E-06
  -9.55000019      -1.05076018E-04
  -9.53999996      -2.03297372E-04
  -9.52999973      -2.79974018E-04
  -9.52000046      -3.23763728E-04
  -9.51000023      -3.26639070E-04
  -9.50000000      -2.85163551E-04
  -9.48999977      -2.01136107E-04
  -9.47999954      -8.15372186E-05
  -9.47000027       6.22069492E-05
  -9.46000004       2.15551729E-04
  -9.44999981       3.62594437E-04
  -9.43999958       4.88048827E-04
  -9.43000031       5.79167041E-04
  -9.42000008       6.27324102E-04
  -9.40999985       6.29009563E-04
  -9.39999962       5.86055452E-04
  -9.39000034       5.05064207E-04
  -9.38000011       3.96155112E-04
  -9.36999989       2.71292171E-04
  -9.35999966       1.42535646E-04
  -9.35000038       2.05596207E-05
  -9.34000015      -8.63145106E-05
  -9.32999992      -1.72472515E-04
  -9.31999969      -2.34824562E-04
  -9.31000042      -2.72292964E-04
  -9.30000019      -2.85230111E-04
  -9.28999996      -2.74986174E-04
  -9.27999973      -2.43731120E-04
  -9.27000046      -1.94490407E-04
  -9.26000023      -1.31240085E-04
  -9.25000000      -5.88666917E-05
  -9.23999977       1.71504689E-05
  -9.22999954       9.13521872E-05
  -9.22000027       1.59078118E-04
  -9.21000004       2.17172725E-04
  -9.19999981       2.64359871E-04
  -9.18999958       3.01113236E-04
  -9.18000031       3.29016795E-04
  -9.17000008       3.49800219E-04
  -9.15999985       3.64373875E-04
  -9.14999962       3.72220267E-04
  -9.14000034       3.71398259E-04
  -9.13000011       3.59211233E-04
  -9.11999989       3.33349133E-04
  -9.10999966       2.93121411E-04
  -9.10000038       2.40331385E-04
  -9.09000015       1.79435301E-04
  -9.07999992       1.16856398E-04
  -9.06999969       5.96155478E-05
  -9.06000042       1.36912122E-05
  -9.05000019      -1.73589215E-05
  -9.03999996      -3.30451876E-05
  -9.02999973      -3.56253622E-05
  -9.02000046      -2.89087675E-05
  -9.01000023      -1.65900892E-05
  -9.00000000      -7.01343083E-07
  -8.98999977       1.92440439E-05
  -8.97999954       4.60606389E-05
  -8.97000027       8.36547988E-05
  -8.96000004       1.35117094E-04
  -8.94999981       2.00780050E-04
  -8.93999958       2.76933948E-04
  -8.93000031       3.55715514E-04
  -8.92000008       4.26324230E-04
  -8.90999985       4.77295456E-04
  -8.89999962       4.99209156E-04
  -8.89000034       4.87052894E-04
  -8.88000011       4.41548036E-04
  -8.86999989       3.69059504E-04
  -8.85999966       2.80138396E-04
  -8.85000038       1.87156082E-04
  -8.84000015       1.01742946E-04
  -8.82999992       3.27618327E-05
  -8.81999969      -1.46686925E-05
  -8.81000042      -3.89637316E-05
  -8.80000019      -4.09373861E-05
  -8.78999996      -2.23007246E-05
  -8.77999973       1.55659745E-05
  -8.77000046       7.20717435E-05
  -8.76000023       1.46929699E-04
  -8.75000000       2.38936933E-04
  -8.73999977       3.44534172E-04
  -8.72999954       4.56781505E-04
  -8.72000027       5.65282244E-04
  -8.71000004       6.57286786E-04
  -8.69999981       7.19814503E-04
  -8.68999958       7.42278877E-04
  -8.68000031       7.18900061E-04
  -8.67000008       6.50218630E-04
  -8.65999985       5.43261238E-04
  -8.64999962       4.10290842E-04
  -8.64000034       2.66468851E-04
  -8.63000011       1.27049221E-04
  -8.61999989       4.82142104E-06
  -8.60999966      -9.15951387E-05
  -8.60000038      -1.58285387E-04
  -8.59000015      -1.95435947E-04
  -8.57999992      -2.05943506E-04
  -8.56999969      -1.93763219E-04
  -8.56000042      -1.62526718E-04
  -8.55000019      -1.14798546E-04
  -8.53999996      -5.20856411E-05
  -8.52999973       2.45466945E-05
  -8.52000046       1.13582682E-04
  -8.51000023       2.12269952E-04
  -8.50000000       3.16241872E-04
  -8.48999977       4.19679738E-04
  -8.47999954       5.15951833E-04
  -8.47000027       5.98514162E-04
  -8.46000004       6.61801314E-04
  -8.44999981       7.01871817E-04
  -8.43999958       7.16690207E-04
  -8.43000031       7.06062361E-04
  -8.42000008       6.71351270E-04
  -8.40999985       6.15141005E-04
  -8.39999962       5.40985842E-04
  -8.39000034       4.53297573E-04
  -8.38000011       3.57324578E-04
  -8.36999989       2.59112683E-04
  -8.35999966       1.65322534E-04
  -8.35000038       8.28294724E-05
  -8.34000015       1.81189062E-05
  -8.32999992      -2.34224826E-05
  -8.31999969      -3.81645914E-05
  -8.31000042      -2.46881755E-05
  -8.30000019       1.60580494E-05
  -8.28999996       8.09062403E-05
  -8.27999973       1.64850397E-04
  -8.27000046       2.61540757E-04
  -8.26000023       3.63784027E-04
  -8.25000000       4.63998847E-04
  -8.23999977       5.54645900E-04
  -8.22999954       6.28703856E-04
  -8.22000027       6.80260942E-04
  -8.21000004       7.05228304E-04
  -8.19999981       7.02080317E-04
  -8.18999958       6.72427763E-04
  -8.18000031       6.21182437E-04
  -8.17000008       5.56114595E-04
  -8.15999985       4.86741599E-04
  -8.14999962       4.22687939E-04
  -8.14000034       3.71854840E-04
  -8.13000011       3.38862679E-04
  -8.11999989       3.24219465E-04
  -8.10999966       3.24509456E-04
  -8.10000038       3.33619304E-04
  -8.09000015       3.44701140E-04
  -8.07999992       3.52324801E-04
  -8.06999969       3.54173186E-04
  -8.06000042       3.51740426E-04
  -8.05000019       3.49782087E-04
  -8.03999996       3.54651303E-04
  -8.02999973       3.72021255E-04
  -8.02000046       4.04719292E-04
  -8.01000023       4.51389380E-04
  -8.00000000       5.06460317E-04
  -7.98999977       5.61487279E-04
  -7.98000002       6.07482914E-04
  -7.96999979       6.37519406E-04
  -7.96000004       6.48767280E-04
  -7.94999981       6.43294712E-04
  -7.94000006       6.27338130E-04
  -7.92999983       6.09250565E-04
  -7.92000008       5.96769038E-04
  -7.90999985       5.94477227E-04
  -7.90000010       6.02288987E-04
  -7.88999987       6.15455385E-04
  -7.88000011       6.26104185E-04
  -7.86999989       6.25819026E-04
  -7.86000013       6.08428207E-04
  -7.84999990       5.72104007E-04
  -7.84000015       5.20107220E-04
  -7.82999992       4.59964824E-04
  -7.82000017       4.01383411E-04
  -7.80999994       3.53611045E-04
  -7.80000019       3.23126500E-04
  -7.78999996       3.12391145E-04
  -7.78000021       3.20011983E-04
  -7.76999998       3.42157407E-04
  -7.76000023       3.74625903E-04
  -7.75000000       4.14743146E-04
  -7.73999977       4.62332158E-04
  -7.73000002       5.19348599E-04
  -7.71999979       5.88273513E-04
  -7.71000004       6.69839443E-04
  -7.69999981       7.60957657E-04
  -7.69000006       8.53704812E-04
  -7.67999983       9.35921271E-04
  -7.67000008       9.93455993E-04
  -7.65999985       1.01353170E-03
  -7.65000010       9.88295302E-04
  -7.63999987       9.17492027E-04
  -7.63000011       8.09410296E-04
  -7.61999989       6.79723977E-04
  -7.61000013       5.48463489E-04
  -7.59999990       4.35889204E-04
  -7.59000015       3.58350924E-04
  -7.57999992       3.25208210E-04
  -7.57000017       3.37555364E-04
  -7.55999994       3.88961809E-04
  -7.55000019       4.67866164E-04
  -7.53999996       5.60824934E-04
  -7.53000021       6.55641721E-04
  -7.51999998       7.43531389E-04
  -7.51000023       8.19848327E-04
  -7.50000000       8.83401313E-04
  -7.48999977       9.34826385E-04
  -7.48000002       9.74749855E-04
  -7.46999979       1.00247841E-03
  -7.46000004       1.01570738E-03
  -7.44999981       1.01133378E-03
  -7.44000006       9.87049192E-04