  -16.0000000       0.00000000    
  -15.9899998       0.00000000    
  -15.9799995       0.00000000    
  -15.9700003       0.00000000    
  -15.9600000       0.00000000    
  -15.9499998       0.00000000    
  -15.9399996       0.00000000    
  -15.9300003       0.00000000    
  -15.9200001       0.00000000    
  -15.9099998       0.00000000    
  -15.8999996       5.91760638E-36
  -15.8900003       4.04252794E-35
  -15.8800001      -1.86255094E-34
  -15.8699999      -4.26577606E-33
  -15.8599997      -3.35606635E-32
  -15.8500004      -1.79095145E-31
  -15.8400002      -7.63326300E-31
  -15.8299999      -2.81147385E-30
  -15.8199997      -9.30189180E-30
  -15.8100004      -2.79278680E-29
  -15.8000002      -7.54472884E-29
  -15.7900000      -1.79978731E-28
  -15.7799997      -3.68580139E-28
  -15.7700005      -6.15461247E-28
  -15.7600002      -7.25483317E-28
  -15.7500000      -1.65873533E-28
  -15.7399998       2.04195239E-27
  -15.7299995       7.13023485E-27
  -15.7200003       1.58236777E-26
  -15.7100000       2.70018182E-26
  -15.6999998       3.63812943E-26
  -15.6899996       3.63755134E-26
  -15.6800003       1.79146429E-26
  -15.6700001      -2.70284238E-26
  -15.6599998      -1.06140939E-25
  -15.6499996      -2.33768625E-25
  -15.6400003      -4.36869296E-25
  -15.6300001      -7.31817634E-25
  -15.6199999      -1.02870825E-24
  -15.6099997      -9.49121252E-25
  -15.6000004       3.37348872E-25
  -15.5900002       3.94666361E-24
  -15.5799999       1.03147097E-23
  -15.5699997       1.71600613E-23
  -15.5600004       1.70234322E-23
  -15.5500002      -3.25518542E-24
  -15.5400000      -5.70395849E-23
  -15.5299997      -1.42580209E-22
  -15.5200005      -2.19135866E-22
  -15.5100002      -1.87225168E-22
  -15.5000000       9.94254284E-23
  -15.4899998       7.54904697E-22
  -15.4799995       1.69678149E-21
  -15.4700003       2.43644717E-21
  -15.4600000       1.96221075E-21
  -15.4499998      -1.04998230E-21
  -15.4399996      -7.45777478E-21
  -15.4300003      -1.62672612E-20
  -15.4200001      -2.30845559E-20
  -15.4099998      -1.95224431E-20
  -15.3999996       4.79412275E-21
  -15.3900003       5.62039176E-20
  -15.3800001       1.27162295E-19
  -15.3699999       1.85993202E-19
  -15.3599997       1.73695405E-19
  -15.3500004       1.78575612E-20
  -15.3400002      -3.28500925E-19
  -15.3299999      -8.25589789E-19
  -15.3199997      -1.28409295E-18
  -15.3100004      -1.34393130E-18
  -15.3000002      -5.50190189E-19
  -15.2900000       1.43183093E-18
  -15.2799997       4.47531388E-18
  -15.2700005       7.63328060E-18
  -15.2600002       8.98157093E-18
  -15.2500000       5.94674659E-18
  -15.2399998      -3.65947515E-18
  -15.2299995      -1.99320997E-17
  -15.2200003      -3.89708808E-17
  -15.2100000      -5.17838919E-17
  -15.1999998      -4.53290608E-17
  -15.1899996      -6.82425122E-18
  -15.1800003       6.85751455E-17
  -15.1700001       1.68521665E-16
  -15.1599998       2.56729122E-16
  -15.1499996       2.74499582E-16
  -15.1400003       1.55951511E-16
  -15.1300001      -1.41247151E-16
  -15.1199999      -5.95069127E-16
  -15.1099997      -1.08306249E-15
  -15.1000004      -1.37379098E-15
  -15.0900002      -1.16975981E-15
  -15.0799999      -2.15140254E-16
  -15.0699997       1.54319757E-15
  -15.0600004       3.78808804E-15
  -15.0500002       5.73887014E-15
  -15.0400000       6.22857419E-15
  -15.0299997       4.02367670E-15
  -15.0200005      -1.61611017E-15
  -15.0100002      -1.02601906E-14
  -15.0000000      -1.97664506E-14
  -14.9899998      -2.62213940E-14
  -14.9799995      -2.46812729E-14
  -14.9700003      -1.08447576E-14
  -14.9600000       1.65730839E-14
  -14.9499998       5.34542537E-14
  -14.9399996       8.89648869E-14
  -14.9300003       1.06520953E-13
  -14.9200001       8.78737052E-14
  -14.9099998       2.02159287E-14
  -14.8999996      -9.51860119E-14
  -14.8900003      -2.35796436E-13
  -14.8800001      -3.55938992E-13
  -14.8699999      -3.93842755E-13
  -14.8599997      -2.89203042E-13
  -14.8500004      -9.17874463E-15
  -14.8400002       4.23848050E-13
  -14.8299999       9.13436102E-13
  -14.8199997       1.29131981E-12
  -14.8100004       1.34997449E-12
  -14.8000002       9.06730366E-13
  -14.7900000      -1.11577150E-13
  -14.7799997      -1.58774046E-12
  -14.7700005      -3.17090104E-12
  -14.7600002      -4.30484684E-12
  -14.7500000      -4.34869371E-12
  -14.7399998      -2.78375825E-12
  -14.7299995       5.35568822E-13
  -14.7200003       5.16383030E-12
  -14.7100000       9.97574332E-12
  -14.6999998       1.32936717E-11
  -14.6899996       1.32723780E-11
  -14.6800003       8.50262569E-12
  -14.6700001      -1.30081341E-12
  -14.6599998      -1.47443360E-11
  -14.6499996      -2.85860623E-11
  -14.6400003      -3.81596595E-11
  -14.6300001      -3.84635240E-11
  -14.6199999      -2.57766846E-11
  -14.6099997       5.73667307E-13
  -14.6000004       3.68547033E-11
  -14.5900002       7.45960238E-11
  -14.5799999       1.01756097E-10
  -14.5699997       1.05505486E-10
  -14.5600004       7.62326452E-11
  -14.5500002       1.18337120E-11
  -14.5400000      -7.90538260E-11
  -14.5299997      -1.76289622E-10
  -14.5200005      -2.50983206E-10
  -14.5100002      -2.71967338E-10
  -14.5000000      -2.15043053E-10
  -14.4899998      -7.28578933E-11
  -14.4799995       1.37560144E-10
  -14.4700003       3.72709669E-10
  -14.4600000       5.68216363E-10
  -14.4499998       6.52578935E-10
  -14.4399996       5.67073222E-10
  -14.4300003       2.87352087E-10
  -14.4200001      -1.59458988E-10
  -14.4099998      -6.88633484E-10
  -14.3999996      -1.16747378E-09
  -14.3900003      -1.44192003E-09
  -14.3800001      -1.37651224E-09
  -14.3699999      -8.99138208E-10
  -14.3599997      -3.84416769E-11
  -14.3500004       1.05899989E-09
  -14.3400002       2.14171214E-09
  -14.3299999       2.90000068E-09
  -14.3199997       3.04060821E-09
  -14.3100004       2.37421571E-09
  -14.3000002       8.93481567E-10
  -14.2900000      -1.18293531E-09
  -14.2799997      -3.42052942E-09
  -14.2700005      -5.24228172E-09
  -14.2600002      -6.05805184E-09
  -14.2500000      -5.42545919E-09
  -14.2399998      -3.20362159E-09
  -14.2299995       3.44809514E-10
  -14.2200003       4.54238602E-09
  -14.2100000       8.39781578E-09
  -14.1999998       1.08134293E-08
  -14.1899996       1.08626494E-08
  -14.1800003       8.07442024E-09
  -14.1700001       2.64757860E-09
  -14.1599998      -4.47691750E-09
  -14.1499996      -1.17321877E-08
  -14.1400003      -1.72328267E-08
  -14.1300001      -1.92241227E-08
  -14.1199999      -1.65758394E-08
  -14.1099997      -9.19373733E-09
  -14.1000004       1.77761061E-09
  -14.0900002       1.40519463E-08
  -14.0799999       2.46230361E-08
  -14.0699997       3.04508632E-08
  -14.0600004       2.92696711E-08
  -14.0500002       2.03180992E-08
  -14.0400000       4.78018292E-09
  -14.0299997      -1.42292720E-08
  -14.0200005      -3.22033991E-08
  -14.0100002      -4.42419719E-08
  -14.0000000      -4.63096796E-08
  -13.9899998      -3.64512083E-08
  -13.9799995      -1.56251208E-08
  -13.9700003       1.21286599E-08
  -13.9600000       4.03336138E-08
  -13.9499998       6.14784099E-08
  -13.9399996       6.89043702E-08
  -13.9300003       5.87336544E-08
  -13.9200001       3.13165316E-08
  -13.9099998      -8.26788060E-09
  -13.8999996      -5.09300797E-08
  -13.8900003      -8.54848921E-08
  -13.8800001      -1.01407181E-07
  -13.8699999      -9.17920460E-08
  -13.8599997      -5.57375337E-08
  -13.8500004       5.82519699E-10
  -13.8400002       6.46296456E-08
  -13.8299999       1.20045542E-07
  -13.8199997       1.50584086E-07
  -13.8100004       1.44543520E-07
  -13.8000002       9.85558302E-08
  -13.7900000       1.96135428E-08
  -13.7799997      -7.54517799E-08
  -13.7700005      -1.63231874E-07
  -13.7600002      -2.19214527E-07
  -13.7500000      -2.24264383E-07
  -13.7399998      -1.70479510E-07
  -13.7299995      -6.47531522E-08
  -13.7200003       7.12178405E-08
  -13.7100000       2.04928753E-07
  -13.6999998       3.00485368E-07
  -13.6899996       3.27861187E-07
  -13.6800003       2.71712082E-07
  -13.6700001       1.37305435E-07
  -13.6599998      -4.83999649E-08
  -13.6499996      -2.41411868E-07
  -13.6400003      -3.90544272E-07
  -13.6300001      -4.50409061E-07
  -13.6199999      -3.94427218E-07
  -13.6099997      -2.24338635E-07
  -13.6000004       2.67959290E-08
  -13.5900002       2.99714287E-07
  -13.5799999       5.21811785E-07
  -13.5699997       6.25221730E-07
  -13.5600004       5.65881180E-07
  -13.5500002       3.38563552E-07
  -13.5400000      -1.66746563E-08
  -13.5299997      -4.19435651E-07
  -13.5200005      -7.65406526E-07
  -13.5100002      -9.51304969E-07
  -13.5000000      -9.02745171E-07
  -13.4899998      -5.97968835E-07
  -13.4799995      -8.06305280E-08
  -13.4700003       5.43091289E-07
  -13.4600000       1.12421208E-06
  -13.4499998       1.50434835E-06
  -13.4399996       1.55571570E-06
  -13.4300003       1.21807523E-06
  -13.4200001       5.22675293E-07
  -13.4099998      -4.04495580E-07
  -13.3999996      -1.36333074E-06
  -13.3900003      -2.12145687E-06
  -13.3800001      -2.46892591E-06
  -13.3699999      -2.27316832E-06
  -13.3599997      -1.52026803E-06
  -13.3500004      -3.30704637E-07
  -13.3400002       1.05695824E-06
  -13.3299999       2.33342575E-06
  -13.3199997       3.18807838E-06
  -13.3100004       3.38500308E-06
  -13.3000002       2.82715132E-06
  -13.2900000       1.59147226E-06
  -13.2799997      -7.62732029E-08
  -13.2700005      -1.80909080E-06
  -13.2600002      -3.20023901E-06
  -13.2500000      -3.90086507E-06
  -13.2399998      -3.71048804E-06
  -13.2299995      -2.63695506E-06
  -13.2200003      -9.08355162E-07
  -13.2100000       1.06984476E-06
  -13.1999998       2.80579980E-06
  -13.1899996       3.84103487E-06
  -13.1800003       3.87069167E-06
  -13.1700001       2.83363124E-06
  -13.1599998       9.46951445E-07
  -13.1499996      -1.32846515E-06
  -13.1400003      -3.38829409E-06
  -13.1300001      -4.63092420E-06
  -13.1199999      -4.61600621E-06
  -13.1099997      -3.19598666E-06
  -13.1000004      -5.84668499E-07
  -13.0900002       2.66038001E-06
  -13.0799999       5.74506475E-06
  -13.0699997       7.81693052E-06
  -13.0600004       8.17613000E-06
  -13.0500002       6.46951003E-06
  -13.0400000       2.81794473E-06
  -13.0299997      -2.16082003E-06
  -13.0200005      -7.44909221E-06
  -13.0100002      -1.18331473E-05
  -13.0000000      -1.41741129E-05
  -12.9899998      -1.36861518E-05
  -12.9799995      -1.01555861E-05
  -12.9700003      -4.04350976E-06
  -12.9600000       3.56205351E-06
  -12.9499998       1.11448735E-05
  -12.9399996       1.70744806E-05
  -12.9300003       1.99695987E-05
  -12.9200001       1.90287810E-05
  -12.9099998       1.42482022E-05
  -12.8999996       6.46801573E-06
  -12.8900003      -2.77426375E-06
  -12.8800001      -1.15603407E-05
  -12.8699999      -1.80127499E-05
  -12.8599997      -2.07276607E-05
  -12.8500004      -1.91168801E-05
  -12.8400002      -1.35729542E-05
  -12.8299999      -5.40882229E-06
  -12.8199997       3.42497947E-06
  -12.8100004       1.07888509E-05
  -12.8000002       1.48685094E-05
  -12.7900000       1.46338580E-05
  -12.7799997       1.01277456E-05
  -12.7700005       2.50496623E-06
  -12.7600002      -6.20181663E-06
  -12.7500000      -1.35473283E-05
  -12.7399998      -1.72694054E-05
  -12.7299995      -1.58767707E-05
  -12.7200003      -9.08425409E-06
  -12.7100000       2.02054139E-06
  -12.6999998       1.51366930E-05
  -12.6899996       2.72173202E-05
  -12.6800003       3.51509698E-05
  -12.6700001       3.65058113E-05
  -12.6599998       3.01616183E-05
  -12.6499996       1.66713944E-05
  -12.6400003      -1.74947945E-06
  -12.6300001      -2.16251829E-05
  -12.6199999      -3.89388333E-05
  -12.6099997      -5.00163405E-05
  -12.6000004      -5.23750277E-05
  -12.5900002      -4.53362882E-05
  -12.5799999      -3.02480184E-05
  -12.5699997      -1.02479444E-05
  -12.5600004       1.03955135E-05
  -12.5500002       2.72273228E-05
  -12.5400000       3.66249624E-05
  -12.5299997       3.66573695E-05
  -12.5200005       2.75781113E-05
  -12.5100002       1.18262815E-05
  -12.5000000      -6.47956222E-06
  -12.4899998      -2.24506275E-05
  -12.4799995      -3.15389625E-05
  -12.4700003      -3.05965186E-05
  -12.4600000      -1.86344150E-05
  -12.4499998       2.90068533E-06
  -12.4399996       3.04066907E-05
  -12.4300003       5.89071751E-05
  -12.4200001       8.31593134E-05
  -12.4099998       9.88347456E-05
  -12.3999996       1.03498307E-04
  -12.3900003       9.71527406E-05
  -12.3800001       8.22165457E-05
  -12.3699999       6.29333081E-05
  -12.3599997       4.43451972E-05
  -12.3500004       3.10675350E-05
  -12.3400002       2.61517234E-05
  -12.3299999       3.03071338E-05
  -12.3199997       4.16723306E-05
  -12.3100004       5.61998604E-05
  -12.3000002       6.85763589E-05
  -12.2900000       7.34735149E-05
  -12.2799997       6.68451030E-05
  -12.2700005       4.69700099E-05
  -12.2600002       1.49947136E-05
  -12.2500000      -2.51602196E-05
  -12.2399998      -6.75223273E-05
  -12.2299995      -1.05267740E-04
  -12.2200003      -1.32139641E-04
  -12.2100000      -1.43772326E-04
  -12.1999998      -1.38626026E-04
  -12.1899996      -1.18321834E-04
  -12.1800003      -8.72973978E-05
  -12.1700001      -5.18545821E-05
  -12.1599998      -1.88045233E-05
  -12.1499996       5.99379564E-06
  -12.1400003       1.88807498E-05
  -12.1300001       1.91539639E-05
  -12.1199999       9.16835597E-06
  -12.1099997      -6.24623999E-06
  -12.1000004      -2.09243135E-05
  -12.0900002      -2.88120173E-05
  -12.0799999      -2.54044553E-05
  -12.0699997      -8.85443478E-06
  -12.0600004       1.94964177E-05
  -12.0500002       5.52892234E-05
  -12.0400000       9.19948725E-05
  -12.0299997       1.22261859E-04
  -12.0200005       1.39479438E-04
  -12.0100002       1.39220996E-04
  -12.0000000       1.20254605E-04
  -11.9899998       8.48983327E-05
  -11.9799995       3.86364627E-05
  -11.9700003      -1.09289367E-05
  -11.9600000      -5.55738479E-05
  -11.9499998      -8.80813313E-05
  -11.9399996      -1.03660139E-04
  -11.9300003      -1.00853846E-04
  -11.9200001      -8.17507243E-05
  -11.9099998      -5.14549683E-05
  -11.8999996      -1.69388768E-05
  -11.8900003       1.44720861E-05
  -11.8800001       3.66521199E-05
  -11.8699999       4.59314942E-05
  -11.8599997       4.17905321E-05
  -11.8500004       2.68505810E-05
  -11.8400002       6.17706837E-06
  -11.8299999      -1.39402455E-05
  -11.8199997      -2.74527811E-05
  -11.8100004      -2.99383537E-05
  -11.8000002      -1.96038072E-05
  -11.7900000       2.30717365E-06
  -11.7799997       3.17783233E-05
  -11.7700005       6.28856069E-05
  -11.7600002       8.90621450E-05
  -11.7500000       1.04481987E-04
  -11.7399998       1.05264699E-04
  -11.7299995       9.02526517E-05
  -11.7200003       6.12136937E-05
  -11.7100000       2.24512241E-05
  -11.6999998      -2.00709965E-05
  -11.6899996      -5.98863189E-05
  -11.6800003      -9.12161559E-05
  -11.6700001      -1.09956352E-04
  -11.6599998      -1.14280898E-04
  -11.6499996      -1.04777755E-04
  -11.6400003      -8.41331275E-05
  -11.6300001      -5.64687252E-05
  -11.6199999      -2.64932205E-05
  -11.6099997       1.35391031E-06
  -11.6000004       2.36090891E-05
  -11.5900002       3.82340550E-05
  -11.5799999       4.47630700E-05
  -11.5699997       4.41638549E-05
  -11.5600004       3.84752893E-05
  -11.5500002       3.03119486E-05
  -11.5400000       2.23316092E-05
  -11.5299997       1.67518174E-05
  -11.5200005       1.49815969E-05
  -11.5100002       1.74108027E-05
  -11.5000000       2.33763876E-05
  -11.4899998       3.13039745E-05
  -11.4799995       3.90036512E-05
  -11.4700003       4.40801414E-05
  -11.4600000       4.43996905E-05
  -11.4499998       3.85414714E-05
  -11.4399996       2.61543064E-05
  -11.4300003       8.14475970E-06
  -11.4200001      -1.33564890E-05
  -11.4099998      -3.52669631E-05
  -11.3999996      -5.40340588E-05
  -11.3900003      -6.62494349E-05
  -11.3800001      -6.92830727E-05
  -11.3699999      -6.18090271E-05
  -11.3599997      -4.41082302E-05
  -11.3500004      -1.80751940E-05
  -11.3400002       1.30829258E-05
  -11.3299999       4.53986468E-05
  -11.3199997       7.48344100E-05
  -11.3100004       9.79657416E-05
  -11.3000002       1.12515409E-04
  -11.2900000       1.17634168E-04
  -11.2799997       1.13886403E-04
  -11.2700005       1.02969876E-04
  -11.2600002       8.72597157E-05
  -11.2500000       6.93007314E-05
  -11.2399998       5.13713458E-05
  -11.2299995       3.52081515E-05
  -11.2200003       2.19240828E-05
  -11.2100000       1.20925124E-05
  -11.1999998       5.92340530E-06
  -11.1899996       3.43957777E-06
  -11.1800003       4.57547503E-06
  -11.1700001       9.16222416E-06
  -11.1599998       1.68158658E-05
  -11.1499996       2.67921332E-05
  -11.1400003       3.78940276E-05
  -11.1300001       4.85087949E-05
  -11.1199999       5.68102259E-05
  -11.1099997       6.11035430E-05
  -11.1000004       6.02323162E-05
  -11.0900002       5.39307257E-05
  -11.0799999       4.30036634E-05
  -11.0699997       2.92559416E-05
  -11.0600004       1.51595796E-05
  -11.0500002       3.32636523E-06
  -11.0400000      -4.08380220E-06
  -11.0299997      -5.86019405E-06
  -11.0200005      -2.00418617E-06
  -11.0100002       6.31988860E-06
  -11.0000000       1.71350021E-05
  -10.9899998       2.82028250E-05
  -10.9799995       3.76147691E-05
  -10.9700003       4.42470337E-05
  -10.9600000       4.79440569E-05
  -10.9499998       4.93784064E-05
  -10.9399996       4.96375906E-05
  -10.9300003       4.96783687E-05
  -10.9200001       4.98374029E-05
  -10.9099998       4.95766035E-05
  -10.8999996       4.75721899E-05
  -10.8900003       4.21476980E-05
  -10.8800001       3.19348619E-05
  -10.8699999       1.65588626E-05
  -10.8599997      -2.88474030E-06
  -10.8500004      -2.37517652E-05
  -10.8400002      -4.22548728E-05
  -10.8299999      -5.42968228E-05
  -10.8199997      -5.65396549E-05
  -10.8100004      -4.74271183E-05
  -10.8000002      -2.78628249E-05
  -10.7900000      -1.31627087E-06
  -10.7799997       2.67320211E-05
  -10.7700005       4.99210946E-05
  -10.7600002       6.24696331E-05
  -10.7500000       6.06158537E-05
  -10.7399998       4.36726623E-05
  -10.7299995       1.44138012E-05
  -10.7200003      -2.13357544E-05
  -10.7100000      -5.58374595E-05
  -10.6999998      -8.10560887E-05
  -10.6899996      -9.03865148E-05
  -10.6800003      -8.00920752E-05
  -10.6700001      -5.01257600E-05
  -10.6599998      -4.15495151E-06
  -10.6499996       5.12001498E-05
  -10.6400003       1.07723106E-04
  -10.6300001       1.57233779E-04
  -10.6199999       1.93132058E-04
  -10.6099997       2.11531486E-04
  -10.6000004       2.11776947E-04
  -10.5900002       1.96294175E-04
  -10.5799999       1.69869090E-04
  -10.5699997       1.38565971E-04
  -10.5600004       1.08541521E-04
  -10.5500002       8.49955395E-05
  -10.5400000       7.14293856E-05
  -10.5299997       6.92897665E-05
  -10.5200005       7.79840339E-05
  -10.5100002       9.51884940E-05
  -10.5000000       1.17342533E-04
  -10.4899998       1.40226926E-04
  -10.4799995       1.59550342E-04
  -10.4700003       1.71497188E-04
  -10.4600000       1.73207154E-04
  -10.4499998       1.63159275E-04
  -10.4399996       1.41421537E-04
  -10.4300003       1.09716901E-04
  -10.4200001       7.12598849E-05
  -10.4099998       3.03442375E-05
  -10.3999996      -8.28859538E-06
  -10.3900003      -4.02101941E-05
  -10.3800001      -6.20540595E-05
  -10.3699999      -7.20896933E-05
  -10.3599997      -7.04809136E-05
  -10.3500004      -5.91540593E-05
  -10.3400002      -4.12989430E-05
  -10.3299999      -2.06250388E-05
  -10.3199997      -5.67742120E-07
  -10.3100004       1.63423429E-05
  -10.3000002       2.87804996E-05
  -10.2900000       3.65342639E-05
  -10.2799997       4.00767458E-05
  -10.2700005       3.99824421E-05
  -10.2600002       3.64219777E-05
  -10.2500000       2.89555483E-05
  -10.2399998       1.67496146E-05
  -10.2299995      -8.08001573E-07
  -10.2200003      -2.32771799E-05
  -10.2100000      -4.84159245E-05
  -10.1999998      -7.18364681E-05
  -10.1899996      -8.73118261E-05
  -10.1800003      -8.78048668E-05
  -10.1700001      -6.70690133E-05
  -10.1599998      -2.14624197E-05
  -10.1499996       4.85089804E-05
  -10.1400003       1.37400944E-04
  -10.1300001       2.35129148E-04
  -10.1199999       3.28433176E-04
  -10.1099997       4.03274084E-04
  -10.1000004       4.47660306E-04
  -10.0900002       4.54238441E-04
  -10.0799999       4.21996490E-04
  -10.0699997       3.56614531E-04
  -10.0600004       2.69321841E-04
  -10.0500002       1.74494620E-04
  -10.0400000       8.65588299E-05
  -10.0299997       1.69510386E-05
  -10.0200005      -2.81154462E-05
  -10.0100002      -4.85382516E-05
  -10.0000000      -4.96787216E-05
  -9.98999977      -4.03974082E-05
  -9.97999954      -3.03363959E-05
  -9.97000027      -2.72039870E-05
  -9.96000004      -3.47990826E-05
  -9.94999981      -5.22887713E-05
  -9.93999958      -7.48863386E-05
  -9.93000031      -9.56725562E-05
  -9.92000008      -1.07976644E-04
  -9.90999985      -1.07579173E-04
  -9.89999962      -9.40627142E-05
  -9.89000034      -7.09006490E-05
  -9.88000011      -4.42606397E-05
  -9.86999989      -2.08960300E-05
  -9.85999966      -5.78680147E-06
  -9.85000038      -2.82769122E-07
  -9.84000015      -1.36655956E-06
  -9.82999992      -2.32737011E-06
  -9.81999969       5.28763076E-06
  -9.81000042       2.89748241E-05
  -9.80000019       7.26117723E-05
  -9.78999996       1.34641712E-04
  -9.77999973       2.07705161E-04
  -9.77000046       2.79925356E-04
  -9.76000023       3.37585661E-04
  -9.75000000       3.68529756E-04
  -9.73999977       3.65384796E-04
  -9.72999954       3.27724527E-04
  -9.72000027       2.62555172E-04
  -9.71000004       1.82944888E-04
  -9.69999981       1.05114748E-04
  -9.68999958       4.47213242E-05
  -9.68000031       1.32771884E-05
  -9.67000008       1.56157839E-05
  -9.65999985       4.90246421E-05
  -9.64999962       1.04224026E-04
  -9.64000034       1.67883336E-04
  -9.63000011       2.25976299E-04
  -9.61999989       2.67084077E-04
  -9.60999966       2.84808513E-04
  -9.60000038       2.78733292E-04
  -9.59000015       2.53786769E-04
  -9.57999992       2.18295201E-04
  -9.56999969       1.81350610E-04
  -9.56000042       1.50263309E-04
  -9.55000019       1.28795466E-04
  -9.53999996       1.16609262E-04
  -9.52999973       1.09994100E-04
  -9.52000046       1.03570615E-04
  -9.51000023       9.24093911E-05
  -9.50000000       7.39139941E-05
  -9.48999977       4.89207923E-05
  -9.47999954       2.17179659E-05
  -9.47000027      -9.90676881E-07
  -9.46000004      -1.18538446E-05
  -9.44999981      -4.86099634E-06
  -9.43999958       2.29985671E-05
  -9.43000031       7.08356019E-05
  -9.42000008       1.33920184E-04
  -9.40999985       2.04634067E-04
  -9.39999962       2.74022692E-04
  -9.39000034       3.33526870E-04
  -9.38000011       3.76475684E-04
  -9.36999989       3.99034325E-04
  -9.35999966       4.00483492E-04
  -9.35000038       3.82893078E-04
  -9.34000015       3.50390881E-04
  -9.32999992       3.08278803E-04
  -9.31999969       2.62212183E-04
  -9.31000042       2.17562876E-04
  -9.30000019       1.78973976E-04
  -9.28999996       1.50033142E-04
  -9.27999973       1.32973088E-04
  -9.27000046       1.28353509E-04
  -9.26000023       1.34766931E-04
  -9.25000000       1.48698222E-04
  -9.23999977       1.64707759E-04
  -9.22999954       1.76073620E-04
  -9.22000027       1.75916153E-04
  -9.21000004       1.58666764E-04
  -9.19999981       1.21585013E-04
  -9.18999958       6.59330180E-05
  -9.18000031      -2.57302736E-06
  -9.17000008      -7.42814882E-05
  -9.15999985      -1.37113529E-04
  -9.14999962      -1.78816248E-04
  -9.14000034      -1.89490282E-04
  -9.13000011      -1.63805351E-04
  -9.11999989      -1.02355065E-04
  -9.10999966      -1.17911522E-05
  -9.10000038       9.63290513E-05
  -9.09000015       2.07726975E-04
  -9.07999992       3.08107032E-04
  -9.06999969       3.85747087E-04
  -9.06000042       4.33388981E-04
  -9.05000019       4.49045649E-04
  -9.03999996       4.35638707E-04
  -9.02999973       3.99683806E-04
  -9.02000046       3.49466281E-04
  -9.01000023       2.93234771E-04
  -9.00000000       2.37867673E-04
  -8.98999977       1.88269842E-04
  -8.97999954       1.47499901E-04
  -8.97000027       1.17398384E-04
  -8.96000004       9.93506110E-05
  -8.94999981       9.48174202E-05
  -8.93999958       1.05391111E-04
  -8.93000031       1.32337984E-04
  -8.92000008       1.75800116E-04
  -8.90999985       2.33975123E-04
  -8.89999962       3.02627683E-04
  -8.89000034       3.75195668E-04
  -8.88000011       4.43570956E-04
  -8.86999989       4.99420974E-04
  -8.85999966       5.35738014E-04
  -8.85000038       5.48219832E-04
  -8.84000015       5.36120904E-04
  -8.82999992       5.02359355E-04
  -8.81999969       4.52867651E-04
  -8.81000042       3.95379553E-04
  -8.80000019       3.37982288E-04
  -8.78999996       2.87799252E-04
  -8.77999973       2.50093406E-04
  -8.77000046       2.27929573E-04
  -8.76000023       2.22354720E-04
  -8.75000000       2.32905659E-04
  -8.73999977       2.58185144E-04
  -8.72999954       2.96271988E-04
  -8.72000027       3.44836299E-04
  -8.71000004       4.00979712E-04
  -8.69999981       4.60953946E-04
  -8.68999958       5.19981782E-04
  -8.68000031       5.72392426E-04
  -8.67000008       6.12180622E-04
  -8.65999985       6.33947260E-04
  -8.64999962       6.34021941E-04
  -8.64000034       6.11466588E-04
  -8.63000011       5.68641699E-04
  -8.61999989       5.11104998E-04
  -8.60999966       4.46778373E-04
  -8.60000038       3.84518877E-04
  -8.59000015       3.32406024E-04
  -8.57999992       2.96157697E-04
  -8.56999969       2.78070394E-04
  -8.56000042       2.76758889E-04
  -8.55000019       2.87767354E-04
  -8.53999996       3.04894435E-04
  -8.52999973       3.21885920E-04
  -8.52000046       3.34051030E-04
  -8.51000023       3.39380058E-04
  -8.50000000       3.38875892E-04
  -8.48999977       3.36026424E-04
  -8.47999954       3.35576740E-04
  -8.47000027       3.41949693E-04
  -8.46000004       3.57756391E-04
  -8.44999981       3.82811122E-04
  -8.43999958       4.13930538E-04
  -8.43000031       4.45580925E-04
  -8.42000008       4.71213076E-04
  -8.40999985       4.84942284E-04
  -8.39999962       4.83135402E-04
  -8.39000034       4.65491001E-04
  -8.38000011       4.35331487E-04
  -8.36999989       3.99022480E-04
  -8.35999966       3.64652806E-04
  -8.35000038       3.40290717E-04
  -8.34000015       3.32230935E-04
  -8.32999992       3.43638560E-04
  -8.31999969       3.73894552E-04
  -8.31000042       4.18774231E-04
  -8.30000019       4.71389387E-04
  -8.28999996       5.23653754E-04
  -8.27999973       5.67924115E-04
  -8.27000046       5.98448387E-04
  -8.26000023       6.12322066E-04
  -8.25000000       6.09787938E-04
  -8.23999977       5.93875651E-04
  -8.22999954       5.69528842E-04
  -8.22000027       5.42468566E-04
  -8.21000004       5.18073502E-04
  -8.19999981       5.00516908E-04
  -8.18999958       4.92303341E-04
  -8.18000031       4.94232285E-04
  -8.17000008       5.05702861E-04
  -8.15999985       5.25199692E-04
  -8.14999962       5.50787314E-04
  -8.14000034       5.80473628E-04
  -8.13000011       6.12373638E-04
  -8.11999989       6.44691230E-04
  -8.10999966       6.75599265E-04
  -8.10000038       7.03129394E-04
  -8.09000015       7.25169317E-04
  -8.07999992       7.39618321E-04
  -8.06999969       7.44687102E-04
  -8.06000042       7.39275420E-04
  -8.05000019       7.23326404E-04
  -8.03999996       6.98060612E-04
  -8.02999973       6.66023232E-04
  -8.02000046       6.30922848E-04
  -8.01000023       5.97285049E-04
  -8.00000000       5.69969183E-04
  -7.98999977       5.53611608E-04
  -7.98000002       5.52052457E-04
  -7.96999979       5.67796233E-04
  -7.96000004       6.01559586E-04
  -7.94999981       6.51969051E-04
  -7.94000006       7.15481525E-04
  -7.92999983       7.86604185E-04
  -7.92000008       8.58456537E-04
  -7.90999985       9.23656684E-04
  -7.90000010       9.75423551E-04
  -7.88999987       1.00869255E-03
  -7.88000011       1.02099322E-03
  -7.86999989       1.01284322E-03
  -7.86000013       9.87507054E-04
  -7.84999990       9.50133952E-04
  -7.84000015       9.06470872E-04
  -7.82999992       8.61500041E-04
  -7.82000017       8.18407978E-04
  -7.80999994       7.78223679E-04
  -7.80000019       7.40269374E-04
  -7.78999996       7.03300408E-04
  -7.78000021       6.66958047E-04
  -7.76999998       6.33009535E-04
  -7.76000023       6.05867186E-04
  -7.75000000       5.92074590E-04
  -7.73999977       5.98772080E-04
  -7.73000002       6.31517556E-04
  -7.71999979       6.92103058E-04
  -7.71000004       7.77091482E-04
  -7.69999981       8.77638871E-04
  -7.69000006       9.80812241E-04
  -7.67999983       1.07216754E-03
  -7.67000008       1.13894022E-03
  -7.65999985       1.17297505E-03
  -7.65000010       1.17256353E-03
  -7.63999987       1.14265177E-03
  -7.63000011       1.09335710E-03
  -7.61999989       1.03722769E-03
  -7.61000013       9.86043829E-04
  -7.59999990       9.48081317E-04
  -7.59000015       9.26582259E-04
  -7.57999992       9.19795362E-04
  -7.57000017       9.22450505E-04
  -7.55999994       9.28107998E-04
  -7.55000019       9.31596092E-04
  -7.53999996       9.30774899E-04
  -7.53000021       9.27133195E-04
  -7.51999998       9.25128290E-04
  -7.51000023       9.30573849E-04
  -7.50000000       9.48648201E-04
  -7.48999977       9.82155791E-04
  -7.48000002       1.03053055E-03
  -7.46999979       1.08979142E-03
  -7.46000004       1.15336198E-03
  -7.44999981       1.21343404E-03
  -7.44000006       1.26247318E-03