  -16.0000000       0.00000000    
  -15.9899998       0.00000000    
  -15.9799995       0.00000000    
  -15.9700003       0.00000000    
  -15.9600000       0.00000000    
  -15.9499998       0.00000000    
  -15.9399996       0.00000000    
  -15.9300003       0.00000000    
  -15.9200001       0.00000000    
  -15.9099998       0.00000000    
  -15.8999996       0.00000000    
  -15.8900003      -4.91575501E-42
  -15.8800001      -3.62371579E-40
  -15.8699999      -7.65752017E-39
  -15.8599997      -8.23356623E-38
  -15.8500004      -5.16914610E-37
  -15.8400002      -1.57854061E-36
  -15.8299999       4.52052015E-36
  -15.8199997       9.41155649E-35
  -15.8100004       7.18545350E-34
  -15.8000002       3.91520508E-33
  -15.7900000       1.72554666E-32
  -15.7799997       6.47392582E-32
  -15.7700005       2.12486120E-31
  -15.7600002       6.20209674E-31
  -15.7500000       1.62619149E-30
  -15.7399998       3.85156949E-30
  -15.7299995       8.25188157E-30
  -15.7200003       1.59375894E-29
  -15.7100000       2.74481249E-29
  -15.6999998       4.10814278E-29
  -15.6899996       5.00421359E-29
  -15.6800003       3.88563047E-29
  -15.6700001      -1.90482506E-29
  -15.6599998      -1.58573922E-28
  -15.6499996      -4.09063957E-28
  -15.6400003      -7.63715145E-28
  -15.6300001      -1.13241455E-27
  -15.6199999      -1.29191073E-27
  -15.6099997      -8.68555212E-28
  -15.6000004       5.90236620E-28
  -15.5900002       3.39738896E-27
  -15.5799999       7.34437361E-27
  -15.5699997       1.12479131E-26
  -15.5600004       1.26810261E-26
  -15.5500002       8.29690312E-27
  -15.5400000      -4.84346267E-27
  -15.5299997      -2.68515063E-26
  -15.5200005      -5.21606787E-26
  -15.5100002      -6.79456251E-26
  -15.5000000      -5.63060380E-26
  -15.4899998      -2.35121803E-27
  -15.4799995       9.21272811E-26
  -15.4700003       1.94450528E-25
  -15.4600000       2.36941201E-25
  -15.4499998       1.36266921E-25
  -15.4399996      -1.55623299E-25
  -15.4300003      -5.77876753E-25
  -15.4200001      -9.00439265E-25
  -15.4099998      -7.38676878E-25
  -15.3999996       2.93181117E-25
  -15.3900003       2.27144175E-24
  -15.3800001       4.58117560E-24
  -15.3699999       5.68811390E-24
  -15.3599997       3.38910501E-24
  -15.3500004      -4.18449256E-24
  -15.3400002      -1.68379773E-23
  -15.3299999      -3.04446856E-23
  -15.3199997      -3.61588974E-23
  -15.3100004      -2.22535989E-23
  -15.3000002       2.03666625E-23
  -15.2900000       8.95820157E-23
  -15.2799997       1.63638542E-22
  -15.2700005       1.98722443E-22
  -15.2600002       1.39096057E-22
  -15.2500000      -5.67277513E-23
  -15.2399998      -3.78150711E-22
  -15.2299995      -7.28414520E-22
  -15.2200003      -9.19027347E-22
  -15.2100000      -7.17571103E-22
  -15.1999998       4.21719486E-23
  -15.1899996       1.31219502E-21
  -15.1800003       2.71037521E-21
  -15.1700001       3.52341257E-21
  -15.1599998       2.91519733E-21
  -15.1499996       3.49447711E-22
  -15.1400003      -3.89522784E-21
  -15.1300001      -8.38199805E-21
  -15.1199999      -1.06775680E-20
  -15.1099997      -8.25216786E-21
  -15.1000004      -2.82768075E-23
  -15.0900002       1.20009843E-20
  -15.0799999       2.21151794E-20
  -15.0699997       2.22930070E-20
  -15.0600004       6.25168365E-21
  -15.0500002      -2.47479676E-20
  -15.0400000      -5.70064185E-20
  -15.0299997      -6.44891008E-20
  -15.0200005      -1.77855609E-20
  -15.0100002       9.71639305E-20
  -15.0000000       2.55440766E-19
  -14.9899998       3.76521060E-19
  -14.9799995       3.31335828E-19
  -14.9700003      -1.24134284E-20
  -14.9600000      -7.04921457E-19
  -14.9499998      -1.61069881E-18
  -14.9399996      -2.33643161E-18
  -14.9300003      -2.25886523E-18
  -14.9200001      -7.13615177E-19
  -14.9099998       2.64287659E-18
  -14.8999996       7.37673384E-18
  -14.8900003       1.19147567E-17
  -14.8800001       1.35497247E-17
  -14.8699999       9.07627070E-18
  -14.8599997      -3.83792159E-18
  -14.8500004      -2.47630181E-17
  -14.8400002      -4.87401187E-17
  -14.8299999      -6.56432402E-17
  -14.8199997      -6.17617647E-17
  -14.8100004      -2.42759825E-17
  -14.8000002       5.17274551E-17
  -14.7900000       1.55546364E-16
  -14.7799997       2.55811415E-16
  -14.7700005       3.02227682E-16
  -14.7600002       2.37497477E-16
  -14.7500000       1.99922192E-17
  -14.7399998      -3.47014231E-16
  -14.7299995      -7.89292776E-16
  -14.7200003      -1.15273201E-15
  -14.7100000      -1.22562766E-15
  -14.6999998      -8.00049935E-16
  -14.6899996       2.33119984E-16
  -14.6800003       1.77900234E-15
  -14.6700001       3.46433172E-15
  -14.6599998       4.64346596E-15
  -14.6499996       4.52580630E-15
  -14.6400003       2.43470833E-15
  -14.6300001      -1.84337303E-15
  -14.6199999      -7.72070447E-15
  -14.6099997      -1.36294555E-14
  -14.6000004      -1.71588208E-14
  -14.5900002      -1.56111848E-14
  -14.5799999      -6.95792716E-15
  -14.5699997       8.99847823E-15
  -14.5600004       2.96273321E-14
  -14.5500002       4.91199556E-14
  -14.5400000       5.92379878E-14
  -14.5299997       5.13830921E-14
  -14.5200005       1.97907215E-14
  -14.5100002      -3.48827988E-14
  -14.5000000      -1.02796406E-13
  -14.4899998      -1.64426984E-13
  -14.4799995      -1.93549346E-13
  -14.4700003      -1.64103879E-13
  -14.4600000      -6.00616629E-14
  -14.4499998       1.14119827E-13
  -14.4399996       3.26104269E-13
  -14.4300003       5.15399138E-13
  -14.4200001       6.03300179E-13
  -14.4099998       5.13685448E-13
  -14.3999996       2.01578351E-13
  -14.3900003      -3.17666602E-13
  -14.3800001      -9.48782394E-13
  -14.3699999      -1.51744481E-12
  -14.3599997      -1.79936740E-12
  -14.3500004      -1.57847335E-12
  -14.3400002      -7.25097933E-13
  -14.3299999       7.25243704E-13
  -14.3199997       2.51949178E-12
  -14.3100004       4.18896081E-12
  -14.3000002       5.12511301E-12
  -14.2900000       4.73076483E-12
  -14.2799997       2.62342448E-12
  -14.2700005      -1.15832062E-12
  -14.2600002      -6.01273198E-12
  -14.2500000      -1.07667200E-11
  -14.2399998      -1.38510453E-11
  -14.2299995      -1.36654134E-11
  -14.2200003      -9.08054534E-12
  -14.2100000       3.75123042E-14
  -14.1999998       1.24406744E-11
  -14.1899996       2.54179351E-11
  -14.1800003       3.51463858E-11
  -14.1700001       3.75048291E-11
  -14.1599998       2.92460431E-11
  -14.1499996       9.27983124E-12
  -14.1400003      -2.02920597E-11
  -14.1300001      -5.37824577E-11
  -14.1199999      -8.24844984E-11
  -14.1099997      -9.63199243E-11
  -14.1000004      -8.64046265E-11
  -14.0900002      -4.80431632E-11
  -14.0799999       1.66060568E-11
  -14.0699997       9.70759029E-11
  -14.0600004       1.75124235E-10
  -14.0500002       2.27675517E-10
  -14.0400000       2.32009287E-10
  -14.0299997       1.72341280E-10
  -14.0200005       4.63079436E-11
  -14.0100002      -1.30514835E-10
  -14.0000000      -3.23877453E-10
  -13.9899998      -4.85145923E-10
  -13.9799995      -5.60773705E-10
  -13.9700003      -5.05710918E-10
  -13.9600000      -2.98084640E-10
  -13.9499998       4.85551079E-11
  -13.9399996       4.79413786E-10
  -13.9300003       9.02298125E-10
  -13.9200001       1.20255828E-09
  -13.9099998       1.26789790E-09
  -13.8999996       1.01885911E-09
  -13.8900003       4.38233394E-10
  -13.8800001      -4.08701711E-10
  -13.8699999      -1.37071809E-09
  -13.8599997      -2.22889995E-09
  -13.8500004      -2.73700351E-09
  -13.8400002      -2.67855604E-09
  -13.8299999      -1.92969130E-09
  -13.8199997      -5.12724918E-10
  -13.8100004       1.37551215E-09
  -13.8000002       3.37356165E-09
  -13.7900000       5.00940711E-09
  -13.7799997       5.79457726E-09
  -13.7700005       5.34297140E-09
  -13.7600002       3.48950357E-09
  -13.7500000       3.78519965E-10
  -13.7399998      -3.50657681E-09
  -13.7299995      -7.39193284E-09
  -13.7200003      -1.03436388E-08
  -13.7100000      -1.14635812E-08
  -13.6999998      -1.01147899E-08
  -13.6899996      -6.12616402E-09
  -13.6800003       7.77911138E-11
  -13.6700001       7.46784501E-09
  -13.6599998       1.45454457E-08
  -13.6499996       1.96150420E-08
  -13.6400003       2.11506954E-08
  -13.6300001       1.81840107E-08
  -13.6199999       1.06233404E-08
  -13.6099997      -5.83488147E-10
  -13.6000004      -1.35061118E-08
  -13.5900002      -2.55277843E-08
  -13.5799999      -3.38452146E-08
  -13.5699997      -3.60824757E-08
  -13.5600004      -3.08895594E-08
  -13.5500002      -1.83827673E-08
  -13.5400000      -3.03617992E-10
  -13.5299997       2.01748342E-08
  -13.5200005       3.89899490E-08
  -13.5100002       5.19919716E-08
  -13.5000000       5.58482789E-08
  -13.4899998       4.88503318E-08
  -13.4799995       3.14283533E-08
  -13.4700003       6.23043750E-09
  -13.4600000      -2.22862901E-08
  -13.4499998      -4.86933160E-08
  -13.4399996      -6.76922625E-08
  -13.4300003      -7.52420135E-08
  -13.4200001      -6.94531863E-08
  -13.4099998      -5.10341245E-08
  -13.3999996      -2.31707844E-08
  -13.3900003       9.14380927E-09
  -13.3800001       4.01794900E-08
  -13.3699999       6.46838600E-08
  -13.3599997       7.89459236E-08
  -13.3500004       8.14467924E-08
  -13.3400002       7.29412051E-08
  -13.3299999       5.59664066E-08
  -13.3199997       3.39352084E-08
  -13.3100004       1.00931672E-08
  -13.3000002      -1.33316655E-08
  -13.2900000      -3.55044421E-08
  -13.2799997      -5.67393101E-08
  -13.2700005      -7.76848879E-08
  -13.2600002      -9.81911228E-08
  -13.2500000      -1.16257866E-07
  -13.2399998      -1.27509651E-07
  -13.2299995      -1.25550642E-07
  -13.2200003      -1.03335900E-07
  -13.2100000      -5.53927855E-08
  -13.1999998       1.95874570E-08
  -13.1899996       1.16501340E-07
  -13.1800003       2.22716636E-07
  -13.1700001       3.18739723E-07
  -13.1599998       3.80969908E-07
  -13.1499996       3.86339138E-07
  -13.1400003       3.18080026E-07
  -13.1300001       1.71399549E-07
  -13.1199999      -4.24022524E-08
  -13.1099997      -2.94737418E-07
  -13.1000004      -5.42369094E-07
  -13.0900002      -7.34022592E-07
  -13.0799999      -8.20160437E-07
  -13.0699997      -7.64203264E-07
  -13.0600004      -5.52829988E-07
  -13.0500002      -2.02812743E-07
  -13.0400000       2.37752218E-07
  -13.0299997       6.94974517E-07
  -13.0200005       1.08120912E-06
  -13.0100002       1.31180173E-06
  -13.0000000       1.32339164E-06
  -12.9899998       1.08984102E-06
  -12.9799995       6.31906971E-07
  -12.9700003       1.77410477E-08
  -12.9600000      -6.46914600E-07
  -12.9499998      -1.23770531E-06
  -12.9399996      -1.63643142E-06
  -12.9300003      -1.75652337E-06
  -12.9200001      -1.56347562E-06
  -12.9099998      -1.08513359E-06
  -12.8999996      -4.08668768E-07
  -12.8900003       3.36033281E-07
  -12.8800001       1.00361319E-06
  -12.8699999       1.46534364E-06
  -12.8599997       1.63870266E-06
  -12.8500004       1.50707183E-06
  -12.8400002       1.12411203E-06
  -12.8299999       6.00802593E-07
  -12.8199997       7.73648878E-08
  -12.8100004      -3.13668664E-07
  -12.8000002      -4.84192469E-07
  -12.7900000      -4.17326390E-07
  -12.7799997      -1.76290726E-07
  -12.7700005       1.08628065E-07
  -12.7600002       2.73594821E-07
  -12.7500000       1.68248519E-07
  -12.7399998      -2.95019447E-07
  -12.7299995      -1.10254803E-06
  -12.7200003      -2.12323630E-06
  -12.7100000      -3.12176007E-06
  -12.6999998      -3.80142387E-06
  -12.6899996      -3.86941247E-06
  -12.6800003      -3.11084727E-06
  -12.6700001      -1.45453953E-06
  -12.6599998       9.86234113E-07
  -12.6499996       3.91004687E-06
  -12.6400003       6.86498561E-06
  -12.6300001       9.32250259E-06
  -12.6199999       1.07735686E-05
  -12.6099997       1.08273643E-05
  -12.6000004       9.29137332E-06
  -12.5900002       6.21530398E-06
  -12.5799999       1.88920490E-06
  -12.5699997      -3.20352569E-06
  -12.5600004      -8.46719831E-06
  -12.5500002      -1.32902824E-05
  -12.5400000      -1.71355859E-05
  -12.5299997      -1.96049805E-05
  -12.5200005      -2.04669250E-05
  -12.5100002      -1.96454966E-05
  -12.5000000      -1.71801548E-05
  -12.4899998      -1.31735223E-05
  -12.4799995      -7.74720684E-06
  -12.4700003      -1.02265528E-06
  -12.4600000       6.86449039E-06
  -12.4499998       1.57196791E-05
  -12.4399996       2.52290884E-05
  -12.4300003       3.49063666E-05
  -12.4200001       4.40711156E-05
  -12.4099998       5.18783600E-05
  -12.3999996       5.74063197E-05
  -12.3900003       5.97941580E-05
  -12.3800001       5.84058071E-05
  -12.3699999       5.29850113E-05
  -12.3599997       4.37633425E-05
  -12.3500004       3.14892568E-05
  -12.3400002       1.73610133E-05
  -12.3299999       2.86699242E-06
  -12.3199997      -1.04416777E-05
  -12.3100004      -2.12038394E-05
  -12.3000002      -2.84756679E-05
  -12.2900000      -3.18846469E-05
  -12.2799997      -3.16761216E-05
  -12.2700005      -2.86407048E-05
  -12.2600002      -2.39365399E-05
  -12.2500000      -1.88435788E-05
  -12.2399998      -1.45022277E-05
  -12.2299995      -1.16921829E-05
  -12.2200003      -1.06981925E-05
  -12.2100000      -1.12897178E-05
  -12.1999998      -1.28156762E-05
  -12.1899996      -1.43895531E-05
  -12.1800003      -1.51201621E-05
  -12.1700001      -1.43338048E-05
  -12.1599998      -1.17366571E-05
  -12.1499996      -7.48097727E-06
  -12.1400003      -2.12180885E-06
  -12.1300001       3.52337702E-06
  -12.1199999       8.57699615E-06
  -12.1099997       1.23162145E-05
  -12.1000004       1.43482239E-05
  -12.0900002       1.47031351E-05
  -12.0799999       1.38210507E-05
  -12.0699997       1.24347143E-05
  -12.0600004       1.13740289E-05
  -12.0500002       1.13379529E-05
  -12.0400000       1.26885197E-05
  -12.0299997       1.53187084E-05
  -12.0200005       1.86309462E-05
  -12.0100002       2.16390636E-05
  -12.0000000       2.31784761E-05
  -11.9899998       2.21831997E-05
  -11.9799995       1.79699291E-05
  -11.9700003       1.04631381E-05
  -11.9600000       3.03463338E-07
  -11.9499998      -1.11965874E-05
  -11.9399996      -2.22538893E-05
  -11.9300003      -3.09419702E-05
  -11.9200001      -3.55820812E-05
  -11.9099998      -3.51160998E-05
  -11.8999996      -2.93762096E-05
  -11.8900003      -1.91825293E-05
  -11.8800001      -6.23317055E-06
  -11.8699999       7.20442813E-06
  -11.8599997       1.87458918E-05
  -11.8500004       2.63937054E-05
  -11.8400002       2.89812961E-05
  -11.8299999       2.64519440E-05
  -11.8199997       1.98979651E-05
  -11.8100004       1.13366432E-05
  -11.8000002       3.25966016E-06
  -11.7900000      -1.95129769E-06
  -11.7799997      -2.61249261E-06
  -11.7700005       1.80946495E-06
  -11.7600002       1.04958608E-05
  -11.7500000       2.13866442E-05
  -11.7399998       3.15944235E-05
  -11.7299995       3.80397105E-05
  -11.7200003       3.81687423E-05
  -11.7100000       3.05896756E-05
  -11.6999998       1.54754889E-05
  -11.6899996      -5.36826292E-06
  -11.6800003      -2.87969397E-05
  -11.6700001      -5.09239871E-05
  -11.6599998      -6.78923243E-05
  -11.6499996      -7.66489684E-05
  -11.6400003      -7.55508372E-05
  -11.6300001      -6.46697154E-05
  -11.6199999      -4.57356582E-05
  -11.6099997      -2.17427496E-05
  -11.6000004       3.68182668E-06
  -11.5900002       2.69941702E-05
  -11.5799999       4.53725297E-05
  -11.5699997       5.71439123E-05
  -11.5600004       6.19235216E-05
  -11.5500002       6.04667839E-05
  -11.5400000       5.43029528E-05
  -11.5299997       4.52661807E-05
  -11.5200005       3.50529554E-05
  -11.5100002       2.49129898E-05
  -11.5000000       1.55325197E-05
  -11.4899998       7.10884387E-06
  -11.4799995      -4.39011075E-07
  -11.4700003      -7.21232527E-06
  -11.4600000      -1.31213865E-05
  -11.4499998      -1.77918992E-05
  -11.4399996      -2.06176246E-05
  -11.4300003      -2.09392147E-05
  -11.4200001      -1.82887725E-05
  -11.4099998      -1.26190043E-05
  -11.3999996      -4.43963654E-06
  -11.3900003       5.18994420E-06
  -11.3800001       1.48223289E-05
  -11.3699999       2.29056132E-05
  -11.3599997       2.81225821E-05
  -11.3500004       2.97031038E-05
  -11.3400002       2.76320934E-05
  -11.3299999       2.26989960E-05
  -11.3199997       1.63705790E-05
  -11.3100004       1.05081126E-05
  -11.3000002       6.98398162E-06
  -11.2900000       7.27445149E-06
  -11.2799997       1.21111052E-05
  -11.2700005       2.12630657E-05
  -11.2600002       3.34980105E-05
  -11.2500000       4.67368809E-05
  -11.2399998       5.83809342E-05
  -11.2299995       6.57567798E-05
  -11.2200003       6.66009000E-05
  -11.2100000       5.94949306E-05
  -11.1999998       4.41692100E-05
  -11.1899996       2.16150547E-05
  -11.1800003      -6.01806050E-06
  -11.1700001      -3.57219833E-05
  -11.1599998      -6.40681246E-05
  -11.1499996      -8.76992999E-05
  -11.1400003      -1.03782302E-04
  -11.1300001      -1.10342422E-04
  -11.1199999      -1.06434505E-04
  -11.1099997      -9.21483952E-05
  -11.1000004      -6.84870756E-05
  -11.0900002      -3.71816313E-05
  -11.0799999      -5.09389906E-07
  -11.0699997       3.88406079E-05
  -11.0600004       7.78497633E-05
  -11.0500002       1.13236536E-04
  -11.0400000       1.41572862E-04
  -11.0299997       1.59516494E-04
  -11.0200005       1.64194455E-04
  -11.0100002       1.53715344E-04
  -11.0000000       1.27720923E-04
  -10.9899998       8.78343053E-05
  -10.9799995       3.78436780E-05
  -10.9700003      -1.65092515E-05
  -10.9600000      -6.81882011E-05
  -10.9499998      -1.09910383E-04
  -10.9399996      -1.35412149E-04
  -10.9300003      -1.40677090E-04
  -10.9200001      -1.24845727E-04
  -10.9099998      -9.05713314E-05
  -10.8999996      -4.36969276E-05
  -10.8900003       7.72068779E-06
  -10.8800001       5.48609860E-05
  -10.8699999       8.97693317E-05
  -10.8599997       1.06824817E-04
  -10.8500004       1.03739432E-04
  -10.8400002       8.18887929E-05
  -10.8299999       4.59259209E-05
  -10.8199997       2.78686798E-06
  -10.8100004      -3.96793257E-05
  -10.8000002      -7.41609983E-05
  -10.7900000      -9.51271068E-05
  -10.7799997      -9.96457748E-05
  -10.7700005      -8.76680060E-05
  -10.7600002      -6.17818732E-05
  -10.7500000      -2.65388862E-05
  -10.7399998       1.24855069E-05
  -10.7299995       4.97149849E-05
  -10.7200003       8.05087984E-05
  -10.7100000       1.01873826E-04
  -10.6999998       1.12855188E-04
  -10.6899996       1.14551003E-04
  -10.6800003       1.09741173E-04
  -10.6700001       1.02170976E-04
  -10.6599998       9.55881114E-05
  -10.6499996       9.26940775E-05
  -10.6400003       9.42217084E-05
  -10.6300001       9.83728096E-05
  -10.6199999       1.00820667E-04
  -10.6099997       9.53928320E-05
  -10.6000004       7.54052162E-05
  -10.5900002       3.54454860E-05
  -10.5799999      -2.67545929E-05
  -10.5699997      -1.08813823E-04
  -10.5600004      -2.03010903E-04
  -10.5500002      -2.96728074E-04
  -10.5400000      -3.74115218E-04
  -10.5299997      -4.18771320E-04
  -10.5200005      -4.16964700E-04
  -10.5100002      -3.60727397E-04
  -10.5000000      -2.50121782E-04
  -10.4899998      -9.41084072E-05
  -10.4799995       9.02731990E-05
  -10.4700003       2.80335371E-04
  -10.4600000       4.51345113E-04
  -10.4499998       5.80592314E-04
  -10.4399996       6.51112176E-04
  -10.4300003       6.54333213E-04
  -10.4200001       5.91172604E-04
  -10.4099998       4.71447827E-04
  -10.3999996       3.11832177E-04
  -10.3900003       1.32863410E-04
  -10.3800001      -4.43465942E-05
  -10.3699999      -2.01073650E-04
  -10.3599997      -3.23144952E-04
  -10.3500004      -4.02076083E-04
  -10.3400002      -4.35199065E-04
  -10.3299999      -4.24990663E-04
  -10.3199997      -3.77907854E-04
  -10.3100004      -3.03033157E-04
  -10.3000002      -2.10758080E-04
  -10.2900000      -1.11628069E-04
  -10.2799997      -1.53832443E-05
  -10.2700005       6.98163494E-05
  -10.2600002       1.37989162E-04
  -10.2500000       1.85729819E-04
  -10.2399998       2.12349682E-04
  -10.2299995       2.19700596E-04
  -10.2200003       2.11662133E-04
  -10.2100000       1.93346277E-04
  -10.1999998       1.70155210E-04
  -10.1899996       1.46881532E-04
  -10.1800003       1.27040446E-04
  -10.1700001       1.12560199E-04
  -10.1599998       1.03850289E-04
  -10.1499996       1.00150872E-04
  -10.1400003       9.99882250E-05
  -10.1300001       1.01550482E-04
  -10.1199999       1.02864280E-04
  -10.1099997       1.01771962E-04
  -10.1000004       9.58338860E-05
  -10.0900002       8.23558148E-05
  -10.0799999       5.87263894E-05
  -10.0699997       2.31362210E-05
  -10.0600004      -2.44302555E-05
  -10.0500002      -8.12217186E-05
  -10.0400000      -1.41167620E-04
  -10.0299997      -1.95125060E-04
  -10.0200005      -2.32128936E-04
  -10.0100002      -2.41558606E-04
  -10.0000000      -2.15810156E-04
  -9.98999977      -1.52813533E-04
  -9.97999954      -5.76531893E-05
  -9.97000027       5.73086290E-05
  -9.96000004       1.74063898E-04
  -9.94999981       2.72144069E-04
  -9.93999958       3.32710566E-04
  -9.93000031       3.42607120E-04
  -9.92000008       2.97385384E-04
  -9.90999985       2.02543291E-04
  -9.89999962       7.26614599E-05
  -9.89000034      -7.13437330E-05
  -9.88000011      -2.06163895E-04
  -9.86999989      -3.10288247E-04
  -9.85999966      -3.67497123E-04
  -9.85000038      -3.68986250E-04
  -9.84000015      -3.13877303E-04
  -9.82999992      -2.08320125E-04
  -9.81999969      -6.37143821E-05
  -9.81000042       1.05313913E-04
  -9.80000019       2.82667403E-04
  -9.78999996       4.52031643E-04
  -9.77999973       5.97711361E-04
  -9.77000046       7.05351820E-04
  -9.76000023       7.62881420E-04
  -9.75000000       7.61847419E-04
  -9.73999977       6.99024124E-04
  -9.72999954       5.77875238E-04
  -9.72000027       4.09286324E-04
  -9.71000004       2.11036138E-04
  -9.69999981       5.76297907E-06
  -9.68999958      -1.82383592E-04
  -9.68000031      -3.31770687E-04
  -9.67000008      -4.27064602E-04
  -9.65999985      -4.61819232E-04
  -9.64999962      -4.39194962E-04
  -9.64000034      -3.70627851E-04
  -9.63000011      -2.72834324E-04
  -9.61999989      -1.63990175E-04
  -9.60999966      -6.01144238E-05
  -9.60000038       2.74374888E-05
  -9.59000015       9.28697627E-05
  -9.57999992       1.35264447E-04
  -9.56999969       1.56840208E-04
  -9.56000042       1.60943062E-04
  -9.55000019       1.50536594E-04
  -9.53999996       1.27662817E-04
  -9.52999973       9.38963713E-05
  -9.52000046       5.13885134E-05
  -9.51000023       3.85463863E-06
  -9.50000000      -4.31091830E-05
  -9.48999977      -8.27053664E-05
  -9.47999954      -1.08499538E-04
  -9.47000027      -1.16352101E-04
  -9.46000004      -1.05978441E-04
  -9.44999981      -8.14632513E-05
  -9.43999958      -5.03877673E-05
  -9.43000031      -2.17171528E-05
  -9.42000008      -3.06059042E-06
  -9.40999985       1.81523228E-06
  -9.39999962      -5.62706282E-06
  -9.39000034      -1.89197399E-05
  -9.38000011      -2.84125836E-05
  -9.36999989      -2.41502221E-05
  -9.35999966       1.09193411E-06
  -9.35000038       4.95593376E-05
  -9.34000015       1.17736374E-04
  -9.32999992       1.97220594E-04
  -9.31999969       2.76906299E-04
  -9.31000042       3.45733162E-04
  -9.30000019       3.95129842E-04
  -9.28999996       4.20459197E-04
  -9.27999973       4.21172736E-04
  -9.27000046       3.99850891E-04
  -9.26000023       3.60666163E-04
  -9.25000000       3.07934039E-04
  -9.23999977       2.45279603E-04
  -9.22999954       1.75613575E-04
  -9.22000027       1.01730635E-04
  -9.21000004       2.70674263E-05
  -9.19999981      -4.38974821E-05
  -9.18999958      -1.05936924E-04
  -9.18000031      -1.54056877E-04
  -9.17000008      -1.84810182E-04
  -9.15999985      -1.97375834E-04
  -9.14999962      -1.93867614E-04
  -9.14000034      -1.78606890E-04
  -9.13000011      -1.56507842E-04
  -9.11999989      -1.31116933E-04
  -9.10999966      -1.03058141E-04
  -9.10000038      -6.95619092E-05
  -9.09000015      -2.54075167E-05
  -9.07999992       3.48999420E-05
  -9.06999969       1.14381008E-04
  -9.06000042       2.11200691E-04
  -9.05000019       3.17547499E-04
  -9.03999996       4.20297845E-04
  -9.02999973       5.03419957E-04
  -9.02000046       5.51497214E-04
  -9.01000023       5.53369930E-04
  -9.00000000       5.04848955E-04
  -8.98999977       4.09752509E-04
  -8.97999954       2.79056054E-04
  -8.97000027       1.28528787E-04
  -8.96000004      -2.43450613E-05
  -8.94999981      -1.63241013E-04
  -8.93999958      -2.74952443E-04
  -8.93000031      -3.50158691E-04
  -8.92000008      -3.83218779E-04
  -8.90999985      -3.71549570E-04
  -8.89999962      -3.15213139E-04
  -8.89000034      -2.17104636E-04
  -8.88000011      -8.37095213E-05
  -8.86999989       7.40341347E-05
  -8.85999966       2.40474517E-04
  -8.85000038       3.96225107E-04
  -8.84000015       5.20640635E-04
  -8.82999992       5.95476886E-04
  -8.81999969       6.08878036E-04
  -8.81000042       5.58534346E-04
  -8.80000019       4.52938431E-04
  -8.78999996       3.10141419E-04
  -8.77999973       1.54138281E-04
  -8.77000046       9.74744307E-06
  -8.76000023      -1.02650549E-04
  -8.75000000      -1.71077583E-04
  -8.73999977      -1.93570304E-04
  -8.72999954      -1.77107722E-04
  -8.72000027      -1.34343602E-04
  -8.71000004      -7.92804931E-05
  -8.69999981      -2.32822240E-05
  -8.68999958       2.73844980E-05
  -8.68000031       7.18787123E-05
  -8.67000008       1.13141767E-04
  -8.65999985       1.55100162E-04
  -8.64999962       1.99873277E-04
  -8.64000034       2.46056996E-04
  -8.63000011       2.88689102E-04
  -8.61999989       3.20841937E-04
  -8.60999966       3.36178229E-04
  -8.60000038       3.31461284E-04
  -8.59000015       3.08053161E-04
  -8.57999992       2.71827303E-04
  -8.56999969       2.31518163E-04
  -8.56000042       1.96099849E-04
  -8.55000019       1.72126805E-04
  -8.53999996       1.61962744E-04
  -8.52999973       1.63482764E-04
  -8.52000046       1.71294902E-04
  -8.51000023       1.78987975E-04
  -8.50000000       1.81569703E-04
  -8.48999977       1.77229012E-04
  -8.47999954       1.67832695E-04
  -8.47000027       1.58042021E-04
  -8.46000004       1.53427100E-04
  -8.44999981       1.58289709E-04
  -8.43999958       1.73971581E-04
  -8.43000031       1.98214300E-04
  -8.42000008       2.25743133E-04
  -8.40999985       2.49823061E-04
  -8.39999962       2.64230417E-04
  -8.39000034       2.64998409E-04
  -8.38000011       2.51433928E-04
  -8.36999989       2.26196906E-04
  -8.35999966       1.94552762E-04
  -8.35000038       1.63139193E-04
  -8.34000015       1.38653893E-04
  -8.32999992       1.26775849E-04
  -8.31999969       1.31445195E-04
  -8.31000042       1.54447247E-04
  -8.30000019       1.95156827E-04
  -8.28999996       2.50338577E-04
  -8.27999973       3.14031902E-04
  -8.27000046       3.77697375E-04
  -8.26000023       4.30869695E-04
  -8.25000000       4.62488650E-04
  -8.23999977       4.62865399E-04
  -8.22999954       4.25958337E-04
  -8.22000027       3.51392431E-04
  -8.21000004       2.45575648E-04
  -8.19999981       1.21407262E-04
  -8.18999958      -3.58051079E-06
  -8.18000031      -1.10351662E-04
  -8.17000008      -1.82060292E-04
  -8.15999985      -2.07381905E-04
  -8.14999962      -1.82614560E-04
  -8.14000034      -1.12017231E-04
  -8.13000011      -6.36100049E-06
  -8.11999989       1.19814838E-04
  -8.10999966       2.51395599E-04
  -8.10000038       3.75415606E-04
  -8.09000015       4.82626318E-04
  -8.07999992       5.67662122E-04
  -8.06999969       6.28058158E-04
  -8.06000042       6.62750856E-04
  -8.05000019       6.70813199E-04
  -8.03999996       6.51010370E-04
  -8.02999973       6.02374610E-04
  -8.02000046       5.25537995E-04
  -8.01000023       4.24207654E-04
  -8.00000000       3.06054164E-04
  -7.98999977       1.82456148E-04
  -7.98000002       6.69423898E-05
  -7.96999979      -2.73429960E-05
  -7.96000004      -9.04373155E-05
  -7.94999981      -1.17750395E-04
  -7.94000006      -1.10927467E-04
  -7.92999983      -7.70615152E-05
  -7.92000008      -2.64534683E-05
  -7.90999985       3.04167024E-05
  -7.90000010       8.57907798E-05
  -7.88999987       1.36529983E-04
  -7.88000011       1.84454315E-04
  -7.86999989       2.35059837E-04
  -7.86000013       2.95049162E-04
  -7.84999990       3.69458372E-04
  -7.84000015       4.59259551E-04
  -7.82999992       5.60145592E-04
  -7.82000017       6.62827864E-04
  -7.80999994       7.54731125E-04
  -7.80000019       8.22592236E-04
  -7.78999996       8.55261576E-04
  -7.78000021       8.46016628E-04
  -7.76999998       7.93889456E-04
  -7.76000023       7.03810598E-04
  -7.75000000       5.85669652E-04
  -7.73999977       4.52618202E-04
  -7.73000002       3.19034007E-04
  -7.71999979       1.98543596E-04
  -7.71000004       1.02397389E-04
  -7.69999981       3.83587831E-05
  -7.69000006       1.01567412E-05
  -7.67999983       1.74752986E-05
  -7.67000008       5.64113689E-05
  -7.65999985       1.20309996E-04
  -7.65000010       2.00859649E-04
  -7.63999987       2.89298157E-04
  -7.63000011       3.77552700E-04
  -7.61999989       4.59132018E-04
  -7.61000013       5.29630284E-04
  -7.59999990       5.86782349E-04
  -7.59000015       6.30119990E-04
  -7.57999992       6.60376740E-04
  -7.57000017       6.78843295E-04
  -7.55999994       6.86860236E-04
  -7.55000019       6.85555337E-04
  -7.53999996       6.75821793E-04
  -7.53000021       6.58432604E-04
  -7.51999998       6.34146389E-04
  -7.51000023       6.03693887E-04
  -7.50000000       5.67633775E-04
  -7.48999977       5.26181364E-04
  -7.48000002       4.79188660E-04
  -7.46999979       4.26442741E-04
  -7.46000004       3.68330308E-04
  -7.44999981       3.06735485E-04
  -7.44000006       2.45858188E-04