  -16.0000000       0.00000000    
  -15.9899998       0.00000000    
  -15.9799995       0.00000000    
  -15.9700003       0.00000000    
  -15.9600000       0.00000000    
  -15.9499998       0.00000000    
  -15.9399996       0.00000000    
  -15.9300003       0.00000000    
  -15.9200001       0.00000000    
  -15.9099998       0.00000000    
  -15.8999996       2.80401224E-40
  -15.8900003       1.73243048E-38
  -15.8800001       4.29576407E-37
  -15.8699999       6.37445102E-36
  -15.8599997       6.56871237E-35
  -15.8500004       5.11400149E-34
  -15.8400002       3.17962920E-33
  -15.8299999       1.64145296E-32
  -15.8199997       7.23776851E-32
  -15.8100004       2.78375541E-31
  -15.8000002       9.48738951E-31
  -15.7900000       2.89899458E-30
  -15.7799997       8.00976058E-30
  -15.7700005       2.01245581E-29
  -15.7600002       4.61175872E-29
  -15.7500000       9.64019298E-29
  -15.7399998       1.83169178E-28
  -15.7299995       3.13510773E-28
  -15.7200003       4.74205889E-28
  -15.7100000       6.07180374E-28
  -15.6999998       5.81651451E-28
  -15.6899996       1.81593972E-28
  -15.6800003      -8.58253124E-28
  -15.6700001      -2.72922165E-27
  -15.6599998      -5.32160251E-27
  -15.6499996      -7.94217610E-27
  -15.6400003      -9.12981312E-27
  -15.6300001      -6.81991361E-27
  -15.6199999       8.99211876E-28
  -15.6099997       1.44226669E-26
  -15.6000004       3.11326237E-26
  -15.5900002       4.48383269E-26
  -15.5799999       4.74833991E-26
  -15.5699997       3.37629478E-26
  -15.5600004       7.24172539E-27
  -15.5500002      -1.64294689E-26
  -15.5400000      -1.57373098E-26
  -15.5299997       1.62658281E-26
  -15.5200005       4.11216766E-26
  -15.5100002      -4.72915179E-26
  -15.5000000      -4.01979679E-25
  -15.4899998      -1.12270901E-24
  -15.4799995      -2.06939357E-24
  -15.4700003      -2.65189319E-24
  -15.4600000      -1.75592233E-24
  -15.4499998       1.96352193E-24
  -15.4399996       9.23007097E-24
  -15.4300003       1.87849917E-23
  -15.4200001       2.60307406E-23
  -15.4099998       2.27500464E-23
  -15.3999996      -7.09959481E-25
  -15.3900003      -4.98069168E-23
  -15.3800001      -1.17306128E-22
  -15.3699999      -1.75207433E-22
  -15.3599997      -1.73387361E-22
  -15.3500004      -5.26423732E-23
  -15.3400002       2.22951403E-22
  -15.3299999       6.18379052E-22
  -15.3199997       9.83343972E-22
  -15.3100004       1.04514119E-21
  -15.3000002       4.78569827E-22
  -15.2900000      -9.23467788E-22
  -15.2799997      -3.00226334E-21
  -15.2700005      -5.00596701E-21
  -15.2600002      -5.55400527E-21
  -15.2500000      -2.98841433E-21
  -15.2399998       3.77928038E-21
  -15.2299995       1.40517953E-20
  -15.2200003       2.42407573E-20
  -15.2100000       2.76932282E-20
  -15.1999998       1.63614903E-20
  -15.1899996      -1.52013986E-20
  -15.1800003      -6.41385895E-20
  -15.1700001      -1.14110315E-19
  -15.1599998      -1.34375012E-19
  -15.1499996      -8.72138073E-20
  -15.1400003       5.41783268E-20
  -15.1300001       2.80068854E-19
  -15.1199999       5.20554892E-19
  -15.1099997       6.40073495E-19
  -15.1000004       4.67673236E-19
  -15.0900002      -1.27506789E-19
  -15.0799999      -1.12621292E-18
  -15.0699997      -2.25397804E-18
  -15.0600004      -2.94708136E-18
  -15.0500002      -2.46280496E-18
  -15.0400000      -1.76442381E-19
  -15.0299997       3.97024402E-18
  -15.0200005       9.01719264E-18
  -15.0100002       1.27862386E-17
  -15.0000000       1.22254573E-17
  -14.9899998       4.48673021E-18
  -14.9799995      -1.13538968E-17
  -14.9700003      -3.24415339E-17
  -14.9600000      -5.10786642E-17
  -14.9499998      -5.55629791E-17
  -14.9399996      -3.37406773E-17
  -14.9300003       2.08388865E-17
  -14.9200001       1.01741561E-16
  -14.9099998       1.84563066E-16
  -14.8999996       2.27935004E-16
  -14.8900003       1.83940722E-16
  -14.8800001       1.84441557E-17
  -14.8699999      -2.62943141E-16
  -14.8599997      -5.92990137E-16
  -14.8500004      -8.38557218E-16
  -14.8400002      -8.26539673E-16
  -14.8299999      -4.05043744E-16
  -14.8199997       4.69729427E-16
  -14.8100004       1.64849997E-15
  -14.8000002       2.74817468E-15
  -14.7900000       3.20008624E-15
  -14.7799997       2.41404305E-15
  -14.7700005       4.45459755E-17
  -14.7600002      -3.71026647E-15
  -14.7500000      -7.89919549E-15
  -14.7399998      -1.08436921E-14
  -14.7299995      -1.05121812E-14
  -14.7200003      -5.25526557E-15
  -14.7100000       5.24446929E-15
  -14.6999998       1.91265715E-14
  -14.6899996       3.20437477E-14
  -14.6800003       3.77995568E-14
  -14.6700001       3.01253908E-14
  -14.6599998       5.38135447E-15
  -14.6499996      -3.45435452E-14
  -14.6400003      -8.02917303E-14
  -14.6300001      -1.15355140E-13
  -14.6199999      -1.19591742E-13
  -14.6099997      -7.59583843E-14
  -14.6000004       2.08728468E-14
  -14.5900002       1.56747011E-13
  -14.5799999       2.94720791E-13
  -14.5699997       3.79603223E-13
  -14.5600004       3.52003122E-13
  -14.5500002       1.70394189E-13
  -14.5400000      -1.64182131E-13
  -14.5299997      -5.89523872E-13
  -14.5200005      -9.79807923E-13
  -14.5100002      -1.16710190E-12
  -14.5000000      -9.88517861E-13
  -14.4899998      -3.51344117E-13
  -14.4799995       7.01589123E-13
  -14.4700003       1.95129416E-12
  -14.4600000       3.01222740E-12
  -14.4499998       3.40855295E-12
  -14.4399996       2.71479128E-12
  -14.4300003       7.33626647E-13
  -14.4200001      -2.34056914E-12
  -14.4099998      -5.83806441E-12
  -14.3999996      -8.67074641E-12
  -14.3900003      -9.56186259E-12
  -14.3800001      -7.42994295E-12
  -14.3699999      -1.84629438E-12
  -14.3599997       6.56953918E-12
  -14.3500004       1.59780279E-11
  -14.3400002       2.35112624E-11
  -14.3299999       2.58890617E-11
  -14.3199997       2.03946391E-11
  -14.3100004       5.99894136E-12
  -14.3000002      -1.56986629E-11
  -14.2900000      -4.00934945E-11
  -14.2799997      -6.00770891E-11
  -14.2700005      -6.75392936E-11
  -14.2600002      -5.56988865E-11
  -14.2500000      -2.17618441E-11
  -14.2399998       3.08587010E-11
  -14.2299995       9.16217033E-11
  -14.2200003       1.43940013E-10
  -14.2100000       1.68535491E-10
  -14.1999998       1.48689977E-10
  -14.1899996       7.62981969E-11
  -14.1800003      -4.29475865E-11
  -14.1700001      -1.87123664E-10
  -14.1599998      -3.19952703E-10
  -14.1499996      -3.97655825E-10
  -14.1400003      -3.80087045E-10
  -14.1300001      -2.43946530E-10
  -14.1199999       5.37067569E-12
  -14.1099997       3.27252392E-10
  -14.1000004       6.48083753E-10
  -14.0900002       8.73879802E-10
  -14.0799999       9.12337428E-10
  -14.0699997       7.00244474E-10
  -14.0600004       2.29566241E-10
  -14.0500002      -4.35759540E-10
  -14.0400000      -1.15953624E-09
  -14.0299997      -1.75370085E-09
  -14.0200005      -2.01857442E-09
  -14.0100002      -1.79623205E-09
  -14.0000000      -1.02492004E-09
  -13.9899998       2.20627600E-10
  -13.9799995       1.71754500E-09
  -13.9700003       3.12159609E-09
  -13.9600000       4.03341982E-09
  -13.9499998       4.09456691E-09
  -13.9399996       3.09330317E-09
  -13.9300003       1.05332332E-09
  -13.9200001      -1.72227088E-09
  -13.9099998      -4.67267380E-09
  -13.8999996      -7.07397074E-09
  -13.8900003      -8.19554558E-09
  -13.8800001      -7.48853424E-09
  -13.8699999      -4.76255613E-09
  -13.8599997      -3.02226494E-10
  -13.8500004       5.11766318E-09
  -13.8400002       1.03397566E-08
  -13.8299999       1.40475693E-08
  -13.8199997       1.50665223E-08
  -13.8100004       1.26783331E-08
  -13.8000002       6.87128709E-09
  -13.7900000      -1.54619617E-09
  -13.7799997      -1.10168754E-08
  -13.7700005      -1.94990637E-08
  -13.7600002      -2.48847556E-08
  -13.7500000      -2.54888146E-08
  -13.7399998      -2.04987227E-08
  -13.7299995      -1.02713544E-08
  -13.7200003       3.61163055E-09
  -13.7100000       1.85682421E-08
  -13.6999998       3.14944053E-08
  -13.6899996       3.94060251E-08
  -13.6800003       4.01078069E-08
  -13.6700001       3.27351302E-08
  -13.6599998       1.80356210E-08
  -13.6499996      -1.68838798E-09
  -13.6400003      -2.29778774E-08
  -13.6300001      -4.18761026E-08
  -13.6199999      -5.47049410E-08
  -13.6099997      -5.87858153E-08
  -13.6000004      -5.29468487E-08
  -13.5900002      -3.77130718E-08
  -13.5799999      -1.51582871E-08
  -13.5699997       1.15177263E-08
  -13.5600004       3.85592678E-08
  -13.5500002       6.22219218E-08
  -13.5400000       7.92123771E-08
  -13.5299997       8.69423644E-08
  -13.5200005       8.36220480E-08
  -13.5100002       6.82890615E-08
  -13.5000000       4.08977812E-08
  -13.4899998       2.56079025E-09
  -13.4799995      -4.40558203E-08
  -13.4700003      -9.43053706E-08
  -13.4600000      -1.41336798E-07
  -13.4499998      -1.76361127E-07
  -13.4399996      -1.89646244E-07
  -13.4300003      -1.72312994E-07
  -13.4200001      -1.18748410E-07
  -13.4099998      -2.91650899E-08
  -13.3999996       8.83939109E-08
  -13.3900003       2.17382762E-07
  -13.3800001       3.34049645E-07
  -13.3699999       4.10962940E-07
  -13.3599997       4.22469583E-07
  -13.3500004       3.51170740E-07
  -13.3400002       1.93989507E-07
  -13.3299999      -3.38269359E-08
  -13.3199997      -2.98256822E-07
  -13.3100004      -5.50478546E-07
  -13.3000002      -7.35174638E-07
  -13.2900000      -8.01940530E-07
  -13.2799997      -7.17561079E-07
  -13.2700005      -4.76314824E-07
  -13.2600002      -1.05497833E-07
  -13.2500000       3.35884664E-07
  -13.2399998       7.65921300E-07
  -13.2299995       1.09500593E-06
  -13.2200003       1.24466703E-06
  -13.2100000       1.16601029E-06
  -13.1999998       8.53410370E-07
  -13.1899996       3.49769721E-07
  -13.1800003      -2.58671662E-07
  -13.1700001      -8.57679709E-07
  -13.1599998      -1.32777654E-06
  -13.1499996      -1.56967144E-06
  -13.1400003      -1.52667440E-06
  -13.1300001      -1.19873584E-06
  -13.1199999      -6.44433328E-07
  -13.1099997       3.01070209E-08
  -13.1000004       6.93300422E-07
  -13.0900002       1.21643393E-06
  -13.0799999       1.50178835E-06
  -13.0699997       1.50393305E-06
  -13.0600004       1.23901816E-06
  -13.0500002       7.79665982E-07
  -13.0400000       2.36518147E-07
  -13.0299997      -2.69188490E-07
  -13.0200005      -6.35322863E-07
  -13.0100002      -8.03420733E-07
  -13.0000000      -7.71807152E-07
  -12.9899998      -5.93733773E-07
  -12.9799995      -3.60727256E-07
  -12.9700003      -1.75182734E-07
  -12.9600000      -1.19196386E-07
  -12.9499998      -2.27930698E-07
  -12.9399996      -4.75041389E-07
  -12.9300003      -7.74952071E-07
  -12.9200001      -1.00263105E-06
  -12.9099998      -1.02696276E-06
  -12.8999996      -7.49923970E-07
  -12.8900003      -1.41598093E-07
  -12.8800001       7.38769586E-07
  -12.8699999       1.74281070E-06
  -12.8599997       2.65662402E-06
  -12.8500004       3.24466146E-06
  -12.8400002       3.30522016E-06
  -12.8299999       2.72502848E-06
  -12.8199997       1.51930658E-06
  -12.8100004      -1.54218640E-07
  -12.8000002      -2.01373427E-06
  -12.7900000      -3.70336761E-06
  -12.7799997      -4.86621639E-06
  -12.7700005      -5.22528535E-06
  -12.7600002      -4.65371249E-06
  -12.7500000      -3.21633070E-06
  -12.7399998      -1.16973411E-06
  -12.7299995       1.08311713E-06
  -12.7200003       3.07695018E-06
  -12.7100000       4.38980032E-06
  -12.6999998       4.74601302E-06
  -12.6899996       4.09066433E-06
  -12.6800003       2.61411014E-06
  -12.6700001       7.16017780E-07
  -12.6599998      -1.08714664E-06
  -12.6499996      -2.29201351E-06
  -12.6400003      -2.54455495E-06
  -12.6300001      -1.74671686E-06
  -12.6199999      -1.01648027E-07
  -12.6099997       1.92097491E-06
  -12.6000004       3.69809527E-06
  -12.5900002       4.62154549E-06
  -12.5799999       4.27994701E-06
  -12.5699997       2.60392562E-06
  -12.5600004      -7.15133837E-08
  -12.5500002      -3.05596632E-06
  -12.5400000      -5.46458250E-06
  -12.5299997      -6.45993896E-06
  -12.5200005      -5.51681205E-06
  -12.5100002      -2.63764764E-06
  -12.5000000       1.54913471E-06
  -12.4899998       5.85212229E-06
  -12.4799995       8.74622128E-06
  -12.4700003       8.72826968E-06
  -12.4600000       4.71961903E-06
  -12.4499998      -3.58559464E-06
  -12.4399996      -1.55243197E-05
  -12.4300003      -2.94879246E-05
  -12.4200001      -4.31804583E-05
  -12.4099998      -5.40665824E-05
  -12.3999996      -5.99100931E-05
  -12.3900003      -5.92727920E-05
  -12.3800001      -5.18453307E-05
  -12.3699999      -3.85186722E-05
  -12.3599997      -2.11691222E-05
  -12.3500004      -2.20576476E-06
  -12.3400002       1.60045620E-05
  -12.3299999       3.16817677E-05
  -12.3199997       4.39967589E-05
  -12.3100004       5.31520018E-05
  -12.3000002       6.01531465E-05
  -12.2900000       6.63358442E-05
  -12.2799997       7.27874722E-05
  -12.2700005       7.98416149E-05
  -12.2600002       8.68106872E-05
  -12.2500000       9.20589737E-05
  -12.2399998       9.34205527E-05
  -12.2299995       8.88600771E-05
  -12.2200003       7.71909690E-05
  -12.2100000       5.86315837E-05
  -12.1999998       3.50093978E-05
  -12.1899996       9.51222228E-06
  -12.1800003      -1.39877757E-05
  -12.1700001      -3.18813291E-05
  -12.1599998      -4.17896845E-05
  -12.1499996      -4.32723646E-05
  -12.1400003      -3.80453166E-05
  -12.1300001      -2.96017388E-05
  -12.1199999      -2.22917515E-05
  -12.1099997      -2.00786744E-05
  -12.1000004      -2.53024355E-05
  -12.0900002      -3.78079749E-05
  -12.0799999      -5.47239615E-05
  -12.0699997      -7.10176319E-05
  -12.0600004      -8.07428733E-05
  -12.0500002      -7.86963064E-05
  -12.0400000      -6.20564824E-05
  -12.0299997      -3.15487450E-05
  -12.0200005       8.23148093E-06
  -12.0100002       4.95059212E-05
  -12.0000000       8.29216006E-05
  -11.9899998       9.97366078E-05
  -11.9799995       9.40606915E-05
  -11.9700003       6.45750115E-05
  -11.9600000       1.52512048E-05
  -11.9499998      -4.51831074E-05
  -11.9399996      -1.04978826E-04
  -11.9300003      -1.51937740E-04
  -11.9200001      -1.76229121E-04
  -11.9099998      -1.72767439E-04
  -11.8999996      -1.42547913E-04
  -11.8900003      -9.25738786E-05
  -11.8800001      -3.43469437E-05
  -11.8699999       1.87529386E-05
  -11.8599997       5.45874937E-05
  -11.8500004       6.51328082E-05
  -11.8400002       4.84040502E-05
  -11.8299999       8.95431458E-06
  -11.8199997      -4.31853732E-05
  -11.8100004      -9.48763336E-05
  -11.8000002      -1.32981528E-04
  -11.7900000      -1.47460858E-04
  -11.7799997      -1.33704554E-04
  -11.7700005      -9.35482822E-05
  -11.7600002      -3.47419336E-05
  -11.7500000       3.09730058E-05
  -11.7399998       9.06826535E-05
  -11.7299995       1.33309935E-04
  -11.7200003       1.52076202E-04
  -11.7100000       1.45831844E-04
  -11.6999998       1.18970609E-04
  -11.6899996       8.00060589E-05
  -11.6800003       3.92224320E-05
  -11.6700001       6.03300487E-06
  -11.6599998      -1.32695386E-05
  -11.6499996      -1.68121787E-05
  -11.6400003      -7.19939135E-06
  -11.6300001       9.62522336E-06
  -11.6199999       2.63539641E-05
  -11.6099997       3.65567357E-05
  -11.6000004       3.65664200E-05
  -11.5900002       2.65004091E-05
  -11.5799999       1.01602927E-05
  -11.5699997      -6.13412158E-06
  -11.5600004      -1.54277514E-05
  -11.5500002      -1.21898574E-05
  -11.5400000       6.02972113E-06
  -11.5299997       3.78066907E-05
  -11.5200005       7.81228737E-05
  -11.5100002       1.19630400E-04
  -11.5000000       1.54534806E-04
  -11.4899998       1.76564092E-04
  -11.4799995       1.82474963E-04
  -11.4700003       1.72688277E-04
  -11.4600000       1.50902488E-04
  -11.4499998       1.22831945E-04
  -11.4399996       9.44705389E-05
  -11.4300003       7.04144477E-05
  -11.4200001       5.27518641E-05
  -11.4099998       4.08462038E-05
  -11.3999996       3.20570034E-05
  -11.3900003       2.31421400E-05
  -11.3800001       1.18584421E-05
  -11.3699999      -1.80123550E-06
  -11.3599997      -1.51982586E-05
  -11.3500004      -2.36759097E-05
  -11.3400002      -2.20977035E-05
  -11.3299999      -6.85034820E-06
  -11.3199997       2.23333791E-05
  -11.3100004       6.13841548E-05
  -11.3000002       1.02188424E-04
  -11.2900000       1.34250178E-04
  -11.2799997       1.47381739E-04
  -11.2700005       1.34720292E-04
  -11.2600002       9.51863985E-05
  -11.2500000       3.45727567E-05
  -11.2399998      -3.52215975E-05
  -11.2299995      -9.87915191E-05
  -11.2200003      -1.41094017E-04
  -11.2100000      -1.51588858E-04
  -11.1999998      -1.27482999E-04
  -11.1899996      -7.50657782E-05
  -11.1800003      -8.58846579E-06
  -11.1700001       5.31941732E-05
  -11.1599998       9.20171005E-05
  -11.1499996       9.53243289E-05
  -11.1400003       6.02396794E-05
  -11.1300001      -4.93746893E-06
  -11.1199999      -8.23169030E-05
  -11.1099997      -1.48848630E-04
  -11.1000004      -1.82534379E-04
  -11.0900002      -1.68772633E-04
  -11.0799999      -1.05043553E-04
  -11.0699997      -2.50052176E-06
  -11.0600004       1.16171323E-04
  -11.0500002       2.22242670E-04
  -11.0400000       2.88411742E-04
  -11.0299997       2.96259532E-04
  -11.0200005       2.41589514E-04
  -11.0100002       1.36054790E-04
  -11.0000000       4.46317790E-06
  -10.9899998      -1.21636833E-04
  -10.9799995      -2.12392653E-04
  -10.9700003      -2.47759919E-04
  -10.9600000      -2.22951130E-04
  -10.9499998      -1.49574698E-04
  -10.9399996      -5.20253561E-05
  -10.9300003       3.99252021E-05
  -10.9200001       1.00226469E-04
  -10.9099998       1.14643080E-04
  -10.8999996       8.53534948E-05
  -10.8900003       3.05217836E-05
  -10.8800001      -2.12253472E-05
  -10.8699999      -3.99338314E-05
  -10.8599997      -4.41351813E-06
  -10.8500004       8.97928185E-05
  -10.8400002       2.27152064E-04
  -10.8299999       3.74886731E-04
  -10.8199997       4.91265615E-04
  -10.8100004       5.37284010E-04
  -10.8000002       4.88449121E-04
  -10.7900000       3.43186635E-04
  -10.7799997       1.25216189E-04
  -10.7700005      -1.21106539E-04
  -10.7600002      -3.41470819E-04
  -10.7500000      -4.85518278E-04
  -10.7399998      -5.20155882E-04
  -10.7299995      -4.38515650E-04
  -10.7200003      -2.61959067E-04
  -10.7100000      -3.44633772E-05
  -10.6999998       1.89113896E-04
  -10.6899996       3.57638201E-04
  -10.6800003       4.37084585E-04
  -10.6700001       4.18970507E-04
  -10.6599998       3.21522471E-04
  -10.6499996       1.83356460E-04
  -10.6400003       5.15976280E-05
  -10.6300001      -3.20666986E-05
  -10.6199999      -4.33644709E-05
  -10.6099997       1.79544932E-05
  -10.6000004       1.28672487E-04
  -10.5900002       2.49509496E-04
  -10.5799999       3.37101752E-04
  -10.5699997       3.57008452E-04
  -10.5600004       2.93988676E-04
  -10.5500002       1.56663940E-04
  -10.5400000      -2.46433792E-05
  -10.5299997      -2.06138342E-04
  -10.5200005      -3.42407293E-04
  -10.5100002      -3.98528238E-04
  -10.5000000      -3.59124242E-04
  -10.4899998      -2.32026214E-04
  -10.4799995      -4.57878923E-05
  -10.4700003       1.58007577E-04
  -10.4600000       3.35372752E-04
  -10.4499998       4.50566062E-04
  -10.4399996       4.84057935E-04
  -10.4300003       4.36008530E-04
  -10.4200001       3.24754568E-04
  -10.4099998       1.81114898E-04
  -10.3999996       4.02890073E-05
  -10.3900003      -6.64763429E-05
  -10.3800001      -1.18479598E-04
  -10.3699999      -1.09116023E-04
  -10.3599997      -4.59885996E-05
  -10.3500004       5.19656060E-05
  -10.3400002       1.59282004E-04
  -10.3299999       2.49427423E-04
  -10.3199997       2.99757026E-04
  -10.3100004       2.95181468E-04
  -10.3000002       2.30206075E-04
  -10.2900000       1.09388049E-04
  -10.2799997      -5.35160798E-05
  -10.2700005      -2.37386790E-04
  -10.2600002      -4.16305411E-04
  -10.2500000      -5.62687113E-04
  -10.2399998      -6.50864968E-04
  -10.2299995      -6.60934253E-04
  -10.2200003      -5.82489185E-04
  -10.2100000      -4.17667150E-04
  -10.1999998      -1.82763572E-04
  -10.1899996       9.23053958E-05
  -10.1800003       3.67162836E-04
  -10.1700001       5.96736267E-04
  -10.1599998       7.38971168E-04
  -10.1499996       7.63198128E-04
  -10.1400003       6.57413562E-04
  -10.1300001       4.32654924E-04
  -10.1199999       1.23036210E-04
  -10.1099997      -2.19152818E-04
  -10.1000004      -5.32751728E-04
  -10.0900002      -7.59745773E-04
  -10.0799999      -8.57424457E-04
  -10.0699997      -8.07807490E-04
  -10.0600004      -6.21885876E-04
  -10.0500002      -3.37345700E-04
  -10.0400000      -1.00213238E-05
  -10.0299997       2.99029023E-04
  -10.0200005       5.37686399E-04
  -10.0100002       6.74565206E-04
  -10.0000000       7.05339364E-04
  -9.98999977       6.51898328E-04
  -9.97999954       5.54570288E-04
  -9.97000027       4.59587638E-04
  -9.96000004       4.05342493E-04
  -9.94999981       4.11354384E-04
  -9.93999958       4.73106076E-04
  -9.93000031       5.64191898E-04
  -9.92000008       6.45063643E-04
  -9.90999985       6.75697171E-04
  -9.89999962       6.28343667E-04
  -9.89000034       4.96535446E-04
  -9.88000011       2.97692721E-04
  -9.86999989       6.86592757E-05
  -9.85999966      -1.44344289E-04
  -9.85000038      -2.98197439E-04
  -9.84000015      -3.63993953E-04
  -9.82999992      -3.33565520E-04
  -9.81999969      -2.19751513E-04
  -9.81000042      -5.07878030E-05
  -9.80000019       1.38987656E-04
  -9.78999996       3.18890146E-04
  -9.77999973       4.68972168E-04
  -9.77000046       5.82439126E-04
  -9.76000023       6.63152023E-04
  -9.75000000       7.19716947E-04
  -9.73999977       7.58788141E-04
  -9.72999954       7.80341390E-04
  -9.72000027       7.76793575E-04
  -9.71000004       7.36288785E-04
  -9.69999981       6.48822228E-04
  -9.68999958       5.12732950E-04
  -9.68000031       3.38878977E-04
  -9.67000008       1.50594366E-04
  -9.65999985      -2.09687823E-05
  -9.64999962      -1.44825768E-04
  -9.64000034      -1.98924710E-04
  -9.63000011      -1.76764763E-04
  -9.61999989      -8.95776320E-05
  -9.60999966       3.67738721E-05
  -9.60000038       1.69278966E-04
  -9.59000015       2.77287036E-04
  -9.57999992       3.41017556E-04
  -9.56999969       3.56387871E-04
  -9.56000042       3.34696146E-04
  -9.55000019       2.97379185E-04
  -9.53999996       2.67645461E-04
  -9.52999973       2.61750101E-04
  -9.52000046       2.82737223E-04
  -9.51000023       3.18637176E-04
  -9.50000000       3.45677545E-04
  -9.48999977       3.35516059E-04
  -9.47999954       2.64315429E-04
  -9.47000027       1.20994977E-04
  -9.46000004      -8.76966224E-05
  -9.44999981      -3.36685247E-04
  -9.43999958      -5.86773211E-04
  -9.43000031      -7.92447419E-04
  -9.42000008      -9.11368814E-04
  -9.40999985      -9.13336873E-04
  -9.39999962      -7.86784047E-04
  -9.39000034      -5.41524438E-04
  -9.38000011      -2.07342237E-04
  -9.36999989       1.71148233E-04
  -9.35999966       5.42266760E-04
  -9.35000038       8.56138940E-04
  -9.34000015       1.07303250E-03
  -9.32999992       1.16966956E-03
  -9.31999969       1.14241778E-03
  -9.31000042       1.00684958E-03
  -9.30000019       7.93847430E-04
  -9.28999996       5.43118571E-04
  -9.27999973       2.95513193E-04
  -9.27000046       8.57820924E-05
  -9.26000023      -6.27231639E-05
  -9.25000000      -1.40409771E-04
  -9.23999977      -1.50625827E-04
  -9.22999954      -1.06234853E-04
  -9.22000027      -2.47694770E-05
  -9.21000004       7.64073338E-05
  -9.19999981       1.83704295E-04
  -9.18999958       2.88991665E-04
  -9.18000031       3.89397086E-04
  -9.17000008       4.85805067E-04
  -9.15999985       5.80917113E-04
  -9.14999962       6.77601609E-04
  -9.14000034       7.77854293E-04
  -9.13000011       8.82217661E-04
  -9.11999989       9.89224529E-04
  -9.10999966       1.09449984E-03
  -9.10000038       1.18955609E-03
  -9.09000015       1.26086071E-03
  -9.07999992       1.29014160E-03
  -9.06999969       1.25683297E-03
  -9.06000042       1.14296784E-03
  -9.05000019       9.39798541E-04
  -9.03999996       6.54363830E-04
  -9.02999973       3.13577155E-04
  -9.02000046      -3.64192674E-05
  -9.01000023      -3.36786470E-04
  -9.00000000      -5.27758733E-04
  -8.98999977      -5.63072041E-04
  -8.97999954      -4.23108955E-04
  -8.97000027      -1.22619720E-04
  -8.96000004       2.89921765E-04
  -8.94999981       7.41930795E-04
  -8.93999958       1.15312473E-03
  -8.93000031       1.45428849E-03
  -8.92000008       1.60299311E-03
  -8.90999985       1.59165973E-03
  -8.89999962       1.44570821E-03
  -8.89000034       1.21270202E-03
  -8.88000011       9.46297892E-04
  -8.86999989       6.90433895E-04
  -8.85999966       4.68928396E-04
  -8.85000038       2.83603382E-04
  -8.84000015       1.20897414E-04
  -8.82999992      -3.61530911E-05
  -8.81999969      -1.95585875E-04
  -8.81000042      -3.48871050E-04
  -8.80000019      -4.71093837E-04
  -8.78999996      -5.29017532E-04
  -8.77999973      -4.93966625E-04
  -8.77000046      -3.54513351E-04
  -8.76000023      -1.23914346E-04
  -8.75000000       1.60847660E-04
  -8.73999977       4.48410719E-04
  -8.72999954       6.87580090E-04
  -8.72000027       8.41886154E-04
  -8.71000004       8.98936763E-04
  -8.69999981       8.71309661E-04
  -8.68999958       7.88940641E-04
  -8.68000031       6.86174375E-04
  -8.67000008       5.88619034E-04
  -8.65999985       5.04898431E-04
  -8.64999962       4.26349259E-04
  -8.64000034       3.34470562E-04
  -8.63000011       2.12782179E-04
  -8.61999989       5.79538282E-05
  -8.60999966      -1.14640796E-04
  -8.60000038      -2.73511832E-04
  -8.59000015      -3.80979531E-04
  -8.57999992      -4.06541978E-04
  -8.56999969      -3.38240818E-04
  -8.56000042      -1.87258338E-04
  -8.55000019       1.63386339E-05
  -8.53999996       2.35159721E-04
  -8.52999973       4.38686693E-04
  -8.52000046       6.14148274E-04
  -8.51000023       7.69273145E-04
  -8.50000000       9.25353030E-04
  -8.48999977       1.10312656E-03
  -8.47999954       1.30727410E-03
  -8.47000027       1.51639490E-03
  -8.46000004       1.68365124E-03
  -8.44999981       1.74930412E-03
  -8.43999958       1.66160287E-03
  -8.43000031       1.39874592E-03
  -8.42000008       9.83488746E-04
  -8.40999985       4.84012126E-04
  -8.39999962      -6.91687035E-07
  -8.39000034      -3.67067172E-04
  -8.38000011      -5.36560139E-04
  -8.36999989      -4.78561531E-04
  -8.35999966      -2.18755129E-04
  -8.35000038       1.70184212E-04
  -8.34000015       5.92452707E-04
  -8.32999992       9.59320168E-04
  -8.31999969       1.21525268E-03
  -8.31000042       1.35108735E-03
  -8.30000019       1.40016293E-03
  -8.28999996       1.41953316E-03
  -8.27999973       1.46376062E-03
  -8.27000046       1.56133471E-03
  -8.26000023       1.70252891E-03
  -8.25000000       1.84302637E-03
  -8.23999977       1.92160893E-03
  -8.22999954       1.88491086E-03
  -8.22000027       1.70967518E-03
  -8.21000004       1.41403149E-03
  -8.19999981       1.05359999E-03
  -8.18999958       7.04006467E-04
  -8.18000031       4.36458504E-04
  -8.17000008       2.95472273E-04
  -8.15999985       2.86769646E-04
  -8.14999962       3.79291159E-04
  -8.14000034       5.19831665E-04
  -8.13000011       6.54123491E-04
  -8.11999989       7.46069360E-04
  -8.10999966       7.87992496E-04
  -8.10000038       7.98666093E-04
  -8.09000015       8.10876663E-04
  -8.07999992       8.54353537E-04
  -8.06999969       9.41448612E-04
  -8.06000042       1.06144079E-03
  -8.05000019       1.18547014E-03
  -8.03999996       1.27951882E-03
  -8.02999973       1.31949387E-03
  -8.02000046       1.30168092E-03
  -8.01000023       1.24395057E-03
  -8.00000000       1.17717893E-03
  -7.98999977       1.13066833E-03
  -7.98000002       1.11806183E-03
  -7.96999979       1.13017426E-03
  -7.96000004       1.13829912E-03
  -7.94999981       1.10705476E-03
  -7.94000006       1.01158465E-03
  -7.92999983       8.51752935E-04
  -7.92000008       6.56854303E-04
  -7.90999985       4.78040893E-04
  -7.90000010       3.70705326E-04
  -7.88999987       3.73407995E-04
  -7.88000011       4.91755258E-04
  -7.86999989       6.94078277E-04
  -7.86000013       9.21331288E-04
  -7.84999990       1.10801938E-03
  -7.84000015       1.20641640E-03
  -7.82999992       1.20471208E-03
  -7.82000017       1.13177521E-03
  -7.80999994       1.04624778E-03
  -7.80000019       1.01375813E-03
  -7.78999996       1.08079228E-03
  -7.78000021       1.25527149E-03
  -7.76999998       1.50149525E-03
  -7.76000023       1.75168610E-03
  -7.75000000       1.92999572E-03
  -7.73999977       1.97998597E-03
  -7.73000002       1.88520423E-03
  -7.71999979       1.67509366E-03
  -7.71000004       1.41411473E-03
  -7.69999981       1.17841014E-03
  -7.69000006       1.02907978E-03
  -7.67999983       9.92306508E-04
  -7.67000008       1.05371641E-03
  -7.65999985       1.16862415E-03
  -7.65000010       1.28349464E-03
  -7.63999987       1.35957357E-03
  -7.63000011       1.38892641E-03
  -7.61999989       1.39638269E-03
  -7.61000013       1.42676127E-03
  -7.59999990       1.52288296E-03
  -7.59000015       1.70375989E-03
  -7.57999992       1.95238437E-03
  -7.57000017       2.21868465E-03
  -7.55999994       2.43699178E-03
  -7.55000019       2.55129021E-03
  -7.53999996       2.53808219E-03
  -7.53000021       2.41734227E-03
  -7.51999998       2.24658428E-03
  -7.51000023       2.09974521E-03
  -7.50000000       2.03877129E-03
  -7.48999977       2.08897260E-03
  -7.48000002       2.22802209E-03
  -7.46999979       2.39337352E-03
  -7.46000004       2.50572944E-03
  -7.44999981       2.49986933E-03
  -7.44000006       2.35109357E-03