  -16.0000000       0.00000000    
  -15.9899998       0.00000000    
  -15.9799995       0.00000000    
  -15.9700003       0.00000000    
  -15.9600000       0.00000000    
  -15.9499998       0.00000000    
  -15.9399996       0.00000000    
  -15.9300003       0.00000000    
  -15.9200001       0.00000000    
  -15.9099998       0.00000000    
  -15.8999996      -1.52629429E-40
  -15.8900003      -1.92878504E-39
  -15.8800001      -1.58674000E-38
  -15.8699999      -1.43051812E-37
  -15.8599997      -1.30795423E-36
  -15.8500004      -1.00312106E-35
  -15.8400002      -6.20067301E-35
  -15.8299999      -3.14462302E-34
  -15.8199997      -1.33944854E-33
  -15.8100004      -4.87891428E-33
  -15.8000002      -1.53744831E-32
  -15.7900000      -4.21528718E-32
  -15.7799997      -1.00500124E-31
  -15.7700005      -2.06479603E-31
  -15.7600002      -3.56549207E-31
  -15.7500000      -4.84183443E-31
  -15.7399998      -4.01439596E-31
  -15.7299995       2.29034377E-31
  -15.7200003       1.79795886E-30
  -15.7100000       4.42509338E-30
  -15.6999998       7.40826332E-30
  -15.6899996       8.71988405E-30
  -15.6800003       5.16679458E-30
  -15.6700001      -6.09970865E-30
  -15.6599998      -2.47179838E-29
  -15.6499996      -4.44960384E-29
  -15.6400003      -5.43456805E-29
  -15.6300001      -4.57197954E-29
  -15.6199999      -2.45777414E-29
  -15.6099997      -1.64690031E-29
  -15.6000004      -4.56376936E-29
  -15.5900002      -7.62705212E-29
  -15.5799999       6.09329869E-29
  -15.5699997       6.74775315E-28
  -15.5600004       2.02659426E-27
  -15.5500002       3.87204363E-27
  -15.5400000       4.86259832E-27
  -15.5299997       2.28997577E-27
  -15.5200005      -7.04887124E-27
  -15.5100002      -2.42393429E-26
  -15.5000000      -4.42478892E-26
  -15.4899998      -5.27050790E-26
  -15.4799995      -2.74575117E-26
  -15.4700003       5.10580730E-26
  -15.4600000       1.80167326E-25
  -15.4499998       3.13349135E-25
  -15.4399996       3.53063228E-25
  -15.4300003       1.78028256E-25
  -15.4200001      -2.85235981E-25
  -15.4099998      -9.64652937E-25
  -15.3999996      -1.57399770E-24
  -15.3900003      -1.65186971E-24
  -15.3800001      -7.63248120E-25
  -15.3699999       1.17045225E-24
  -15.3599997       3.58004445E-24
  -15.3500004       5.26106642E-24
  -15.3400002       4.90146851E-24
  -15.3299999       2.04816769E-24
  -15.3199997      -2.02895538E-24
  -15.3100004      -4.49067314E-24
  -15.3000002      -2.86441686E-24
  -15.2900000       1.50399418E-24
  -15.2799997       5.54390342E-25
  -15.2700005      -1.90931918E-23
  -15.2600002      -6.68732725E-23
  -15.2500000      -1.31236516E-22
  -15.2399998      -1.62431673E-22
  -15.2299995      -7.13220756E-23
  -15.2200003       2.36044904E-22
  -15.2100000       7.78035512E-22
  -15.1999998       1.38893308E-21
  -15.1899996       1.64150125E-21
  -15.1800003       8.95442097E-22
  -15.1700001      -1.43599403E-21
  -15.1599998      -5.38308504E-21
  -15.1499996      -9.81837942E-21
  -15.1400003      -1.20946730E-20
  -15.1300001      -8.40093839E-21
  -15.1199999       4.74851512E-21
  -15.1099997       2.78734986E-20
  -15.1000004       5.54605408E-20
  -15.0900002       7.40797043E-20
  -15.0799999       6.38783507E-20
  -15.0699997       5.32008521E-21
  -15.0600004      -1.08682679E-19
  -15.0500002      -2.58219137E-19
  -15.0400000      -3.86097873E-19
  -15.0299997      -4.01068239E-19
  -15.0200005      -2.02891391E-19
  -15.0100002       2.68615298E-19
  -15.0000000       9.70180805E-19
  -14.9899998       1.70151269E-18
  -14.9799995       2.09713591E-18
  -14.9700003       1.69936709E-18
  -14.9600000       1.29785879E-19
  -14.9499998      -2.66247519E-18
  -14.9399996      -6.15005477E-18
  -14.9300003      -9.09727778E-18
  -14.9200001      -9.69156983E-18
  -14.9099998      -6.03809628E-18
  -14.8999996       2.99165999E-18
  -14.8900003       1.67383322E-17
  -14.8800001       3.19285695E-17
  -14.8699999       4.25395563E-17
  -14.8599997       4.08250359E-17
  -14.8500004       1.97271889E-17
  -14.8400002      -2.35833047E-17
  -14.8299999      -8.39317734E-17
  -14.8199997      -1.45621957E-16
  -14.8100004      -1.82964874E-16
  -14.8000002      -1.65349646E-16
  -14.7900000      -6.72791851E-17
  -14.7799997       1.18026259E-16
  -14.7700005       3.65085309E-16
  -14.7600002       6.08252718E-16
  -14.7500000       7.45793558E-16
  -14.7399998       6.60885916E-16
  -14.7299995       2.60383804E-16
  -14.7200003      -4.74486628E-16
  -14.7100000      -1.43927193E-15
  -14.6999998      -2.37979200E-15
  -14.6899996      -2.91072623E-15
  -14.6800003      -2.59636584E-15
  -14.6700001      -1.09510486E-15
  -14.6599998       1.65525940E-15
  -14.6499996       5.26284609E-15
  -14.6400003       8.79229601E-15
  -14.6300001       1.08411196E-14
  -14.6199999       9.83896192E-15
  -14.6099997       4.56867634E-15
  -14.6000004      -5.18019643E-15
  -14.5900002      -1.80131568E-14
  -14.5799999      -3.06494129E-14
  -14.5699997      -3.82268138E-14
  -14.5600004      -3.53673932E-14
  -14.5500002      -1.79670426E-14
  -14.5400000       1.46273120E-14
  -14.5299997       5.77022425E-14
  -14.5200005       1.00382430E-13
  -14.5100002       1.26786588E-13
  -14.5000000       1.19604955E-13
  -14.4899998       6.58596645E-14
  -14.4799995      -3.63275423E-14
  -14.4700003      -1.72043085E-13
  -14.4600000      -3.07560211E-13
  -14.4499998      -3.94339699E-13
  -14.4399996      -3.80169420E-13
  -14.4300003      -2.26388868E-13
  -14.4200001       7.25342434E-14
  -14.4099998       4.73199605E-13
  -14.3999996       8.78474593E-13
  -14.3900003       1.14983717E-12
  -14.3800001       1.13925026E-12
  -14.3699999       7.36911725E-13
  -14.3599997      -7.58011614E-14
  -14.3500004      -1.18471866E-12
  -14.3400002      -2.33127688E-12
  -14.3299999      -3.14599171E-12
  -14.3199997      -3.23193750E-12
  -14.3100004      -2.28776395E-12
  -14.3000002      -2.42696813E-13
  -14.2900000       2.63757614E-12
  -14.2799997       5.71939371E-12
  -14.2700005       8.07964199E-12
  -14.2600002       8.70540098E-12
  -14.2500000       6.78972677E-12
  -14.2399998       2.05935095E-12
  -14.2299995      -4.96057926E-12
  -14.2200003      -1.28490812E-11
  -14.2100000      -1.94427616E-11
  -14.1999998      -2.22701059E-11
  -14.1899996      -1.92179658E-11
  -14.1800003      -9.29515926E-12
  -14.1700001       6.71185763E-12
  -14.1599998       2.59234561E-11
  -14.1499996       4.35882372E-11
  -14.1400003       5.39336804E-11
  -14.1300001       5.15768886E-11
  -14.1199999       3.32405145E-11
  -14.1099997      -6.43971530E-13
  -14.1000004      -4.49489231E-11
  -14.0900002      -8.99461200E-11
  -14.0799999      -1.22769947E-10
  -14.0699997      -1.30218974E-10
  -14.0600004      -1.02472454E-10
  -14.0500002      -3.69158142E-11
  -14.0400000       5.89919710E-11
  -14.0299997       1.66906253E-10
  -14.0200005       2.59663513E-10
  -14.0100002       3.06464576E-10
  -14.0000000       2.80590606E-10
  -13.9899998       1.68177181E-10
  -13.9799995      -2.41529973E-11
  -13.9700003      -2.65303973E-10
  -13.9600000      -5.01544806E-10
  -13.9499998      -6.65304312E-10
  -13.9399996      -6.90380364E-10
  -13.9300003      -5.31024058E-10
  -13.9200001      -1.80530896E-10
  -13.9099998       3.16118492E-10
  -13.8999996       8.60824634E-10
  -13.8900003       1.31561939E-09
  -13.8800001       1.53079249E-09
  -13.8699999       1.38383904E-09
  -13.8599997       8.20962742E-10
  -13.8500004      -1.10057727E-10
  -13.8400002      -1.24726462E-09
  -13.8299999      -2.33096586E-09
  -13.8199997      -3.05186365E-09
  -13.8100004      -3.12504467E-09
  -13.8000002      -2.37512321E-09
  -13.7900000      -8.11045175E-10
  -13.7799997       1.33311640E-09
  -13.7700005       3.61088270E-09
  -13.7600002       5.43832535E-09
  -13.7500000       6.22418650E-09
  -13.7399998       5.53081714E-09
  -13.7299995       3.22744387E-09
  -13.7200003      -4.08832912E-10
  -13.7100000      -4.68360239E-09
  -13.6999998      -8.58887539E-09
  -13.6899996      -1.10141460E-08
  -13.6800003      -1.10276410E-08
  -13.6700001      -8.16358092E-09
  -13.6599998      -2.63720401E-09
  -13.6499996       4.58548888E-09
  -13.6400003       1.19095418E-08
  -13.6300001       1.74260659E-08
  -13.6199999       1.93690077E-08
  -13.6099997       1.66139014E-08
  -13.6000004       9.08993680E-09
  -13.5900002      -2.02179584E-09
  -13.5799999      -1.43938772E-08
  -13.5699997      -2.49840948E-08
  -13.5600004      -3.07299075E-08
  -13.5500002      -2.93610753E-08
  -13.5400000      -2.01304360E-08
  -13.5299997      -4.25324043E-09
  -13.5200005       1.51087871E-08
  -13.5100002       3.33853656E-08
  -13.5000000       4.55942626E-08
  -13.4899998       4.76005333E-08
  -13.4799995       3.73425983E-08
  -13.4700003       1.56935069E-08
  -13.4600000      -1.33265061E-08
  -13.4499998      -4.31397744E-08
  -13.4399996      -6.59665105E-08
  -13.4300003      -7.47006155E-08
  -13.4200001      -6.48873097E-08
  -13.4099998      -3.62956563E-08
  -13.3999996       6.38777564E-09
  -13.3900003       5.40554588E-08
  -13.3800001       9.49089980E-08
  -13.3699999       1.17148907E-07
  -13.3599997       1.12059077E-07
  -13.3500004       7.67372654E-08
  -13.3400002       1.57088316E-08
  -13.3299999      -5.91559122E-08
  -13.3199997      -1.30639464E-07
  -13.3100004      -1.79841976E-07
  -13.3000002      -1.90797849E-07
  -13.2900000      -1.54983653E-07
  -13.2799997      -7.45419797E-08
  -13.2700005       3.67814188E-08
  -13.2600002       1.55531978E-07
  -13.2500000       2.53160636E-07
  -13.2399998       3.02532669E-07
  -13.2299995       2.84915814E-07
  -13.2200003       1.95733364E-07
  -13.2100000       4.74730086E-08
  -13.1999998      -1.31324498E-07
  -13.1899996      -3.01203784E-07
  -13.1800003      -4.20242714E-07
  -13.1700001      -4.54062615E-07
  -13.1599998      -3.85069001E-07
  -13.1499996      -2.18535604E-07
  -13.1400003       1.63079648E-08
  -13.1300001       2.70957230E-07
  -13.1199999       4.87485977E-07
  -13.1099997       6.11627172E-07
  -13.1000004       6.06155368E-07
  -13.0900002       4.61307678E-07
  -13.0799999       1.99435149E-07
  -13.0699997      -1.27732889E-07
  -13.0600004      -4.49135939E-07
  -13.0500002      -6.89860599E-07
  -13.0400000      -7.88694138E-07
  -13.0299997      -7.13644852E-07
  -13.0200005      -4.71525112E-07
  -13.0100002      -1.08872406E-07
  -13.0000000       2.96591367E-07
  -12.9899998       6.52519304E-07
  -12.9799995       8.73041529E-07
  -12.9700003       8.99617589E-07
  -12.9600000       7.16616739E-07
  -12.9499998       3.57566108E-07
  -12.9399996      -9.99976848E-08
  -12.9300003      -5.50530274E-07
  -12.9200001      -8.84168855E-07
  -12.9099998      -1.01292153E-06
  -12.8999996      -8.93267270E-07
  -12.8900003      -5.39561142E-07
  -12.8800001      -2.44778917E-08
  -12.8699999       5.34445235E-07
  -12.8599997       9.99886652E-07
  -12.8500004       1.24628696E-06
  -12.8400002       1.19086394E-06
  -12.8299999       8.16773309E-07
  -12.8199997       1.82446428E-07
  -12.8100004      -5.86029444E-07
  -12.8000002      -1.31888623E-06
  -12.7900000      -1.83856264E-06
  -12.7799997      -2.00000954E-06
  -12.7700005      -1.72640239E-06
  -12.7600002      -1.03172567E-06
  -12.7500000      -2.42048745E-08
  -12.7399998       1.11140560E-06
  -12.7299995       2.14986790E-06
  -12.7200003       2.87262537E-06
  -12.7100000       3.11586155E-06
  -12.6999998       2.80844711E-06
  -12.6899996       1.99054193E-06
  -12.6800003       8.07684216E-07
  -12.6700001      -5.19276227E-07
  -12.6599998      -1.74227739E-06
  -12.6499996      -2.64144569E-06
  -12.6400003      -3.07478354E-06
  -12.6300001      -3.00989518E-06
  -12.6199999      -2.52929158E-06
  -12.6099997      -1.80693473E-06
  -12.6000004      -1.06070979E-06
  -12.5900002      -4.91825688E-07
  -12.5799999      -2.26138326E-07
  -12.5699997      -2.72880897E-07
  -12.5600004      -5.12980648E-07
  -12.5500002      -7.22569155E-07
  -12.5400000      -6.28851581E-07
  -12.5299997       1.28558870E-08
  -12.5200005       1.33834465E-06
  -12.5100002       3.30989019E-06
  -12.5000000       5.68554105E-06
  -12.4899998       8.03354487E-06
  -12.4799995       9.79349352E-06
  -12.4700003       1.03751045E-05
  -12.4600000       9.27632391E-06
  -12.4499998       6.19682987E-06
  -12.4399996       1.12253997E-06
  -12.4300003      -5.63829099E-06
  -12.4200001      -1.34773391E-05
  -12.4099998      -2.15647924E-05
  -12.3999996      -2.89703530E-05
  -12.3900003      -3.48038375E-05
  -12.3800001      -3.83485094E-05
  -12.3699999      -3.91621979E-05
  -12.3599997      -3.71286187E-05
  -12.3500004      -3.24524990E-05
  -12.3400002      -2.56043113E-05
  -12.3299999      -1.72306973E-05
  -12.3199997      -8.05280069E-06
  -12.3100004       1.22506901E-06
  -12.3000002       9.97943334E-06
  -12.2900000       1.76966878E-05
  -12.2799997       2.39705842E-05
  -12.2700005       2.84808320E-05
  -12.2600002       3.09704883E-05
  -12.2500000       3.12390948E-05
  -12.2399998       2.91620072E-05
  -12.2299995       2.47360276E-05
  -12.2200003       1.81400064E-05
  -12.2100000       9.79024117E-06
  -12.1999998       3.66946523E-07
  -12.1899996      -9.20842831E-06
  -12.1800003      -1.78551327E-05
  -12.1700001      -2.44697349E-05
  -12.1599998      -2.80974600E-05
  -12.1499996      -2.81060693E-05
  -12.1400003      -2.43249051E-05
  -12.1300001      -1.71152660E-05
  -12.1199999      -7.35054937E-06
  -12.1099997       3.69710438E-06
  -12.1000004       1.45465729E-05
  -12.0900002       2.37395161E-05
  -12.0799999       3.00696502E-05
  -12.0699997       3.27648413E-05
  -12.0600004       3.15873149E-05
  -12.0500002       2.68351505E-05
  -12.0400000       1.92496536E-05
  -12.0299997       9.85324823E-06
  -12.0200005      -2.43882909E-07
  -12.0100002      -1.00257657E-05
  -12.0000000      -1.87045480E-05
  -11.9899998      -2.57839383E-05
  -11.9799995      -3.10485302E-05
  -11.9700003      -3.44938817E-05
  -11.9600000      -3.62256505E-05
  -11.9499998      -3.63612598E-05
  -11.9399996      -3.49637376E-05
  -11.9300003      -3.20255313E-05
  -11.9200001      -2.75041402E-05
  -11.9099998      -2.13954499E-05
  -11.8999996      -1.38193445E-05
  -11.8900003      -5.08807943E-06
  -11.8800001       4.26764018E-06
  -11.8699999       1.35284636E-05
  -11.8599997       2.18704135E-05
  -11.8500004       2.84864564E-05
  -11.8400002       3.27183443E-05
  -11.8299999       3.41679661E-05
  -11.8199997       3.27620000E-05
  -11.8100004       2.87549337E-05
  -11.8000002       2.26706161E-05
  -11.7900000       1.51974336E-05
  -11.7799997       7.06314131E-06
  -11.7700005      -1.08042286E-06
  -11.7600002      -8.73598947E-06
  -11.7500000      -1.55864018E-05
  -11.7399998      -2.14649826E-05
  -11.7299995      -2.62835001E-05
  -11.7200003      -2.99422682E-05
  -11.7100000      -3.22524829E-05
  -11.6999998      -3.28988499E-05
  -11.6899996      -3.14613098E-05
  -11.6800003      -2.74998838E-05
  -11.6700001      -2.06897694E-05
  -11.6599998      -1.09783141E-05
  -11.6499996       1.27463795E-06
  -11.6400003       1.52139692E-05
  -11.6300001       2.94980309E-05
  -11.6199999       4.24171230E-05
  -11.6099997       5.21176917E-05
  -11.6000004       5.69035292E-05
  -11.5900002       5.55630759E-05
  -11.5799999       4.76578462E-05
  -11.5699997       3.37050587E-05
  -11.5600004       1.52004686E-05
  -11.5500002      -5.54552889E-06
  -11.5400000      -2.57484171E-05
  -11.5299997      -4.26163060E-05
  -11.5200005      -5.38583772E-05
  -11.5100002      -5.81312779E-05
  -11.5000000      -5.53220161E-05
  -11.4899998      -4.65922712E-05
  -11.4799995      -3.41560335E-05
  -11.4700003      -2.08209058E-05
  -11.4600000      -9.38076209E-06
  -11.4499998      -1.98893099E-06
  -11.4399996       3.44627750E-07
  -11.4300003      -1.99233682E-06
  -11.4200001      -7.28221357E-06
  -11.4099998      -1.28692654E-05
  -11.3999996      -1.57997183E-05
  -11.3900003      -1.35709224E-05
  -11.3800001      -4.81673214E-06
  -11.3699999       1.02373897E-05
  -11.3599997       2.96693343E-05
  -11.3500004       5.01479335E-05
  -11.3400002       6.75654592E-05
  -11.3299999       7.78856702E-05
  -11.3199997       7.80242481E-05
  -11.3100004       6.65664847E-05
  -11.3000002       4.41592674E-05
  -11.2900000       1.34841875E-05
  -11.2799997      -2.11901643E-05
  -11.2700005      -5.47875570E-05
  -11.2600002      -8.23743758E-05
  -11.2500000      -1.00084319E-04
  -11.2399998      -1.05827690E-04
  -11.2299995      -9.96421004E-05
  -11.2200003      -8.36171748E-05
  -11.2100000      -6.14137243E-05
  -11.1999998      -3.74802767E-05
  -11.1899996      -1.61292901E-05
  -11.1800003      -6.62053367E-07
  -11.1700001       7.28043960E-06
  -11.1599998       8.00954422E-06
  -11.1499996       3.66465360E-06
  -11.1400003      -2.30324645E-06
  -11.1300001      -5.93672758E-06
  -11.1199999      -3.70272733E-06
  -11.1099997       6.64231493E-06
  -11.1000004       2.54346105E-05
  -11.0900002       5.08675657E-05
  -11.0799999       7.91984639E-05
  -11.0699997       1.05367595E-04
  -11.0600004       1.23914913E-04
  -11.0500002       1.30016415E-04
  -11.0400000       1.20436256E-04
  -11.0299997       9.42074766E-05
  -11.0200005       5.29102399E-05
  -11.0100002       4.99928433E-07
  -11.0000000      -5.72716745E-05
  -10.9899998      -1.13720751E-04
  -10.9799995      -1.62212425E-04
  -10.9700003      -1.97081143E-04
  -10.9600000      -2.14343308E-04
  -10.9499998      -2.12112776E-04
  -10.9399996      -1.90697523E-04
  -10.9300003      -1.52416847E-04
  -10.9200001      -1.01216407E-04
  -10.9099998      -4.21708428E-05
  -10.8999996       1.90494429E-05
  -10.8900003       7.66973972E-05
  -10.8800001       1.25431819E-04
  -10.8699999       1.60757947E-04
  -10.8599997       1.79422408E-04
  -10.8500004       1.79746130E-04
  -10.8400002       1.61861070E-04
  -10.8299999       1.27802792E-04
  -10.8199997       8.14120503E-05
  -10.8100004       2.80163677E-05
  -10.8000002      -2.61038931E-05
  -10.7900000      -7.44212375E-05
  -10.7799997      -1.10958936E-04
  -10.7700005      -1.31079199E-04
  -10.7600002      -1.32155037E-04
  -10.7500000      -1.14030612E-04
  -10.7399998      -7.91986022E-05
  -10.7299995      -3.26511326E-05
  -10.7200003       1.86086145E-05
  -10.7100000       6.63756073E-05
  -10.6999998       1.02318416E-04
  -10.6899996       1.19222648E-04
  -10.6800003       1.12254376E-04
  -10.6700001       8.00480120E-05
  -10.6599998       2.53946509E-05
  -10.6499996      -4.46830891E-05
  -10.6400003      -1.19618344E-04
  -10.6300001      -1.86773672E-04
  -10.6199999      -2.33555795E-04
  -10.6099997      -2.49846082E-04
  -10.6000004      -2.30278747E-04
  -10.5900002      -1.75842986E-04
  -10.5799999      -9.43517589E-05
  -10.5699997       4.84798193E-07
  -10.5600004       9.13483891E-05
  -10.5500002       1.60601689E-04
  -10.5400000       1.93932545E-04
  -10.5299997       1.83556433E-04
  -10.5200005       1.30212386E-04
  -10.5100002       4.34158137E-05
  -10.5000000      -6.01886968E-05
  -10.4899998      -1.60087497E-04
  -10.4799995      -2.36087959E-04
  -10.4700003      -2.72513134E-04
  -10.4600000      -2.61455309E-04
  -10.4499998      -2.04355994E-04
  -10.4399996      -1.11575930E-04
  -10.4300003      -9.39478042E-08
  -10.4200001       1.10092376E-04
  -10.4099998       2.00012291E-04
  -10.3999996       2.55303748E-04
  -10.3900003       2.68590695E-04
  -10.3800001       2.40255176E-04
  -10.3699999       1.77612965E-04
  -10.3599997       9.28692389E-05
  -10.3500004       4.59243211E-07
  -10.3400002      -8.55747348E-05
  -10.3299999      -1.53647721E-04
  -10.3199997      -1.95857559E-04
  -10.3100004      -2.08360492E-04
  -10.3000002      -1.91096595E-04
  -10.2900000      -1.47161467E-04
  -10.2799997      -8.20937712E-05
  -10.2700005      -3.23122117E-06
  -10.2600002       8.08568584E-05
  -10.2500000       1.60957934E-04
  -10.2399998       2.27945726E-04
  -10.2299995       2.73703918E-04
  -10.2200003       2.92171986E-04
  -10.2100000       2.80316453E-04
  -10.1999998       2.38764522E-04
  -10.1899996       1.71868916E-04
  -10.1800003       8.71021184E-05
  -10.1700001      -6.13600378E-06
  -10.1599998      -9.80334589E-05
  -10.1499996      -1.79836774E-04
  -10.1400003      -2.44923634E-04
  -10.1300001      -2.89257383E-04
  -10.1199999      -3.11212556E-04
  -10.1099997      -3.10971373E-04
  -10.1000004      -2.89825664E-04
  -10.0900002      -2.49722187E-04
  -10.0799999      -1.93257059E-04
  -10.0699997      -1.24100028E-04
  -10.0600004      -4.75967863E-05
  -10.0500002       2.88504289E-05
  -10.0400000       9.60201069E-05
  -10.0299997       1.43950092E-04
  -10.0200005       1.63787176E-04
  -10.0100002       1.50017237E-04
  -10.0000000       1.02454236E-04
  -9.98999977       2.73187161E-05
  -9.97999954      -6.30918512E-05
  -9.97000027      -1.52279783E-04
  -9.96000004      -2.22667761E-04
  -9.94999981      -2.59269349E-04
  -9.93999958      -2.53005070E-04
  -9.93000031      -2.02803727E-04
  -9.92000008      -1.15926618E-04
  -9.90999985      -6.41800125E-06
  -9.89999962       1.07917833E-04
  -9.89000034       2.09232094E-04
  -9.88000011       2.83109228E-04
  -9.86999989       3.20992112E-04
  -9.85999966       3.21077794E-04
  -9.85000038       2.87652976E-04
  -9.84000015       2.29251702E-04
  -9.82999992       1.56275040E-04
  -9.81999969       7.87548925E-05
  -9.81000042       4.77725462E-06
  -9.80000019      -6.02112304E-05
  -9.78999996      -1.13297217E-04
  -9.77999973      -1.53496352E-04
  -9.77000046      -1.81019626E-04
  -9.76000023      -1.96700392E-04
  -9.75000000      -2.01702875E-04
  -9.73999977      -1.97460540E-04
  -9.72999954      -1.85690194E-04
  -9.72000027      -1.68332626E-04
  -9.71000004      -1.47364291E-04
  -9.69999981      -1.24547369E-04
  -9.68999958      -1.01266123E-04
  -9.68000031      -7.85834636E-05
  -9.67000008      -5.75419654E-05
  -9.65999985      -3.95746538E-05
  -9.64999962      -2.67665528E-05
  -9.64000034      -2.16933004E-05
  -9.63000011      -2.66955212E-05
  -9.61999989      -4.26957631E-05
  -9.60999966      -6.79379737E-05
  -9.60000038      -9.72049456E-05
  -9.59000015      -1.22044796E-04
  -9.57999992      -1.32277361E-04
  -9.56999969      -1.18613483E-04
  -9.56000042      -7.57460366E-05
  -9.55000019      -4.94431515E-06
  -9.53999996       8.48449054E-05
  -9.52999973       1.78051312E-04
  -9.52000046       2.55722378E-04
  -9.51000023       3.00247251E-04
  -9.50000000       3.00264946E-04
  -9.48999977       2.54239159E-04
  -9.47999954       1.71454754E-04
  -9.47000027       6.99158409E-05
  -9.46000004      -2.84124999E-05
  -9.44999981      -1.03683029E-04
  -9.43999958      -1.43722995E-04
  -9.43000031      -1.47303028E-04
  -9.42000008      -1.24026818E-04
  -9.40999985      -9.08219517E-05
  -9.39999962      -6.61362574E-05
  -9.39000034      -6.37337362E-05
  -9.38000011      -8.81555461E-05
  -9.36999989      -1.33380017E-04
  -9.35999966      -1.85143246E-04
  -9.35000038      -2.26123608E-04
  -9.34000015      -2.42184862E-04
  -9.32999992      -2.27475568E-04
  -9.31999969      -1.86553341E-04
  -9.31000042      -1.32732777E-04
  -9.30000019      -8.31949728E-05
  -9.28999996      -5.25776486E-05
  -9.27999973      -4.73583932E-05
  -9.27000046      -6.31220755E-05
  -9.26000023      -8.58202111E-05
  -9.25000000      -9.67164815E-05
  -9.23999977      -7.93622239E-05
  -9.22999954      -2.61477944E-05
  -9.22000027       5.79679217E-05
  -9.21000004       1.56027352E-04
  -9.19999981       2.43939634E-04
  -9.18999958       2.98106665E-04
  -9.18000031       3.03238136E-04
  -9.17000008       2.57626205E-04
  -9.15999985       1.73954657E-04
  -9.14999962       7.52266424E-05
  -9.14000034      -1.29037599E-05
  -9.13000011      -7.08129664E-05
  -9.11999989      -9.15910641E-05
  -9.10999966      -8.33312661E-05
  -9.10000038      -6.60995865E-05
  -9.09000015      -6.44899337E-05
  -9.07999992      -9.82340716E-05
  -9.06999969      -1.74085100E-04
  -9.06000042      -2.81852292E-04
  -9.05000019      -3.96131625E-04
  -9.03999996      -4.83388489E-04
  -9.02999973      -5.12242026E-04
  -9.02000046      -4.63685137E-04
  -9.01000023      -3.37931677E-04
  -9.00000000      -1.55631176E-04
  -8.98999977       4.70197083E-05
  -8.97999954       2.27801080E-04
  -8.97000027       3.49717942E-04
  -8.96000004       3.90574074E-04
  -8.94999981       3.48082685E-04
  -8.93999958       2.39203073E-04
  -8.93000031       9.42268744E-05
  -8.92000008      -5.22810042E-05
  -8.90999985      -1.70758009E-04
  -8.89999962      -2.43372153E-04
  -8.89000034      -2.66480609E-04
  -8.88000011      -2.48616299E-04
  -8.86999989      -2.05259174E-04
  -8.85999966      -1.52560795E-04
  -8.85000038      -1.02283149E-04
  -8.84000015      -5.95174533E-05
  -8.82999992      -2.35633579E-05
  -8.81999969       8.86699672E-06
  -8.81000042       3.97658223E-05
  -8.80000019       6.70476220E-05
  -8.78999996       8.40955909E-05
  -8.77999973       8.18643239E-05
  -8.77000046       5.27110496E-05
  -8.76000023      -5.58751890E-06
  -8.75000000      -8.72924356E-05
  -8.73999977      -1.78781309E-04
  -8.72999954      -2.61453359E-04
  -8.72000027      -3.16641381E-04
  -8.71000004      -3.30975541E-04
  -8.69999981      -3.00453394E-04
  -8.68999958      -2.31882106E-04
  -8.68000031      -1.41218974E-04
  -8.67000008      -4.93350162E-05
  -8.65999985       2.34758336E-05
  -8.64999962       6.25840912E-05
  -8.64000034       6.22657462E-05
  -8.63000011       2.63181064E-05
  -8.61999989      -3.38665886E-05
  -8.60999966      -1.02926962E-04
  -8.60000038      -1.65600562E-04
  -8.59000015      -2.10016777E-04
  -8.57999992      -2.29431578E-04
  -8.56999969      -2.22259347E-04
  -8.56000042      -1.90854029E-04
  -8.55000019      -1.39834694E-04
  -8.53999996      -7.47421145E-05
  -8.52999973      -1.49126868E-06
  -8.52000046       7.33958223E-05
  -8.51000023       1.42225283E-04
  -8.50000000       1.95889632E-04
  -8.48999977       2.24502102E-04
  -8.47999954       2.19089314E-04
  -8.47000027       1.74030036E-04
  -8.46000004       8.95054691E-05
  -8.44999981      -2.69513239E-05
  -8.43999958      -1.60567317E-04
  -8.43000031      -2.91413802E-04
  -8.42000008      -3.98167438E-04
  -8.40999985      -4.62688447E-04
  -8.39999962      -4.74228640E-04
  -8.39000034      -4.32106201E-04
  -8.38000011      -3.46064917E-04
  -8.36999989      -2.34163628E-04
  -8.35999966      -1.18724049E-04
  -8.35000038      -2.13943076E-05
  -8.34000015       4.13963462E-05
  -8.32999992       6.14719684E-05
  -8.31999969       3.97846525E-05
  -8.31000042      -1.48849849E-05
  -8.30000019      -8.88178256E-05
  -8.28999996      -1.66872051E-04
  -8.27999973      -2.35603002E-04
  -8.27000046      -2.85230606E-04
  -8.26000023      -3.10178322E-04
  -8.25000000      -3.08431569E-04
  -8.23999977      -2.80344364E-04
  -8.22999954      -2.27635494E-04
  -8.22000027      -1.53123357E-04
  -8.21000004      -6.13296288E-05
  -8.19999981       4.04002240E-05
  -8.18999958       1.40971693E-04
  -8.18000031       2.25605894E-04
  -8.17000008       2.77437124E-04
  -8.15999985       2.80663051E-04
  -8.14999962       2.24642528E-04
  -8.14000034       1.07829183E-04
  -8.13000011      -5.97585822E-05
  -8.11999989      -2.56592495E-04
  -8.10999966      -4.52647510E-04
  -8.10000038      -6.14956312E-04
  -8.09000015      -7.14479305E-04
  -8.07999992      -7.32562505E-04
  -8.06999969      -6.65246160E-04
  -8.06000042      -5.24207600E-04
  -8.05000019      -3.34026234E-04
  -8.03999996      -1.26493062E-04
  -8.02999973       6.64815670E-05
  -8.02000046       2.19438021E-04
  -8.01000023       3.17702448E-04
  -8.00000000       3.58502963E-04
  -7.98999977       3.48890899E-04
  -7.98000002       3.01453401E-04
  -7.96999979       2.29406971E-04
  -7.96000004       1.42719655E-04
  -7.94999981       4.64204677E-05
  -7.94000006      -5.86010319E-05
  -7.92999983      -1.72915039E-04
  -7.92000008      -2.95254460E-04
  -7.90999985      -4.20034601E-04
  -7.90000010      -5.36765088E-04
  -7.88999987      -6.31683157E-04
  -7.88000011      -6.91084017E-04
  -7.86999989      -7.05174811E-04
  -7.86000013      -6.71068614E-04
  -7.84999990      -5.93835954E-04
  -7.84000015      -4.85227501E-04
  -7.82999992      -3.60510283E-04
  -7.82000017      -2.34520514E-04
  -7.80999994      -1.18285432E-04
  -7.80000019      -1.73192620E-05
  -7.78999996       6.79447476E-05
  -7.78000021       1.39922573E-04
  -7.76999998       2.00838855E-04
  -7.76000023       2.50138022E-04
  -7.75000000       2.83401343E-04
  -7.73999977       2.93224119E-04
  -7.73000002       2.71744531E-04
  -7.71999979       2.13877545E-04
  -7.71000004       1.20029916E-04
  -7.69999981      -2.74673425E-06
  -7.69000006      -1.41641431E-04
  -7.67999983      -2.80753040E-04
  -7.67000008      -4.04661347E-04
  -7.65999985      -5.01726987E-04
  -7.65000010      -5.66088129E-04
  -7.63999987      -5.97827893E-04
  -7.63000011      -6.01458014E-04
  -7.61999989      -5.83442801E-04
  -7.61000013      -5.49763732E-04
  -7.59999990      -5.04407973E-04
  -7.59000015      -4.49220854E-04
  -7.57999992      -3.84978281E-04
  -7.57000017      -3.13047116E-04
  -7.55999994      -2.36793276E-04
  -7.55000019      -1.62044817E-04
  -7.53999996      -9.63422281E-05
  -7.53000021      -4.72326647E-05
  -7.51999998      -2.02688407E-05
  -7.51000023      -1.74991092E-05
  -7.50000000      -3.70326743E-05
  -7.48999977      -7.38255258E-05
  -7.48000002      -1.21340992E-04
  -7.46999979      -1.73397217E-04
  -7.46000004      -2.25464231E-04
  -7.44999981      -2.74935213E-04
  -7.44000006      -3.20358755E-04