  -16.0000000       0.00000000    
  -15.9899998       0.00000000    
  -15.9799995       0.00000000    
  -15.9700003       0.00000000    
  -15.9600000       0.00000000    
  -15.9499998       0.00000000    
  -15.9399996       0.00000000    
  -15.9300003       0.00000000    
  -15.9200001       0.00000000    
  -15.9099998       0.00000000    
  -15.8999996      -0.00000000    
  -15.8900003      -3.35092502E-40
  -15.8800001      -1.40754854E-38
  -15.8699999      -2.86723356E-37
  -15.8599997      -3.72531515E-36
  -15.8500004      -3.50212053E-35
  -15.8400002      -2.56605802E-34
  -15.8299999      -1.53822114E-33
  -15.8199997      -7.80086557E-33
  -15.8100004      -3.42858730E-32
  -15.8000002      -1.32950210E-31
  -15.7900000      -4.60999168E-31
  -15.7799997      -1.44400425E-30
  -15.7700005      -4.11730833E-30
  -15.7600002      -1.07459992E-29
  -15.7500000      -2.57676096E-29
  -15.7399998      -5.68735960E-29
  -15.7299995      -1.15530519E-28
  -15.7200003      -2.15404648E-28
  -15.7100000      -3.66221838E-28
  -15.6999998      -5.60278491E-28
  -15.6899996      -7.50400999E-28
  -15.6800003      -8.23149488E-28
  -15.6700001      -5.80183314E-28
  -15.6599998       2.47903632E-28
  -15.6499996       1.92347053E-27
  -15.6400003       4.53467794E-27
  -15.6300001       7.74780817E-27
  -15.6199999       1.05516332E-26
  -15.6099997       1.11474528E-26
  -15.6000004       7.19621413E-27
  -15.5900002      -3.39353594E-27
  -15.5799999      -2.11250433E-26
  -15.5699997      -4.33350107E-26
  -15.5600004      -6.30892310E-26
  -15.5500002      -6.95344526E-26
  -15.5400000      -5.05753179E-26
  -15.5299997       1.94796855E-27
  -15.5200005       8.56501722E-26
  -15.5100002       1.82063723E-25
  -15.5000000       2.55649334E-25
  -15.4899998       2.60617678E-25
  -15.4799995       1.56969860E-25
  -15.4700003      -6.62817942E-26
  -15.4600000      -3.67211202E-25
  -15.4499998      -6.37442309E-25
  -15.4399996      -7.13415481E-25
  -15.4300003      -4.27050591E-25
  -15.4200001       2.96486198E-25
  -15.4099998       1.30579850E-24
  -15.3999996       2.10383386E-24
  -15.3900003       1.84084420E-24
  -15.3800001      -4.42019522E-25
  -15.3699999      -5.20142577E-24
  -15.3599997      -1.14425584E-23
  -15.3500004      -1.57722435E-23
  -15.3400002      -1.22116157E-23
  -15.3299999       6.17491208E-24
  -15.3199997       4.29852358E-23
  -15.3100004       9.18037383E-23
  -15.3000002       1.29615829E-22
  -15.2900000       1.15448796E-22
  -15.2799997       9.46202664E-25
  -15.2700005      -2.42282610E-22
  -15.2600002      -5.81094835E-22
  -15.2500000      -8.80528612E-22
  -15.2399998      -8.94726796E-22
  -15.2299995      -3.25945361E-22
  -15.2200003       1.02392247E-21
  -15.2100000       3.02571137E-21
  -15.1999998       5.00218613E-21
  -15.1899996       5.66662179E-21
  -15.1800003       3.40197737E-21
  -15.1700001      -3.00394800E-21
  -15.1599998      -1.32476586E-20
  -15.1499996      -2.44088591E-20
  -15.1400003      -3.05524394E-20
  -15.1300001      -2.38458787E-20
  -15.1199999       2.28541218E-21
  -15.1099997       4.82729939E-20
  -15.1000004       1.03369323E-19
  -15.0900002       1.43308162E-19
  -15.0799999       1.34019906E-19
  -15.0699997       4.36738503E-20
  -15.0600004      -1.37847129E-19
  -15.0500002      -3.77785354E-19
  -15.0400000      -5.88309308E-19
  -15.0299997      -6.36138804E-19
  -15.0200005      -3.83378026E-19
  -15.0100002       2.41983339E-19
  -15.0000000       1.16451924E-18
  -14.9899998       2.10516349E-18
  -14.9799995       2.59602488E-18
  -14.9700003       2.10252789E-18
  -14.9600000       2.54990625E-19
  -14.9499998      -2.86387816E-18
  -14.9399996      -6.48942588E-18
  -14.9300003      -9.15371714E-18
  -14.9200001      -9.00280797E-18
  -14.9099998      -4.48565364E-18
  -14.8999996       4.72009689E-18
  -14.8900003       1.68718110E-17
  -14.8800001       2.78732272E-17
  -14.8699999       3.19662757E-17
  -14.8599997       2.35844793E-17
  -14.8500004       7.88882990E-20
  -14.8400002      -3.55413867E-17
  -14.8299999      -7.31512675E-17
  -14.8199997      -9.66643396E-17
  -14.8100004      -8.85412341E-17
  -14.8000002      -3.71652911E-17
  -14.7900000       5.49856864E-17
  -14.7799997       1.65799698E-16
  -14.7700005       2.54430380E-16
  -14.7600002       2.71214497E-16
  -14.7500000       1.76187009E-16
  -14.7399998      -3.83958050E-17
  -14.7299995      -3.30037362E-16
  -14.7200003      -6.02749757E-16
  -14.7100000      -7.26640237E-16
  -14.6999998      -5.81545134E-16
  -14.6899996      -1.15504999E-16
  -14.6800003       6.01883983E-16
  -14.6700001       1.35756744E-15
  -14.6599998       1.82811563E-15
  -14.6499996       1.67676874E-15
  -14.6400003       6.98652415E-16
  -14.6300001      -1.02982456E-15
  -14.6199999      -3.06192966E-15
  -14.6099997      -4.61713551E-15
  -14.6000004      -4.78077847E-15
  -14.5900002      -2.84891358E-15
  -14.5799999       1.27010579E-15
  -14.5699997       6.74706169E-15
  -14.5600004       1.17881330E-14
  -14.5500002       1.39857286E-14
  -14.5400000       1.10799109E-14
  -14.5299997       1.98064954E-15
  -14.5200005      -1.22679161E-14
  -14.5100002      -2.80039291E-14
  -14.5000000      -3.93390087E-14
  -14.4899998      -3.96186109E-14
  -14.4799995      -2.37915241E-14
  -14.4700003       8.89632436E-15
  -14.4600000       5.28216963E-14
  -14.4499998       9.55721166E-14
  -14.4399996       1.20006720E-13
  -14.4300003       1.08942755E-13
  -14.4200001       5.16766466E-14
  -14.4099998      -4.94339304E-14
  -14.3999996      -1.74764351E-13
  -14.3900003      -2.88021018E-13
  -14.3800001      -3.43163188E-13
  -14.3699999      -2.97397903E-13
  -14.3599997      -1.27719314E-13
  -14.3500004       1.53667809E-13
  -14.3400002       4.90878442E-13
  -14.3299999       7.88176165E-13
  -14.3199997       9.28926640E-13
  -14.3100004       8.08199373E-13
  -14.3000002       3.72393387E-13
  -14.2900000      -3.45238351E-13
  -14.2799997      -1.20641854E-12
  -14.2700005      -1.97862039E-12
  -14.2600002      -2.38035524E-12
  -14.2500000      -2.15687863E-12
  -14.2399998      -1.17105577E-12
  -14.2299995       5.15365582E-13
  -14.2200003       2.59904316E-12
  -14.2100000       4.55600878E-12
  -14.1999998       5.73847610E-12
  -14.1899996       5.53918023E-12
  -14.1800003       3.59141037E-12
  -14.1700001      -4.71763538E-14
  -14.1599998      -4.78824315E-12
  -14.1499996      -9.53820530E-12
  -14.1400003      -1.28840107E-11
  -14.1300001      -1.34267007E-11
  -14.1199999      -1.02020744E-11
  -14.1099997      -3.08559948E-12
  -14.1000004       6.94325413E-12
  -14.0900002       1.77921063E-11
  -14.0799999       2.65703622E-11
  -14.0699997       3.02171170E-11
  -14.0600004       2.63374548E-11
  -14.0500002       1.40559370E-11
  -14.0400000      -5.35466766E-12
  -14.0299997      -2.83034585E-11
  -14.0200005      -4.93268273E-11
  -14.0100002      -6.21656615E-11
  -14.0000000      -6.13149115E-11
  -13.9899998      -4.37173006E-11
  -13.9799995      -1.01611367E-11
  -13.9700003       3.40689595E-11
  -13.9600000       7.96271243E-11
  -13.9499998       1.14735985E-10
  -13.9399996       1.27814537E-10
  -13.9300003       1.10597309E-10
  -13.9200001       6.10065887E-11
  -13.9099998      -1.50358198E-11
  -13.8999996      -1.03539968E-10
  -13.8900003      -1.84470245E-10
  -13.8800001      -2.35721220E-10
  -13.8699999      -2.38374681E-10
  -13.8599997      -1.82118057E-10
  -13.8500004      -6.94681465E-11
  -13.8400002       8.24815424E-11
  -13.8299999       2.43662951E-10
  -13.8199997       3.76161519E-10
  -13.8100004       4.42197057E-10
  -13.8000002       4.13465373E-10
  -13.7900000       2.79765378E-10
  -13.7799997       5.46701746E-11
  -13.7700005      -2.23649751E-10
  -13.7600002      -4.97474284E-10
  -13.7500000      -7.00218938E-10
  -13.7399998      -7.71111619E-10
  -13.7299995      -6.70960731E-10
  -13.7200003      -3.95346839E-10
  -13.7100000       1.84416597E-11
  -13.6999998       4.93520780E-10
  -13.6899996       9.25627353E-10
  -13.6800003       1.20417876E-09
  -13.6700001       1.23847343E-09
  -13.6599998       9.83364723E-10
  -13.6499996       4.57839627E-10
  -13.6400003      -2.49452098E-10
  -13.6300001      -9.91409510E-10
  -13.6199999      -1.59044911E-09
  -13.6099997      -1.87888194E-09
  -13.6000004      -1.74330561E-09
  -13.5900002      -1.16205967E-09
  -13.5799999      -2.24694749E-10
  -13.5699997       8.74713857E-10
  -13.5600004       1.87294646E-09
  -13.5500002       2.49695375E-09
  -13.5400000       2.53503751E-09
  -13.5299997       1.90258964E-09
  -13.5200005       6.83722134E-10
  -13.5100002      -8.66317462E-10
  -13.5000000      -2.36476105E-09
  -13.4899998      -3.38626327E-09
  -13.4799995      -3.57248320E-09
  -13.4700003      -2.74035172E-09
  -13.4600000      -9.59563984E-10
  -13.4499998       1.42617906E-09
  -13.4399996       3.84822307E-09
  -13.4300003       5.62955327E-09
  -13.4200001       6.14793860E-09
  -13.4099998       5.00963226E-09
  -13.3999996       2.19018248E-09
  -13.3900003      -1.89813565E-09
  -13.3800001      -6.43919051E-09
  -13.3699999      -1.03512683E-08
  -13.3599997      -1.25105695E-08
  -13.3500004      -1.20169776E-08
  -13.3400002      -8.44453574E-09
  -13.3299999      -2.01668771E-09
  -13.3199997       6.34252784E-09
  -13.3100004       1.51072648E-08
  -13.3000002       2.23943548E-08
  -13.2900000       2.63177498E-08
  -13.2799997       2.53909676E-08
  -13.2700005       1.88998683E-08
  -13.2600002       7.16657134E-09
  -13.2500000      -8.36122105E-09
  -13.2399998      -2.52342165E-08
  -13.2299995      -4.03408649E-08
  -13.2200003      -5.04231359E-08
  -13.2100000      -5.26912736E-08
  -13.1999998      -4.54312463E-08
  -13.1899996      -2.84856050E-08
  -13.1800003      -3.49697293E-09
  -13.1700001       2.61649973E-08
  -13.1599998       5.58197684E-08
  -13.1499996       8.01952424E-08
  -13.1400003       9.43421554E-08
  -13.1300001       9.45809973E-08
  -13.1199999       7.92926613E-08
  -13.1099997       4.93779133E-08
  -13.1000004       8.26652169E-09
  -13.0900002      -3.85528267E-08
  -13.0799999      -8.44047747E-08
  -13.0699997      -1.22528860E-07
  -13.0600004      -1.47178952E-07
  -13.0500002      -1.54487083E-07
  -13.0400000      -1.42918324E-07
  -13.0299997      -1.13253826E-07
  -13.0200005      -6.81698964E-08
  -13.0100002      -1.15942100E-08
  -13.0000000       5.19230277E-08
  -12.9899998       1.17607357E-07
  -12.9799995       1.80515116E-07
  -12.9700003       2.35288070E-07
  -12.9600000       2.75810436E-07
  -12.9499998       2.95076859E-07
  -12.9399996       2.85583809E-07
  -12.9300003       2.40436066E-07
  -12.9200001       1.55133748E-07
  -12.9099998       2.97274774E-08
  -12.8999996      -1.29211685E-07
  -12.8900003      -3.07481457E-07
  -12.8800001      -4.83603571E-07
  -12.8699999      -6.30980878E-07
  -12.8599997      -7.21765389E-07
  -12.8500004      -7.31860212E-07
  -12.8400002      -6.46069907E-07
  -12.8299999      -4.62212739E-07
  -12.8199997      -1.93101059E-07
  -12.8100004       1.34301231E-07
  -12.8000002       4.82604548E-07
  -12.7900000       8.09948006E-07
  -12.7799997       1.07692358E-06
  -12.7700005       1.25289364E-06
  -12.7600002       1.32020932E-06
  -12.7500000       1.27533474E-06
  -12.7399998       1.12667726E-06
  -12.7299995       8.89832620E-07
  -12.7200003       5.81707468E-07
  -12.7100000       2.15377923E-07
  -12.6999998      -2.02575237E-07
  -12.6899996      -6.71140242E-07
  -12.6800003      -1.19023900E-06
  -12.6700001      -1.75338596E-06
  -12.6599998      -2.33958326E-06
  -12.6499996      -2.90687694E-06
  -12.6400003      -3.38987888E-06
  -12.6300001      -3.70280191E-06
  -12.6199999      -3.74837668E-06
  -12.6099997      -3.43164061E-06
  -12.6000004      -2.67642758E-06
  -12.5900002      -1.44168337E-06
  -12.5799999       2.65281074E-07
  -12.5699997       2.38087569E-06
  -12.5600004       4.78382162E-06
  -12.5500002       7.30014335E-06
  -12.5400000       9.71340251E-06
  -12.5299997       1.17784102E-05
  -12.5200005       1.32366831E-05
  -12.5100002       1.38324785E-05
  -12.5000000       1.33290923E-05
  -12.4899998       1.15258517E-05
  -12.4799995       8.27655913E-06
  -12.4700003       3.50970572E-06
  -12.4600000      -2.75031107E-06
  -12.4499998      -1.03633511E-05
  -12.4399996      -1.90589872E-05
  -12.4300003      -2.84321595E-05
  -12.4200001      -3.79537378E-05
  -12.4099998      -4.69991282E-05
  -12.3999996      -5.48952157E-05
  -12.3900003      -6.09820963E-05
  -12.3800001      -6.46823755E-05
  -12.3699999      -6.55679978E-05
  -12.3599997      -6.34135213E-05
  -12.3500004      -5.82262437E-05
  -12.3400002      -5.02470430E-05
  -12.3299999      -3.99213495E-05
  -12.3199997      -2.78453736E-05
  -12.3100004      -1.46977891E-05
  -12.3000002      -1.16998478E-06
  -12.2900000       1.20922032E-05
  -12.2799997       2.45255233E-05
  -12.2700005       3.56611199E-05
  -12.2600002       4.51138658E-05
  -12.2500000       5.25580690E-05
  -12.2399998       5.77021674E-05
  -12.2299995       6.02754080E-05
  -12.2200003       6.00359381E-05
  -12.2100000       5.68033938E-05
  -12.1999998       5.05112839E-05
  -12.1899996       4.12672816E-05
  -12.1800003       2.94051515E-05
  -12.1700001       1.55116704E-05
  -12.1599998       4.15889616E-07
  -12.1499996      -1.48642193E-05
  -12.1400003      -2.92133846E-05
  -12.1300001      -4.15356953E-05
  -12.1199999      -5.08770863E-05
  -12.1099997      -5.65327500E-05
  -12.1000004      -5.81216918E-05
  -12.0900002      -5.56175801E-05
  -12.0799999      -4.93341868E-05
  -12.0699997      -3.98724878E-05
  -12.0600004      -2.80429340E-05
  -12.0500002      -1.47789642E-05
  -12.0400000      -1.05619324E-06
  -12.0299997       1.21730554E-05
  -12.0200005       2.40267163E-05
  -12.0100002       3.37243364E-05
  -12.0000000       4.06095169E-05
  -11.9899998       4.41710836E-05
  -11.9799995       4.40683907E-05
  -11.9700003       4.01620528E-05
  -11.9600000       3.25467045E-05
  -11.9499998       2.15786313E-05
  -11.9399996       7.88955185E-06
  -11.9300003      -7.62167519E-06
  -11.9200001      -2.38248886E-05
  -11.9099998      -3.94239069E-05
  -11.8999996      -5.30491707E-05
  -11.8900003      -6.33723248E-05
  -11.8800001      -6.92345784E-05
  -11.8699999      -6.97781943E-05
  -11.8599997      -6.45683685E-05
  -11.8500004      -5.36905791E-05
  -11.8400002      -3.78067853E-05
  -11.8299999      -1.81543837E-05
  -11.8199997       3.52522761E-06
  -11.8100004       2.51340607E-05
  -11.8000002       4.44350735E-05
  -11.7900000       5.93197074E-05
  -11.7799997       6.80911689E-05
  -11.7700005       6.97190626E-05
  -11.7600002       6.40181170E-05
  -11.7500000       5.17113003E-05
  -11.7399998       3.43549691E-05
  -11.7299995       1.41286428E-05
  -11.7200003      -6.48071182E-06
  -11.7100000      -2.50469056E-05
  -11.6999998      -3.95591851E-05
  -11.6899996      -4.86983627E-05
  -11.6800003      -5.19850510E-05
  -11.6700001      -4.97774854E-05
  -11.6599998      -4.31280896E-05
  -11.6499996      -3.35367695E-05
  -11.6400003      -2.26575085E-05
  -11.6300001      -1.20195127E-05
  -11.6199999      -2.81400480E-06
  -11.6099997       4.22330686E-06
  -11.6000004       8.82931818E-06
  -11.5900002       1.11482013E-05
  -11.5799999       1.16156252E-05
  -11.5699997       1.08273562E-05
  -11.5600004       9.41977760E-06
  -11.5500002       7.97674602E-06
  -11.5400000       6.96390225E-06
  -11.5299997       6.68315533E-06
  -11.5200005       7.23895619E-06
  -11.5100002       8.51358709E-06
  -11.5000000       1.01572277E-05
  -11.4899998       1.16051287E-05
  -11.4799995       1.21346111E-05
  -11.4700003       1.09670009E-05
  -11.4600000       7.40600171E-06
  -11.4499998       9.88884608E-07
  -11.4399996      -8.38341384E-06
  -11.4300003      -2.03720301E-05
  -11.4200001      -3.42056956E-05
  -11.4099998      -4.87700381E-05
  -11.3999996      -6.27616391E-05
  -11.3900003      -7.48694292E-05
  -11.3800001      -8.39390850E-05
  -11.3699999      -8.90836163E-05
  -11.3599997      -8.97237405E-05
  -11.3500004      -8.55674007E-05
  -11.3400002      -7.65601435E-05
  -11.3299999      -6.28481430E-05
  -11.3199997      -4.47880630E-05
  -11.3100004      -2.30149872E-05
  -11.3000002       1.45191893E-06
  -11.2900000       2.71146364E-05
  -11.2799997       5.19745590E-05
  -11.2700005       7.36373040E-05
  -11.2600002       8.95664198E-05
  -11.2500000       9.74628565E-05
  -11.2399998       9.57002048E-05
  -11.2299995       8.37145271E-05
  -11.2200003       6.22426160E-05
  -11.2100000       3.33292774E-05
  -11.1999998       7.70506432E-08
  -11.1899996      -3.38239079E-05
  -11.1800003      -6.46901171E-05
  -11.1700001      -8.94336918E-05
  -11.1599998      -1.06016756E-04
  -11.1499996      -1.13677284E-04
  -11.1400003      -1.12891328E-04
  -11.1300001      -1.05102539E-04
  -11.1199999      -9.23034604E-05
  -11.1099997      -7.65800505E-05
  -11.1000004      -5.97255857E-05
  -11.0900002      -4.29975735E-05
  -11.0799999      -2.70442015E-05
  -11.0699997      -1.19814113E-05
  -11.0600004       2.42864780E-06
  -11.0500002       1.65560741E-05
  -11.0400000       3.06869370E-05
  -11.0299997       4.48412356E-05
  -11.0200005       5.86367642E-05
  -11.0100002       7.12044566E-05
  -11.0000000       8.11674690E-05
  -10.9899998       8.67090712E-05
  -10.9799995       8.57620253E-05
  -10.9700003       7.63421194E-05
  -10.9600000       5.70154261E-05
  -10.9499998       2.74371487E-05
  -10.9399996      -1.11553218E-05
  -10.9300003      -5.56486884E-05
  -10.9200001      -1.01109734E-04
  -10.9099998      -1.41286742E-04
  -10.8999996      -1.69551437E-04
  -10.8900003      -1.80151008E-04
  -10.8800001      -1.69525360E-04
  -10.8699999      -1.37378433E-04
  -10.8599997      -8.72027376E-05
  -10.8500004      -2.60518445E-05
  -10.8400002       3.64807311E-05
  -10.8299999       8.99245788E-05
  -10.8199997       1.24914513E-04
  -10.8100004       1.35068753E-04
  -10.8000002       1.18341719E-04
  -10.7900000       7.75381995E-05
  -10.7799997       1.98632624E-05
  -10.7700005      -4.43987519E-05
  -10.7600002      -1.03789447E-04
  -10.7500000      -1.47761166E-04
  -10.7399998      -1.68519939E-04
  -10.7299995      -1.62287368E-04
  -10.7200003      -1.29792941E-04
  -10.7100000      -7.59828326E-05
  -10.6999998      -9.08057154E-06
  -10.6899996       6.07717811E-05
  -10.6800003       1.23039223E-04
  -10.6700001       1.68265382E-04
  -10.6599998       1.89329265E-04
  -10.6499996       1.82385294E-04
  -10.6400003       1.47421903E-04
  -10.6300001       8.83859975E-05
  -10.6199999       1.28244246E-05
  -10.6099997      -6.89891313E-05
  -10.6000004      -1.45419777E-04
  -10.5900002      -2.05214732E-04
  -10.5799999      -2.39393426E-04
  -10.5699997      -2.42951748E-04
  -10.5600004      -2.16004191E-04
  -10.5500002      -1.64037890E-04
  -10.5400000      -9.71046829E-05
  -10.5299997      -2.80102304E-05
  -10.5200005       3.01876480E-05
  -10.5100002       6.68537832E-05
  -10.5000000       7.60177572E-05
  -10.4899998       5.76441016E-05
  -10.4799995       1.76067042E-05
  -10.4700003      -3.36435915E-05
  -10.4600000      -8.34044258E-05
  -10.4499998      -1.19480348E-04
  -10.4399996      -1.32720234E-04
  -10.4300003      -1.18762480E-04
  -10.4200001      -7.86510427E-05
  -10.4099998      -1.82966705E-05
  -10.3999996       5.29480058E-05
  -10.3900003       1.24143364E-04
  -10.3800001       1.84558536E-04
  -10.3699999       2.25038748E-04
  -10.3599997       2.38794368E-04
  -10.3500004       2.21691414E-04
  -10.3400002       1.72280692E-04
  -10.3299999       9.18285805E-05
  -10.3199997      -1.54963691E-05
  -10.3100004      -1.42321514E-04
  -10.3000002      -2.77890096E-04
  -10.2900000      -4.08347521E-04
  -10.2799997      -5.17797132E-04
  -10.2700005      -5.90232725E-04
  -10.2600002      -6.12155884E-04
  -10.2500000      -5.75387501E-04
  -10.2399998      -4.79388720E-04
  -10.2299995      -3.32407479E-04
  -10.2200003      -1.50979817E-04
  -10.2100000       4.23016645E-05
  -10.1999998       2.22392860E-04
  -10.1899996       3.66043329E-04
  -10.1800003       4.55759204E-04
  -10.1700001       4.82621370E-04
  -10.1599998       4.47388535E-04
  -10.1499996       3.59750033E-04
  -10.1400003       2.36041975E-04
  -10.1300001       9.60689140E-05
  -10.1199999      -4.02071928E-05
  -10.1099997      -1.55452057E-04
  -10.1000004      -2.36831271E-04
  -10.0900002      -2.76909617E-04
  -10.0799999      -2.73781683E-04
  -10.0699997      -2.30750666E-04
  -10.0600004      -1.55813890E-04
  -10.0500002      -6.10312491E-05
  -10.0400000       3.83491788E-05
  -10.0299997       1.25248363E-04
  -10.0200005       1.82782824E-04
  -10.0100002       1.96923909E-04
  -10.0000000       1.59428222E-04
  -9.98999977       7.03784972E-05
  -9.97999954      -6.04614033E-05
  -9.97000027      -2.14154497E-04
  -9.96000004      -3.65251151E-04
  -9.94999981      -4.86325851E-04
  -9.93999958      -5.53531747E-04
  -9.93000031      -5.51908102E-04
  -9.92000008      -4.79091977E-04
  -9.90999985      -3.46390851E-04
  -9.89999962      -1.76799440E-04
  -9.89000034      -3.30099596E-07
  -9.88000011       1.52257635E-04
  -9.86999989       2.55810970E-04
  -9.85999966       2.95686477E-04
  -9.85000038       2.70075747E-04
  -9.84000015       1.89338010E-04
  -9.82999992       7.27231309E-05
  -9.81999969      -5.64797483E-05
  -9.81000042      -1.76015106E-04
  -9.80000019      -2.68693228E-04
  -9.78999996      -3.24562920E-04
  -9.77999973      -3.41040082E-04
  -9.77000046      -3.21416243E-04
  -9.76000023      -2.72566540E-04
  -9.75000000      -2.02747644E-04
  -9.73999977      -1.20139579E-04
  -9.72999954      -3.23519562E-05
  -9.72000027       5.33324892E-05
  -9.71000004       1.29500477E-04
  -9.69999981       1.88500038E-04
  -9.68999958       2.23029972E-04
  -9.68000031       2.27405370E-04
  -9.67000008       1.99107439E-04
  -9.65999985       1.40013042E-04
  -9.64999962       5.67325442E-05
  -9.64000034      -4.02398327E-05
  -9.63000011      -1.38444157E-04
  -9.61999989      -2.25924843E-04
  -9.60999966      -2.93511839E-04
  -9.60000038      -3.36213765E-04
  -9.59000015      -3.53323470E-04
  -9.57999992      -3.47289722E-04
  -9.56999969      -3.21848143E-04
  -9.56000042      -2.80167034E-04
  -9.55000019      -2.23745563E-04
  -9.53999996      -1.52503388E-04
  -9.52999973      -6.60320948E-05
  -9.52000046       3.44942018E-05
  -9.51000023       1.44544334E-04
  -9.50000000       2.55389663E-04
  -9.48999977       3.54695454E-04
  -9.47999954       4.28542000E-04
  -9.47000027       4.64354787E-04
  -9.46000004       4.53871064E-04
  -9.44999981       3.95219220E-04
  -9.43999958       2.93461402E-04
  -9.43000031       1.59450035E-04
  -9.42000008       7.40126461E-06
  -9.40999985      -1.48010484E-04
  -9.39999962      -2.94124504E-04
  -9.39000034      -4.21642442E-04
  -9.38000011      -5.24630130E-04
  -9.36999989      -5.99480467E-04
  -9.35999966      -6.43537147E-04
  -9.35000038      -6.54181058E-04
  -9.34000015      -6.28945418E-04
  -9.32999992      -5.66745759E-04
  -9.31999969      -4.69763268E-04
  -9.31000042      -3.45134671E-04
  -9.30000019      -2.05530916E-04
  -9.28999996      -6.80148878E-05
  -9.27999973       4.88460391E-05
  -9.27000046       1.28970685E-04
  -9.26000023       1.62716620E-04
  -9.25000000       1.49521700E-04
  -9.23999977       9.82701240E-05
  -9.22999954       2.50883531E-05
  -9.22000027      -5.09051060E-05
  -9.21000004      -1.12686146E-04
  -9.19999981      -1.49721760E-04
  -9.18999958      -1.60333148E-04
  -9.18000031      -1.51311193E-04
  -9.17000008      -1.34947317E-04
  -9.15999985      -1.24477068E-04
  -9.14999962      -1.29440785E-04
  -9.14000034      -1.52475215E-04
  -9.13000011      -1.88557417E-04
  -9.11999989      -2.26891541E-04
  -9.10999966      -2.54747283E-04
  -9.10000038      -2.61919224E-04
  -9.09000015      -2.44295079E-04
  -9.07999992      -2.05352582E-04
  -9.06999969      -1.55125628E-04
  -9.06000042      -1.07037769E-04
  -9.05000019      -7.37021110E-05
  -9.03999996      -6.30943832E-05
  -9.02999973      -7.63282005E-05
  -9.02000046      -1.07676380E-04
  -9.01000023      -1.46705977E-04
  -9.00000000      -1.81701238E-04
  -8.98999977      -2.03175790E-04
  -8.97999954      -2.06336219E-04
  -8.97000027      -1.91809420E-04
  -8.96000004      -1.64605473E-04
  -8.94999981      -1.31905705E-04
  -8.93999958      -1.00621699E-04
  -8.93000031      -7.56461304E-05
  -8.92000008      -5.93431323E-05
  -8.90999985      -5.22615119E-05
  -8.89999962      -5.45290968E-05
  -8.89000034      -6.71072630E-05
  -8.88000011      -9.21624669E-05
  -8.86999989      -1.32212823E-04
  -8.85999966      -1.88275502E-04
  -8.85000038      -2.57748819E-04
  -8.84000015      -3.33001459E-04
  -8.82999992      -4.01502417E-04
  -8.81999969      -4.47838451E-04
  -8.81000042      -4.57294373E-04
  -8.80000019      -4.20055934E-04
  -8.78999996      -3.34759767E-04
  -8.77999973      -2.10197468E-04
  -8.77000046      -6.44690081E-05
  -8.76000023       7.83751311E-05
  -8.75000000       1.93405736E-04
  -8.73999977       2.60277477E-04
  -8.72999954       2.67637311E-04
  -8.72000027       2.15347231E-04
  -8.71000004       1.14030940E-04
  -8.69999981      -1.77902693E-05
  -8.68999958      -1.58076276E-04
  -8.68000031      -2.85944261E-04
  -8.67000008      -3.85487423E-04
  -8.65999985      -4.47967701E-04
  -8.64999962      -4.72166867E-04
  -8.64000034      -4.63202770E-04
  -8.63000011      -4.30447049E-04
  -8.61999989      -3.85242689E-04
  -8.60999966      -3.38944606E-04
  -8.60000038      -3.01507884E-04
  -8.59000015      -2.80569220E-04
  -8.57999992      -2.80823588E-04
  -8.56999969      -3.03527631E-04
  -8.56000042      -3.46123765E-04
  -8.55000019      -4.02164704E-04
  -8.53999996      -4.61815856E-04
  -8.52999973      -5.13145467E-04
  -8.52000046      -5.44181617E-04
  -8.51000023      -5.45405026E-04
  -8.50000000      -5.12083643E-04
  -8.48999977      -4.45765036E-04
  -8.47999954      -3.54389835E-04
  -8.47000027      -2.50854064E-04
  -8.46000004      -1.50312582E-04
  -8.44999981      -6.69242654E-05
  -8.43999958      -1.09388620E-05
  -8.43000031       1.30644548E-05
  -8.42000008       6.34056414E-06
  -8.40999985      -2.53876497E-05
  -8.39999962      -7.42682023E-05
  -8.39000034      -1.32784553E-04
  -8.38000011      -1.95509841E-04
  -8.36999989      -2.59622757E-04
  -8.35999966      -3.24149529E-04
  -8.35000038      -3.88390472E-04
  -8.34000015      -4.50301304E-04
  -8.32999992      -5.05611533E-04
  -8.31999969      -5.48167387E-04
  -8.31000042      -5.71490789E-04
  -8.30000019      -5.71035198E-04
  -8.28999996      -5.46286930E-04
  -8.27999973      -5.01839037E-04
  -8.27000046      -4.46877006E-04
  -8.26000023      -3.93058377E-04
  -8.25000000      -3.51353257E-04
  -8.23999977      -3.28828522E-04
  -8.22999954      -3.26450827E-04
  -8.22000027      -3.38702725E-04
  -8.21000004      -3.55239841E-04
  -8.19999981      -3.64151871E-04
  -8.18999958      -3.55843076E-04
  -8.18000031      -3.26316949E-04
  -8.17000008      -2.78811029E-04
  -8.15999985      -2.23230498E-04
  -8.14999962      -1.73518245E-04
  -8.14000034      -1.43743091E-04
  -8.13000011      -1.44081219E-04
  -8.11999989      -1.77887807E-04
  -8.10999966      -2.40701556E-04
  -8.10000038      -3.21420783E-04
  -8.09000015      -4.05229948E-04
  -8.07999992      -4.77355643E-04
  -8.06999969      -5.26537013E-04
  -8.06000042      -5.47256204E-04
  -8.05000019      -5.40220237E-04
  -8.03999996      -5.11155173E-04
  -8.02999973      -4.68484825E-04
  -8.02000046      -4.20751050E-04
  -8.01000023      -3.74623050E-04
  -8.00000000      -3.34053417E-04
  -7.98999977      -3.00688582E-04
  -7.98000002      -2.75184168E-04
  -7.96999979      -2.58765649E-04
  -7.96000004      -2.54310900E-04
  -7.94999981      -2.66419200E-04
  -7.94000006      -3.00309825E-04
  -7.92999983      -3.59829282E-04
  -7.92000008      -4.45197307E-04
  -7.90999985      -5.51275618E-04
  -7.90000010      -6.67052926E-04
  -7.88999987      -7.76722794E-04
  -7.88000011      -8.62285146E-04
  -7.86999989      -9.07153648E-04
  -7.86000013      -8.99925304E-04
  -7.84999990      -8.37362604E-04
  -7.84000015      -7.25786609E-04
  -7.82999992      -5.80443360E-04
  -7.82000017      -4.22898214E-04
  -7.80999994      -2.77005747E-04
  -7.80000019      -1.64364348E-04
  -7.78999996      -1.00305260E-04
  -7.78000021      -9.13387412E-05
  -7.76999998      -1.34613671E-04
  -7.76000023      -2.19439433E-04
  -7.75000000      -3.30393639E-04
  -7.73999977      -4.51146334E-04
  -7.73000002      -5.67974173E-04
  -7.71999979      -6.72066293E-04
  -7.71000004      -7.60104391E-04
  -7.69999981      -8.33123806E-04
  -7.69000006      -8.94178927E-04
  -7.67999983      -9.45687061E-04
  -7.67000008      -9.87400068E-04
  -7.65999985      -1.01572159E-03
  -7.65000010      -1.02462363E-03
  -7.63999987      -1.00785366E-03
  -7.63000011      -9.61660582E-04
  -7.61999989      -8.87047849E-04
  -7.61000013      -7.90681515E-04
  -7.59999990      -6.84007071E-04
  -7.59000015      -5.80731954E-04
  -7.57999992      -4.93412314E-04
  -7.57000017      -4.30238142E-04
  -7.55999994      -3.93109192E-04
  -7.55000019      -3.77712393E-04
  -7.53999996      -3.75662377E-04
  -7.53000021      -3.78054829E-04
  -7.51999998      -3.79257719E-04
  -7.51000023      -3.79614299E-04
  -7.50000000      -3.86021071E-04
  -7.48999977      -4.10013599E-04
  -7.48000002      -4.63825359E-04
  -7.46999979      -5.55605860E-04
  -7.46000004      -6.85352134E-04
  -7.44999981      -8.42973939E-04
  -7.44000006      -1.00930780E-03