  -16.0000000       0.00000000    
  -15.9899998       0.00000000    
  -15.9799995       0.00000000    
  -15.9700003       0.00000000    
  -15.9600000       0.00000000    
  -15.9499998       0.00000000    
  -15.9399996       0.00000000    
  -15.9300003       0.00000000    
  -15.9200001       0.00000000    
  -15.9099998       0.00000000    
  -15.8999996       0.00000000    
  -15.8900003      -5.84906183E-40
  -15.8800001      -2.73503220E-38
  -15.8699999      -4.42282485E-37
  -15.8599997      -4.36761369E-36
  -15.8500004      -3.15667155E-35
  -15.8400002      -1.79881424E-34
  -15.8299999      -8.32482161E-34
  -15.8199997      -3.14871517E-33
  -15.8100004      -9.59949388E-33
  -15.8000002      -2.23552004E-32
  -15.7900000      -3.19149919E-32
  -15.7799997       2.10256399E-32
  -15.7700005       3.34322748E-31
  -15.7600002       1.39149887E-30
  -15.7500000       4.10228796E-30
  -15.7399998       9.71220366E-30
  -15.7299995       1.90039061E-29
  -15.7200003       2.99680026E-29
  -15.7100000       3.26491498E-29
  -15.6999998      -6.06606901E-31
  -15.6899996      -1.30436494E-28
  -15.6800003      -4.65104907E-28
  -15.6700001      -1.14424842E-27
  -15.6599998      -2.20862045E-27
  -15.6499996      -3.20175761E-27
  -15.6400003      -2.34354166E-27
  -15.6300001       4.61462098E-27
  -15.6199999       2.48850071E-26
  -15.6099997       6.59190476E-26
  -15.6000004       1.25173885E-25
  -15.5900002       1.68508615E-25
  -15.5799999       1.00162088E-25
  -15.5699997      -2.54988244E-25
  -15.5600004      -1.10799508E-24
  -15.5500002      -2.52826824E-24
  -15.5400000      -4.07580251E-24
  -15.5299997      -4.30058843E-24
  -15.5200005      -4.19531218E-25
  -15.5100002       1.11645046E-23
  -15.5000000       3.25906050E-23
  -15.4899998       5.98956842E-23
  -15.4799995       7.67586715E-23
  -15.4700003       5.01577864E-23
  -15.4600000      -6.49910441E-23
  -15.4499998      -3.03036688E-22
  -15.4399996      -6.40753924E-22
  -15.4300003      -9.33769378E-22
  -15.4200001      -8.68315985E-22
  -15.4099998       9.49234118E-24
  -15.3999996       2.10789733E-21
  -15.3900003       5.39569389E-21
  -15.3800001       8.85269048E-21
  -15.3699999       1.00060808E-20
  -15.3599997       5.02094189E-21
  -15.3500004      -1.00560097E-20
  -15.3400002      -3.64747456E-20
  -15.3299999      -6.86491989E-20
  -15.3199997      -9.02463677E-20
  -15.3100004      -7.35687199E-20
  -15.3000002       1.37035684E-20
  -15.2900000       1.91166790E-19
  -15.2799997       4.38435762E-19
  -15.2700005       6.66152794E-19
  -15.2600002       7.02932243E-19
  -15.2500000       3.23009195E-19
  -15.2399998      -6.62918414E-19
  -15.2299995      -2.25023277E-18
  -15.2200003      -4.05214027E-18
  -15.2100000      -5.16947186E-18
  -15.1999998      -4.25343343E-18
  -15.1899996       9.94654831E-20
  -15.1800003       8.55768471E-18
  -15.1700001       1.99887417E-17
  -15.1599998       3.05023579E-17
  -15.1499996       3.32543547E-17
  -15.1400003       1.97736351E-17
  -15.1300001      -1.66611927E-17
  -15.1199999      -7.57950294E-17
  -15.1099997      -1.44713541E-16
  -15.1000004      -1.94461652E-16
  -15.0900002      -1.82629541E-16
  -15.0799999      -6.51865968E-17
  -15.0699997       1.81596241E-16
  -15.0600004       5.33000988E-16
  -15.0500002       8.91488519E-16
  -15.0400000       1.08145715E-15
  -15.0299997       8.79772835E-16
  -15.0200005       9.23958296E-17
  -15.0100002      -1.32850045E-15
  -15.0000000      -3.15657479E-15
  -14.9899998      -4.80780475E-15
  -14.9799995      -5.37227470E-15
  -14.9700003      -3.82348640E-15
  -14.9600000       5.76851936E-16
  -14.9499998       7.74178458E-15
  -14.9399996       1.62557312E-14
  -14.9300003       2.31595460E-14
  -14.9200001       2.43040282E-14
  -14.9099998       1.54632878E-14
  -14.8999996      -5.82964963E-15
  -14.8900003      -3.81102383E-14
  -14.8800001      -7.42354447E-14
  -14.8699999      -1.01080494E-13
  -14.8599997      -1.01648067E-13
  -14.8500004      -6.00580444E-14
  -14.8400002       3.10953181E-14
  -14.8299999       1.62827583E-13
  -14.8199997       3.04318907E-13
  -14.8100004       4.03553628E-13
  -14.8000002       3.97030878E-13
  -14.7900000       2.29333696E-13
  -14.7799997      -1.20300728E-13
  -14.7700005      -6.11573780E-13
  -14.7600002      -1.12756690E-12
  -14.7500000      -1.48164152E-12
  -14.7399998      -1.45512010E-12
  -14.7299995      -8.65896385E-13
  -14.7200003       3.43937118E-13
  -14.7100000       2.02632811E-12
  -14.6999998       3.78544982E-12
  -14.6899996       5.01005140E-12
  -14.6800003       5.00126980E-12
  -14.6700001       3.19048737E-12
  -14.6599998      -5.94327918E-13
  -14.6499996      -5.89124192E-12
  -14.6400003      -1.14953515E-11
  -14.6300001      -1.55717574E-11
  -14.6199999      -1.60414425E-11
  -14.6099997      -1.12126740E-11
  -14.6000004      -5.31302053E-13
  -14.5900002       1.47687227E-11
  -14.5799999       3.13820948E-11
  -14.5699997       4.42556269E-11
  -14.5600004       4.76347850E-11
  -14.5500002       3.67407771E-11
  -14.5400000       9.73441033E-12
  -14.5299997      -3.05977951E-11
  -14.5200005      -7.61023536E-11
  -14.5100002      -1.14038529E-10
  -14.5000000      -1.29637523E-10
  -14.4899998      -1.10190121E-10
  -14.4799995      -4.98212339E-11
  -14.4700003       4.63866862E-11
  -14.4600000       1.60467126E-10
  -14.4499998       2.63145783E-10
  -14.4399996       3.19484966E-10
  -14.4300003       2.98017167E-10
  -14.4200001       1.81499718E-10
  -14.4099998      -2.36286685E-11
  -14.3999996      -2.82418700E-10
  -14.3900003      -5.33993072E-10
  -14.3800001      -7.02752578E-10
  -14.3699999      -7.17045368E-10
  -14.3599997      -5.31522215E-10
  -14.3500004      -1.47305598E-10
  -14.3400002       3.76684767E-10
  -14.3299999       9.26814958E-10
  -14.3199997       1.35472700E-09
  -14.3100004       1.51218671E-09
  -14.3000002       1.29379418E-09
  -14.2900000       6.76644907E-10
  -14.2799997      -2.55417659E-10
  -14.2700005      -1.31332778E-09
  -14.2600002      -2.23495022E-09
  -14.2500000      -2.74460188E-09
  -14.2399998      -2.62795607E-09
  -14.2299995      -1.80349591E-09
  -14.2200003      -3.69165309E-10
  -14.2100000       1.39377132E-09
  -14.1999998       3.06833781E-09
  -14.1899996       4.19604529E-09
  -14.1800003       4.39833592E-09
  -14.1700001       3.49468188E-09
  -14.1599998       1.58265967E-09
  -14.1499996      -9.49229917E-10
  -14.1400003      -3.49023632E-09
  -14.1300001      -5.35017008E-09
  -14.1199999      -5.94608895E-09
  -14.1099997      -4.98494712E-09
  -14.1000004      -2.58801558E-09
  -14.0900002       6.88467339E-10
  -14.0799999       3.95848776E-09
  -14.0699997       6.22569329E-09
  -14.0600004       6.66985400E-09
  -14.0500002       4.92569052E-09
  -14.0400000       1.26945410E-09
  -14.0299997      -3.35814754E-09
  -14.0200005      -7.52784501E-09
  -14.0100002      -9.67918101E-09
  -14.0000000      -8.58569393E-09
  -13.9899998      -3.80962595E-09
  -13.9799995       3.99043909E-09
  -13.9700003       1.30180480E-08
  -13.9600000       2.06280095E-08
  -13.9499998       2.39283757E-08
  -13.9399996       2.05853325E-08
  -13.9300003       9.64301172E-09
  -13.9200001      -7.87002996E-09
  -13.9099998      -2.87607715E-08
  -13.8999996      -4.80553481E-08
  -13.8900003      -5.99565837E-08
  -13.8800001      -5.92328142E-08
  -13.8699999      -4.27526210E-08
  -13.8599997      -1.07868692E-08
  -13.8500004       3.23110747E-08
  -13.8400002       7.83464529E-08
  -13.8299999       1.16561822E-07
  -13.8199997       1.35822930E-07
  -13.8100004       1.27325251E-07
  -13.8000002       8.72319248E-08
  -13.7900000       1.85673787E-08
  -13.7799997      -6.82395154E-08
  -13.7700005      -1.56532806E-07
  -13.7600002      -2.26329064E-07
  -13.7500000      -2.58511164E-07
  -13.7399998      -2.39496757E-07
  -13.7299995      -1.65315143E-07
  -13.7200003      -4.40070984E-08
  -13.7100000       1.04486254E-07
  -13.6999998       2.51282842E-07
  -13.6899996       3.64050379E-07
  -13.6800003       4.14043370E-07
  -13.6700001       3.83187427E-07
  -13.6599998       2.69502664E-07
  -13.6499996       8.93482621E-08
  -13.6400003      -1.24431750E-07
  -13.6300001      -3.28480752E-07
  -13.6199999      -4.78019956E-07
  -13.6099997      -5.37169512E-07
  -13.6000004      -4.88096020E-07
  -13.5900002      -3.36617489E-07
  -13.5799999      -1.12534273E-07
  -13.5699997       1.35895988E-07
  -13.5600004       3.52496869E-07
  -13.5500002       4.86525039E-07
  -13.5400000       5.05696903E-07
  -13.5299997       4.05525981E-07
  -13.5200005       2.12225231E-07
  -13.5100002      -2.21714451E-08
  -13.5000000      -2.31924332E-07
  -13.4899998      -3.54443955E-07
  -13.4799995      -3.47891302E-07
  -13.4700003      -2.04910293E-07
  -13.4600000       4.15920063E-08
  -13.4499998       3.23046976E-07
  -13.4399996       5.50163065E-07
  -13.4300003       6.35423532E-07
  -13.4200001       5.18052730E-07
  -13.4099998       1.85116477E-07
  -13.3999996      -3.17313976E-07
  -13.3900003      -8.87135968E-07
  -13.3800001      -1.38436621E-06
  -13.3699999      -1.66171515E-06
  -13.3599997      -1.60132208E-06
  -13.3500004      -1.14908005E-06
  -13.3400002      -3.37593008E-07
  -13.3299999       7.09354651E-07
  -13.3199997       1.79411256E-06
  -13.3100004       2.68249892E-06
  -13.3000002       3.15423881E-06
  -13.2900000       3.05565004E-06
  -13.2799997       2.34206118E-06
  -13.2700005       1.09874100E-06
  -13.2600002      -4.66687339E-07
  -13.2500000      -2.06106074E-06
  -13.2399998      -3.36535868E-06
  -13.2299995      -4.10477742E-06
  -13.2200003      -4.11315568E-06
  -13.2100000      -3.37582605E-06
  -13.1999998      -2.03905665E-06
  -13.1899996      -3.81607947E-07
  -13.1800003       1.24697522E-06
  -13.1700001       2.50808489E-06
  -13.1599998       3.15654120E-06
  -13.1499996       3.10303221E-06
  -13.1400003       2.43929139E-06
  -13.1300001       1.41710177E-06
  -13.1199999       3.83498531E-07
  -13.1099997      -3.13834789E-07
  -13.1000004      -4.28008178E-07
  -13.0900002       1.05576021E-07
  -13.0799999       1.13160684E-06
  -13.0699997       2.29571833E-06
  -13.0600004       3.12435191E-06
  -13.0500002       3.14858630E-06
  -13.0400000       2.04368962E-06
  -13.0299997      -2.51082014E-07
  -13.0200005      -3.46671527E-06
  -13.0100002      -7.01682166E-06
  -13.0000000      -1.00949264E-05
  -12.9899998      -1.18425151E-05
  -12.9799995      -1.15542025E-05
  -12.9700003      -8.87337046E-06
  -12.9600000      -3.92891252E-06
  -12.9499998       2.62696335E-06
  -12.9399996       9.69990106E-06
  -12.9300003       1.59466563E-05
  -12.9200001       2.00459217E-05
  -12.9099998       2.09904720E-05
  -12.8999996       1.83342545E-05
  -12.8900003       1.23332929E-05
  -12.8800001       3.93937307E-06
  -12.8699999      -5.36284597E-06
  -12.8599997      -1.38483929E-05
  -12.8500004      -1.99148490E-05
  -12.8400002      -2.24355481E-05
  -12.8299999      -2.10203070E-05
  -12.8199997      -1.61176213E-05
  -12.8100004      -8.92604112E-06
  -12.8000002      -1.12612054E-06
  -12.7900000       5.51184894E-06
  -12.7799997       9.55591804E-06
  -12.7700005       1.02739532E-05
  -12.7600002       7.83612631E-06
  -12.7500000       3.29915952E-06
  -12.7399998      -1.63710945E-06
  -12.7299995      -5.05484604E-06
  -12.7200003      -5.33097091E-06
  -12.7100000      -1.61509922E-06
  -12.6999998       5.85031830E-06
  -12.6899996       1.56612150E-05
  -12.6800003       2.54736933E-05
  -12.6700001       3.24877219E-05
  -12.6599998       3.40980405E-05
  -12.6499996       2.85695041E-05
  -12.6400003       1.55765065E-05
  -12.6300001      -3.53426253E-06
  -12.6199999      -2.58443633E-05
  -12.6099997      -4.73354376E-05
  -12.6000004      -6.36545155E-05
  -12.5900002      -7.10215027E-05
  -12.5799999      -6.70845693E-05
  -12.5699997      -5.15283682E-05
  -12.5600004      -2.62840222E-05
  -12.5500002       4.72878037E-06
  -12.5400000       3.62960345E-05
  -12.5299997       6.29088754E-05
  -12.5200005       7.98631518E-05
  -12.5100002       8.42231166E-05
  -12.5000000       7.54350549E-05
  -12.4899998       5.54473372E-05
  -12.4799995       2.82999972E-05
  -12.4700003      -7.35397009E-07
  -12.4600000      -2.62816411E-05
  -12.4499998      -4.39996656E-05
  -12.4399996      -5.14935819E-05
  -12.4300003      -4.87704456E-05
  -12.4200001      -3.81470199E-05
  -12.4099998      -2.36219767E-05
  -12.3999996      -9.85626048E-06
  -12.3900003      -9.98437258E-07
  -12.3800001       3.67910019E-07
  -12.3699999      -6.09865492E-06
  -12.3599997      -1.83651027E-05
  -12.3500004      -3.24800531E-05
  -12.3400002      -4.35228758E-05
  -12.3299999      -4.68306171E-05
  -12.3199997      -3.92158508E-05
  -12.3100004      -1.98830821E-05
  -12.3000002       9.18523801E-06
  -12.2900000       4.34830908E-05
  -12.2799997       7.68377577E-05
  -12.2700005       1.02689119E-04
  -12.2600002       1.15508286E-04
  -12.2500000       1.12033558E-04
  -12.2399998       9.20378152E-05
  -12.2299995       5.84445625E-05
  -12.2200003       1.67577164E-05
  -12.2100000      -2.60720008E-05
  -12.1999998      -6.30902287E-05
  -12.1899996      -8.87648857E-05
  -12.1800003      -1.00071244E-04
  -12.1700001      -9.69916073E-05
  -12.1599998      -8.23221781E-05
  -12.1499996      -6.08430200E-05
  -12.1400003      -3.80575657E-05
  -12.1300001      -1.88100366E-05
  -12.1199999      -6.11784935E-06
  -12.1099997      -5.03779006E-07
  -12.1000004       8.74949180E-09
  -12.0900002      -7.64145568E-07
  -12.0799999       1.67147152E-06
  -12.0699997       1.11128202E-05
  -12.0600004       2.94201436E-05
  -12.0500002       5.57322674E-05
  -12.0400000       8.63552850E-05
  -12.0299997       1.15382609E-04
  -12.0200005       1.35927767E-04
  -12.0100002       1.41698838E-04
  -12.0000000       1.28552274E-04
  -11.9899998       9.56564618E-05
  -11.9799995       4.59753537E-05
  -11.9700003      -1.40672682E-05
  -11.9600000      -7.56969239E-05
  -11.9499998      -1.29445951E-04
  -11.9399996      -1.67004575E-04
  -11.9300003      -1.82861026E-04
  -11.9200001      -1.75367546E-04
  -11.9099998      -1.46995997E-04
  -11.8999996      -1.03726416E-04
  -11.8900003      -5.37077067E-05
  -11.8800001      -5.49276865E-06
  -11.8699999       3.37541642E-05
  -11.8599997       5.96757309E-05
  -11.8500004       7.14509370E-05
  -11.8400002       7.16814102E-05
  -11.8299999       6.54748874E-05
  -11.8199997       5.89521987E-05
  -11.8100004       5.75374470E-05
  -11.8000002       6.44413522E-05
  -11.7900000       7.97034736E-05
  -11.7799997       1.00029887E-04
  -11.7700005       1.19478289E-04
  -11.7600002       1.30844928E-04
  -11.7500000       1.27441701E-04
  -11.7399998       1.04856190E-04
  -11.7299995       6.22830121E-05
  -11.7200003       3.10495057E-06
  -11.7100000      -6.54349933E-05
  -11.6999998      -1.33428883E-04
  -11.6899996      -1.90131439E-04
  -11.6800003      -2.26041986E-04
  -11.6700001      -2.34802254E-04
  -11.6599998      -2.14505606E-04
  -11.6499996      -1.68136248E-04
  -11.6400003      -1.03040373E-04
  -11.6300001      -2.95355276E-05
  -11.6199999       4.10546600E-05
  -11.6099997       9.85343795E-05
  -11.6000004       1.35700990E-04
  -11.5900002       1.49565967E-04
  -11.5799999       1.41695607E-04
  -11.5699997       1.17622745E-04
  -11.5600004       8.54748141E-05
  -11.5500002       5.41231311E-05
  -11.5400000       3.12499142E-05
  -11.5299997       2.17365105E-05
  -11.5200005       2.66987790E-05
  -11.5100002       4.33524583E-05
  -11.5000000       6.57148776E-05
  -11.4899998       8.59771899E-05
  -11.4799995       9.62491249E-05
  -11.4700003       9.03114196E-05
  -11.4600000       6.50212460E-05
  -11.4499998       2.10962589E-05
  -11.4399996      -3.68648434E-05
  -11.4300003      -1.01113845E-04
  -11.4200001      -1.62081007E-04
  -11.4099998      -2.10037702E-04
  -11.3999996      -2.36780761E-04
  -11.3900003      -2.37036729E-04
  -11.3800001      -2.09349877E-04
  -11.3699999      -1.56320821E-04
  -11.3599997      -8.41832225E-05
  -11.3500004      -1.81770804E-06
  -11.3400002       8.06108656E-05
  -11.3299999       1.53158500E-04
  -11.3199997       2.07509001E-04
  -11.3100004       2.38074557E-04
  -11.3000002       2.42642505E-04
  -11.2900000       2.22499206E-04
  -11.2799997       1.82042597E-04
  -11.2700005       1.27968524E-04
  -11.2600002       6.81722522E-05
  -11.2500000       1.05399740E-05
  -11.2399998      -3.81863028E-05
  -11.2299995      -7.33044799E-05
  -11.2200003      -9.26822977E-05
  -11.2100000      -9.68527675E-05
  -11.1999998      -8.86743583E-05
  -11.1899996      -7.26245271E-05
  -11.1800003      -5.38550958E-05
  -11.1700001      -3.71787901E-05
  -11.1599998      -2.61688583E-05
  -11.1499996      -2.25351705E-05
  -11.1400003      -2.58903765E-05
  -11.1300001      -3.39470025E-05
  -11.1199999      -4.31031913E-05
  -11.1099997      -4.92971267E-05
  -11.1000004      -4.89543672E-05
  -11.0900002      -3.98311277E-05
  -11.0799999      -2.15756318E-05
  -11.0699997       4.11311748E-06
  -11.0600004       3.37658166E-05
  -11.0500002       6.28059788E-05
  -11.0400000       8.64569229E-05
  -11.0299997       1.00701167E-04
  -11.0200005       1.03089566E-04
  -11.0100002       9.32308831E-05
  -11.0000000       7.28627856E-05
  -10.9899998       4.54962865E-05
  -10.9799995       1.57175946E-05
  -10.9700003      -1.16978390E-05
  -10.9600000      -3.26695590E-05
  -10.9499998      -4.45131918E-05
  -10.9399996      -4.63252181E-05
  -10.9300003      -3.89935230E-05
  -10.9200001      -2.48596989E-05
  -10.9099998      -7.13206555E-06
  -10.8999996       1.08062450E-05
  -10.8900003       2.60402012E-05
  -10.8800001       3.65888955E-05
  -10.8699999       4.16193870E-05
  -10.8599997       4.13974522E-05
  -10.8500004       3.70240123E-05
  -10.8400002       3.00473585E-05
  -10.8299999       2.20559778E-05
  -10.8199997       1.43450925E-05
  -10.8100004       7.71747546E-06
  -10.8000002       2.43726322E-06
  -10.7900000      -1.68390454E-06
  -10.7799997      -5.11621738E-06
  -10.7700005      -8.41405927E-06
  -10.7600002      -1.20418381E-05
  -10.7500000      -1.62548604E-05
  -10.7399998      -2.10441813E-05
  -10.7299995      -2.61357000E-05
  -10.7200003      -3.10243086E-05
  -10.7100000      -3.50250994E-05
  -10.6999998      -3.73326293E-05
  -10.6899996      -3.70908274E-05
  -10.6800003      -3.34840333E-05
  -10.6700001      -2.58591972E-05
  -10.6599998      -1.38795813E-05
  -10.6499996       2.30677688E-06
  -10.6400003       2.19186622E-05
  -10.6300001       4.34607173E-05
  -10.6199999       6.47578563E-05
  -10.6099997       8.31380821E-05
  -10.6000004       9.57681332E-05
  -10.5900002       1.00108504E-04
  -10.5799999       9.44171770E-05
  -10.5699997       7.82044153E-05
  -10.5600004       5.25326177E-05
  -10.5500002       2.00713221E-05
  -10.5400000      -1.51438153E-05
  -10.5299997      -4.82425930E-05
  -10.5200005      -7.42746561E-05
  -10.5100002      -8.90636802E-05
  -10.5000000      -9.00035593E-05
  -10.4899998      -7.66340454E-05
  -10.4799995      -5.08624471E-05
  -10.4700003      -1.67580602E-05
  -10.4600000       2.00737431E-05
  -10.4499998       5.34450628E-05
  -10.4399996       7.77010791E-05
  -10.4300003       8.87879578E-05
  -10.4200001       8.50595607E-05
  -10.4099998       6.76492200E-05
  -10.3999996       4.03117083E-05
  -10.3900003       8.74273883E-06
  -10.3800001      -2.05092547E-05
  -10.3699999      -4.13354719E-05
  -10.3599997      -4.93085499E-05
  -10.3500004      -4.26183578E-05
  -10.3400002      -2.24991982E-05
  -10.3299999       6.95703147E-06
  -10.3199997       3.95836068E-05
  -10.3100004       6.83751932E-05
  -10.3000002       8.69358701E-05
  -10.2900000       9.08453658E-05
  -10.2799997       7.86576638E-05
  -10.2700005       5.23140443E-05
  -10.2600002       1.68677998E-05
  -10.2500000      -2.04425360E-05
  -10.2399998      -5.15989996E-05
  -10.2299995      -6.94142218E-05
  -10.2200003      -6.90227462E-05
  -10.2100000      -4.89482518E-05
  -10.1999998      -1.15218108E-05
  -10.1899996       3.74463416E-05
  -10.1800003       8.96899146E-05
  -10.1700001       1.36012968E-04
  -10.1599998       1.68025072E-04
  -10.1499996       1.79746305E-04
  -10.1400003       1.68766157E-04
  -10.1300001       1.36726754E-04
  -10.1199999       8.90329538E-05
  -10.1099997       3.38442587E-05
  -10.1000004      -1.94559998E-05
  -10.0900002      -6.20159044E-05
  -10.0799999      -8.71536322E-05
  -10.0699997      -9.15633282E-05
  -10.0600004      -7.58594470E-05
  -10.0500002      -4.43628996E-05
  -10.0400000      -4.18248828E-06
  -10.0299997       3.62169558E-05
  -10.0200005       6.86712374E-05
  -10.0100002       8.68712741E-05
  -10.0000000       8.75166515E-05
  -9.98999977       7.08567168E-05
  -9.97999954       4.05345163E-05
  -9.97000027       2.78889524E-06
  -9.96000004      -3.48068425E-05
  -9.94999981      -6.48087153E-05
  -9.93999958      -8.12810540E-05
  -9.93000031      -8.08353070E-05
  -9.92000008      -6.31533840E-05
  -9.90999985      -3.09289680E-05
  -9.89999962       1.07267388E-05
  -9.89000034       5.52735000E-05
  -9.88000011       9.59238969E-05
  -9.86999989       1.26800587E-04
  -9.85999966       1.43874437E-04
  -9.85000038       1.45542464E-04
  -9.84000015       1.32775356E-04
  -9.82999992       1.08836379E-04
  -9.81999969       7.86378150E-05
  -9.81000042       4.78480324E-05
  -9.80000019       2.18923797E-05
  -9.78999996       5.00142687E-06
  -9.77999973      -5.45972000E-07
  -9.77000046       5.13920122E-06
  -9.76000023       1.95206703E-05
  -9.75000000       3.80323363E-05
  -9.73999977       5.48651733E-05
  -9.72999954       6.40342914E-05
  -9.72000027       6.05517198E-05
  -9.71000004       4.14903116E-05
  -9.69999981       6.72183069E-06
  -9.68999958      -4.08453525E-05
  -9.68000031      -9.56171134E-05
  -9.67000008      -1.50224689E-04
  -9.65999985      -1.96844543E-04
  -9.64999962      -2.28674398E-04
  -9.64000034      -2.41261601E-04
  -9.63000011      -2.33394603E-04
  -9.61999989      -2.07352859E-04
  -9.60999966      -1.68446306E-04
  -9.60000038      -1.23934558E-04
  -9.59000015      -8.15583044E-05
  -9.57999992      -4.80047820E-05
  -9.56999969      -2.76436549E-05
  -9.56000042      -2.18016085E-05
  -9.55000019      -2.87131661E-05
  -9.53999996      -4.41224875E-05
  -9.52999973      -6.23595915E-05
  -9.52000046      -7.76127781E-05
  -9.51000023      -8.50917131E-05
  -9.50000000      -8.18271146E-05
  -9.48999977      -6.69666479E-05
  -9.47999954      -4.15678842E-05
  -9.47000027      -8.01908118E-06
  -9.46000004       3.06995316E-05
  -9.44999981       7.16857903E-05
  -9.43999958       1.12541835E-04
  -9.43000031       1.51481290E-04
  -9.42000008       1.87157086E-04
  -9.40999985       2.18342728E-04
  -9.39999962       2.43642935E-04
  -9.39000034       2.61390785E-04
  -9.38000011       2.69815180E-04
  -9.36999989       2.67459865E-04
  -9.35999966       2.53734412E-04
  -9.35000038       2.29416022E-04
  -9.34000015       1.96913272E-04
  -9.32999992       1.60158626E-04
  -9.31999969       1.24095619E-04
  -9.31000042       9.38428493E-05
  -9.30000019       7.37138907E-05
  -9.28999996       6.63230894E-05
  -9.27999973       7.19949749E-05
  -9.27000046       8.86244597E-05
  -9.26000023       1.12025635E-04
  -9.25000000       1.36690796E-04
  -9.23999977       1.56788694E-04
  -9.22999954       1.67187260E-04
  -9.22000027       1.64298152E-04
  -9.21000004       1.46601189E-04
  -9.19999981       1.14792754E-04
  -9.18999958       7.15890637E-05
  -9.18000031       2.12748400E-05
  -9.17000008      -3.08882773E-05
  -9.15999985      -7.92936989E-05
  -9.14999962      -1.18598371E-04
  -9.14000034      -1.44282705E-04
  -9.13000011      -1.53157787E-04
  -9.11999989      -1.43810234E-04
  -9.10999966      -1.16945586E-04
  -9.10000038      -7.55545261E-05
  -9.09000015      -2.48034048E-05
  -9.07999992       2.84367816E-05
  -9.06999969       7.64520664E-05
  -9.06000042       1.11873844E-04
  -9.05000019       1.29021486E-04
  -9.03999996       1.25139471E-04
  -9.02999973       1.01233185E-04
  -9.02000046       6.22471780E-05
  -9.01000023       1.64457506E-05
  -9.00000000      -2.59728695E-05
  -8.98999977      -5.48092430E-05
  -8.97999954      -6.19691200E-05
  -8.97000027      -4.32932720E-05
  -8.96000004       3.12903694E-07
  -8.94999981       6.27424597E-05
  -8.93999958       1.33627109E-04
  -8.93000031       2.00201845E-04
  -8.92000008       2.49731762E-04
  -8.90999985       2.72006844E-04
  -8.89999962       2.61388603E-04
  -8.89000034       2.17984605E-04
  -8.88000011       1.47711762E-04
  -8.86999989       6.12421500E-05
  -8.85999966      -2.79455744E-05
  -8.85000038      -1.06010426E-04
  -8.84000015      -1.61204051E-04
  -8.82999992      -1.85867058E-04
  -8.81999969      -1.77606838E-04
  -8.81000042      -1.39472060E-04
  -8.80000019      -7.91408238E-05
  -8.78999996      -7.32580338E-06
  -8.77999973       6.42636878E-05
  -8.77000046       1.25000268E-04
  -8.76000023       1.67073013E-04
  -8.75000000       1.86583391E-04
  -8.73999977       1.83848853E-04
  -8.72999954       1.62921526E-04
  -8.72000027       1.30479253E-04
  -8.71000004       9.43535269E-05
  -8.69999981       6.20064238E-05
  -8.68999958       3.92496950E-05
  -8.68000031       2.94209167E-05
  -8.67000008       3.31168376E-05
  -8.65999985       4.84600096E-05
  -8.64999962       7.17705552E-05
  -8.64000034       9.84531071E-05
  -8.63000011       1.23898368E-04
  -8.61999989       1.44235048E-04
  -8.60999966       1.56834212E-04
  -8.60000038       1.60539668E-04
  -8.59000015       1.55656337E-04
  -8.57999992       1.43756522E-04
  -8.56999969       1.27365041E-04
  -8.56000042       1.09565823E-04
  -8.55000019       9.35536518E-05
  -8.53999996       8.21502908E-05
  -8.52999973       7.73198844E-05
  -8.52000046       7.97496323E-05
  -8.51000023       8.85909321E-05
  -8.50000000       1.01462836E-04
  -8.48999977       1.14788148E-04
  -8.47999954       1.24460159E-04
  -8.47000027       1.26740968E-04
  -8.46000004       1.19200020E-04
  -8.44999981       1.01448626E-04
  -8.43999958       7.54418215E-05
  -8.43000031       4.52092936E-05
  -8.42000008       1.60263025E-05
  -8.40999985      -6.79808363E-06
  -8.39999962      -1.92066127E-05
  -8.39000034      -1.93954729E-05
  -8.38000011      -8.23151277E-06
  -8.36999989       1.10596484E-05
  -8.35999966       3.38658392E-05
  -8.35000038       5.55471597E-05
  -8.34000015       7.27765728E-05
  -8.32999992       8.44475726E-05
  -8.31999969       9.18557125E-05
  -8.31000042       9.80805926E-05
  -8.30000019       1.06748994E-04
  -8.28999996       1.20565834E-04
  -8.27999973       1.40090575E-04
  -8.27000046       1.63178469E-04
  -8.26000023       1.85311364E-04
  -8.25000000       2.00769151E-04
  -8.23999977       2.04325435E-04
  -8.22999954       1.92972962E-04
  -8.22000027       1.67153194E-04
  -8.21000004       1.31093417E-04
  -8.19999981       9.21063183E-05
  -8.18999958       5.90047784E-05
  -8.18000031       4.00397184E-05
  -8.17000008       4.09036329E-05
  -8.15999985       6.33212403E-05
  -8.14999962       1.04580293E-04
  -8.14000034       1.58093884E-04
  -8.13000011       2.14811284E-04
  -8.11999989       2.65087059E-04
  -8.10999966       3.00534215E-04
  -8.10000038       3.15439538E-04
  -8.09000015       3.07480455E-04
  -8.07999992       2.77697080E-04
  -8.06999969       2.29867001E-04
  -8.06000042       1.69552644E-04
  -8.05000019       1.03111393E-04
  -8.03999996       3.68880537E-05
  -8.02999973      -2.33165065E-05
  -8.02000046      -7.25323844E-05
  -8.01000023      -1.06779255E-04
  -8.00000000      -1.23224614E-04
  -7.98999977      -1.20416262E-04
  -7.98000002      -9.85713050E-05
  -7.96999979      -5.98153820E-05
  -7.96000004      -8.22009497E-06
  -7.94999981       5.04948948E-05
  -7.94000006       1.09644825E-04
  -7.92999983       1.62578261E-04
  -7.92000008       2.03805917E-04
  -7.90999985       2.30002232E-04
  -7.90000010       2.40622903E-04
  -7.88999987       2.37958811E-04
  -7.88000011       2.26580480E-04
  -7.86999989       2.12281811E-04
  -7.86000013       2.00761700E-04
  -7.84999990       1.96352426E-04
  -7.84000015       2.01092727E-04
  -7.82999992       2.14357933E-04
  -7.82000017       2.33123399E-04
  -7.80999994       2.52783444E-04
  -7.80000019       2.68319855E-04
  -7.78999996       2.75541359E-04
  -7.78000021       2.72108882E-04
  -7.76999998       2.58122716E-04
  -7.76000023       2.36155174E-04
  -7.75000000       2.10737067E-04
  -7.73999977       1.87422018E-04
  -7.73000002       1.71633947E-04
  -7.71999979       1.67536215E-04
  -7.71000004       1.77144131E-04
  -7.69999981       1.99844813E-04
  -7.69000006       2.32404651E-04
  -7.67999983       2.69452139E-04
  -7.67000008       3.04341636E-04
  -7.65999985       3.30242299E-04
  -7.65000010       3.41265782E-04
  -7.63999987       3.33451433E-04
  -7.63000011       3.05457681E-04
  -7.61999989       2.58862361E-04
  -7.61000013       1.98038426E-04
  -7.59999990       1.29634922E-04
  -7.59000015       6.17432888E-05
  -7.57999992       2.86608679E-06
  -7.57000017      -3.91801150E-05
  -7.55999994      -5.82971406E-05
  -7.55000019      -5.09552665E-05
  -7.53999996      -1.67627441E-05
  -7.53000021       4.13208072E-05
  -7.51999998       1.17176241E-04
  -7.51000023       2.02139869E-04
  -7.50000000       2.86015042E-04
  -7.48999977       3.58398014E-04
  -7.48000002       4.10171720E-04
  -7.46999979       4.34958522E-04
  -7.46000004       4.30283108E-04
  -7.44999981       3.98196804E-04
  -7.44000006       3.45172739E-04