  -16.0000000       0.00000000    
  -15.9899998       0.00000000    
  -15.9799995       0.00000000    
  -15.9700003       0.00000000    
  -15.9600000       0.00000000    
  -15.9499998       0.00000000    
  -15.9399996       0.00000000    
  -15.9300003       0.00000000    
  -15.9200001       0.00000000    
  -15.9099998       0.00000000    
  -15.8999996      -2.60641514E-43
  -15.8900003      -4.59345637E-42
  -15.8800001      -4.21944981E-41
  -15.8699999      -2.19199514E-40
  -15.8599997      -2.81321877E-40
  -15.8500004       5.55776971E-39
  -15.8400002       5.52224540E-38
  -15.8299999       2.88132793E-37
  -15.8199997       8.78177380E-37
  -15.8100004       2.66411030E-37
  -15.8000002      -1.58298710E-35
  -15.7900000      -1.21589738E-34
  -15.7799997      -6.11724138E-34
  -15.7700005      -2.45516377E-33
  -15.7600002      -8.36960574E-33
  -15.7500000      -2.49234219E-32
  -15.7399998      -6.57201847E-32
  -15.7299995      -1.54229643E-31
  -15.7200003      -3.21321028E-31
  -15.7100000      -5.86881823E-31
  -15.6999998      -9.09569505E-31
  -15.6899996      -1.09140268E-30
  -15.6800003      -6.48278693E-31
  -15.6700001       1.28158554E-30
  -15.6599998       5.82153026E-30
  -15.6499996       1.37692300E-29
  -15.6400003       2.42930138E-29
  -15.6300001       3.29644065E-29
  -15.6199999       2.99040647E-29
  -15.6099997      -9.35164061E-32
  -15.6000004      -7.26625803E-29
  -15.5900002      -1.91764411E-28
  -15.5799999      -3.31079154E-28
  -15.5699997      -4.16324809E-28
  -15.5600004      -3.24781917E-28
  -15.5500002       7.62652429E-29
  -15.5400000       8.37949489E-28
  -15.5299997       1.80075297E-27
  -15.5200005       2.49607050E-27
  -15.5100002       2.20050766E-27
  -15.5000000       2.71435366E-28
  -15.4899998      -3.21379583E-27
  -15.4799995      -6.74974582E-27
  -15.4700003      -7.21123099E-27
  -15.4600000      -9.90653489E-28
  -15.4499998       1.29851497E-26
  -15.4399996       2.89102207E-26
  -15.4300003       3.09153880E-26
  -15.4200001      -4.47562238E-27
  -15.4099998      -9.54715521E-26
  -15.3999996      -2.30594101E-25
  -15.3900003      -3.40533996E-25
  -15.3800001      -2.86574900E-25
  -15.3699999       1.04904831E-25
  -15.3599997       9.37785518E-25
  -15.3500004       2.07878732E-24
  -15.3400002       2.99378807E-24
  -15.3299999       2.72195588E-24
  -15.3199997       1.52050129E-25
  -15.3100004      -5.30339985E-24
  -15.3000002      -1.27515098E-23
  -15.2900000      -1.90228364E-23
  -15.2799997      -1.87789585E-23
  -15.2700005      -6.28440005E-24
  -15.2600002       2.09398268E-23
  -15.2500000       5.75686265E-23
  -15.2399998       8.75701175E-23
  -15.2299995       8.65189193E-23
  -15.2200003       3.19574526E-23
  -15.2100000      -7.89021517E-23
  -15.1999998      -2.11006433E-22
  -15.1899996      -2.86158271E-22
  -15.1800003      -2.06073831E-22
  -15.1700001       8.83680345E-23
  -15.1599998       5.34361049E-22
  -15.1499996       8.83126073E-22
  -15.1400003       7.21568672E-22
  -15.1300001      -3.55976954E-22
  -15.1199999      -2.41401837E-21
  -15.1099997      -4.77701691E-21
  -15.1000004      -5.79909428E-21
  -15.0900002      -3.12926606E-21
  -15.0799999       5.25444310E-21
  -15.0699997       1.92585063E-20
  -15.0600004       3.46820966E-20
  -15.0500002       4.21858170E-20
  -15.0400000       2.87586207E-20
  -15.0299997      -1.70993177E-20
  -15.0200005      -9.66254877E-20
  -15.0100002      -1.91003164E-19
  -15.0000000      -2.55758559E-19
  -14.9899998      -2.26182457E-19
  -14.9799995      -3.93027533E-20
  -14.9700003       3.27692123E-19
  -14.9600000       8.12470653E-19
  -14.9499998       1.23713577E-18
  -14.9399996       1.32063221E-18
  -14.9300003       7.58303299E-19
  -14.9200001      -6.27641695E-19
  -14.9099998      -2.69997790E-18
  -14.8999996      -4.85771906E-18
  -14.8900003      -6.03482230E-18
  -14.8800001      -4.94682420E-18
  -14.8699999      -6.18784400E-19
  -14.8599997       6.90085642E-18
  -14.8500004       1.58962624E-17
  -14.8400002       2.27920585E-17
  -14.8299999       2.27989655E-17
  -14.8199997       1.15873603E-17
  -14.8100004      -1.22358136E-17
  -14.8000002      -4.46210472E-17
  -14.7900000      -7.47969135E-17
  -14.7799997      -8.65987626E-17
  -14.7700005      -6.32852593E-17
  -14.7600002       4.51490605E-18
  -14.7500000       1.09855177E-16
  -14.7399998       2.23371879E-16
  -14.7299995       2.94669792E-16
  -14.7200003       2.64770694E-16
  -14.7100000       8.98042595E-17
  -14.6999998      -2.29238879E-16
  -14.6899996      -6.21655903E-16
  -14.6800003      -9.41689091E-16
  -14.6700001      -9.95918469E-16
  -14.6599998      -6.08222225E-16
  -14.6499996       2.87973414E-16
  -14.6400003       1.55863411E-15
  -14.6300001       2.82212277E-15
  -14.6199999       3.49112782E-15
  -14.6099997       2.93077423E-15
  -14.6000004       7.21282383E-16
  -14.5900002      -3.03955973E-15
  -14.5799999      -7.50914952E-15
  -14.5699997      -1.10868041E-14
  -14.5600004      -1.17271017E-14
  -14.5500002      -7.60428064E-15
  -14.5400000       1.98855977E-15
  -14.5299997       1.57783705E-14
  -14.5200005       3.00746061E-14
  -14.5100002       3.91408504E-14
  -14.5000000       3.65988571E-14
  -14.4899998       1.77590181E-14
  -14.4799995      -1.76599576E-14
  -14.4700003      -6.33588505E-14
  -14.4600000      -1.05959512E-13
  -14.4499998      -1.27120319E-13
  -14.4399996      -1.08562180E-13
  -14.4300003      -3.92703041E-14
  -14.4200001       7.70291220E-14
  -14.4099998       2.16913293E-13
  -14.3999996       3.37788770E-13
  -14.3900003       3.85944830E-13
  -14.3800001       3.12120040E-13
  -14.3699999       9.17174865E-14
  -14.3599997      -2.56056190E-13
  -14.3500004      -6.57644078E-13
  -14.3400002      -9.90365017E-13
  -14.3299999      -1.10748650E-12
  -14.3199997      -8.81495235E-13
  -14.3100004      -2.56749645E-13
  -14.3000002       7.03822200E-13
  -14.2900000       1.79662416E-12
  -14.2799997       2.69637546E-12
  -14.2700005       3.02397582E-12
  -14.2600002       2.45675312E-12
  -14.2500000       8.57832468E-13
  -14.2399998      -1.61284831E-12
  -14.2299995      -4.44939745E-12
  -14.2200003      -6.84948018E-12
  -14.2100000      -7.87812177E-12
  -14.1999998      -6.72861333E-12
  -14.1899996      -3.02615637E-12
  -14.1800003       2.91068276E-12
  -14.1700001       9.94784897E-12
  -14.1599998       1.62346768E-11
  -14.1499996       1.95596022E-11
  -14.1400003       1.79281243E-11
  -14.1300001       1.02489944E-11
  -14.1199999      -3.05186692E-12
  -14.1099997      -1.96994816E-11
  -14.1000004      -3.57029649E-11
  -14.0900002      -4.60471244E-11
  -14.0799999      -4.58937541E-11
  -14.0699997      -3.20778543E-11
  -14.0600004      -4.53727203E-12
  -14.0500002       3.27653182E-11
  -14.0400000       7.18403254E-11
  -14.0299997       1.01844790E-10
  -14.0200005       1.11415155E-10
  -14.0100002       9.18031762E-11
  -14.0000000       4.01321268E-11
  -13.9899998      -3.81274005E-11
  -13.9799995      -1.28381666E-10
  -13.9700003      -2.08519521E-10
  -13.9600000      -2.53087995E-10
  -13.9499998      -2.39549103E-10
  -13.9399996      -1.55412141E-10
  -13.9300003      -4.46938276E-12
  -13.9200001       1.89853161E-10
  -13.9099998       3.85732918E-10
  -13.8999996       5.29640332E-10
  -13.8900003       5.68045888E-10
  -13.8800001       4.62193867E-10
  -13.8699999       2.02633646E-10
  -13.8599997      -1.80585727E-10
  -13.8500004      -6.15984763E-10
  -13.8400002      -9.99611949E-10
  -13.8299999      -1.21514965E-09
  -13.8199997      -1.16239895E-09
  -13.8100004      -7.88376864E-10
  -13.8000002      -1.13134474E-10
  -13.7900000       7.58032137E-10
  -13.7799997       1.64253200E-09
  -13.7700005       2.31113706E-09
  -13.7600002       2.53825583E-09
  -13.7500000       2.16266383E-09
  -13.7399998       1.14462839E-09
  -13.7299995      -3.96741306E-10
  -13.7200003      -2.18022356E-09
  -13.7100000      -3.80140808E-09
  -13.6999998      -4.81224571E-09
  -13.6899996      -4.82840168E-09
  -13.6800003      -3.64156283E-09
  -13.6700001      -1.30802924E-09
  -13.6599998       1.81429960E-09
  -13.6499996       5.09998710E-09
  -13.6400003       7.76542119E-09
  -13.6300001       9.03862585E-09
  -13.6199999       8.35618152E-09
  -13.6099997       5.54101565E-09
  -13.6000004       9.12073361E-10
  -13.5900002      -4.71351402E-09
  -13.5799999      -1.01435402E-08
  -13.5699997      -1.40473055E-08
  -13.5600004      -1.52627440E-08
  -13.5500002      -1.31066740E-08
  -13.5400000      -7.61009833E-09
  -13.5299997       3.91301824E-10
  -13.5200005       9.35401268E-09
  -13.5100002       1.73112351E-08
  -13.5000000       2.22977068E-08
  -13.4899998       2.28255939E-08
  -13.4799995       1.82981292E-08
  -13.4700003       9.24987287E-09
  -13.4600000      -2.66650058E-09
  -13.4499998      -1.49714356E-08
  -13.4399996      -2.48839420E-08
  -13.4300003      -2.99724690E-08
  -13.4200001      -2.87783628E-08
  -13.4099998      -2.12497149E-08
  -13.3999996      -8.85571083E-09
  -13.3900003       5.67858427E-09
  -13.3800001       1.89833909E-08
  -13.3699999       2.78724634E-08
  -13.3599997       3.01879908E-08
  -13.3500004       2.54358046E-08
  -13.3400002       1.50169246E-08
  -13.3299999       1.95054128E-09
  -13.3199997      -9.88778304E-09
  -13.3100004      -1.68505974E-08
  -13.3000002      -1.66525354E-08
  -13.2900000      -9.23086230E-09
  -13.2799997       2.95632785E-09
  -13.2700005       1.53631756E-08
  -13.2600002       2.25039241E-08
  -13.2500000       1.95905869E-08
  -13.2399998       4.25785229E-09
  -13.2299995      -2.21195915E-08
  -13.2200003      -5.39801093E-08
  -13.2100000      -8.22944841E-08
  -13.1999998      -9.64699325E-08
  -13.1899996      -8.71275887E-08
  -13.1800003      -4.91420913E-08
  -13.1700001       1.58518940E-08
  -13.1599998       9.82806867E-08
  -13.1499996       1.81359795E-07
  -13.1400003       2.43902690E-07
  -13.1300001       2.64863502E-07
  -13.1199999       2.28752526E-07
  -13.1099997       1.30689415E-07
  -13.1000004      -2.02549924E-08
  -13.0900002      -2.00563818E-07
  -13.0799999      -3.75226733E-07
  -13.0699997      -5.03974263E-07
  -13.0600004      -5.49791764E-07
  -13.0500002      -4.88005981E-07
  -13.0400000      -3.13855310E-07
  -13.0299997      -4.65369787E-08
  -13.0200005       2.71696479E-07
  -13.0100002       5.81818824E-07
  -13.0000000       8.18894080E-07
  -12.9899998       9.25553763E-07
  -12.9799995       8.65282971E-07
  -12.9700003       6.32456192E-07
  -12.9600000       2.56510106E-07
  -12.9499998      -2.01246110E-07
  -12.9399996      -6.58109172E-07
  -12.9300003      -1.02597085E-06
  -12.9200001      -1.22960887E-06
  -12.9099998      -1.22328288E-06
  -12.8999996      -1.00173611E-06
  -12.8900003      -6.02744194E-07
  -12.8800001      -1.00156100E-07
  -12.8699999       4.11430506E-07
  -12.8599997       8.37148491E-07
  -12.8500004       1.10284543E-06
  -12.8400002       1.17153559E-06
  -12.8299999       1.05111735E-06
  -12.8199997       7.91101797E-07
  -12.8100004       4.68750301E-07
  -12.8000002       1.67767766E-07
  -12.7900000      -4.51621389E-08
  -12.7799997      -1.39778038E-07
  -12.7700005      -1.31974218E-07
  -12.7600002      -8.04108282E-08
  -12.7500000      -6.98045142E-08
  -12.7399998      -1.84324406E-07
  -12.7299995      -4.77586525E-07
  -12.7200003      -9.47394483E-07
  -12.7100000      -1.52303585E-06
  -12.6999998      -2.07048970E-06
  -12.6899996      -2.41676230E-06
  -12.6800003      -2.38961616E-06
  -12.6700001      -1.86443515E-06
  -12.6599998      -8.07042454E-07
  -12.6499996       6.99089412E-07
  -12.6400003       2.45026831E-06
  -12.6300001       4.14859869E-06
  -12.6199999       5.45391777E-06
  -12.6099997       6.05234845E-06
  -12.6000004       5.72717408E-06
  -12.5900002       4.41576913E-06
  -12.5799999       2.23815869E-06
  -12.5699997      -5.11741689E-07
  -12.5600004      -3.41307168E-06
  -12.5500002      -5.99510304E-06
  -12.5400000      -7.82880034E-06
  -12.5299997      -8.61285207E-06
  -12.5200005      -8.23434766E-06
  -12.5100002      -6.78926472E-06
  -12.5000000      -4.55674535E-06
  -12.4899998      -1.93189294E-06
  -12.4799995       6.68011921E-07
  -12.4700003       2.90197136E-06
  -12.4600000       4.58452450E-06
  -12.4499998       5.72569252E-06
  -12.4399996       6.52043036E-06
  -12.4300003       7.28853138E-06
  -12.4200001       8.37834068E-06
  -12.4099998       1.00573652E-05
  -12.3999996       1.24172830E-05
  -12.3900003       1.53186720E-05
  -12.3800001       1.83921456E-05
  -12.3699999       2.10994458E-05
  -12.3599997       2.28432855E-05
  -12.3500004       2.31021022E-05
  -12.3400002       2.15584550E-05
  -12.3299999       1.81896939E-05
  -12.3199997       1.32970445E-05
  -12.3100004       7.46297110E-06
  -12.3000002       1.44332796E-06
  -12.2900000      -3.98333987E-06
  -12.2799997      -8.17601267E-06
  -12.2700005      -1.07641599E-05
  -12.2600002      -1.17219242E-05
  -12.2500000      -1.13649148E-05
  -12.2399998      -1.02687345E-05
  -12.2299995      -9.12664655E-06
  -12.2200003      -8.57849045E-06
  -12.2100000      -9.05028901E-06
  -12.1999998      -1.06422340E-05
  -12.1899996      -1.30920471E-05
  -12.1800003      -1.58236180E-05
  -12.1700001      -1.80711759E-05
  -12.1599998      -1.90517676E-05
  -12.1499996      -1.81474970E-05
  -12.1400003      -1.50565802E-05
  -12.1300001      -9.87922431E-06
  -12.1199999      -3.11913800E-06
  -12.1099997       4.39970472E-06
  -12.1000004       1.16825704E-05
  -12.0900002       1.77471393E-05
  -12.0799999       2.18012538E-05
  -12.0699997       2.33786832E-05
  -12.0600004       2.24069281E-05
  -12.0500002       1.91971376E-05
  -12.0400000       1.43635152E-05
  -12.0299997       8.69432915E-06
  -12.0200005       3.00523811E-06
  -12.0100002      -1.99330634E-06
  -12.0000000      -5.78932577E-06
  -11.9899998      -8.10978690E-06
  -11.9799995      -8.90870615E-06
  -11.9700003      -8.31571742E-06
  -11.9600000      -6.56570546E-06
  -11.9499998      -3.93176606E-06
  -11.9399996      -6.79144534E-07
  -11.9300003       2.95122118E-06
  -11.9200001       6.73169598E-06
  -11.9099998       1.04209021E-05
  -11.8999996       1.37373054E-05
  -11.8900003       1.63498535E-05
  -11.8800001       1.78966038E-05
  -11.8699999       1.80331044E-05
  -11.8599997       1.65022120E-05
  -11.8500004       1.32088408E-05
  -11.8400002       8.27938493E-06
  -11.8299999       2.08716529E-06
  -11.8199997      -4.76779996E-06
  -11.8100004      -1.15261182E-05
  -11.8000002      -1.73737317E-05
  -11.7900000      -2.15652581E-05
  -11.7799997      -2.35424632E-05
  -11.7700005      -2.30251371E-05
  -11.7600002      -2.00574887E-05
  -11.7500000      -1.50025808E-05
  -11.7399998      -8.48788659E-06
  -11.7299995      -1.31402930E-06
  -11.7200003       5.65555638E-06
  -11.7100000       1.16051351E-05
  -11.6999998       1.58613693E-05
  -11.6899996       1.79619110E-05
  -11.6800003       1.76941812E-05
  -11.6700001       1.51061831E-05
  -11.6599998       1.04943538E-05
  -11.6499996       4.37402787E-06
  -11.6400003      -2.56364024E-06
  -11.6300001      -9.50691719E-06
  -11.6199999      -1.55913367E-05
  -11.6099997      -1.99805581E-05
  -11.6000004      -2.19582143E-05
  -11.5900002      -2.10243616E-05
  -11.5799999      -1.69851792E-05
  -11.5699997      -1.00205398E-05
  -11.5600004      -7.12854785E-07
  -11.5500002       9.97678944E-06
  -11.5400000       2.07924622E-05
  -11.5299997       3.03245633E-05
  -11.5200005       3.71942879E-05
  -11.5100002       4.02568257E-05
  -11.5000000       3.87915134E-05
  -11.4899998       3.26450827E-05
  -11.4799995       2.22987128E-05
  -11.4700003       8.83980647E-06
  -11.4600000      -6.16503394E-06
  -11.4499998      -2.08818947E-05
  -11.4399996      -3.34755896E-05
  -11.4300003      -4.23867059E-05
  -11.4200001      -4.65711673E-05
  -11.4099998      -4.56575835E-05
  -11.3999996      -3.99903947E-05
  -11.3900003      -3.05472022E-05
  -11.3800001      -1.87429268E-05
  -11.3699999      -6.15704448E-06
  -11.3599997       5.76199363E-06
  -11.3500004       1.59537431E-05
  -11.3400002       2.39081019E-05
  -11.3299999       2.96953403E-05
  -11.3199997       3.38544560E-05
  -11.3100004       3.71630267E-05
  -11.3000002       4.03413469E-05
  -11.2900000       4.37630006E-05
  -11.2799997       4.72479405E-05
  -11.2700005       4.99998387E-05
  -11.2600002       5.07193363E-05
  -11.2500000       4.78843031E-05
  -11.2399998       4.01462094E-05
  -11.2299995       2.67579981E-05
  -11.2200003       7.93226991E-06
  -11.2100000      -1.49660136E-05
  -11.1999998      -3.94598392E-05
  -11.1899996      -6.22547595E-05
  -11.1800003      -7.97542307E-05
  -11.1700001      -8.87098431E-05
  -11.1599998      -8.68836069E-05
  -11.1499996      -7.35856302E-05
  -11.1400003      -4.99657253E-05
  -11.1300001      -1.89789062E-05
  -11.1199999       1.49940961E-05
  -11.1099997       4.68217113E-05
  -11.1000004       7.14801572E-05
  -11.0900002       8.49417702E-05
  -11.0799999       8.49260832E-05
  -11.0699997       7.13664413E-05
  -11.0600004       4.64953155E-05
  -11.0500002       1.45216100E-05
  -11.0400000      -1.90489700E-05
  -11.0299997      -4.83317599E-05
  -11.0200005      -6.80550802E-05
  -11.0100002      -7.44495483E-05
  -11.0000000      -6.58798454E-05
  -10.9899998      -4.31156768E-05
  -10.9799995      -9.20794446E-06
  -10.9700003       3.09915449E-05
  -10.9600000       7.15689021E-05
  -10.9499998       1.06412146E-04
  -10.9399996       1.30061206E-04
  -10.9300003       1.38426069E-04
  -10.9200001       1.29295091E-04
  -10.9099998       1.02600978E-04
  -10.8999996       6.04498891E-05
  -10.8900003       6.94214486E-06
  -10.8800001      -5.21829388E-05
  -10.8699999      -1.10053908E-04
  -10.8599997      -1.59312840E-04
  -10.8500004      -1.92888649E-04
  -10.8400002      -2.04870812E-04
  -10.8299999      -1.91420928E-04
  -10.8199997      -1.51611559E-04
  -10.8100004      -8.80382941E-05
  -10.8000002      -7.03087244E-06
  -10.7900000       8.16901593E-05
  -10.7799997       1.65993944E-04
  -10.7700005       2.32924285E-04
  -10.7600002       2.70715944E-04
  -10.7500000       2.70935561E-04
  -10.7399998       2.30350634E-04
  -10.7299995       1.52114691E-04
  -10.7200003       4.59343828E-05
  -10.7100000      -7.29508101E-05
  -10.6999998      -1.85919242E-04
  -10.6899996      -2.73949699E-04
  -10.6800003      -3.20934952E-04
  -10.6700001      -3.16712947E-04
  -10.6599998      -2.59211200E-04
  -10.6499996      -1.55238566E-04
  -10.6400003      -1.97029058E-05
  -10.6300001       1.26665254E-04
  -10.6199999       2.60707689E-04
  -10.6099997       3.60750360E-04
  -10.6000004       4.10322828E-04
  -10.5900002       4.01007856E-04
  -10.5799999       3.33910080E-04
  -10.5699997       2.19491485E-04
  -10.5600004       7.58241877E-05
  -10.5500002      -7.44105346E-05
  -10.5400000      -2.07640071E-04
  -10.5299997      -3.03198933E-04
  -10.5200005      -3.46586778E-04
  -10.5100002      -3.31682968E-04
  -10.5000000      -2.61602429E-04
  -10.4899998      -1.48100196E-04
  -10.4799995      -9.64963965E-06
  -10.4700003       1.31495035E-04
  -10.4600000       2.52806029E-04
  -10.4499998       3.35038378E-04
  -10.4399996       3.65304993E-04
  -10.4300003       3.39193502E-04
  -10.4200001       2.61566602E-04
  -10.4099998       1.45864033E-04
  -10.3999996       1.19464003E-05
  -10.3900003      -1.17236603E-04
  -10.3800001      -2.19643800E-04
  -10.3699999      -2.78131163E-04
  -10.3599997      -2.83696689E-04
  -10.3500004      -2.37324042E-04
  -10.3400002      -1.49987449E-04
  -10.3299999      -4.07153639E-05
  -10.3199997       6.69990768E-05
  -10.3100004       1.49789150E-04
  -10.3000002       1.89107712E-04
  -10.2900000       1.75055262E-04
  -10.2799997       1.08521934E-04
  -10.2700005       1.15886269E-06
  -10.2600002      -1.26846935E-04
  -10.2500000      -2.50743586E-04
  -10.2399998      -3.46098677E-04
  -10.2299995      -3.93568625E-04
  -10.2200003      -3.82563681E-04
  -10.2100000      -3.13081138E-04
  -10.1999998      -1.95397981E-04
  -10.1899996      -4.77869762E-05
  -10.1800003       1.07167085E-04
  -10.1700001       2.46817304E-04
  -10.1599998       3.52382252E-04
  -10.1499996       4.11811925E-04
  -10.1400003       4.21147037E-04
  -10.1300001       3.84288433E-04
  -10.1199999       3.11424665E-04
  -10.1099997       2.16600369E-04
  -10.1000004       1.15001843E-04
  -10.0900002       2.04950957E-05
  -10.0799999      -5.61946836E-05
  -10.0699997      -1.08469045E-04
  -10.0600004      -1.34008733E-04
  -10.0500002      -1.34245201E-04
  -10.0400000      -1.13392736E-04
  -10.0299997      -7.73071588E-05
  -10.0200005      -3.24091998E-05
  -10.0100002       1.51524655E-05
  -10.0000000       6.00065614E-05
  -9.98999977       9.77292220E-05
  -9.97999954       1.24757324E-04
  -9.97000027       1.38186835E-04
  -9.96000004       1.35626629E-04
  -9.94999981       1.15260867E-04
  -9.93999958       7.62022028E-05
  -9.93000031       1.91050112E-05
  -9.92000008      -5.31220940E-05
  -9.90999985      -1.34770948E-04
  -9.89999962      -2.17259396E-04
  -9.89000034      -2.89768446E-04
  -9.88000011      -3.40666302E-04
  -9.86999989      -3.59559519E-04
  -9.85999966      -3.39570921E-04
  -9.85000038      -2.79282249E-04
  -9.84000015      -1.83760931E-04
  -9.82999992      -6.42524610E-05
  -9.81999969       6.35648976E-05
  -9.81000042       1.82475211E-04
  -9.80000019       2.77129730E-04
  -9.78999996       3.37124162E-04
  -9.77999973       3.58946214E-04
  -9.77000046       3.46267159E-04
  -9.76000023       3.08499439E-04
  -9.75000000       2.58032291E-04
  -9.73999977       2.06937591E-04
  -9.72999954       1.64083831E-04
  -9.72000027       1.33455644E-04
  -9.71000004       1.14086593E-04
  -9.69999981       1.01499187E-04
  -9.68999958       9.00728410E-05
  -9.68000031       7.54858847E-05
  -9.67000008       5.63915819E-05
  -9.65999985       3.47860005E-05
  -9.64999962       1.50030237E-05
  -9.64000034       1.76320725E-06
  -9.63000011      -1.96367796E-06
  -9.61999989       3.53570204E-06
  -9.60999966       1.44254864E-05
  -9.60000038       2.43752966E-05
  -9.59000015       2.66016632E-05
  -9.57999992       1.61706303E-05
  -9.56999969      -8.26463474E-06
  -9.56000042      -4.39164105E-05
  -9.55000019      -8.46998591E-05
  -9.53999996      -1.23147009E-04
  -9.52999973      -1.52698660E-04
  -9.52000046      -1.69543608E-04
  -9.51000023      -1.73352455E-04
  -9.50000000      -1.66675934E-04
  -9.48999977      -1.53291461E-04
  -9.47999954      -1.36191578E-04
  -9.47000027      -1.16057148E-04
  -9.46000004      -9.08842703E-05
  -9.44999981      -5.69924305E-05
  -9.43999958      -1.10926430E-05
  -9.43000031       4.73580949E-05
  -9.42000008       1.14470640E-04
  -9.40999985       1.81689684E-04
  -9.39999962       2.37319720E-04
  -9.39000034       2.69497250E-04
  -9.38000011       2.69746524E-04
  -9.36999989       2.35977990E-04
  -9.35999966       1.73889479E-04
  -9.35000038       9.61885453E-05
  -9.34000015       1.97243262E-05
  -9.32999992      -3.87226864E-05
  -9.31999969      -6.68099601E-05
  -9.31000042      -5.99121668E-05
  -9.30000019      -2.23802745E-05
  -9.28999996       3.35550430E-05
  -9.27999973       9.08951915E-05
  -9.27000046       1.32115732E-04
  -9.26000023       1.43398196E-04
  -9.25000000       1.17798227E-04
  -9.23999977       5.66677772E-05
  -9.22999954      -3.08393064E-05
  -9.22000027      -1.29864580E-04
  -9.21000004      -2.22911578E-04
  -9.19999981      -2.93151301E-04
  -9.18999958      -3.27337504E-04
  -9.18000031      -3.17917205E-04
  -9.17000008      -2.64147617E-04
  -9.15999985      -1.72192449E-04
  -9.14999962      -5.42532944E-05
  -9.14000034       7.31724504E-05
  -9.13000011       1.91768064E-04
  -9.11999989       2.84363399E-04
  -9.10999966       3.37986450E-04
  -9.10000038       3.46439221E-04
  -9.09000015       3.11773096E-04
  -9.07999992       2.44149705E-04
  -9.06999969       1.59885749E-04
  -9.06000042       7.79417533E-05
  -9.05000019       1.55940015E-05
  -9.03999996      -1.56411170E-05
  -9.02999973      -1.27191679E-05
  -9.02000046       1.83903794E-05
  -9.01000023       6.45515756E-05
  -9.00000000       1.09217559E-04
  -8.98999977       1.37025767E-04
  -8.97999954       1.37894647E-04
  -8.97000027       1.09436449E-04
  -8.96000004       5.70383963E-05
  -8.94999981      -8.28563680E-06
  -8.93999958      -7.34636997E-05
  -8.93000031      -1.27122621E-04
  -8.92000008      -1.62310331E-04
  -8.90999985      -1.77393667E-04
  -8.89999962      -1.75037450E-04
  -8.89000034      -1.59873351E-04
  -8.88000011      -1.35917580E-04
  -8.86999989      -1.04829604E-04
  -8.85999966      -6.57124983E-05
  -8.85000038      -1.64907105E-05
  -8.84000015       4.37774870E-05
  -8.82999992       1.12721958E-04
  -8.81999969       1.83687007E-04
  -8.81000042       2.46595038E-04
  -8.80000019       2.90561613E-04
  -8.78999996       3.07446753E-04
  -8.77999973       2.95068225E-04
  -8.77000046       2.58804648E-04
  -8.76000023       2.10801183E-04
  -8.75000000       1.66798534E-04
  -8.73999977       1.41456941E-04
  -8.72999954       1.43630939E-04
  -8.72000027       1.73151348E-04
  -8.71000004       2.20239119E-04
  -8.69999981       2.67849478E-04
  -8.68999958       2.96304293E-04
  -8.68000031       2.88835377E-04
  -8.67000008       2.36378226E-04
  -8.65999985       1.40213291E-04
  -8.64999962       1.17518584E-05
  -8.64000034      -1.30340501E-04
  -8.63000011      -2.64700910E-04
  -8.61999989      -3.72097536E-04
  -8.60999966      -4.39170311E-04
  -8.60000038      -4.60202718E-04
  -8.59000015      -4.36750619E-04
  -8.57999992      -3.75637290E-04
  -8.56999969      -2.86251627E-04
  -8.56000042      -1.78142611E-04
  -8.55000019      -5.96091850E-05
  -8.53999996       6.25108660E-05
  -8.52999973       1.82147836E-04
  -8.52000046       2.93014018E-04
  -8.51000023       3.87976179E-04
  -8.50000000       4.59219678E-04
  -8.48999977       4.99269285E-04
  -8.47999954       5.02570765E-04
  -8.47000027       4.67111095E-04
  -8.46000004       3.95536219E-04
  -8.44999981       2.95387610E-04
  -8.43999958       1.78346585E-04
  -8.43000031       5.86380047E-05
  -8.42000008      -4.90736602E-05
  -8.40999985      -1.31900713E-04
  -8.39999962      -1.80695904E-04
  -8.39000034      -1.91475992E-04
  -8.38000011      -1.66096928E-04
  -8.36999989      -1.12038091E-04
  -8.35999966      -4.12288136E-05
  -8.35000038       3.20300860E-05
  -8.34000015       9.38117300E-05
  -8.32999992       1.33509326E-04
  -8.31999969       1.46324019E-04
  -8.31000042       1.34576636E-04
  -8.30000019       1.07286694E-04
  -8.28999996       7.78607427E-05
  -8.27999973       6.02888831E-05
  -8.27000046       6.47947309E-05
  -8.26000023       9.42175029E-05
  -8.25000000       1.42359684E-04
  -8.23999977       1.95058848E-04
  -8.22999954       2.33939776E-04
  -8.22000027       2.41912916E-04
  -8.21000004       2.08811849E-04
  -8.19999981       1.35368231E-04
  -8.18999958       3.41215964E-05
  -8.18000031      -7.32311382E-05
  -8.17000008      -1.61406002E-04
  -8.15999985      -2.08397149E-04
  -8.14999962      -2.01530565E-04
  -8.14000034      -1.40813296E-04
  -8.13000011      -3.85466737E-05
  -8.11999989       8.46002513E-05
  -8.10999966       2.05690376E-04
  -8.10000038       3.05725698E-04
  -8.09000015       3.73924966E-04
  -8.07999992       4.08786000E-04
  -8.06999969       4.15851071E-04
  -8.06000042       4.03309416E-04
  -8.05000019       3.77347518E-04
  -8.03999996       3.39198596E-04
  -8.02999973       2.85126094E-04
  -8.02000046       2.09368183E-04
  -8.01000023       1.08828208E-04
  -8.00000000      -1.25015022E-05
  -7.98999977      -1.41417549E-04
  -7.98000002      -2.56937987E-04
  -7.96999979      -3.35220888E-04
  -7.96000004      -3.56527191E-04
  -7.94999981      -3.11880809E-04
  -7.94000006      -2.07006276E-04
  -7.92999983      -6.19431739E-05
  -7.92000008       9.38195299E-05
  -7.90999985       2.29287733E-04
  -7.90000010       3.20473424E-04
  -7.88999987       3.56712495E-04
  -7.88000011       3.42746702E-04
  -7.86999989       2.95964041E-04
  -7.86000013       2.39843794E-04
  -7.84999990       1.95922112E-04
  -7.84000015       1.77039095E-04
  -7.82999992       1.84089047E-04
  -7.82000017       2.07183562E-04
  -7.80999994       2.30537204E-04
  -7.80000019       2.39083660E-04
  -7.78999996       2.24296440E-04
  -7.78000021       1.87099722E-04
  -7.76999998       1.36937233E-04
  -7.76000023       8.75631740E-05
  -7.75000000       5.13569430E-05
  -7.73999977       3.44797190E-05
  -7.73000002       3.48010690E-05
  -7.71999979       4.33869791E-05
  -7.71000004       4.89049489E-05
  -7.69999981       4.31214939E-05
  -7.69000006       2.52030914E-05
  -7.67999983       2.96768758E-06
  -7.67000008      -9.59221597E-06
  -7.65999985       2.27444480E-06
  -7.65000010       4.77123467E-05
  -7.63999987       1.25403036E-04
  -7.63000011       2.22213683E-04
  -7.61999989       3.16118298E-04
  -7.61000013       3.82601138E-04
  -7.59999990       4.02444770E-04
  -7.59000015       3.68231296E-04
  -7.57999992       2.87268515E-04
  -7.57000017       1.79861716E-04
  -7.55999994       7.34534697E-05
  -7.55000019      -5.42479575E-06
  -7.53999996      -3.87147702E-05
  -7.53000021      -2.14464653E-05
  -7.51999998       3.79804442E-05
  -7.51000023       1.21703502E-04
  -7.50000000       2.08907280E-04
  -7.48999977       2.82522262E-04
  -7.48000002       3.33761272E-04
  -7.46999979       3.63050931E-04
  -7.46000004       3.77317920E-04
  -7.44999981       3.84959887E-04
  -7.44000006       3.90664674E-04