  -16.0000000       0.00000000    
  -15.9899998       0.00000000    
  -15.9799995       0.00000000    
  -15.9700003       0.00000000    
  -15.9600000       0.00000000    
  -15.9499998       0.00000000    
  -15.9399996       0.00000000    
  -15.9300003       0.00000000    
  -15.9200001       0.00000000    
  -15.9099998       0.00000000    
  -15.8999996       3.04492067E-39
  -15.8900003       4.21720437E-38
  -15.8800001       1.48930382E-37
  -15.8699999      -1.02470791E-36
  -15.8599997      -1.40345158E-35
  -15.8500004      -7.75760552E-35
  -15.8400002      -2.55136801E-34
  -15.8299999      -4.83387981E-34
  -15.8199997      -3.02954878E-34
  -15.8100004      -1.75219750E-34
  -15.8000002      -1.14570248E-32
  -15.7900000      -9.01813346E-32
  -15.7799997      -4.04307708E-31
  -15.7700005      -1.27786956E-30
  -15.7600002      -2.96047726E-30
  -15.7500000      -4.55325800E-30
  -15.7399998      -1.38619917E-30
  -15.7299995       1.89631426E-29
  -15.7200003       7.86278113E-29
  -15.7100000       2.00026073E-28
  -15.6999998       3.69877951E-28
  -15.6899996       4.65332841E-28
  -15.6800003       1.60195230E-28
  -15.6700001      -1.10346445E-27
  -15.6599998      -3.90183045E-27
  -15.6499996      -8.15381346E-27
  -15.6400003      -1.19082051E-26
  -15.6300001      -1.00118590E-26
  -15.6199999       6.05480019E-27
  -15.6099997       4.49950545E-26
  -15.6000004       1.06982382E-25
  -15.5900002       1.69478187E-25
  -15.5799999       1.73196211E-25
  -15.5699997       2.19962508E-26
  -15.5600004      -3.82863780E-25
  -15.5500002      -1.05675827E-24
  -15.5400000      -1.79943985E-24
  -15.5299997      -2.06965922E-24
  -15.5200005      -9.82691721E-25
  -15.5100002       2.40930979E-24
  -15.5000000       8.42772843E-24
  -15.4899998       1.57163354E-23
  -15.4799995       2.02148084E-23
  -15.4700003       1.49710370E-23
  -15.4600000      -8.09831589E-24
  -15.4499998      -5.35835537E-23
  -15.4399996      -1.15234983E-22
  -15.4300003      -1.68100819E-22
  -15.4200001      -1.65036896E-22
  -15.4099998      -4.45790062E-23
  -15.3999996       2.43247343E-22
  -15.3900003       6.91688691E-22
  -15.3800001       1.18206129E-21
  -15.3699999       1.44355346E-21
  -15.3599997       1.06779788E-21
  -15.3500004      -3.77429528E-22
  -15.3400002      -3.10855141E-21
  -15.3299999      -6.78297230E-21
  -15.3199997      -1.01556252E-20
  -15.3100004      -1.09336079E-20
  -15.3000002      -6.09552423E-21
  -15.2900000       7.07682175E-21
  -15.2799997       2.91788769E-20
  -15.2700005       5.63655539E-20
  -15.2600002       7.83543216E-20
  -15.2500000       7.81217223E-20
  -15.2399998       3.49707826E-20
  -15.2299995      -6.76731646E-20
  -15.2200003      -2.29695416E-19
  -15.2100000      -4.19391453E-19
  -15.1999998      -5.62010703E-19
  -15.1899996      -5.40729672E-19
  -15.1800003      -2.20311595E-19
  -15.1700001       4.99245686E-19
  -15.1599998       1.60101190E-18
  -15.1499996       2.85934666E-18
  -15.1400003       3.77624783E-18
  -15.1300001       3.60158616E-18
  -15.1199999       1.49663753E-18
  -15.1099997      -3.12307789E-18
  -15.1000004      -1.00901733E-17
  -15.0900002      -1.79543589E-17
  -15.0799999      -2.36527135E-17
  -15.0699997      -2.27022283E-17
  -15.0600004      -1.02309437E-17
  -15.0500002       1.69992233E-17
  -15.0400000       5.77871420E-17
  -15.0299997       1.03647915E-16
  -15.0200005       1.37248441E-16
  -15.0100002       1.33813325E-16
  -15.0000000       6.70311368E-17
  -14.9899998      -8.00045978E-17
  -14.9799995      -3.00241363E-16
  -14.9700003      -5.48597617E-16
  -14.9600000      -7.35120890E-16
  -14.9499998      -7.33502845E-16
  -14.9399996      -4.11707696E-16
  -14.9300003       3.13880844E-16
  -14.9200001       1.40892305E-15
  -14.9099998       2.65651830E-15
  -14.8999996       3.62897460E-15
  -14.8900003       3.73185352E-15
  -14.8800001       2.34783642E-15
  -14.8699999      -9.17612497E-16
  -14.8599997      -5.92903878E-15
  -14.8500004      -1.17435062E-14
  -14.8400002      -1.64972050E-14
  -14.8299999      -1.76029981E-14
  -14.8199997      -1.23640493E-14
  -14.8100004       1.00112846E-15
  -14.8000002       2.20981528E-14
  -14.7900000       4.72340808E-14
  -14.7799997       6.89625088E-14
  -14.7700005       7.68565238E-14
  -14.7600002       5.98908130E-14
  -14.7500000       1.03863976E-14
  -14.7399998      -7.11693142E-14
  -14.7299995      -1.71825797E-13
  -14.7200003      -2.64333558E-13
  -14.7100000      -3.09772986E-13
  -14.6999998      -2.65977859E-13
  -14.6899996      -1.01558397E-13
  -14.6800003       1.86891870E-13
  -14.6700001       5.59222536E-13
  -14.6599998       9.24376136E-13
  -14.6499996       1.14801365E-12
  -14.6400003       1.07960288E-12
  -14.6300001       5.98459541E-13
  -14.6199999      -3.28903110E-13
  -14.6099997      -1.59541271E-12
  -14.6000004      -2.92494089E-12
  -14.5900002      -3.89013995E-12
  -14.5799999      -3.99124137E-12
  -14.5699997      -2.79541494E-12
  -14.5600004      -1.14889923E-13
  -14.5500002       3.82086507E-12
  -14.5400000       8.26055804E-12
  -14.5299997       1.19584134E-11
  -14.5200005       1.33793020E-11
  -14.5100002       1.10859525E-11
  -14.5000000       4.25274312E-12
  -14.4899998      -6.81395175E-12
  -14.4799995      -2.03183009E-11
  -14.4700003      -3.29615918E-11
  -14.4600000      -4.04100746E-11
  -14.4499998      -3.82753863E-11
  -14.4399996      -2.34840168E-11
  -14.4300003       4.25914425E-12
  -14.4200001       4.13447922E-11
  -14.4099998       7.99487282E-11
  -14.3999996       1.08923898E-10
  -14.3900003       1.16036583E-10
  -14.3800001       9.13151776E-11
  -14.3699999       3.08548812E-11
  -14.3599997      -5.99367361E-11
  -14.3500004      -1.64827790E-10
  -14.3400002      -2.58004923E-10
  -14.3299999      -3.08576276E-10
  -14.3199997      -2.88011531E-10
  -14.3100004      -1.79212006E-10
  -14.3000002       1.49760933E-11
  -14.2900000       2.66478228E-10
  -14.2799997       5.22435040E-10
  -14.2700005       7.12905679E-10
  -14.2600002       7.65675412E-10
  -14.2500000       6.25903163E-10
  -14.2399998       2.76331874E-10
  -14.2299995      -2.47527387E-10
  -14.2200003      -8.52863558E-10
  -14.2100000      -1.39974132E-09
  -14.1999998      -1.72691739E-09
  -14.1899996      -1.69007330E-09
  -14.1800003      -1.20497101E-09
  -14.1700001      -2.84881452E-10
  -14.1599998       9.39303413E-10
  -14.1499996       2.22577534E-09
  -14.1400003       3.25965477E-09
  -14.1300001       3.71877684E-09
  -14.1199999       3.35595574E-09
  -14.1099997       2.07937156E-09
  -14.1000004       9.39772652E-12
  -14.0900002      -2.50796761E-09
  -14.0799999      -4.94333197E-09
  -14.0699997      -6.68171918E-09
  -14.0600004      -7.16122228E-09
  -14.0500002      -6.02425443E-09
  -14.0400000      -3.24466010E-09
  -14.0299997       8.06313238E-10
  -14.0200005       5.38278622E-09
  -14.0100002       9.48508916E-09
  -14.0000000       1.20641968E-08
  -13.9899998       1.22713795E-08
  -13.9799995       9.69689928E-09
  -13.9700003       4.53569360E-09
  -13.9600000      -2.37273934E-09
  -13.9499998      -9.65866764E-09
  -13.9399996      -1.56836624E-08
  -13.9300003      -1.89037266E-08
  -13.9200001      -1.82560296E-08
  -13.9099998      -1.34747147E-08
  -13.8999996      -5.24687938E-09
  -13.8900003       4.85061324E-09
  -13.8800001       1.46439492E-08
  -13.8699999       2.18373000E-08
  -13.8599997       2.45693776E-08
  -13.8500004       2.19176801E-08
  -13.8400002       1.42141694E-08
  -13.8299999       3.06928150E-09
  -13.8199997      -8.93402508E-09
  -13.8100004      -1.88316509E-08
  -13.8000002      -2.40292888E-08
  -13.7900000      -2.30292478E-08
  -13.7799997      -1.59340168E-08
  -13.7700005      -4.56366012E-09
  -13.7600002       7.89073162E-09
  -13.7500000       1.76380173E-08
  -13.7399998       2.13210747E-08
  -13.7299995       1.70588113E-08
  -13.7200003       5.20448484E-09
  -13.7100000      -1.14326033E-08
  -13.6999998      -2.80413612E-08
  -13.6899996      -3.89106276E-08
  -13.6800003      -3.89662098E-08
  -13.6700001      -2.53792543E-08
  -13.6599998       1.19183330E-09
  -13.6499996       3.61285615E-08
  -13.6400003       7.14014590E-08
  -13.6300001       9.71534817E-08
  -13.6199999       1.04051843E-07
  -13.6099997       8.58956142E-08
  -13.6000004       4.18219059E-08
  -13.5900002      -2.25356853E-08
  -13.5799999      -9.53981996E-08
  -13.5699997      -1.60831917E-07
  -13.5600004      -2.02096444E-07
  -13.5500002      -2.05675988E-07
  -13.5400000      -1.65053180E-07
  -13.5299997      -8.32291818E-08
  -13.5200005       2.68075091E-08
  -13.5100002       1.44030523E-07
  -13.5000000       2.43532611E-07
  -13.4899998       3.02087528E-07
  -13.4799995       3.03862805E-07
  -13.4700003       2.44852799E-07
  -13.4600000       1.34777679E-07
  -13.4499998      -4.28259606E-09
  -13.4399996      -1.42478925E-07
  -13.4300003      -2.49123218E-07
  -13.4200001      -3.00370601E-07
  -13.4099998      -2.85706420E-07
  -13.3999996      -2.11409542E-07
  -13.3900003      -9.97791716E-08
  -13.3800001       1.60780420E-08
  -13.3699999       1.00928531E-07
  -13.3599997       1.27539167E-07
  -13.3500004       8.56033537E-08
  -13.3400002      -1.31689273E-08
  -13.3299999      -1.35707410E-07
  -13.3199997      -2.34563601E-07
  -13.3100004      -2.60143509E-07
  -13.3000002      -1.75536528E-07
  -13.2900000       2.97888043E-08
  -13.2799997       3.31372320E-07
  -13.2700005       6.69384519E-07
  -13.2600002       9.57895963E-07
  -13.2500000       1.10286055E-06
  -13.2399998       1.02546085E-06
  -13.2299995       6.85592852E-07
  -13.2200003       9.94865488E-08
  -13.2100000      -6.53885877E-07
  -13.1999998      -1.44086709E-06
  -13.1899996      -2.09570999E-06
  -13.1800003      -2.45419119E-06
  -13.1700001      -2.39156589E-06
  -13.1599998      -1.85632496E-06
  -13.1499996      -8.91213631E-07
  -13.1400003       3.64906469E-07
  -13.1300001       1.69687905E-06
  -13.1199999       2.85236933E-06
  -13.1099997       3.59305000E-06
  -13.1000004       3.74708611E-06
  -13.0900002       3.25088149E-06
  -13.0799999       2.16955073E-06
  -13.0699997       6.89799037E-07
  -13.0600004      -9.15048247E-07
  -13.0500002      -2.34149661E-06
  -13.0400000      -3.32183390E-06
  -13.0299997      -3.68450674E-06
  -13.0200005      -3.39418807E-06
  -13.0100002      -2.56079147E-06
  -13.0000000      -1.41362943E-06
  -12.9899998      -2.45288021E-07
  -12.9799995       6.62353330E-07
  -12.9700003       1.11220311E-06
  -12.9600000       1.04712194E-06
  -12.9499998       5.70601969E-07
  -12.9399996      -7.49542579E-08
  -12.9300003      -5.69981694E-07
  -12.9200001      -6.06607045E-07
  -12.9099998       1.64687890E-08
  -12.8999996       1.31766217E-06
  -12.8900003       3.09696270E-06
  -12.8800001       4.95509175E-06
  -12.8699999       6.36876075E-06
  -12.8599997       6.80932590E-06
  -12.8500004       5.87990735E-06
  -12.8400002       3.43876582E-06
  -12.8299999      -3.23210429E-07
  -12.8199997      -4.87516991E-06
  -12.8100004      -9.41882445E-06
  -12.8000002      -1.30323369E-05
  -12.7900000      -1.48592690E-05
  -12.7799997      -1.43032757E-05
  -12.7700005      -1.11844056E-05
  -12.7600002      -5.81810673E-06
  -12.7500000       1.00719876E-06
  -12.7399998       8.15665226E-06
  -12.7299995       1.43586976E-05
  -12.7200003       1.84568307E-05
  -12.7100000       1.96501478E-05
  -12.6999998       1.76691228E-05
  -12.6899996       1.28449328E-05
  -12.6800003       6.05287505E-06
  -12.6700001      -1.46182992E-06
  -12.6599998      -8.34048114E-06
  -12.6499996      -1.33941930E-05
  -12.6400003      -1.58507646E-05
  -12.6300001      -1.55083944E-05
  -12.6199999      -1.27597232E-05
  -12.6099997      -8.47913634E-06
  -12.6000004      -3.79844073E-06
  -12.5900002       1.76733224E-07
  -12.5799999       2.64184155E-06
  -12.5699997       3.29193858E-06
  -12.5600004       2.39281030E-06
  -12.5500002       7.03484147E-07
  -12.5400000      -7.35005585E-07
  -12.5299997      -8.95788958E-07
  -12.5200005       9.24918822E-07
  -12.5100002       4.86497265E-06
  -12.5000000       1.03858456E-05
  -12.4899998       1.63314271E-05
  -12.4799995       2.11529041E-05
  -12.4700003       2.32552393E-05
  -12.4600000       2.13881558E-05
  -12.4499998       1.49890384E-05
  -12.4399996       4.39134010E-06
  -12.4300003      -9.16041699E-06
  -12.4200001      -2.37048971E-05
  -12.4099998      -3.69341251E-05
  -12.3999996      -4.66627534E-05
  -12.3900003      -5.12923107E-05
  -12.3800001      -5.01626600E-05
  -12.3699999      -4.37048329E-05
  -12.3599997      -3.33528042E-05
  -12.3500004      -2.12269115E-05
  -12.3400002      -9.65639993E-06
  -12.3299999      -6.49054073E-07
  -12.3199997       4.56762564E-06
  -12.3100004       5.82200710E-06
  -12.3000002       4.01907664E-06
  -12.2900000       8.93713434E-07
  -12.2799997      -1.45181423E-06
  -12.2700005      -1.11984207E-06
  -12.2600002       3.03868660E-06
  -12.2500000       1.10449901E-05
  -12.2399998       2.16810076E-05
  -12.2299995       3.26885565E-05
  -12.2200003       4.12485788E-05
  -12.2100000       4.46403938E-05
  -12.1999998       4.09322602E-05
  -12.1899996       2.95387017E-05
  -12.1800003       1.15031689E-05
  -12.1700001      -1.05782256E-05
  -12.1599998      -3.29958275E-05
  -12.1499996      -5.16479558E-05
  -12.1400003      -6.28947091E-05
  -12.1300001      -6.43566382E-05
  -12.1199999      -5.54752696E-05
  -12.1099997      -3.76998360E-05
  -12.1000004      -1.42444114E-05
  -12.0900002       1.05443223E-05
  -12.0799999       3.20790241E-05
  -12.0699997       4.64911573E-05
  -12.0600004       5.14455132E-05
  -12.0500002       4.66252022E-05
  -12.0400000       3.37734455E-05
  -12.0299997       1.62767956E-05
  -12.0200005      -1.62132369E-06
  -12.0100002      -1.58022431E-05
  -12.0000000      -2.32267175E-05
  -11.9899998      -2.26432840E-05
  -11.9799995      -1.48839399E-05
  -11.9700003      -2.67294013E-06
  -11.9600000       1.00146399E-05
  -11.9499998       1.89037582E-05
  -11.9399996       2.04650532E-05
  -11.9300003       1.28150386E-05
  -11.9200001      -3.74064280E-06
  -11.9099998      -2.66547413E-05
  -11.8999996      -5.16011714E-05
  -11.8900003      -7.33608977E-05
  -11.8800001      -8.69413489E-05
  -11.8699999      -8.86838170E-05
  -11.8599997      -7.71118794E-05
  -11.8500004      -5.33280618E-05
  -11.8400002      -2.08635629E-05
  -11.8299999       1.49940261E-05
  -11.8199997       4.82548458E-05
  -11.8100004       7.34376445E-05
  -11.8000002       8.66765986E-05
  -11.7900000       8.64852045E-05
  -11.7799997       7.40125688E-05
  -11.7700005       5.27383490E-05
  -11.7600002       2.76746105E-05
  -11.7500000       4.25021381E-06
  -11.7399998      -1.28784004E-05
  -11.7299995      -2.08309793E-05
  -11.7200003      -1.91043546E-05
  -11.7100000      -9.64133960E-06
  -11.6999998       3.64539460E-06
  -11.6899996       1.57895993E-05
  -11.6800003       2.19282574E-05
  -11.6700001       1.84482433E-05
  -11.6599998       3.87501541E-06
  -11.6499996      -2.06887853E-05
  -11.6400003      -5.16710315E-05
  -11.6300001      -8.36650579E-05
  -11.6199999      -1.10462744E-04
  -11.6099997      -1.26274841E-04
  -11.6000004      -1.26890722E-04
  -11.5900002      -1.10544323E-04
  -11.5799999      -7.83157811E-05
  -11.5699997      -3.39932485E-05
  -11.5600004       1.65710044E-05
  -11.5500002       6.64771869E-05
  -11.5400000       1.08964632E-04
  -11.5299997       1.38538759E-04
  -11.5200005       1.51828484E-04
  -11.5100002       1.48025239E-04
  -11.5000000       1.28842526E-04
  -11.4899998       9.80309924E-05
  -11.4799995       6.05686873E-05
  -11.4700003       2.17023189E-05
  -11.4600000      -1.39664262E-05
  -11.4499998      -4.31771914E-05
  -11.4399996      -6.43726235E-05
  -11.4300003      -7.76836823E-05
  -11.4200001      -8.45760223E-05
  -11.4099998      -8.72614255E-05
  -11.3999996      -8.80194202E-05
  -11.3900003      -8.85823829E-05
  -11.3800001      -8.97136852E-05
  -11.3699999      -9.10588788E-05
  -11.3599997      -9.12865798E-05
  -11.3500004      -8.84727924E-05
  -11.3400002      -8.06325988E-05
  -11.3299999      -6.62763414E-05
  -11.3199997      -4.48676510E-05
  -11.3100004      -1.70864259E-05
  -11.3000002       1.51554268E-05
  -11.2900000       4.89451340E-05
  -11.2799997       8.07967372E-05
  -11.2700005       1.07188309E-04
  -11.2600002       1.25104663E-04
  -11.2500000       1.32486282E-04
  -11.2399998       1.28509259E-04
  -11.2299995       1.13658280E-04
  -11.2200003       8.95954217E-05
  -11.2100000       5.88650400E-05
  -11.1999998       2.45002066E-05
  -11.1899996      -1.03937600E-05
  -11.1800003      -4.30087530E-05
  -11.1700001      -7.11049361E-05
  -11.1599998      -9.31577597E-05
  -11.1499996      -1.08382010E-04
  -11.1400003      -1.16655829E-04
  -11.1300001      -1.18380813E-04
  -11.1199999      -1.14317481E-04
  -11.1099997      -1.05429375E-04
  -11.1000004      -9.27574874E-05
  -11.0900002      -7.73332431E-05
  -11.0799999      -6.01266729E-05
  -11.0699997      -4.20195611E-05
  -11.0600004      -2.37918739E-05
  -11.0500002      -6.11289170E-06
  -11.0400000       1.04659039E-05
  -11.0299997       2.55136856E-05
  -11.0200005       3.87132859E-05
  -11.0100002       4.98393711E-05
  -11.0000000       5.87207978E-05
  -10.9899998       6.51924493E-05
  -10.9799995       6.90480665E-05
  -10.9700003       7.00095334E-05
  -10.9600000       6.77279240E-05
  -10.9499998       6.18268314E-05
  -10.9399996       5.19894129E-05
  -10.9300003       3.80791716E-05
  -10.9200001       2.02733936E-05
  -10.9099998      -8.20360697E-07
  -10.8999996      -2.40969312E-05
  -10.8900003      -4.79637383E-05
  -10.8800001      -7.04457052E-05
  -10.8699999      -8.93853648E-05
  -10.8599997      -1.02718761E-04
  -10.8500004      -1.08788707E-04
  -10.8400002      -1.06642532E-04
  -10.8299999      -9.62562408E-05
  -10.8199997      -7.86321980E-05
  -10.8100004      -5.57355233E-05
  -10.8000002      -3.02612207E-05
  -10.7900000      -5.25737323E-06
  -10.7799997       1.63383975E-05
  -10.7700005       3.21681327E-05
  -10.7600002       4.08379892E-05
  -10.7500000       4.21366130E-05
  -10.7399998       3.70342277E-05
  -10.7299995       2.74517661E-05
  -10.7200003       1.58382645E-05
  -10.7100000       4.63943070E-06
  -10.6999998      -4.23043457E-06
  -10.6899996      -9.79507786E-06
  -10.6800003      -1.22046004E-05
  -10.6700001      -1.26537852E-05
  -10.6599998      -1.30392427E-05
  -10.6499996      -1.54262798E-05
  -10.6400003      -2.14456395E-05
  -10.6300001      -3.17637932E-05
  -10.6199999      -4.57612114E-05
  -10.6099997      -6.15112149E-05
  -10.6000004      -7.60862895E-05
  -10.5900002      -8.61429944E-05
  -10.5799999      -8.86684938E-05
  -10.5699997      -8.17277905E-05
  -10.5600004      -6.50411384E-05
  -10.5500002      -4.02506303E-05
  -10.5400000      -1.07965452E-05
  -10.5299997       1.85942718E-05
  -10.5200005       4.27219638E-05
  -10.5100002       5.68758005E-05
  -10.5000000       5.77554274E-05
  -10.4899998       4.41647317E-05
  -10.4799995       1.73335793E-05
  -10.4700003      -1.92050848E-05
  -10.4600000      -6.01681932E-05
  -10.4499998      -9.94063157E-05
  -10.4399996      -1.30954111E-04
  -10.4300003      -1.50051201E-04
  -10.4200001      -1.53943372E-04
  -10.4099998      -1.42317745E-04
  -10.3999996      -1.17296135E-04
  -10.3900003      -8.29960991E-05
  -10.3800001      -4.47502644E-05
  -10.3699999      -8.13700990E-06
  -10.3599997       2.19924696E-05
  -10.3500004       4.23108577E-05
  -10.3400002       5.14942221E-05
  -10.3299999       5.03087358E-05
  -10.3199997       4.13068447E-05
  -10.3100004       2.82093479E-05
  -10.3000002       1.51064160E-05
  -10.2900000       5.63829371E-06
  -10.2799997       2.31145100E-06
  -10.2700005       6.07066795E-06
  -10.2600002       1.61907956E-05
  -10.2500000       3.04866044E-05
  -10.2399998       4.57790520E-05
  -10.2299995       5.85135058E-05
  -10.2200003       6.54066898E-05
  -10.2100000       6.40063226E-05
  -10.1999998       5.30756370E-05
  -10.1899996       3.27566850E-05
  -10.1800003       4.51046208E-06
  -10.1700001      -2.91301913E-05
  -10.1599998      -6.49342473E-05
  -10.1499996      -9.94026632E-05
  -10.1400003      -1.29189779E-04
  -10.1300001      -1.51465618E-04
  -10.1199999      -1.64187964E-04
  -10.1099997      -1.66271668E-04
  -10.1000004      -1.57657152E-04
  -10.0900002      -1.39288764E-04
  -10.0799999      -1.13016758E-04
  -10.0699997      -8.14364903E-05
  -10.0600004      -4.76759560E-05
  -10.0500002      -1.51411568E-05
  -10.0400000       1.27712401E-05
  -10.0299997       3.29823561E-05
  -10.0200005       4.30438449E-05
  -10.0100002       4.14315546E-05
  -10.0000000       2.77893378E-05
  -9.98999977       3.08633025E-06
  -9.97999954      -3.03504785E-05
  -9.97000027      -6.89611334E-05
  -9.96000004      -1.08253305E-04
  -9.94999981      -1.43272613E-04
  -9.93999958      -1.69205188E-04
  -9.93000031      -1.82041767E-04
  -9.92000008      -1.79204973E-04
  -9.90999985      -1.60028285E-04
  -9.89999962      -1.25983235E-04
  -9.89000034      -8.05843447E-05
  -9.88000011      -2.89547806E-05
  -9.86999989       2.28978624E-05
  -9.85999966       6.89834123E-05
  -9.85000038       1.04250212E-04
  -9.84000015       1.25353370E-04
  -9.82999992       1.31121822E-04
  -9.81999969       1.22633748E-04
  -9.81000042       1.02891652E-04
  -9.80000019       7.61728661E-05
  -9.78999996       4.71985950E-05
  -9.77999973       2.02986866E-05
  -9.77000046      -1.26059297E-06
  -9.76000023      -1.56666320E-05
  -9.75000000      -2.26231932E-05
  -9.73999977      -2.31201411E-05
  -9.72999954      -1.90077826E-05
  -9.72000027      -1.25040178E-05
  -9.71000004      -5.75552667E-06
  -9.69999981      -5.34708420E-07
  -9.68999958       1.90286312E-06
  -9.68000031       8.30072565E-07
  -9.67000008      -4.00700355E-06
  -9.65999985      -1.24425278E-05
  -9.64999962      -2.38988196E-05
  -9.64000034      -3.73479597E-05
  -9.63000011      -5.12692968E-05
  -9.61999989      -6.36711920E-05
  -9.60999966      -7.22418044E-05
  -9.60000038      -7.46592850E-05
  -9.59000015      -6.90367015E-05
  -9.57999992      -5.44181821E-05
  -9.56999969      -3.12019256E-05
  -9.56000042      -1.35893208E-06
  -9.55000019       3.16503792E-05
  -9.53999996       6.32922311E-05
  -9.52999973       8.86544440E-05
  -9.52000046       1.03289771E-04
  -9.51000023       1.04029299E-04
  -9.50000000       8.95849080E-05
  -9.48999977       6.08037080E-05
  -9.47999954       2.05171436E-05
  -9.47000027      -2.69782413E-05
  -9.46000004      -7.66870726E-05
  -9.44999981      -1.23755832E-04
  -9.43999958      -1.64208468E-04
  -9.43000031      -1.95434797E-04
  -9.42000008      -2.16359695E-04
  -9.40999985      -2.27301949E-04
  -9.39999962      -2.29602971E-04
  -9.39000034      -2.25148309E-04
  -9.38000011      -2.15911394E-04
  -9.36999989      -2.03621181E-04
  -9.35999966      -1.89604762E-04
  -9.35000038      -1.74799701E-04
  -9.34000015      -1.59883974E-04
  -9.32999992      -1.45446771E-04
  -9.31999969      -1.32123794E-04
  -9.31000042      -1.20643621E-04
  -9.30000019      -1.11767404E-04
  -9.28999996      -1.06140476E-04
  -9.27999973      -1.04102677E-04
  -9.27000046      -1.05515974E-04
  -9.26000023      -1.09663742E-04
  -9.25000000      -1.15258503E-04
  -9.23999977      -1.20569617E-04
  -9.22999954      -1.23655773E-04
  -9.22000027      -1.22665951E-04
  -9.21000004      -1.16158706E-04
  -9.19999981      -1.03385595E-04
  -9.18999958      -8.44887109E-05
  -9.18000031      -6.05747155E-05
  -9.17000008      -3.36448829E-05
  -9.15999985      -6.38188521E-06
  -9.14999962       1.81841042E-05
  -9.14000034       3.70871639E-05
  -9.13000011       4.78571492E-05
  -9.11999989       4.89052945E-05
  -9.10999966       3.98014563E-05
  -9.10000038       2.13934072E-05
  -9.09000015      -4.25835469E-06
  -9.07999992      -3.41288032E-05
  -9.06999969      -6.46294648E-05
  -9.06000042      -9.21070387E-05
  -9.05000019      -1.13368158E-04
  -9.03999996      -1.26152983E-04
  -9.02999973      -1.29485634E-04
  -9.02000046      -1.23844962E-04
  -9.01000023      -1.11121895E-04
  -9.00000000      -9.43581981E-05
  -8.98999977      -7.72926433E-05
  -8.97999954      -6.37720805E-05
  -8.97000027      -5.71115015E-05
  -8.96000004      -5.95059391E-05
  -8.94999981      -7.16017748E-05
  -8.93999958      -9.23201151E-05
  -8.93000031      -1.18989708E-04
  -8.92000008      -1.47792496E-04
  -8.90999985      -1.74460351E-04
  -8.89999962      -1.95100307E-04
  -8.89000034      -2.06982208E-04
  -8.88000011      -2.09113656E-04
  -8.86999989      -2.02458716E-04
  -8.85999966      -1.89727827E-04
  -8.85000038      -1.74764544E-04
  -8.84000015      -1.61654418E-04
  -8.82999992      -1.53759116E-04
  -8.81999969      -1.52909473E-04
  -8.81000042      -1.58963419E-04
  -8.80000019      -1.69850886E-04
  -8.78999996      -1.82106727E-04
  -8.77999973      -1.91766390E-04
  -8.77000046      -1.95401095E-04
  -8.76000023      -1.91028099E-04
  -8.75000000      -1.78659364E-04
  -8.73999977      -1.60344120E-04
  -8.72999954      -1.39692551E-04
  -8.72000027      -1.21002442E-04
  -8.71000004      -1.08212385E-04
  -8.69999981      -1.03945888E-04
  -8.68999958      -1.08880449E-04
  -8.68000031      -1.21585916E-04
  -8.67000008      -1.38851727E-04
  -8.65999985      -1.56400958E-04
  -8.64999962      -1.69802690E-04
  -8.64000034      -1.75363006E-04
  -8.63000011      -1.70803803E-04
  -8.61999989      -1.55612448E-04
  -8.60999966      -1.31039240E-04
  -8.60000038      -9.98028554E-05
  -8.59000015      -6.56161865E-05
  -8.57999992      -3.26546506E-05
  -8.56999969      -5.06225570E-06
  -8.56000042       1.34564125E-05
  -8.55000019       1.99556434E-05
  -8.53999996       1.25037304E-05
  -8.52999973      -9.60265425E-06
  -8.52000046      -4.56654780E-05
  -8.51000023      -9.34877680E-05
  -8.50000000      -1.49409985E-04
  -8.48999977      -2.08541111E-04
  -8.47999954      -2.65215145E-04
  -8.47000027      -3.13650962E-04
  -8.46000004      -3.48731788E-04
  -8.44999981      -3.66769178E-04
  -8.43999958      -3.66097753E-04
  -8.43000031      -3.47364548E-04
  -8.42000008      -3.13437107E-04
  -8.40999985      -2.68934818E-04
  -8.39999962      -2.19473368E-04
  -8.39000034      -1.70776533E-04
  -8.38000011      -1.27834996E-04
  -8.36999989      -9.42749393E-05
  -8.35999966      -7.20434764E-05
  -8.35000038      -6.14390301E-05
  -8.34000015      -6.14333985E-05
  -8.32999992      -7.01723548E-05
  -8.31999969      -8.55127073E-05
  -8.31000042      -1.05463390E-04
  -8.30000019      -1.28441068E-04
  -8.28999996      -1.53310888E-04
  -8.27999973      -1.79246723E-04
  -8.27000046      -2.05492732E-04
  -8.26000023      -2.31129859E-04
  -8.25000000      -2.54942657E-04
  -8.23999977      -2.75446655E-04
  -8.22999954      -2.91085045E-04
  -8.22000027      -3.00550368E-04
  -8.21000004      -3.03145207E-04
  -8.19999981      -2.99076055E-04
  -8.18999958      -2.89584190E-04
  -8.18000031      -2.76853476E-04
  -8.17000008      -2.63687631E-04
  -8.15999985      -2.53008504E-04
  -8.14999962      -2.47276534E-04
  -8.14000034      -2.47962074E-04
  -8.13000011      -2.55191291E-04
  -8.11999989      -2.67656986E-04
  -8.10999966      -2.82826571E-04
  -8.10000038      -2.97410559E-04
  -8.09000015      -3.07995797E-04
  -8.07999992      -3.11707117E-04
  -8.06999969      -3.06755304E-04
  -8.06000042      -2.92758283E-04
  -8.05000019      -2.70777004E-04
  -8.03999996      -2.43075861E-04
  -8.02999973      -2.12679617E-04
  -8.02000046      -1.82842050E-04
  -8.01000023      -1.56552807E-04
  -8.00000000      -1.36184433E-04
  -7.98999977      -1.23336111E-04
  -7.98000002      -1.18869815E-04
  -7.96999979      -1.23081249E-04
  -7.96000004      -1.35914626E-04
  -7.94999981      -1.57126240E-04
  -7.94000006      -1.86326826E-04
  -7.92999983      -2.22879113E-04
  -7.92000008      -2.65683397E-04
  -7.90999985      -3.12930439E-04
  -7.90000010      -3.61925660E-04
  -7.88999987      -4.09085100E-04
  -7.88000011      -4.50169551E-04
  -7.86999989      -4.80766088E-04
  -7.86000013      -4.96959139E-04
  -7.84999990      -4.96074557E-04
  -7.84000015      -4.77342925E-04
  -7.82999992      -4.42324788E-04
  -7.82000017      -3.94973293E-04
  -7.80999994      -3.41272360E-04
  -7.80000019      -2.88474897E-04
  -7.78999996      -2.44048133E-04
  -7.78000021      -2.14501852E-04
  -7.76999998      -2.04309981E-04
  -7.76000023      -2.15127598E-04
  -7.75000000      -2.45457020E-04
  -7.73999977      -2.90834170E-04
  -7.73000002      -3.44510016E-04
  -7.71999979      -3.98510689E-04
  -7.71000004      -4.44893609E-04
  -7.69999981      -4.76984889E-04
  -7.69000006      -4.90395469E-04
  -7.67999983      -4.83659183E-04
  -7.67000008      -4.58404858E-04
  -7.65999985      -4.19055286E-04
  -7.65000010      -3.72113718E-04
  -7.63999987      -3.25156027E-04
  -7.63000011      -2.85681337E-04
  -7.61999989      -2.59984343E-04
  -7.61000013      -2.52207683E-04
  -7.59999990      -2.63708993E-04
  -7.59000015      -2.92839803E-04
  -7.57999992      -3.35182121E-04
  -7.57000017      -3.84226150E-04
  -7.55999994      -4.32404282E-04
  -7.55000019      -4.72330023E-04
  -7.53999996      -4.98042209E-04
  -7.53000021      -5.06036624E-04
  -7.51999998      -4.95890912E-04
  -7.51000023      -4.70354949E-04
  -7.50000000      -4.34876943E-04
  -7.48999977      -3.96646181E-04
  -7.48000002      -3.63332627E-04
  -7.46999979      -3.41762207E-04
  -7.46000004      -3.36773635E-04
  -7.44999981      -3.50454968E-04
  -7.44000006      -3.81870399E-04