  -16.0000000       0.00000000    
  -15.9899998       0.00000000    
  -15.9799995       0.00000000    
  -15.9700003       0.00000000    
  -15.9600000       0.00000000    
  -15.9499998       0.00000000    
  -15.9399996       0.00000000    
  -15.9300003       0.00000000    
  -15.9200001       0.00000000    
  -15.9099998       0.00000000    
  -15.8999996       1.05136621E-40
  -15.8900003       5.81804549E-39
  -15.8800001       1.32948562E-37
  -15.8699999       1.71251981E-36
  -15.8599997       1.49847549E-35
  -15.8500004       9.88309273E-35
  -15.8400002       5.22640584E-34
  -15.8299999       2.30303974E-33
  -15.8199997       8.66539097E-33
  -15.8100004       2.82638536E-32
  -15.8000002       8.05846516E-32
  -15.7900000       2.01339002E-31
  -15.7799997       4.39021326E-31
  -15.7700005       8.23663531E-31
  -15.7600002       1.28256994E-30
  -15.7500000       1.49240302E-30
  -15.7399998       7.10872544E-31
  -15.7299995      -2.27975017E-30
  -15.7200003      -8.91409302E-30
  -15.7100000      -2.00988454E-29
  -15.6999998      -3.49575725E-29
  -15.6899996      -4.91030946E-29
  -15.6800003      -5.21086948E-29
  -15.6700001      -2.32042314E-29
  -15.6599998       7.48854646E-29
  -15.6499996       2.97632588E-28
  -15.6400003       6.94354801E-28
  -15.6300001       1.21802599E-27
  -15.6199999       1.53495596E-27
  -15.6099997       7.78584336E-28
  -15.6000004      -2.51549889E-27
  -15.5900002      -9.79489220E-27
  -15.5799999      -2.06034660E-26
  -15.5699997      -2.93524173E-26
  -15.5600004      -2.22655867E-26
  -15.5500002       2.14719695E-26
  -15.5400000       1.18402919E-25
  -15.5299997       2.55263655E-25
  -15.5200005       3.54754965E-25
  -15.5100002       2.56406172E-25
  -15.5000000      -2.43922719E-25
  -15.4899998      -1.25022068E-24
  -15.4799995      -2.51520115E-24
  -15.4700003      -3.18426643E-24
  -15.4600000      -1.78287456E-24
  -15.4499998       3.20964330E-24
  -15.4399996       1.19724102E-23
  -15.4300003       2.13964889E-23
  -15.4200001       2.36850943E-23
  -15.4099998       7.48402438E-24
  -15.3999996      -3.63409413E-23
  -15.3900003      -1.03776678E-22
  -15.3800001      -1.65044204E-22
  -15.3699999      -1.59279966E-22
  -15.3599997      -9.60938763E-24
  -15.3500004       3.30697812E-22
  -15.3400002       8.04304101E-22
  -15.3299999       1.17795093E-21
  -15.3199997       1.03323633E-21
  -15.3100004      -1.04772100E-22
  -15.3000002      -2.45545919E-21
  -15.2900000      -5.53699112E-21
  -15.2799997      -7.79060269E-21
  -15.2700005      -6.63063900E-21
  -15.2600002       6.88686526E-22
  -15.2500000       1.52189568E-20
  -15.2399998       3.38597498E-20
  -15.2299995       4.74819282E-20
  -15.2200003       4.15160043E-20
  -15.2100000       9.03268910E-22
  -15.1999998      -7.99872602E-20
  -15.1899996      -1.84736534E-19
  -15.1800003      -2.65655309E-19
  -15.1700001      -2.47155699E-19
  -15.1599998      -5.05197102E-20
  -15.1499996       3.57630504E-19
  -15.1400003       9.04291733E-19
  -15.1300001       1.36496268E-18
  -15.1199999       1.37631956E-18
  -15.1099997       5.46307765E-19
  -15.1000004      -1.32749016E-18
  -15.0900002      -3.97844841E-18
  -15.0799999      -6.45206048E-18
  -15.0699997      -7.12712051E-18
  -15.0600004      -4.15053299E-18
  -15.0500002       3.65402114E-18
  -15.0400000       1.55762427E-17
  -15.0299997       2.79840495E-17
  -15.0200005       3.41873119E-17
  -15.0100002       2.59369893E-17
  -15.0000000      -3.09999376E-18
  -14.9899998      -5.24148951E-17
  -14.9799995      -1.09977812E-16
  -14.9700003      -1.50543629E-16
  -14.9600000      -1.39933390E-16
  -14.9499998      -4.70827168E-17
  -14.9399996       1.37304702E-16
  -14.9300003       3.80931786E-16
  -14.9200001       5.98521739E-16
  -14.9099998       6.60316022E-16
  -14.8999996       4.28974463E-16
  -14.8900003      -1.75734031E-16
  -14.8800001      -1.09954120E-15
  -14.8699999      -2.09441072E-15
  -14.8599997      -2.71806711E-15
  -14.8500004      -2.42858110E-15
  -14.8400002      -7.85430147E-16
  -14.8299999       2.27650756E-15
  -14.8199997       6.18831599E-15
  -14.8100004       9.63580869E-15
  -14.8000002       1.07334999E-14
  -14.7900000       7.56557123E-15
  -14.7799997      -9.49554427E-16
  -14.7700005      -1.40878799E-14
  -14.7600002      -2.86259121E-14
  -14.7500000      -3.88897661E-14
  -14.7399998      -3.79264491E-14
  -14.7299995      -1.98748387E-14
  -14.7200003       1.68778938E-14
  -14.7100000       6.67275886E-14
  -14.6999998       1.15459034E-13
  -14.6899996       1.41829609E-13
  -14.6800003       1.22951765E-13
  -14.6700001       4.30802617E-14
  -14.6599998      -9.62224278E-14
  -14.6499996      -2.68119375E-13
  -14.6400003      -4.19088971E-13
  -14.6300001      -4.77760897E-13
  -14.6199999      -3.75194748E-13
  -14.6099997      -7.36869062E-14
  -14.6000004       4.03567967E-13
  -14.5900002       9.53404348E-13
  -14.5799999       1.39647961E-12
  -14.5699997       1.51253294E-12
  -14.5600004       1.10708426E-12
  -14.5500002       9.73107161E-14
  -14.5400000      -1.40770360E-12
  -14.5299997      -3.06528175E-12
  -14.5200005      -4.32779810E-12
  -14.5100002      -4.55973323E-12
  -14.5000000      -3.23535469E-12
  -14.4899998      -1.76207437E-13
  -14.4799995       4.24295538E-12
  -14.4700003       9.00706853E-12
  -14.4600000       1.25697100E-11
  -14.4499998       1.31936285E-11
  -14.4399996       9.48870583E-12
  -14.4300003       1.03064963E-12
  -14.4200001      -1.11267757E-11
  -14.4099998      -2.42625763E-11
  -14.3999996      -3.43030881E-11
  -14.3900003      -3.67102078E-11
  -14.3800001      -2.78412883E-11
  -14.3699999      -6.48435645E-12
  -14.3599997       2.48855346E-11
  -14.3500004       5.96395433E-11
  -14.3400002       8.77332790E-11
  -14.3299999       9.78028214E-11
  -14.3199997       8.03771910E-11
  -14.3100004       3.15291265E-11
  -14.3000002      -4.40644916E-11
  -14.2900000      -1.31807218E-10
  -14.2799997      -2.08564235E-10
  -14.2700005      -2.47129289E-10
  -14.2600002      -2.23320973E-10
  -14.2500000      -1.24305732E-10
  -14.2399998       4.40344324E-11
  -14.2299995       2.53202737E-10
  -14.2200003       4.53829890E-10
  -14.2100000       5.84144177E-10
  -14.1999998       5.84550797E-10
  -14.1899996       4.15726509E-10
  -14.1800003       7.58990579E-11
  -14.1700001      -3.87939819E-10
  -14.1599998      -8.79778750E-10
  -14.1499996      -1.26830713E-09
  -14.1400003      -1.41441792E-09
  -14.1300001      -1.20832622E-09
  -14.1199999      -6.08338047E-10
  -14.1099997       3.29185790E-10
  -14.1000004       1.43931567E-09
  -14.0900002       2.46538390E-09
  -14.0799999       3.10544301E-09
  -14.0699997       3.08301340E-09
  -14.0600004       2.22879670E-09
  -14.0500002       5.53757873E-10
  -14.0400000      -1.70840087E-09
  -14.0299997      -4.10833190E-09
  -14.0200005      -6.04774408E-09
  -14.0100002      -6.90204294E-09
  -14.0000000      -6.17930551E-09
  -13.9899998      -3.68168185E-09
  -13.9799995       3.73171993E-10
  -13.9700003       5.31199706E-09
  -13.9600000       1.00762563E-08
  -13.9499998       1.34091156E-08
  -13.9399996       1.41358063E-08
  -13.9300003       1.14843388E-08
  -13.9200001       5.37152056E-09
  -13.9099998      -3.42761775E-09
  -13.8999996      -1.32954021E-08
  -13.8900003      -2.20062848E-08
  -13.8800001      -2.71647274E-08
  -13.8699999      -2.67741296E-08
  -13.8599997      -1.98165893E-08
  -13.8500004      -6.69730271E-09
  -13.8400002       1.05852704E-08
  -13.8299999       2.86376753E-08
  -13.8199997       4.32549534E-08
  -13.8100004       5.03107245E-08
  -13.8000002       4.67832422E-08
  -13.7900000       3.16832001E-08
  -13.7799997       6.63468569E-09
  -13.7700005      -2.40922535E-08
  -13.7600002      -5.41930483E-08
  -13.7500000      -7.65328068E-08
  -13.7399998      -8.47357242E-08
  -13.7299995      -7.48249604E-08
  -13.7200003      -4.65170942E-08
  -13.7100000      -3.80463883E-09
  -13.6999998       4.54140014E-08
  -13.6899996       9.06948543E-08
  -13.6800003       1.21197360E-07
  -13.6700001       1.28199844E-07
  -13.6599998       1.07415865E-07
  -13.6499996       6.05249895E-08
  -13.6400003      -4.54756188E-09
  -13.6300001      -7.48158939E-08
  -13.6199999      -1.34763567E-07
  -13.6099997      -1.69756078E-07
  -13.6000004      -1.69604661E-07
  -13.5900002      -1.31431804E-07
  -13.5799999      -6.10660607E-08
  -13.5699997       2.75304473E-08
  -13.5600004       1.14869188E-07
  -13.5500002       1.80151957E-07
  -13.5400000       2.06229572E-07
  -13.5299997       1.84157770E-07
  -13.5200005       1.16180225E-07
  -13.5100002       1.62304108E-08
  -13.5000000      -9.24406649E-08
  -13.4899998      -1.82232640E-07
  -13.4799995      -2.27802843E-07
  -13.4700003      -2.12836355E-07
  -13.4600000      -1.35290833E-07
  -13.4499998      -9.61096447E-09
  -13.4399996       1.35012939E-07
  -13.4300003       2.60388077E-07
  -13.4200001       3.28112435E-07
  -13.4099998       3.09584323E-07
  -13.3999996       1.94860817E-07
  -13.3900003      -2.01453476E-09
  -13.3800001      -2.43016132E-07
  -13.3699999      -4.72180915E-07
  -13.3599997      -6.26996837E-07
  -13.3500004      -6.53035443E-07
  -13.3400002      -5.18667377E-07
  -13.3299999      -2.26287057E-07
  -13.3199997       1.83124143E-07
  -13.3100004       6.34043545E-07
  -13.3000002       1.02917818E-06
  -13.2900000       1.26901239E-06
  -13.2799997       1.27435555E-06
  -13.2700005       1.00699333E-06
  -13.2600002       4.83459985E-07
  -13.2500000      -2.21962068E-07
  -13.2399998      -9.86810051E-07
  -13.2299995      -1.66165478E-06
  -13.2200003      -2.09929703E-06
  -13.2100000      -2.18615082E-06
  -13.1999998      -1.86905766E-06
  -13.1899996      -1.17127729E-06
  -13.1800003      -1.93387720E-07
  -13.1700001       9.02091017E-07
  -13.1599998       1.91997788E-06
  -13.1499996       2.67001587E-06
  -13.1400003       3.00502893E-06
  -13.1300001       2.85143847E-06
  -13.1199999       2.22529093E-06
  -13.1099997       1.22994277E-06
  -13.1000004       3.55534446E-08
  -13.0900002      -1.15536227E-06
  -13.0799999      -2.14879242E-06
  -13.0699997      -2.79737105E-06
  -13.0600004      -3.02717604E-06
  -13.0500002      -2.84713315E-06
  -13.0400000      -2.33909464E-06
  -13.0299997      -1.63137429E-06
  -13.0200005      -8.62690115E-07
  -13.0100002      -1.46023439E-07
  -13.0000000       4.57866150E-07
  -12.9899998       9.49845969E-07
  -12.9799995       1.38169037E-06
  -12.9700003       1.82765655E-06
  -12.9600000       2.34597110E-06
  -12.9499998       2.94137203E-06
  -12.9399996       3.54064946E-06
  -12.9300003       3.99073815E-06
  -12.9200001       4.08367487E-06
  -12.9099998       3.60573836E-06
  -12.8999996       2.40099303E-06
  -12.8900003       4.34126662E-07
  -12.8800001      -2.16454487E-06
  -12.8699999      -5.08685025E-06
  -12.8599997      -7.87598856E-06
  -12.8500004      -9.99669010E-06
  -12.8400002      -1.09356615E-05
  -12.8299999      -1.03130697E-05
  -12.8199997      -7.98094788E-06
  -12.8100004      -4.08486676E-06
  -12.8000002       9.28674410E-07
  -12.7900000       6.36596587E-06
  -12.7799997       1.13945234E-05
  -12.7700005       1.51872346E-05
  -12.7600002       1.70740987E-05
  -12.7500000       1.66702666E-05
  -12.7399998       1.39529102E-05
  -12.7299995       9.26969005E-06
  -12.7200003       3.27613930E-06
  -12.7100000      -3.18511570E-06
  -12.6999998      -9.23738116E-06
  -12.6899996      -1.41220762E-05
  -12.6800003      -1.73174285E-05
  -12.6700001      -1.85992467E-05
  -12.6599998      -1.80335337E-05
  -12.6499996      -1.59074862E-05
  -12.6400003      -1.26206669E-05
  -12.6300001      -8.56809766E-06
  -12.6199999      -4.04877528E-06
  -12.6099997       7.73933436E-07
  -12.6000004       5.84806094E-06
  -12.5900002       1.11515510E-05
  -12.5799999       1.65780220E-05
  -12.5699997       2.18268542E-05
  -12.5600004       2.63380098E-05
  -12.5500002       2.93046251E-05
  -12.5400000       2.97789647E-05
  -12.5299997       2.68635249E-05
  -12.5200005       1.99541864E-05
  -12.5100002       8.98266808E-06
  -12.5000000      -5.40359497E-06
  -12.4899998      -2.17809029E-05
  -12.4799995      -3.80454330E-05
  -12.4700003      -5.16725377E-05
  -12.4600000      -6.01095853E-05
  -12.4499998      -6.12388976E-05
  -12.4399996      -5.38243985E-05
  -12.4300003      -3.78488185E-05
  -12.4200001      -1.46616512E-05
  -12.4099998       1.31104744E-05
  -12.3999996       4.18949603E-05
  -12.3900003       6.77011194E-05
  -12.3800001       8.67576018E-05
  -12.3699999       9.61450060E-05
  -12.3599997       9.43045889E-05
  -12.3500004       8.13234146E-05
  -12.3400002       5.89367955E-05
  -12.3299999       3.02429526E-05
  -12.3199997      -8.18879187E-07
  -12.3100004      -3.01287655E-05
  -12.3000002      -5.40593137E-05
  -12.2900000      -7.00345990E-05
  -12.2799997      -7.68720638E-05
  -12.2700005      -7.48503517E-05
  -12.2600002      -6.55032563E-05
  -12.2500000      -5.11962680E-05
  -12.2399998      -3.45854460E-05
  -12.2299995      -1.80793832E-05
  -12.2200003      -3.41911755E-06
  -12.2100000       8.54026075E-06
  -12.1999998       1.78115406E-05
  -12.1899996       2.50421635E-05
  -12.1800003       3.11370022E-05
  -12.1700001       3.68409710E-05
  -12.1599998       4.23930214E-05
  -12.1499996       4.73444015E-05
  -12.1400003       5.05928765E-05
  -12.1300001       5.06310753E-05
  -12.1199999       4.59531184E-05
  -12.1099997       3.55223274E-05
  -12.1000004       1.91838080E-05
  -12.0900002      -2.08604115E-06
  -12.0799999      -2.61671812E-05
  -12.0699997      -5.00426650E-05
  -12.0600004      -7.02676407E-05
  -12.0500002      -8.35722312E-05
  -12.0400000      -8.74767939E-05
  -12.0299997      -8.07918987E-05
  -12.0200005      -6.38969213E-05
  -12.0100002      -3.87361470E-05
  -12.0000000      -8.52975427E-06
  -11.9899998       2.27448327E-05
  -11.9799995       5.09997590E-05
  -11.9700003       7.26870712E-05
  -11.9600000       8.53315578E-05
  -11.9499998       8.78540013E-05
  -11.9399996       8.06390235E-05
  -11.9300003       6.53553871E-05
  -11.9200001       4.45838596E-05
  -11.9099998       2.13403509E-05
  -11.8999996      -1.40757754E-06
  -11.8900003      -2.11438455E-05
  -11.8800001      -3.60685081E-05
  -11.8699999      -4.52031672E-05
  -11.8599997      -4.83531512E-05
  -11.8500004      -4.59693583E-05
  -11.8400002      -3.89645065E-05
  -11.8299999      -2.85342339E-05
  -11.8199997      -1.60163254E-05
  -11.8100004      -2.79776373E-06
  -11.8000002       9.74286650E-06
  -11.7900000       2.02839656E-05
  -11.7799997       2.76286901E-05
  -11.7700005       3.08093477E-05
  -11.7600002       2.92264485E-05
  -11.7500000       2.27985056E-05
  -11.7399998       1.20816858E-05
  -11.7299995      -1.68764041E-06
  -11.7200003      -1.66659502E-05
  -11.7100000      -3.06076690E-05
  -11.6999998      -4.11875590E-05
  -11.6899996      -4.63929537E-05
  -11.6800003      -4.49129184E-05
  -11.6700001      -3.64407097E-05
  -11.6599998      -2.18145542E-05
  -11.6499996      -2.94941174E-06
  -11.6400003       1.74455563E-05
  -11.6300001       3.63220279E-05
  -11.6199999       5.08366938E-05
  -11.6099997       5.88757830E-05
  -11.6000004       5.94488993E-05
  -11.5900002       5.28642922E-05
  -11.5799999       4.06422078E-05
  -11.5699997       2.51793754E-05
  -11.5600004       9.23381685E-06
  -11.5500002      -4.65873200E-06
  -11.5400000      -1.47075943E-05
  -11.5299997      -2.02111933E-05
  -11.5200005      -2.16434564E-05
  -11.5100002      -2.04618773E-05
  -11.5000000      -1.86807702E-05
  -11.4899998      -1.83087704E-05
  -11.4799995      -2.07829580E-05
  -11.4700003      -2.65352246E-05
  -11.4600000      -3.47982095E-05
  -11.4499998      -4.37045019E-05
  -11.4399996      -5.06659198E-05
  -11.4300003      -5.29546342E-05
  -11.4200001      -4.83597214E-05
  -11.4099998      -3.57721474E-05
  -11.3999996      -1.55633825E-05
  -11.3900003       1.03351413E-05
  -11.3800001       3.86813335E-05
  -11.3699999       6.54598844E-05
  -11.3599997       8.66047485E-05
  -11.3500004       9.87623935E-05
  -11.3400002       9.99404510E-05
  -11.3299999       8.99076840E-05
  -11.3199997       7.02607067E-05
  -11.3100004       4.41403899E-05
  -11.3000002       1.56520091E-05
  -11.2900000      -1.08959302E-05
  -11.2799997      -3.17822087E-05
  -11.2700005      -4.45348523E-05
  -11.2600002      -4.83336771E-05
  -11.2500000      -4.40766780E-05
  -11.2399998      -3.41040868E-05
  -11.2299995      -2.16451735E-05
  -11.2200003      -1.01100313E-05
  -11.2100000      -2.37873837E-06
  -11.1999998      -2.36857957E-07
  -11.1899996      -4.07005564E-06
  -11.1800003      -1.28699949E-05
  -11.1700001      -2.45328793E-05
  -11.1599998      -3.63676554E-05
  -11.1499996      -4.56880698E-05
  -11.1400003      -5.03512820E-05
  -11.1300001      -4.91276624E-05
  -11.1199999      -4.18350974E-05
  -11.1099997      -2.92334244E-05
  -11.1000004      -1.27342582E-05
  -11.0900002       5.97727103E-06
  -11.0799999       2.52993996E-05
  -11.0699997       4.39570722E-05
  -11.0600004       6.10814241E-05
  -11.0500002       7.61281772E-05
  -11.0400000       8.86868947E-05
  -11.0299997       9.82640195E-05
  -11.0200005       1.04127830E-04
  -11.0100002       1.05281324E-04
  -11.0000000       1.00588033E-04
  -10.9899998       8.90275987E-05
  -10.9799995       7.00168821E-05
  -10.9700003       4.37104245E-05
  -10.9600000       1.11961836E-05
  -10.9499998      -2.54727493E-05
  -10.9399996      -6.34296157E-05
  -10.9300003      -9.93049471E-05
  -10.9200001      -1.29638342E-04
  -10.9099998      -1.51314540E-04
  -10.8999996      -1.61948687E-04
  -10.8900003      -1.60163807E-04
  -10.8800001      -1.45731756E-04
  -10.8699999      -1.19576835E-04
  -10.8599997      -8.36635736E-05
  -10.8500004      -4.08000851E-05
  -10.8400002       5.61126308E-06
  -10.8299999       5.18519519E-05
  -10.8199997       9.41794497E-05
  -10.8100004       1.29124019E-04
  -10.8000002       1.53780551E-04
  -10.7900000       1.66079248E-04
  -10.7799997       1.65010439E-04
  -10.7700005       1.50771695E-04
  -10.7600002       1.24805898E-04
  -10.7500000       8.97072896E-05
  -10.7399998       4.89899030E-05
  -10.7299995       6.73441582E-06
  -10.7200003      -3.28489295E-05
  -10.7100000      -6.58872959E-05
  -10.6999998      -8.92811368E-05
  -10.6899996      -1.01051410E-04
  -10.6800003      -1.00553116E-04
  -10.6700001      -8.85289410E-05
  -10.6599998      -6.69980363E-05
  -10.6499996      -3.89949419E-05
  -10.6400003      -8.19024899E-06
  -10.6300001       2.15632408E-05
  -10.6199999       4.67073733E-05
  -10.6099997       6.44236570E-05
  -10.6000004       7.29922685E-05
  -10.5900002       7.20167154E-05
  -10.5799999       6.24775712E-05
  -10.5699997       4.65965386E-05
  -10.5600004       2.75161947E-05
  -10.5500002       8.82837412E-06
  -10.5400000      -5.98900533E-06
  -10.5299997      -1.41453220E-05
  -10.5200005      -1.40291404E-05
  -10.5100002      -5.53115888E-06
  -10.5000000       9.86879149E-06
  -10.4899998       2.92829936E-05
  -10.4799995       4.88538353E-05
  -10.4700003       6.43912281E-05
  -10.4600000       7.21126198E-05
  -10.4499998       6.93636321E-05
  -10.4399996       5.51910707E-05
  -10.4300003       3.06567345E-05
  -10.4200001      -1.18296373E-06
  -10.4099998      -3.56535420E-05
  -10.3999996      -6.71559392E-05
  -10.3900003      -9.00789892E-05
  -10.3800001      -9.97857205E-05
  -10.3699999      -9.35036296E-05
  -10.3599997      -7.09526939E-05
  -10.3500004      -3.45796761E-05
  -10.3400002       1.06704792E-05
  -10.3299999       5.80342785E-05
  -10.3199997       9.99631593E-05
  -10.3100004       1.29341017E-04
  -10.3000002       1.40671924E-04
  -10.2900000       1.31020817E-04
  -10.2799997       1.00530975E-04
  -10.2700005       5.24214956E-05
  -10.2600002      -7.53016002E-06
  -10.2500000      -7.19130039E-05
  -10.2399998      -1.32828238E-04
  -10.2299995      -1.83032462E-04
  -10.2200003      -2.16870438E-04
  -10.2100000      -2.30851176E-04
  -10.1999998      -2.23814917E-04
  -10.1899996      -1.96736306E-04
  -10.1800003      -1.52286331E-04
  -10.1700001      -9.43094419E-05
  -10.1599998      -2.73566220E-05
  -10.1499996       4.36441442E-05
  -10.1400003       1.13578462E-04
  -10.1300001       1.77268710E-04
  -10.1199999       2.29640413E-04
  -10.1099997       2.66030896E-04
  -10.1000004       2.82678957E-04
  -10.0900002       2.77344428E-04
  -10.0799999       2.49916367E-04
  -10.0699997       2.02815732E-04
  -10.0600004       1.41005599E-04
  -10.0500002       7.14964117E-05
  -10.0400000       2.36216442E-06
  -10.0299997      -5.85726775E-05
  -10.0200005      -1.05098748E-04
  -10.0100002      -1.33714158E-04
  -10.0000000      -1.44159945E-04
  -9.98999977      -1.39242504E-04
  -9.97999954      -1.23969076E-04
  -9.97000027      -1.04208229E-04
  -9.96000004      -8.52199446E-05
  -9.94999981      -7.04396516E-05
  -9.93999958      -6.08303671E-05
  -9.93000031      -5.49554279E-05
  -9.92000008      -4.97191759E-05
  -9.90999985      -4.15337745E-05
  -9.89999962      -2.75560687E-05
  -9.89000034      -6.63265246E-06
  -9.88000011       2.03052641E-05
  -9.86999989       5.04772288E-05
  -9.85999966       8.00037087E-05
  -9.85000038       1.04905906E-04
  -9.84000015       1.22033045E-04
  -9.82999992       1.29646171E-04
  -9.81999969       1.27525476E-04
  -9.81000042       1.16642856E-04
  -9.80000019       9.85899314E-05
  -9.78999996       7.50222825E-05
  -9.77999973       4.73491673E-05
  -9.77000046       1.67778344E-05
  -9.76000023      -1.53411929E-05
  -9.75000000      -4.70639752E-05
  -9.73999977      -7.55603760E-05
  -9.72999954      -9.72011912E-05
  -9.72000027      -1.08111912E-04
  -9.71000004      -1.05094579E-04
  -9.69999981      -8.66523915E-05
  -9.68999958      -5.37679371E-05
  -9.68000031      -1.01238711E-05
  -9.67000008       3.83897204E-05
  -9.65999985       8.48119016E-05
  -9.64999962       1.22601894E-04
  -9.64000034       1.47058483E-04
  -9.63000011       1.56242008E-04
  -9.61999989       1.51116546E-04
  -9.60999966       1.34875838E-04
  -9.60000038       1.11682508E-04
  -9.59000015       8.52476005E-05
  -9.57999992       5.77341198E-05
  -9.56999969       2.93610010E-05
  -9.56000042      -1.15586010E-06
  -9.55000019      -3.54829426E-05
  -9.53999996      -7.42736302E-05
  -9.52999973      -1.16017713E-04
  -9.52000046      -1.56593858E-04
  -9.51000023      -1.89761340E-04
  -9.50000000      -2.08516110E-04
  -9.48999977      -2.06939527E-04
  -9.47999954      -1.81986135E-04
  -9.47000027      -1.34651666E-04
  -9.46000004      -7.01386089E-05
  -9.44999981       3.06278525E-06
  -9.43999958       7.49340688E-05
  -9.43000031       1.36038565E-04
  -9.42000008       1.79403462E-04
  -9.40999985       2.01689152E-04
  -9.39999962       2.03398507E-04
  -9.39000034       1.88176666E-04
  -9.38000011       1.61509306E-04
  -9.36999989       1.29264052E-04
  -9.35999966       9.64985811E-05
  -9.35000038       6.68040811E-05
  -9.34000015       4.22291378E-05
  -9.32999992       2.36240157E-05
  -9.31999969       1.11314985E-05
  -9.31000042       4.56014141E-06
  -9.30000019       3.49232414E-06
  -9.28999996       7.14449016E-06
  -9.27999973       1.41363353E-05
  -9.27000046       2.23802217E-05
  -9.26000023       2.92500899E-05
  -9.25000000       3.20559666E-05
  -9.23999977       2.86959748E-05
  -9.22999954       1.82526364E-05
  -9.22000027       1.29472289E-06
  -9.21000004      -2.02526498E-05
  -9.19999981      -4.36369046E-05
  -9.18999958      -6.60057703E-05
  -9.18000031      -8.50433353E-05
  -9.17000008      -9.92560163E-05
  -9.15999985      -1.07800748E-04
  -9.14999962      -1.09960078E-04
  -9.14000034      -1.04555707E-04
  -9.13000011      -8.96661877E-05
  -9.11999989      -6.29302740E-05
  -9.10999966      -2.24901269E-05
  -9.10000038       3.16652367E-05
  -9.09000015       9.64401552E-05
  -9.07999992       1.65027988E-04
  -9.06999969       2.27405646E-04
  -9.06000042       2.72045203E-04
  -9.05000019       2.88537587E-04
  -9.03999996       2.70447374E-04
  -9.02999973       2.17534456E-04
  -9.02000046       1.36574745E-04
  -9.01000023       4.03810263E-05
  -9.00000000      -5.48376374E-05
  -8.98999977      -1.33109686E-04
  -8.97999954      -1.82317337E-04
  -8.97000027      -1.96759371E-04
  -8.96000004      -1.77937414E-04
  -8.94999981      -1.33399459E-04
  -8.93999958      -7.40914256E-05
  -8.93000031      -1.11331556E-05
  -8.92000008       4.69136539E-05
  -8.90999985       9.54372736E-05
  -8.89999962       1.33494468E-04
  -8.89000034       1.62150929E-04
  -8.88000011       1.82253207E-04
  -8.86999989       1.92652005E-04
  -8.85999966       1.89718485E-04
  -8.85000038       1.68485174E-04
  -8.84000015       1.25082865E-04
  -8.82999992       5.95764359E-05
  -8.81999969      -2.19571666E-05
  -8.81000042      -1.07101696E-04
  -8.80000019      -1.78970193E-04
  -8.78999996      -2.19960231E-04
  -8.77999973      -2.16387183E-04
  -8.77000046      -1.62594224E-04
  -8.76000023      -6.32048177E-05
  -8.75000000       6.72950482E-05
  -8.73999977       2.07642355E-04
  -8.72999954       3.34710407E-04
  -8.72000027       4.28831234E-04
  -8.71000004       4.77986614E-04
  -8.69999981       4.79705981E-04
  -8.68999958       4.40260104E-04
  -8.68000031       3.71606060E-04
  -8.67000008       2.87230447E-04
  -8.65999985       1.98319438E-04
  -8.64999962       1.11473491E-04
  -8.64000034       2.85643273E-05
  -8.63000011      -5.14691565E-05
  -8.61999989      -1.29784617E-04
  -8.60999966      -2.05004020E-04
  -8.60000038      -2.71909317E-04
  -8.59000015      -3.22056003E-04
  -8.57999992      -3.46146175E-04
  -8.56999969      -3.37315374E-04
  -8.56000042      -2.94108642E-04
  -8.55000019      -2.21991446E-04
  -8.53999996      -1.32731046E-04
  -8.52999973      -4.17216979E-05
  -8.52000046       3.59523001E-05
  -8.51000023       8.94723125E-05
  -8.50000000       1.14995004E-04
  -8.48999977       1.16262039E-04
  -8.47999954       1.02952959E-04
  -8.47000027       8.73614335E-05
  -8.46000004       8.05001109E-05
  -8.44999981       8.88777868E-05
  -8.43999958       1.12911548E-04
  -8.43000031       1.47348648E-04
  -8.42000008       1.83392622E-04
  -8.40999985       2.11695457E-04
  -8.39999962       2.25166455E-04
  -8.39000034       2.20713599E-04
  -8.38000011       1.99490649E-04
  -8.36999989       1.65789999E-04
  -8.35999966       1.25185354E-04
  -8.35000038       8.27252370E-05
  -8.34000015       4.18556701E-05
  -8.32999992       4.37371091E-06
  -8.31999969      -2.87547755E-05
  -8.31000042      -5.62485257E-05
  -8.30000019      -7.56973095E-05
  -8.28999996      -8.35811516E-05
  -8.27999973      -7.62410273E-05
  -8.27000046      -5.14762178E-05
  -8.26000023      -1.01194501E-05
  -8.25000000       4.31286244E-05
  -8.23999977       1.00100006E-04
  -8.22999954       1.50849737E-04
  -8.22000027       1.86196761E-04
  -8.21000004       2.00315684E-04
  -8.19999981       1.92496518E-04
  -8.18999958       1.67425213E-04
  -8.18000031       1.33818568E-04
  -8.17000008       1.01805992E-04
  -8.15999985       7.98885303E-05
  -8.14999962       7.24630518E-05
  -8.14000034       7.87171957E-05
  -8.13000011       9.32372641E-05
  -8.11999989       1.08088745E-04
  -8.10999966       1.15630428E-04
  -8.10000038       1.11085283E-04
  -8.09000015       9.39949896E-05
  -8.07999992       6.80936791E-05
  -8.06999969       3.97033145E-05
  -8.06000042       1.52767097E-05
  -8.05000019      -9.92340233E-07
  -8.03999996      -8.60991349E-06
  -8.02999973      -1.07474461E-05
  -8.02000046      -1.27504327E-05
  -8.01000023      -1.97465106E-05
  -8.00000000      -3.42473504E-05
  -7.98999977      -5.46549272E-05
  -7.98000002      -7.52688065E-05
  -7.96999979      -8.78569554E-05
  -7.96000004      -8.42869558E-05
  -7.94999981      -5.93187215E-05
  -7.94000006      -1.25770966E-05
  -7.92999983       5.10127320E-05
  -7.92000008       1.22520840E-04
  -7.90999985       1.91630825E-04
  -7.90000010       2.49700301E-04
  -7.88999987       2.92210694E-04
  -7.88000011       3.19744431E-04
  -7.86999989       3.37124540E-04
  -7.86000013       3.50986491E-04
  -7.84999990       3.66611523E-04
  -7.84000015       3.85139429E-04
  -7.82999992       4.02191625E-04
  -7.82000017       4.08495165E-04
  -7.80999994       3.92442569E-04
  -7.80000019       3.43867432E-04
  -7.78999996       2.57877982E-04
  -7.78000021       1.37516050E-04
  -7.76999998      -5.66936205E-06
  -7.76000023      -1.53429603E-04
  -7.75000000      -2.84582784E-04
  -7.73999977      -3.79723555E-04
  -7.73000002      -4.25579667E-04
  -7.71999979      -4.17829957E-04
  -7.71000004      -3.61663959E-04
  -7.69999981      -2.70027202E-04
  -7.69000006      -1.60152544E-04
  -7.67999983      -4.94222622E-05
  -7.67000008       4.82863288E-05
  -7.65999985       1.24861210E-04
  -7.65000010       1.78404880E-04
  -7.63999987       2.12030427E-04
  -7.63000011       2.31630955E-04
  -7.61999989       2.43468865E-04
  -7.61000013       2.52358586E-04
  -7.59999990       2.60897039E-04
  -7.59000015       2.69763201E-04
  -7.57999992       2.78720807E-04
  -7.57000017       2.87743518E-04
  -7.55999994       2.97706225E-04
  -7.55000019       3.10318545E-04
  -7.53999996       3.27319576E-04
  -7.53000021       3.49272916E-04
  -7.51999998       3.74481635E-04
  -7.51000023       3.98520671E-04
  -7.50000000       4.14674985E-04
  -7.48999977       4.15254850E-04
  -7.48000002       3.93452006E-04
  -7.46999979       3.45206092E-04
  -7.46000004       2.70536984E-04
  -7.44999981       1.73959357E-04
  -7.44000006       6.38719430E-05