  -16.0000000       0.00000000    
  -15.9899998       0.00000000    
  -15.9799995       0.00000000    
  -15.9700003       0.00000000    
  -15.9600000       0.00000000    
  -15.9499998       0.00000000    
  -15.9399996       0.00000000    
  -15.9300003       0.00000000    
  -15.9200001       0.00000000    
  -15.9099998       0.00000000    
  -15.8999996       0.00000000    
  -15.8900003      -2.43496751E-37
  -15.8800001      -4.36236759E-36
  -15.8699999      -4.42983037E-35
  -15.8599997      -3.39023224E-34
  -15.8500004      -2.09764689E-33
  -15.8400002      -1.05339186E-32
  -15.8299999      -4.23870656E-32
  -15.8199997      -1.32984757E-31
  -15.8100004      -3.00075308E-31
  -15.8000002      -3.22351067E-31
  -15.7900000       9.42678573E-31
  -15.7799997       6.89050865E-30
  -15.7700005       2.43857834E-29
  -15.7600002       6.14993728E-29
  -15.7500000       1.14718342E-28
  -15.7399998       1.38614354E-28
  -15.7299995       6.00561757E-30
  -15.7200003      -4.90306182E-28
  -15.7100000      -1.47822846E-27
  -15.6999998      -2.54989369E-27
  -15.6899996      -2.03542022E-27
  -15.6800003       3.42107982E-27
  -15.6700001       1.74822177E-26
  -15.6599998       3.87009274E-26
  -15.6499996       4.98453781E-26
  -15.6400003       5.77979858E-27
  -15.6300001      -1.65915161E-25
  -15.6199999      -5.24949363E-25
  -15.6099997      -1.00987715E-24
  -15.6000004      -1.26143651E-24
  -15.5900002      -4.61212261E-25
  -15.5799999       2.59586514E-24
  -15.5699997       8.85427025E-24
  -15.5600004       1.74795689E-23
  -15.5500002       2.36046226E-23
  -15.5400000       1.64532167E-23
  -15.5299997      -1.96760653E-23
  -15.5200005      -9.80781486E-23
  -15.5100002      -2.13313618E-22
  -15.5000000      -3.17723941E-22
  -15.4899998      -3.01682069E-22
  -15.4799995      -1.65970640E-25
  -15.4700003       7.44101165E-22
  -15.4600000       1.93870658E-21
  -15.4499998       3.23507228E-21
  -15.4399996       3.74174746E-21
  -15.4300003       2.02942826E-21
  -15.4200001      -3.44302984E-21
  -15.4099998      -1.33040547E-20
  -15.3999996      -2.57125361E-20
  -15.3900003      -3.48012526E-20
  -15.3800001      -3.02416392E-20
  -15.3699999       5.30533874E-22
  -15.3599997       6.61119064E-20
  -15.3500004       1.60996657E-19
  -15.3400002       2.54267695E-19
  -15.3299999       2.83431989E-19
  -15.3199997       1.62586770E-19
  -15.3100004      -1.86252394E-19
  -15.3000002      -7.76189064E-19
  -15.2900000      -1.48420480E-18
  -15.2799997      -1.99636587E-18
  -15.2700005      -1.81805158E-18
  -15.2600002      -4.01872207E-19
  -15.2500000       2.57801033E-18
  -15.2399998       6.83793734E-18
  -15.2299995       1.11101308E-17
  -15.2200003       1.30072927E-17
  -15.2100000       9.40315180E-18
  -15.1999998      -2.45880595E-18
  -15.1899996      -2.31502558E-17
  -15.1800003      -4.89635005E-17
  -15.1700001      -7.04486236E-17
  -15.1599998      -7.28540185E-17
  -15.1499996      -3.96937837E-17
  -15.1400003       4.00636592E-17
  -15.1300001       1.62208676E-16
  -15.1199999       2.98004693E-16
  -15.1099997       3.90462919E-16
  -15.1000004       3.62002691E-16
  -15.0900002       1.37700346E-16
  -15.0799999      -3.16476285E-16
  -15.0699997      -9.48769333E-16
  -15.0600004      -1.58714958E-15
  -15.0500002      -1.93857720E-15
  -15.0400000      -1.64445613E-15
  -15.0299997      -4.02733488E-16
  -15.0200005       1.85726754E-15
  -15.0100002       4.79410103E-15
  -15.0000000       7.54574049E-15
  -14.9899998       8.78628123E-15
  -14.9799995       7.02221442E-15
  -14.9700003       1.14037073E-15
  -14.9600000      -8.88379929E-15
  -14.9499998      -2.13308510E-14
  -14.9399996      -3.24456377E-14
  -14.9300003      -3.68377000E-14
  -14.9200001      -2.87896199E-14
  -14.9099998      -4.42548118E-15
  -14.8999996       3.56912443E-14
  -14.8900003       8.43642105E-14
  -14.8800001       1.27076328E-13
  -14.8699999       1.43862664E-13
  -14.8599997       1.14304386E-13
  -14.8500004       2.52427118E-14
  -14.8400002      -1.20455580E-13
  -14.8299999      -2.96964466E-13
  -14.8199997      -4.53941599E-13
  -14.8100004      -5.23489509E-13
  -14.8000002      -4.36987333E-13
  -14.7900000      -1.50040259E-13
  -14.7799997       3.30023958E-13
  -14.7700005       9.23077370E-13
  -14.7600002       1.47203007E-12
  -14.7500000       1.76440600E-12
  -14.7399998       1.58289451E-12
  -14.7299995       7.79095809E-13
  -14.7200003      -6.45896531E-13
  -14.7100000      -2.47937803E-12
  -14.6999998      -4.28218875E-12
  -14.6899996      -5.44476573E-12
  -14.6800003      -5.32242176E-12
  -14.6700001      -3.43440185E-12
  -14.6599998       3.15817820E-13
  -14.6499996       5.46392922E-12
  -14.6400003       1.09253049E-11
  -14.6300001       1.51131625E-11
  -14.6199999       1.62578648E-11
  -14.6099997       1.28940287E-11
  -14.6000004       4.41781767E-12
  -14.5900002      -8.43655874E-12
  -14.5799999      -2.33740943E-11
  -14.5699997      -3.67173202E-11
  -14.5600004      -4.40542602E-11
  -14.5500002      -4.13019931E-11
  -14.5400000      -2.59914625E-11
  -14.5299997       1.54060261E-12
  -14.5200005       3.74248792E-11
  -14.5100002       7.43326581E-11
  -14.5000000       1.02539442E-10
  -14.4899998       1.11934441E-10
  -14.4799995       9.46541109E-11
  -14.4700003       4.77682130E-11
  -14.4600000      -2.46970517E-11
  -14.4499998      -1.11091226E-10
  -14.4399996      -1.93301514E-10
  -14.4300003      -2.49830240E-10
  -14.4200001      -2.60390237E-10
  -14.4099998      -2.11155107E-10
  -14.3999996      -9.94821309E-11
  -14.3900003       6.31417627E-11
  -14.3800001       2.50943960E-10
  -14.3699999       4.26993302E-10
  -14.3599997       5.49398638E-10
  -14.3500004       5.79630788E-10
  -14.3400002       4.91431396E-10
  -14.3299999       2.78476270E-10
  -14.3199997      -4.09485466E-11
  -14.3100004      -4.23538482E-10
  -14.3000002      -8.05360889E-10
  -14.2900000      -1.11070930E-09
  -14.2799997      -1.26427346E-09
  -14.2700005      -1.20487664E-09
  -14.2600002      -8.98719765E-10
  -14.2500000      -3.50063395E-10
  -14.2399998       3.92496424E-10
  -14.2299995       1.23562127E-09
  -14.2200003       2.04768247E-09
  -14.2100000       2.67250777E-09
  -14.1999998       2.95014724E-09
  -14.1899996       2.74344103E-09
  -14.1800003       1.96792271E-09
  -14.1700001       6.21117879E-10
  -14.1599998      -1.19417620E-09
  -14.1499996      -3.25906391E-09
  -14.1400003      -5.24662758E-09
  -14.1300001      -6.75382372E-09
  -14.1199999      -7.35870653E-09
  -14.1099997      -6.69931577E-09
  -14.1000004      -4.56429250E-09
  -14.0900002      -9.79191839E-10
  -14.0799999       3.73185305E-09
  -14.0699997       8.93017571E-09
  -14.0600004       1.37092924E-08
  -14.0500002       1.70117342E-08
  -14.0400000       1.78094659E-08
  -14.0299997       1.53250177E-08
  -14.0200005       9.25519306E-09
  -14.0100002      -5.10698324E-11
  -14.0000000      -1.15105312E-08
  -13.9899998      -2.33594442E-08
  -13.9799995      -3.33624364E-08
  -13.9700003      -3.91655384E-08
  -13.9600000      -3.87484640E-08
  -13.9499998      -3.09005230E-08
  -13.9399996      -1.56244742E-08
  -13.9300003       5.62973090E-09
  -13.9200001       2.99810807E-08
  -13.9099998       5.34242091E-08
  -13.8999996       7.14131545E-08
  -13.8900003       7.96488990E-08
  -13.8800001       7.49440687E-08
  -13.8699999       5.60038842E-08
  -13.8599997       2.39572220E-08
  -13.8500004      -1.75004704E-08
  -13.8400002      -6.24304803E-08
  -13.8299999      -1.03436008E-07
  -13.8199997      -1.32814421E-07
  -13.8100004      -1.43900820E-07
  -13.8000002      -1.32373472E-07
  -13.7900000      -9.72776490E-08
  -13.7799997      -4.15558539E-08
  -13.7700005       2.80538615E-08
  -13.7600002       1.01784813E-07
  -13.7500000       1.68190653E-07
  -13.7399998       2.15885208E-07
  -13.7299995       2.35402993E-07
  -13.7200003       2.20876103E-07
  -13.7100000       1.71240359E-07
  -13.6999998       9.07503122E-08
  -13.6899996      -1.13114869E-08
  -13.6800003      -1.21719296E-07
  -13.6700001      -2.25044573E-07
  -13.6599998      -3.05808044E-07
  -13.6499996      -3.50730943E-07
  -13.6400003      -3.50754192E-07
  -13.6300001      -3.02525422E-07
  -13.6199999      -2.09129681E-07
  -13.6099997      -7.99494586E-08
  -13.6000004       7.03362986E-08
  -13.5900002       2.23484093E-07
  -13.5799999       3.59920165E-07
  -13.5699997       4.61185124E-07
  -13.5600004       5.12278405E-07
  -13.5500002       5.03612796E-07
  -13.5400000       4.32351158E-07
  -13.5299997       3.02977952E-07
  -13.5200005       1.27052829E-07
  -13.5100002      -7.78197062E-08
  -13.5000000      -2.89695805E-07
  -13.4899998      -4.84508405E-07
  -13.4799995      -6.38593406E-07
  -13.4700003      -7.31300247E-07
  -13.4600000      -7.47447586E-07
  -13.4499998      -6.79378445E-07
  -13.4399996      -5.28371686E-07
  -13.4300003      -3.05191946E-07
  -13.4200001      -2.96121208E-08
  -13.4099998       2.71163742E-07
  -13.3999996       5.65118910E-07
  -13.3900003       8.18867306E-07
  -13.3800001       1.00154421E-06
  -13.3699999       1.08864322E-06
  -13.3599997       1.06524044E-06
  -13.3500004       9.28094778E-07
  -13.3400002       6.86263320E-07
  -13.3299999       3.60113177E-07
  -13.3199997      -2.11017621E-08
  -13.3100004      -4.22662367E-07
  -13.3000002      -8.08189554E-07
  -13.2900000      -1.14317459E-06
  -13.2799997      -1.39769907E-06
  -13.2700005      -1.54805991E-06
  -13.2600002      -1.57735417E-06
  -13.2500000      -1.47538685E-06
  -13.2399998      -1.23846758E-06
  -13.2299995      -8.69675432E-07
  -13.2200003      -3.79967361E-07
  -13.2100000       2.09871402E-07
  -13.1999998       8.66902610E-07
  -13.1899996       1.54422844E-06
  -13.1800003       2.18082505E-06
  -13.1700001       2.70408805E-06
  -13.1599998       3.03576826E-06
  -13.1499996       3.10130144E-06
  -13.1400003       2.84167731E-06
  -13.1300001       2.22617678E-06
  -13.1199999       1.26368479E-06
  -13.1099997       1.00848236E-08
  -13.1000004      -1.43046145E-06
  -13.0900002      -2.91175365E-06
  -13.0799999      -4.25951202E-06
  -13.0699997      -5.29186309E-06
  -13.0600004      -5.84383724E-06
  -13.0500002      -5.79236576E-06
  -13.0400000      -5.07781897E-06
  -13.0299997      -3.71835358E-06
  -13.0200005      -1.81423968E-06
  -13.0100002       4.59197906E-07
  -13.0000000       2.86963359E-06
  -12.9899998       5.15458669E-06
  -12.9799995       7.05336743E-06
  -12.9700003       8.33951981E-06
  -12.9600000       8.84900874E-06
  -12.9499998       8.50003471E-06
  -12.9399996       7.30176589E-06
  -12.9300003       5.35110667E-06
  -12.9200001       2.81864982E-06
  -12.9099998      -7.32923979E-08
  -12.8999996      -3.07653522E-06
  -12.8900003      -5.94232733E-06
  -12.8800001      -8.44231545E-06
  -12.8699999      -1.03827488E-05
  -12.8599997      -1.16113870E-05
  -12.8500004      -1.20184923E-05
  -12.8400002      -1.15348148E-05
  -12.8299999      -1.01301448E-05
  -12.8199997      -7.81555445E-06
  -12.8100004      -4.65098583E-06
  -12.8000002      -7.57585269E-07
  -12.7900000       3.66836161E-06
  -12.7799997       8.34505045E-06
  -12.7700005       1.29045075E-05
  -12.7600002       1.69072682E-05
  -12.7500000       1.98757116E-05
  -12.7399998       2.13457351E-05
  -12.7299995       2.09319751E-05
  -12.7200003       1.83975935E-05
  -12.7100000       1.37165343E-05
  -12.6999998       7.11532402E-06
  -12.6899996      -9.16870988E-07
  -12.6800003      -9.65689469E-06
  -12.6700001      -1.82155891E-05
  -12.6599998      -2.56385865E-05
  -12.6499996      -3.10267060E-05
  -12.6400003      -3.36580197E-05
  -12.6300001      -3.30921175E-05
  -12.6199999      -2.92389686E-05
  -12.6099997      -2.23803272E-05
  -12.6000004      -1.31394263E-05
  -12.5900002      -2.40361214E-06
  -12.5799999       8.78739229E-06
  -12.5699997       1.93691540E-05
  -12.5600004       2.83757599E-05
  -12.5500002       3.50400296E-05
  -12.5400000       3.88576009E-05
  -12.5299997       3.96093965E-05
  -12.5200005       3.73452458E-05
  -12.5100002       3.23384447E-05
  -12.5000000       2.50251160E-05
  -12.4899998       1.59431202E-05
  -12.4799995       5.68234736E-06
  -12.4700003      -5.14723115E-06
  -12.4600000      -1.59297597E-05
  -12.4499998      -2.60459710E-05
  -12.4399996      -3.48736648E-05
  -12.4300003      -4.17966403E-05
  -12.4200001      -4.62298631E-05
  -12.4099998      -4.76637033E-05
  -12.3999996      -4.57237147E-05
  -12.3900003      -4.02366895E-05
  -12.3800001      -3.12899283E-05
  -12.3699999      -1.92699736E-05
  -12.3599997      -4.86949330E-06
  -12.3500004       1.09435896E-05
  -12.3400002       2.69939992E-05
  -12.3299999       4.19966091E-05
  -12.3199997       5.46709671E-05
  -12.3100004       6.38579149E-05
  -12.3000002       6.86240164E-05
  -12.2900000       6.83427934E-05
  -12.2799997       6.27466507E-05
  -12.2700005       5.19487439E-05
  -12.2600002       3.64381340E-05
  -12.2500000       1.70537423E-05
  -12.2399998      -5.05736443E-06
  -12.2299995      -2.84940161E-05
  -12.2200003      -5.16667133E-05
  -12.2100000      -7.28772429E-05
  -12.1999998      -9.04151239E-05
  -12.1899996      -1.02672624E-04
  -12.1800003      -1.08276115E-04
  -12.1700001      -1.06226333E-04
  -12.1599998      -9.60335892E-05
  -12.1499996      -7.78298490E-05
  -12.1400003      -5.24369680E-05
  -12.1300001      -2.13728708E-05
  -12.1199999       1.32170408E-05
  -12.1099997       4.87058423E-05
  -12.1000004       8.21999565E-05
  -12.0900002       1.10802641E-04
  -12.0799999       1.31896741E-04
  -12.0699997       1.43412719E-04
  -12.0600004       1.44047823E-04
  -12.0500002       1.33408961E-04
  -12.0400000       1.12061178E-04
  -12.0299997       8.14776140E-05
  -12.0200005       4.38996613E-05
  -12.0100002       2.12757391E-06
  -12.0000000      -4.07306397E-05
  -11.9899998      -8.15214808E-05
  -11.9799995      -1.17291565E-04
  -11.9700003      -1.45494545E-04
  -11.9600000      -1.64146870E-04
  -11.9499998      -1.71928841E-04
  -11.9399996      -1.68235390E-04
  -11.9300003      -1.53185581E-04
  -11.9200001      -1.27601539E-04
  -11.9099998      -9.29643356E-05
  -11.8999996      -5.13505183E-05
  -11.8900003      -5.34660649E-06
  -11.8800001       4.20648430E-05
  -11.8699999       8.76556296E-05
  -11.8599997       1.28143976E-04
  -11.8500004       1.60426789E-04
  -11.8400002       1.81840122E-04
  -11.8299999       1.90424878E-04
  -11.8199997       1.85164870E-04
  -11.8100004       1.66159050E-04
  -11.8000002       1.34691538E-04
  -11.7900000       9.31725954E-05
  -11.7799997       4.49409454E-05
  -11.7700005      -6.05995683E-06
  -11.7600002      -5.56956766E-05
  -11.7500000      -1.00089230E-04
  -11.7399998      -1.36037896E-04
  -11.7299995      -1.61333068E-04
  -11.7200003      -1.74931964E-04
  -11.7100000      -1.76955029E-04
  -11.6999998      -1.68514947E-04
  -11.6899996      -1.51415094E-04
  -11.6800003      -1.27780411E-04
  -11.6700001      -9.96967792E-05
  -11.6599998      -6.89307417E-05
  -11.6499996      -3.67827743E-05
  -11.6400003      -4.09578206E-06
  -11.6300001       2.85959304E-05
  -11.6199999       6.08247792E-05
  -11.6099997       9.19252343E-05
  -11.6000004       1.20822813E-04
  -11.5900002       1.45941114E-04
  -11.5799999       1.65264879E-04
  -11.5699997       1.76560861E-04
  -11.5600004       1.77721478E-04
  -11.5500002       1.67166378E-04
  -11.5400000       1.44222140E-04
  -11.5299997       1.09400542E-04
  -11.5200005       6.45150212E-05
  -11.5100002       1.26037976E-05
  -11.5000000      -4.23357051E-05
  -11.4899998      -9.57635930E-05
  -11.4799995      -1.43102312E-04
  -11.4700003      -1.80254297E-04
  -11.4600000      -2.04058582E-04
  -11.4499998      -2.12625338E-04
  -11.4399996      -2.05510005E-04
  -11.4300003      -1.83713099E-04
  -11.4200001      -1.49517204E-04
  -11.4099998      -1.06192048E-04
  -11.3999996      -5.76126804E-05
  -11.3900003      -7.84157874E-06
  -11.3800001       3.92746115E-05
  -11.3699999       8.04489537E-05
  -11.3599997       1.13204638E-04
  -11.3500004       1.36011353E-04
  -11.3400002       1.48302526E-04
  -11.3299999       1.50383654E-04
  -11.3199997       1.43256751E-04
  -11.3100004       1.28395986E-04
  -11.3000002       1.07515349E-04
  -11.2900000       8.23668961E-05
  -11.2799997       5.45996008E-05
  -11.2700005       2.56933545E-05
  -11.2600002      -3.03558977E-06
  -11.2500000      -3.03794586E-05
  -11.2399998      -5.51684825E-05
  -11.2299995      -7.62240452E-05
  -11.2200003      -9.23682455E-05
  -11.2100000      -1.02506950E-04
  -11.1999998      -1.05781430E-04
  -11.1899996      -1.01760321E-04
  -11.1800003      -9.06256901E-05
  -11.1700001      -7.32991102E-05
  -11.1599998      -5.14597123E-05
  -11.1499996      -2.74252216E-05
  -11.1400003      -3.89589286E-06
  -11.1300001       1.64065386E-05
  -11.1199999       3.11451513E-05
  -11.1099997       3.87435393E-05
  -11.1000004       3.86552783E-05
  -11.0900002       3.14688768E-05
  -11.0799999       1.88207960E-05
  -11.0699997       3.12748125E-06
  -11.0600004      -1.28162019E-05
  -11.0500002      -2.62976300E-05
  -11.0400000      -3.51208510E-05
  -11.0299997      -3.79362828E-05
  -11.0200005      -3.44103028E-05
  -11.0100002      -2.52129576E-05
  -11.0000000      -1.18380794E-05
  -10.9899998       3.69877671E-06
  -10.9799995       1.92200514E-05
  -10.9700003       3.27341513E-05
  -10.9600000       4.27120794E-05
  -10.9499998       4.82533032E-05
  -10.9399996       4.91270439E-05
  -10.9300003       4.56998423E-05
  -10.9200001       3.87792097E-05
  -10.9099998       2.94138044E-05
  -10.8999996       1.86916313E-05
  -10.8900003       7.57161979E-06
  -10.8800001      -3.22769256E-06
  -10.8699999      -1.32719179E-05
  -10.8599997      -2.23897932E-05
  -10.8500004      -3.06005131E-05
  -10.8400002      -3.80100319E-05
  -10.8299999      -4.47007296E-05
  -10.8199997      -5.06387260E-05
  -10.8100004      -5.56195882E-05
  -10.8000002      -5.92658835E-05
  -10.7900000      -6.10802163E-05
  -10.7799997      -6.05457935E-05
  -10.7700005      -5.72552744E-05
  -10.7600002      -5.10404316E-05
  -10.7500000      -4.20716569E-05
  -10.7399998      -3.09001953E-05
  -10.7299995      -1.84263063E-05
  -10.7200003      -5.79238213E-06
  -10.7100000       5.78247864E-06
  -10.6999998       1.51949498E-05
  -10.6899996       2.16368062E-05
  -10.6800003       2.47220032E-05
  -10.6700001       2.45330593E-05
  -10.6599998       2.15764285E-05
  -10.6499996       1.66580103E-05
  -10.6400003       1.07087762E-05
  -10.6300001       4.60221190E-06
  -10.6199999      -9.93705157E-07
  -10.6099997      -5.69723761E-06
  -10.6000004      -9.41191956E-06
  -10.5900002      -1.22510992E-05
  -10.5799999      -1.44146916E-05
  -10.5699997      -1.60566906E-05
  -10.5600004      -1.71833653E-05
  -10.5500002      -1.76126287E-05
  -10.5400000      -1.70076655E-05
  -10.5299997      -1.49771695E-05
  -10.5200005      -1.12162388E-05
  -10.5100002      -5.65080563E-06
  -10.5000000       1.45315369E-06
  -10.4899998       9.44584917E-06
  -10.4799995       1.73299213E-05
  -10.4700003       2.38724169E-05
  -10.4600000       2.77711970E-05
  -10.4499998       2.78435655E-05
  -10.4399996       2.32022885E-05
  -10.4300003       1.33896910E-05
  -10.4200001      -1.54770100E-06
  -10.4099998      -2.10472335E-05
  -10.3999996      -4.40716394E-05
  -10.3900003      -6.91871755E-05
  -10.3800001      -9.46607324E-05
  -10.3699999      -1.18563286E-04
  -10.3599997      -1.38875868E-04
  -10.3500004      -1.53602858E-04
  -10.3400002      -1.60902026E-04
  -10.3299999      -1.59239411E-04
  -10.3199997      -1.47567640E-04
  -10.3100004      -1.25513659E-04
  -10.3000002      -9.35463540E-05
  -10.2900000      -5.30851648E-05
  -10.2799997      -6.50879656E-06
  -10.2700005       4.29663887E-05
  -10.2600002       9.15479905E-05
  -10.2500000       1.35250652E-04
  -10.2399998       1.70353334E-04
  -10.2299995       1.93861881E-04
  -10.2200003       2.03898846E-04
  -10.2100000       1.99950387E-04
  -10.1999998       1.82923555E-04
  -10.1899996       1.55001224E-04
  -10.1800003       1.19319688E-04
  -10.1700001       7.95256638E-05
  -10.1599998       3.92881302E-05
  -10.1499996       1.84377484E-06
  -10.1400003      -3.03584729E-05
  -10.1300001      -5.58721295E-05
  -10.1199999      -7.43133351E-05
  -10.1099997      -8.62780289E-05
  -10.1000004      -9.31445393E-05
  -10.0900002      -9.67980377E-05
  -10.0799999      -9.93130234E-05
  -10.0699997      -1.02626596E-04
  -10.0600004      -1.08231936E-04
  -10.0500002      -1.16921132E-04
  -10.0400000      -1.28608604E-04
  -10.0299997      -1.42267774E-04
  -10.0200005      -1.56009148E-04
  -10.0100002      -1.67313701E-04
  -10.0000000      -1.73411056E-04
  -9.98999977      -1.71759675E-04
  -9.97999954      -1.60555050E-04
  -9.97000027      -1.39170006E-04
  -9.96000004      -1.08428685E-04
  -9.94999981      -7.06367209E-05
  -9.93999958      -2.93336434E-05
  -9.93000031       1.12088437E-05
  -9.92000008       4.66614802E-05
  -9.90999985       7.33597699E-05
  -9.89999962       8.89319417E-05
  -9.89000034       9.27055953E-05
  -9.88000011       8.58118146E-05
  -9.86999989       7.09692249E-05
  -9.85999966       5.19986315E-05
  -9.85000038       3.31721494E-05
  -9.84000015       1.85288682E-05
  -9.82999992       1.12846665E-05
  -9.81999969       1.34308875E-05
  -9.81000042       2.55658724E-05
  -9.80000019       4.69494007E-05
  -9.78999996       7.57271991E-05
  -9.77999973       1.09250897E-04
  -9.77000046       1.44420541E-04
  -9.76000023       1.77997994E-04
  -9.75000000       2.06869387E-04
  -9.73999977       2.28262725E-04
  -9.72999954       2.39941364E-04
  -9.72000027       2.40392357E-04
  -9.71000004       2.29011610E-04
  -9.69999981       2.06262630E-04
  -9.68999958       1.73763779E-04
  -9.68000031       1.34250367E-04
  -9.67000008       9.13680051E-05
  -9.65999985       4.92841136E-05
  -9.64999962       1.21476351E-05
  -9.64000034      -1.65272668E-05
  -9.63000011      -3.44441723E-05
  -9.61999989      -4.09528802E-05
  -9.60999966      -3.72200047E-05
  -9.60000038      -2.60835623E-05
  -9.59000015      -1.15975099E-05
  -9.57999992       1.65930908E-06
  -9.56999969       9.37957066E-06
  -9.56000042       8.27069107E-06
  -9.55000019      -3.40599513E-06
  -9.53999996      -2.56072144E-05
  -9.52999973      -5.66278504E-05
  -9.52000046      -9.35264325E-05
  -9.51000023      -1.32744201E-04
  -9.50000000      -1.70765474E-04
  -9.48999977      -2.04665979E-04
  -9.47999954      -2.32434657E-04
  -9.47000027      -2.53022037E-04
  -9.46000004      -2.66146730E-04
  -9.44999981      -2.71956844E-04
  -9.43999958      -2.70677876E-04
  -9.43000031      -2.62372516E-04
  -9.42000008      -2.46892305E-04
  -9.40999985      -2.24032978E-04
  -9.39999962      -1.93832559E-04
  -9.39000034      -1.56901238E-04
  -9.38000011      -1.14657538E-04
  -9.36999989      -6.93720212E-05
  -9.35999966      -2.39803085E-05
  -9.35000038       1.83008415E-05
  -9.34000015       5.44584836E-05
  -9.32999992       8.21435897E-05
  -9.31999969       9.99902477E-05
  -9.31000042       1.07725042E-04
  -9.30000019       1.06063693E-04
  -9.28999996       9.64542269E-05
  -9.27999973       8.07626930E-05
  -9.27000046       6.09962808E-05
  -9.26000023       3.91227331E-05
  -9.25000000       1.69895120E-05
  -9.23999977      -3.70519570E-06
  -9.22999954      -2.14621177E-05
  -9.22000027      -3.51101262E-05
  -9.21000004      -4.40251642E-05
  -9.19999981      -4.83840558E-05
  -9.18999958      -4.93447405E-05
  -9.18000031      -4.90284256E-05
  -9.17000008      -5.02150760E-05
  -9.15999985      -5.57464155E-05
  -9.14999962      -6.77370699E-05
  -9.14000034      -8.67881536E-05
  -9.13000011      -1.11442088E-04
  -9.11999989      -1.38089585E-04
  -9.10999966      -1.61438787E-04
  -9.10000038      -1.75507070E-04
  -9.09000015      -1.74940113E-04
  -9.07999992      -1.56350128E-04
  -9.06999969      -1.19332683E-04
  -9.06000042      -6.68839712E-05
  -9.05000019      -5.08453695E-06
  -9.03999996       5.79010120E-05
  -9.02999973       1.13286020E-04
  -9.02000046       1.53252331E-04
  -9.01000023       1.72315820E-04
  -9.00000000       1.68186234E-04
  -8.98999977       1.41979544E-04
  -8.97999954       9.78029639E-05
  -8.97000027       4.18695963E-05
  -8.96000004      -1.86225298E-05
  -8.94999981      -7.66065059E-05
  -8.93999958      -1.26070619E-04
  -8.93000031      -1.62688404E-04
  -8.92000008      -1.84134668E-04
  -8.90999985      -1.90121922E-04
  -8.89999962      -1.82210497E-04
  -8.89000034      -1.63438934E-04
  -8.88000011      -1.37807496E-04
  -8.86999989      -1.09649067E-04
  -8.85999966      -8.29454220E-05
  -8.85000038      -6.06856956E-05
  -8.84000015      -4.43965728E-05
  -8.82999992      -3.39748585E-05
  -8.81999969      -2.79054311E-05
  -8.81000042      -2.38531229E-05
  -8.80000019      -1.95009798E-05
  -8.78999996      -1.34080137E-05
  -8.77999973      -5.62002606E-06
  -8.77000046       2.18759192E-06
  -8.76000023       7.12835481E-06
  -8.75000000       6.00084149E-06
  -8.73999977      -3.59012711E-06
  -8.72999954      -2.22401559E-05
  -8.72000027      -4.82220203E-05
  -8.71000004      -7.76463348E-05
  -8.69999981      -1.05308842E-04
  -8.68999958      -1.26000523E-04
  -8.68000031      -1.35891634E-04
  -8.67000008      -1.33558497E-04
  -8.65999985      -1.20323966E-04
  -8.64999962      -9.97979951E-05
  -8.64000034      -7.67661550E-05
  -8.63000011      -5.57898311E-05
  -8.61999989      -3.99761593E-05
  -8.60999966      -3.03135494E-05
  -8.60000038      -2.57678566E-05
  -8.59000015      -2.40643785E-05
  -8.57999992      -2.28375629E-05
  -8.56999969      -2.07022604E-05
  -8.56000042      -1.78353166E-05
  -8.55000019      -1.58447292E-05
  -8.53999996      -1.69785308E-05
  -8.52999973      -2.29861653E-05
  -8.52000046      -3.40937222E-05
  -8.51000023      -4.85307428E-05
  -8.50000000      -6.28532362E-05
  -8.48999977      -7.30104657E-05
  -8.47999954      -7.58095848E-05
  -8.47000027      -7.02519392E-05
  -8.46000004      -5.82199682E-05
  -8.44999981      -4.41936027E-05
  -8.43999958      -3.40046390E-05
  -8.43000031      -3.29850045E-05
  -8.42000008      -4.41046250E-05
  -8.40999985      -6.67372005E-05
  -8.39999962      -9.65132931E-05
  -8.39000034      -1.26374216E-04
  -8.38000011      -1.48542822E-04
  -8.36999989      -1.56813272E-04
  -8.35999966      -1.48441730E-04
  -8.35000038      -1.25037579E-04
  -8.34000015      -9.21730316E-05
  -8.32999992      -5.78403851E-05
  -8.31999969      -3.02517183E-05
  -8.31000042      -1.56719507E-05
  -8.30000019      -1.69399664E-05
  -8.28999996      -3.30800030E-05
  -8.27999973      -6.00306230E-05
  -8.27000046      -9.21521860E-05
  -8.26000023      -1.23943639E-04
  -8.25000000      -1.51380766E-04
  -8.23999977      -1.72477419E-04
  -8.22999954      -1.86991427E-04
  -8.22000027      -1.95526969E-04
  -8.21000004      -1.98499780E-04
  -8.19999981      -1.95455388E-04
  -8.18999958      -1.85058525E-04
  -8.18000031      -1.65774763E-04
  -8.17000008      -1.36958377E-04
  -8.15999985      -9.98671603E-05
  -8.14999962      -5.81195272E-05
  -8.14000034      -1.73001208E-05
  -8.13000011       1.62609904E-05
  -8.11999989       3.71838833E-05
  -8.10999966       4.26452425E-05
  -8.10000038       3.33199096E-05
  -8.09000015       1.32818641E-05
  -8.07999992      -1.11660183E-05
  -8.06999969      -3.33923927E-05
  -8.06000042      -4.84631637E-05
  -8.05000019      -5.46274641E-05
  -8.03999996      -5.37668893E-05
  -8.02999973      -5.06535362E-05
  -8.02000046      -5.12603947E-05
  -8.01000023      -6.06845097E-05
  -8.00000000      -8.13703446E-05
  -7.98999977      -1.12214540E-04
  -7.98000002      -1.48831939E-04
  -7.96999979      -1.84873730E-04
  -7.96000004      -2.13942403E-04
  -7.94999981      -2.31465237E-04
  -7.94000006      -2.35924133E-04
  -7.92999983      -2.29075580E-04
  -7.92000008      -2.15143722E-04
  -7.90999985      -1.99308706E-04
  -7.90000010      -1.86026999E-04
  -7.88999987      -1.77740585E-04
  -7.88000011      -1.74365385E-04
  -7.86999989      -1.73658991E-04
  -7.86000013      -1.72264117E-04
  -7.84999990      -1.67012695E-04
  -7.84000015      -1.56023685E-04
  -7.82999992      -1.39243581E-04
  -7.82000017      -1.18309414E-04
  -7.80999994      -9.58672026E-05
  -7.80000019      -7.46638325E-05
  -7.78999996      -5.67812313E-05
  -7.78000021      -4.32882516E-05
  -7.76999998      -3.43934007E-05
  -7.76000023      -2.99679596E-05
  -7.75000000      -3.01573218E-05
  -7.73999977      -3.57658319E-05
  -7.73000002      -4.81973184E-05
  -7.71999979      -6.89190274E-05
  -7.71000004      -9.86203668E-05
  -7.69999981      -1.36381073E-04
  -7.69000006      -1.79191542E-04
  -7.67999983      -2.22070084E-04
  -7.67000008      -2.58830376E-04
  -7.65999985      -2.83336092E-04
  -7.65000010      -2.90910626E-04
  -7.63999987      -2.79506785E-04
  -7.63000011      -2.50301731E-04
  -7.61999989      -2.07546473E-04
  -7.61000013      -1.57709976E-04
  -7.59999990      -1.08147804E-04
  -7.59000015      -6.56423435E-05
  -7.57999992      -3.51716517E-05
  -7.57000017      -1.91765994E-05
  -7.55999994      -1.74463148E-05
  -7.55000019      -2.75765142E-05
  -7.53999996      -4.58242466E-05
  -7.53000021      -6.81135934E-05
  -7.51999998      -9.09483933E-05
  -7.51000023      -1.12045942E-04
  -7.50000000      -1.30595232E-04
  -7.48999977      -1.47136525E-04
  -7.48000002      -1.63135745E-04
  -7.46999979      -1.80377392E-04
  -7.46000004      -2.00320748E-04
  -7.44999981      -2.23560695E-04
  -7.44000006      -2.49508477E-04