  -16.0000000       0.00000000    
  -15.9899998       0.00000000    
  -15.9799995       0.00000000    
  -15.9700003       0.00000000    
  -15.9600000       0.00000000    
  -15.9499998       0.00000000    
  -15.9399996       0.00000000    
  -15.9300003       0.00000000    
  -15.9200001       0.00000000    
  -15.9099998       0.00000000    
  -15.8999996       0.00000000    
  -15.8900003      -1.41779175E-40
  -15.8800001      -5.48185717E-39
  -15.8699999      -1.17820581E-37
  -15.8599997      -1.62001241E-36
  -15.8500004      -1.57962922E-35
  -15.8400002      -1.17819305E-34
  -15.8299999      -7.08527062E-34
  -15.8199997      -3.56416279E-33
  -15.8100004      -1.53965780E-32
  -15.8000002      -5.82143711E-32
  -15.7900000      -1.95347507E-31
  -15.7799997      -5.87606539E-31
  -15.7700005      -1.59513041E-30
  -15.7600002      -3.92269988E-30
  -15.7500000      -8.74470146E-30
  -15.7399998      -1.76136751E-29
  -15.7299995      -3.17554943E-29
  -15.7200003      -5.01748445E-29
  -15.7100000      -6.60841393E-29
  -15.6999998      -6.19465857E-29
  -15.6899996      -5.32317482E-30
  -15.6800003       1.49261063E-28
  -15.6700001       4.44200286E-28
  -15.6599998       8.80107903E-28
  -15.6499996       1.35345035E-27
  -15.6400003       1.58789814E-27
  -15.6300001       1.10531951E-27
  -15.6199999      -6.90612911E-28
  -15.6099997      -4.24414871E-27
  -15.6000004      -9.37212747E-27
  -15.5900002      -1.46949256E-26
  -15.5799999      -1.72633150E-26
  -15.5699997      -1.28080396E-26
  -15.5600004       3.00410559E-27
  -15.5500002       3.22606670E-26
  -15.5400000       7.19897637E-26
  -15.5299997       1.11970190E-25
  -15.5200005       1.34392205E-25
  -15.5100002       1.15883334E-25
  -15.5000000       3.11957294E-26
  -15.4899998      -1.42585931E-25
  -15.4799995      -4.20286059E-25
  -15.4700003      -7.94863299E-25
  -15.4600000      -1.20362977E-24
  -15.4499998      -1.46568680E-24
  -15.4399996      -1.20592861E-24
  -15.4300003       1.67850347E-25
  -15.4200001       3.30570624E-24
  -15.4099998       8.42321851E-24
  -15.3999996       1.44279252E-23
  -15.3900003       1.79189518E-23
  -15.3800001       1.27981046E-23
  -15.3699999      -8.31719560E-24
  -15.3599997      -4.97198203E-23
  -15.3500004      -1.05204081E-22
  -15.3400002      -1.50020379E-22
  -15.3299999      -1.37984748E-22
  -15.3199997      -1.20878750E-23
  -15.3100004       2.64353272E-22
  -15.3000002       6.57281279E-22
  -15.2900000       1.00979648E-21
  -15.2799997       1.02591409E-21
  -15.2700005       3.39873211E-22
  -15.2600002      -1.29205884E-21
  -15.2500000      -3.69317766E-21
  -15.2399998      -5.97034207E-21
  -15.2299995      -6.43372881E-21
  -15.2200003      -2.99675459E-21
  -15.2100000       5.76748370E-21
  -15.1999998       1.90297601E-20
  -15.1899996       3.21636256E-20
  -15.1800003       3.63556607E-20
  -15.1700001       2.06630396E-20
  -15.1599998      -2.26826172E-20
  -15.1499996      -9.03845844E-20
  -15.1400003      -1.60530101E-19
  -15.1300001      -1.90567653E-19
  -15.1199999      -1.26781830E-19
  -15.1099997       7.11777802E-20
  -15.1000004       3.93796598E-19
  -15.0900002       7.46336115E-19
  -15.0799999       9.37517924E-19
  -15.0699997       7.18421303E-19
  -15.0600004      -1.12531641E-19
  -15.0500002      -1.55052938E-18
  -15.0400000      -3.22512654E-18
  -15.0299997      -4.33565188E-18
  -15.0200005      -3.79115941E-18
  -15.0100002      -6.26052836E-19
  -15.0000000       5.34615598E-18
  -14.9899998       1.28437608E-17
  -14.9799995       1.87616458E-17
  -14.9700003       1.85921581E-17
  -14.9600000       7.93751183E-18
  -14.9499998      -1.49627096E-17
  -14.9399996      -4.63834150E-17
  -14.9300003      -7.52925337E-17
  -14.9200001      -8.42547246E-17
  -14.9099998      -5.44177773E-17
  -14.8999996       2.53609407E-17
  -14.8900003       1.47369122E-16
  -14.8800001       2.76452125E-16
  -14.8699999       3.50166650E-16
  -14.8599997       2.93238412E-16
  -14.8500004       4.79831889E-17
  -14.8400002      -3.84835338E-16
  -14.8299999      -9.09002619E-16
  -14.8199997      -1.32082728E-15
  -14.8100004      -1.34349145E-15
  -14.8000002      -7.18895603E-16
  -14.7900000       6.53771369E-16
  -14.7799997       2.57287571E-15
  -14.7700005       4.44944671E-15
  -14.7600002       5.35890979E-15
  -14.7500000       4.28383821E-15
  -14.7399998       5.41743480E-16
  -14.7299995      -5.69923832E-15
  -14.7200003      -1.30093901E-14
  -14.7100000      -1.86411233E-14
  -14.6999998      -1.90492255E-14
  -14.6899996      -1.10638766E-14
  -14.6800003       6.46496034E-15
  -14.6700001       3.10433476E-14
  -14.6599998       5.56697598E-14
  -14.6499996       6.95168342E-14
  -14.6400003       6.06602713E-14
  -14.6300001       2.07097201E-14
  -14.6199999      -4.97099242E-14
  -14.6099997      -1.36572204E-13
  -14.6000004      -2.11591622E-13
  -14.5900002      -2.37006514E-13
  -14.5799999      -1.76735051E-13
  -14.5699997      -1.22964044E-14
  -14.5600004       2.40873429E-13
  -14.5500002       5.23295274E-13
  -14.5400000       7.34592508E-13
  -14.5299997       7.54794935E-13
  -14.5200005       4.83501531E-13
  -14.5100002      -1.10764893E-13
  -14.5000000      -9.46193211E-13
  -14.4899998      -1.80819411E-12
  -14.4799995      -2.37347078E-12
  -14.4700003      -2.28724526E-12
  -14.4600000      -1.28652774E-12
  -14.4499998       6.58586846E-13
  -14.4399996       3.23228250E-12
  -14.4300003       5.74407882E-12
  -14.4200001       7.22927230E-12
  -14.4099998       6.69402251E-12
  -14.3999996       3.47210715E-12
  -14.3900003      -2.39439024E-12
  -14.3800001      -9.88152702E-12
  -14.3699999      -1.69595744E-11
  -14.3599997      -2.09246023E-11
  -14.3500004      -1.91025112E-11
  -14.3400002      -9.81420067E-12
  -14.3299999       6.64447360E-12
  -14.3199997       2.73503876E-11
  -14.3100004       4.67794761E-11
  -14.3000002       5.77503392E-11
  -14.2900000       5.32879817E-11
  -14.2799997       2.90916215E-11
  -14.2700005      -1.40283488E-11
  -14.2600002      -6.85879756E-11
  -14.2500000      -1.20575203E-10
  -14.2399998      -1.51839014E-10
  -14.2299995      -1.44681073E-10
  -14.2200003      -8.78568329E-11
  -14.2100000       1.75352458E-11
  -14.1999998       1.54253610E-10
  -14.1899996       2.89124752E-10
  -14.1800003       3.78484410E-10
  -14.1700001       3.78747866E-10
  -14.1599998       2.60318600E-10
  -14.1499996       2.14212936E-11
  -14.1400003      -3.02563946E-10
  -14.1300001      -6.38586073E-10
  -14.1199999      -8.87036999E-10
  -14.1099997      -9.44472056E-10
  -14.1000004      -7.34277028E-10
  -14.0900002      -2.38100734E-10
  -14.0799999       4.81401363E-10
  -14.0699997       1.27593680E-09
  -14.0600004       1.93154936E-09
  -14.0500002       2.21396101E-09
  -14.0400000       1.93257010E-09
  -14.0299997       1.00896802E-09
  -14.0200005      -4.69244643E-10
  -14.0100002      -2.22918750E-09
  -14.0000000      -3.84266041E-09
  -13.9899998      -4.80919882E-09
  -13.9799995      -4.68144146E-09
  -13.9700003      -3.20695515E-09
  -13.9600000      -4.49565218E-10
  -13.9499998       3.14973669E-09
  -13.9399996       6.80427892E-09
  -13.9300003       9.51851575E-09
  -13.9200001       1.03159445E-08
  -13.9099998       8.51476223E-09
  -13.8999996       3.98463440E-09
  -13.8900003      -2.69143907E-09
  -13.8800001      -1.02160502E-08
  -13.8699999      -1.67721819E-08
  -13.8599997      -2.04018118E-08
  -13.8500004      -1.95029113E-08
  -13.8400002      -1.33334090E-08
  -13.8299999      -2.38657671E-09
  -13.8199997       1.14892442E-08
  -13.8100004       2.53085641E-08
  -13.8000002       3.55103715E-08
  -13.7900000       3.87779586E-08
  -13.7799997       3.29465166E-08
  -13.7700005       1.77742479E-08
  -13.7600002      -4.65008654E-09
  -13.7500000      -3.00326342E-08
  -13.7399998      -5.25900141E-08
  -13.7299995      -6.62660966E-08
  -13.7200003      -6.62156197E-08
  -13.7100000      -5.02138988E-08
  -13.6999998      -1.96193639E-08
  -13.6899996       2.04242312E-08
  -13.6800003       6.17079223E-08
  -13.6700001       9.45474810E-08
  -13.6599998       1.09960126E-07
  -13.6499996       1.01956680E-07
  -13.6400003       6.93871911E-08
  -13.6300001       1.68200760E-08
  -13.6199999      -4.58831089E-08
  -13.6099997      -1.05344576E-07
  -13.6000004      -1.47508985E-07
  -13.5900002      -1.60952098E-07
  -13.5799999      -1.39883852E-07
  -13.5699997      -8.60653202E-08
  -13.5600004      -9.05412101E-09
  -13.5500002       7.54411431E-08
  -13.5400000       1.48857097E-07
  -13.5299997       1.94037952E-07
  -13.5200005       1.99469213E-07
  -13.5100002       1.62406479E-07
  -13.5000000       9.00143533E-08
  -13.4899998      -1.92741534E-09
  -13.4799995      -9.25929555E-08
  -13.4700003      -1.61182342E-07
  -13.4600000      -1.92258412E-07
  -13.4499998      -1.79933707E-07
  -13.4399996      -1.29684480E-07
  -13.4300003      -5.71139402E-08
  -13.4200001       1.62245968E-08
  -13.4099998       6.89947157E-08
  -13.3999996       8.66206022E-08
  -13.3900003       6.63136319E-08
  -13.3800001       1.89152640E-08
  -13.3699999      -3.33764163E-08
  -13.3599997      -6.32311483E-08
  -13.3500004      -4.70005794E-08
  -13.3400002       2.62073243E-08
  -13.3299999       1.47951695E-07
  -13.3199997       2.88830677E-07
  -13.3100004       4.03185624E-07
  -13.3000002       4.39887856E-07
  -13.2900000       3.57135917E-07
  -13.2799997       1.37666575E-07
  -13.2700005      -1.99968099E-07
  -13.2600002      -5.98051543E-07
  -13.2500000      -9.66746143E-07
  -13.2399998      -1.20153243E-06
  -13.2299995      -1.20818470E-06
  -13.2200003      -9.29885914E-07
  -13.2100000      -3.69612565E-07
  -13.1999998       3.98942490E-07
  -13.1899996       1.23668417E-06
  -13.1800003       1.96193696E-06
  -13.1700001       2.38769780E-06
  -13.1599998       2.36608753E-06
  -13.1499996       1.82990175E-06
  -13.1400003       8.20517926E-07
  -13.1300001      -5.06588549E-07
  -13.1199999      -1.90298977E-06
  -13.1099997      -3.07329401E-06
  -13.1000004      -3.73780426E-06
  -13.0900002      -3.69863596E-06
  -13.0799999      -2.89378545E-06
  -13.0699997      -1.42491979E-06
  -13.0600004       4.50394481E-07
  -13.0500002       2.36359188E-06
  -13.0400000       3.90985861E-06
  -13.0299997       4.73756199E-06
  -13.0200005       4.63229526E-06
  -13.0100002       3.57506315E-06
  -13.0000000       1.75870446E-06
  -12.9899998      -4.44511215E-07
  -12.9799995      -2.55986492E-06
  -12.9700003      -4.11632254E-06
  -12.9600000      -4.75811567E-06
  -12.9499998      -4.33497507E-06
  -12.9399996      -2.94749657E-06
  -12.9300003      -9.33476429E-07
  -12.9200001       1.20534594E-06
  -12.9099998       2.92190748E-06
  -12.8999996       3.76116850E-06
  -12.8900003       3.48283288E-06
  -12.8800001       2.13721819E-06
  -12.8699999       7.13673813E-08
  -12.8599997      -2.14163492E-06
  -12.8500004      -3.83823044E-06
  -12.8400002      -4.43540512E-06
  -12.8299999      -3.59618139E-06
  -12.8199997      -1.34647632E-06
  -12.8100004       1.89116895E-06
  -12.8000002       5.36339076E-06
  -12.7900000       8.14393388E-06
  -12.7799997       9.35235948E-06
  -12.7700005       8.38411688E-06
  -12.7600002       5.09543088E-06
  -12.7500000      -1.07012866E-07
  -12.7399998      -6.30207842E-06
  -12.7299995      -1.22176934E-05
  -12.7200003      -1.64924622E-05
  -12.7100000      -1.79798753E-05
  -12.6999998      -1.60255167E-05
  -12.6899996      -1.06500283E-05
  -12.6800003      -2.58955674E-06
  -12.6700001       6.82252585E-06
  -12.6599998       1.59114024E-05
  -12.6499996       2.29989801E-05
  -12.6400003       2.67478990E-05
  -12.6300001       2.64318060E-05
  -12.6199999       2.20690417E-05
  -12.6099997       1.43899324E-05
  -12.6000004       4.64897767E-06
  -12.5900002      -5.66784092E-06
  -12.5799999      -1.51642334E-05
  -12.5699997      -2.28004283E-05
  -12.5600004      -2.80386157E-05
  -12.5500002      -3.08342314E-05
  -12.5400000      -3.14841091E-05
  -12.5299997      -3.03843335E-05
  -12.5200005      -2.77784529E-05
  -12.5100002      -2.35823045E-05
  -12.5000000      -1.73522967E-05
  -12.4899998      -8.42395548E-06
  -12.4799995       3.80354822E-06
  -12.4700003       1.95091197E-05
  -12.4600000       3.81214886E-05
  -12.4499998       5.81298082E-05
  -12.4399996       7.71170089E-05
  -12.4300003       9.20491875E-05
  -12.4200001       9.97897441E-05
  -12.4099998       9.77439850E-05
  -12.3999996       8.44952228E-05
  -12.3900003       6.02796172E-05
  -12.3800001       2.71700901E-05
  -12.3699999      -1.11040263E-05
  -12.3599997      -4.96965913E-05
  -12.3500004      -8.34559396E-05
  -12.3400002      -1.07852975E-04
  -12.3299999      -1.19835633E-04
  -12.3199997      -1.18425553E-04
  -12.3100004      -1.04920480E-04
  -12.3000002      -8.26468822E-05
  -12.2900000      -5.63026733E-05
  -12.2799997      -3.10200157E-05
  -12.2700005      -1.13416090E-05
  -12.2600002      -3.26345656E-07
  -12.2500000       1.02454135E-06
  -12.2399998      -6.10312736E-06
  -12.2299995      -1.86797570E-05
  -12.2200003      -3.25727669E-05
  -12.2100000      -4.35212278E-05
  -12.1999998      -4.81270254E-05
  -12.1899996      -4.46390150E-05
  -12.1800003      -3.33500648E-05
  -12.1700001      -1.65116380E-05
  -12.1599998       2.22123231E-06
  -12.1499996       1.86937486E-05
  -12.1400003       2.92990371E-05
  -12.1300001       3.19248174E-05
  -12.1199999       2.65684557E-05
  -12.1099997       1.54575100E-05
  -12.1000004       2.62128378E-06
  -12.0900002      -7.01520685E-06
  -12.0799999      -8.82708810E-06
  -12.0699997       2.91629163E-07
  -12.0600004       2.09755217E-05
  -12.0500002       5.09471320E-05
  -12.0400000       8.52311205E-05
  -12.0299997       1.17023563E-04
  -12.0200005       1.39065203E-04
  -12.0100002       1.45240876E-04
  -12.0000000       1.32056899E-04
  -11.9899998       9.96532908E-05
  -11.9799995       5.20920184E-05
  -11.9700003      -3.18935122E-06
  -11.9600000      -5.66863600E-05
  -11.9499998      -9.86516970E-05
  -11.9399996      -1.21059442E-04
  -11.9300003      -1.19286444E-04
  -11.9200001      -9.31348550E-05
  -11.9099998      -4.69537226E-05
  -11.8999996       1.11869913E-05
  -11.8900003       7.11060420E-05
  -11.8800001       1.22560494E-04
  -11.8699999       1.57288028E-04
  -11.8599997       1.70592044E-04
  -11.8500004       1.62122189E-04
  -11.8400002       1.35687034E-04
  -11.8299999       9.81599514E-05
  -11.8199997       5.77501050E-05
  -11.8100004       2.20565780E-05
  -11.8000002      -3.62961214E-06
  -11.7900000      -1.73770404E-05
  -11.7799997      -2.07825815E-05
  -11.7700005      -1.82404783E-05
  -11.7600002      -1.55176058E-05
  -11.7500000      -1.80111856E-05
  -11.7399998      -2.91411852E-05
  -11.7299995      -4.92920663E-05
  -11.7200003      -7.55769070E-05
  -11.7100000      -1.02486680E-04
  -11.6999998      -1.23262289E-04
  -11.6899996      -1.31643086E-04
  -11.6800003      -1.23549980E-04
  -11.6700001      -9.82774727E-05
  -11.6599998      -5.88926632E-05
  -11.6499996      -1.17378468E-05
  -11.6400003       3.48438225E-05
  -11.6300001       7.22505283E-05
  -11.6199999       9.34138443E-05
  -11.6099997       9.42209663E-05
  -11.6000004       7.42512493E-05
  -11.5900002       3.66907734E-05
  -11.5799999      -1.25047227E-05
  -11.5699997      -6.59490252E-05
  -11.5600004      -1.16312243E-04
  -11.5500002      -1.57594477E-04
  -11.5400000      -1.85915298E-04
  -11.5299997      -1.99703834E-04
  -11.5200005      -1.99350194E-04
  -11.5100002      -1.86522695E-04
  -11.5000000      -1.63426084E-04
  -11.4899998      -1.32256959E-04
  -11.4799995      -9.50120739E-05
  -11.4700003      -5.36578045E-05
  -11.4600000      -1.05240561E-05
  -11.4499998       3.13098208E-05
  -11.4399996       6.78822908E-05
  -11.4300003       9.46387809E-05
  -11.4200001       1.07167165E-04
  -11.4099998       1.02236758E-04
  -11.3999996       7.88617544E-05
  -11.3900003       3.90515961E-05
  -11.3800001      -1.20444647E-05
  -11.3699999      -6.67493587E-05
  -11.3599997      -1.16174328E-04
  -11.3500004      -1.51979184E-04
  -11.3400002      -1.68166880E-04
  -11.3299999      -1.62457611E-04
  -11.3199997      -1.36867529E-04
  -11.3100004      -9.73048518E-05
  -11.3000002      -5.22448572E-05
  -11.2900000      -1.07868309E-05
  -11.2799997       1.94353015E-05
  -11.2700005       3.39701692E-05
  -11.2600002       3.24648609E-05
  -11.2500000       1.85538465E-05
  -11.2399998      -1.24151973E-06
  -11.2299995      -1.93122887E-05
  -11.2200003      -2.89935761E-05
  -11.2100000      -2.63091861E-05
  -11.1999998      -1.09911352E-05
  -11.1899996       1.34724769E-05
  -11.1800003       4.07584084E-05
  -11.1700001       6.33538002E-05
  -11.1599998       7.45091602E-05
  -11.1499996       7.00174569E-05
  -11.1400003       4.93928746E-05
  -11.1300001       1.61764074E-05
  -11.1199999      -2.26948323E-05
  -11.1099997      -5.83047586E-05
  -11.1000004      -8.16448301E-05
  -11.0900002      -8.55641119E-05
  -11.0799999      -6.63790706E-05
  -11.0699997      -2.48221113E-05
  -11.0600004       3.38532154E-05
  -11.0500002       1.00629244E-04
  -11.0400000       1.64207711E-04
  -11.0299997       2.12960396E-04
  -11.0200005       2.37012107E-04
  -11.0100002       2.30099438E-04
  -11.0000000       1.90879640E-04
  -10.9899998       1.23443344E-04
  -10.9799995       3.69034642E-05
  -10.9700003      -5.59222426E-05
  -10.9600000      -1.40562595E-04
  -10.9499998      -2.03363379E-04
  -10.9399996      -2.33957995E-04
  -10.9300003      -2.27279670E-04
  -10.9200001      -1.84698700E-04
  -10.9099998      -1.13998227E-04
  -10.8999996      -2.81070515E-05
  -10.8900003       5.72452191E-05
  -10.8800001       1.26544954E-04
  -10.8699999       1.67598468E-04
  -10.8599997       1.74069733E-04
  -10.8500004       1.46868842E-04
  -10.8400002       9.40194150E-05
  -10.8299999       2.89474847E-05
  -10.8199997      -3.25084802E-05
  -10.8100004      -7.57502567E-05
  -10.8000002      -9.09221853E-05
  -10.7900000      -7.54311623E-05
  -10.7799997      -3.48313806E-05
  -10.7700005       1.82292933E-05
  -10.7600002       6.68570137E-05
  -10.7500000       9.39663587E-05
  -10.7399998       8.66267001E-05
  -10.7299995       3.96616888E-05
  -10.7200003      -4.24126774E-05
  -10.7100000      -1.45670361E-04
  -10.6999998      -2.49326171E-04
  -10.6899996      -3.30057665E-04
  -10.6800003      -3.67155822E-04
  -10.6700001      -3.47333698E-04
  -10.6599998      -2.68072938E-04
  -10.6499996      -1.38713949E-04
  -10.6400003       2.09835107E-05
  -10.6300001       1.84496836E-04
  -10.6199999       3.23596003E-04
  -10.6099997       4.13684669E-04
  -10.6000004       4.38295596E-04
  -10.5900002       3.91861598E-04
  -10.5799999       2.80328444E-04
  -10.5699997       1.19685865E-04
  -10.5600004      -6.70717563E-05
  -10.5500002      -2.53788283E-04
  -10.5400000      -4.14998154E-04
  -10.5299997      -5.29167126E-04
  -10.5200005      -5.80989872E-04
  -10.5100002      -5.62707952E-04
  -10.5000000      -4.74607426E-04
  -10.4899998      -3.24907276E-04
  -10.4799995      -1.29159976E-04
  -10.4700003       9.08682196E-05
  -10.4600000       3.08992894E-04
  -10.4499998       4.97241970E-04
  -10.4399996       6.29319984E-04
  -10.4300003       6.84615632E-04
  -10.4200001       6.52129645E-04
  -10.4099998       5.33464190E-04
  -10.3999996       3.43984197E-04
  -10.3900003       1.11507419E-04
  -10.3800001      -1.27622014E-04
  -10.3699999      -3.34589160E-04
  -10.3599997      -4.75202774E-04
  -10.3500004      -5.26556105E-04
  -10.3400002      -4.81748692E-04
  -10.3299999      -3.51520255E-04
  -10.3199997      -1.62319397E-04
  -10.3100004       4.88491933E-05
  -10.3000002       2.41706090E-04
  -10.2900000       3.80529906E-04
  -10.2799997       4.40873438E-04
  -10.2700005       4.13805887E-04
  -10.2600002       3.06942646E-04
  -10.2500000       1.42267629E-04
  -10.2399998      -4.85697274E-05
  -10.2299995      -2.30357080E-04
  -10.2200003      -3.70560301E-04
  -10.2100000      -4.44600330E-04
  -10.1999998      -4.39419731E-04
  -10.1899996      -3.55016673E-04
  -10.1800003      -2.03993419E-04
  -10.1700001      -9.41258440E-06
  -10.1599998       1.98630398E-04
  -10.1499996       3.87281529E-04
  -10.1400003       5.25602896E-04
  -10.1300001       5.89167059E-04
  -10.1199999       5.64023387E-04
  -10.1099997       4.49434621E-04
  -10.1000004       2.58809014E-04
  -10.0900002       1.84259879E-05
  -10.0799999      -2.36111853E-04
  -10.0699997      -4.65317746E-04
  -10.0600004      -6.32308656E-04
  -10.0500002      -7.09170592E-04
  -10.0400000      -6.81945996E-04
  -10.0299997      -5.53205493E-04
  -10.0200005      -3.41656909E-04
  -10.0100002      -7.88789039E-05
  -10.0000000       1.96114837E-04
  -9.98999977       4.43344063E-04
  -9.97999954       6.28091977E-04
  -9.97000027       7.25802325E-04
  -9.96000004       7.24960933E-04
  -9.94999981       6.27781730E-04
  -9.93999958       4.48957406E-04
  -9.93000031       2.13001462E-04
  -9.92000008      -4.92362597E-05
  -9.90999985      -3.04400950E-04
  -9.89999962      -5.20491565E-04
  -9.89000034      -6.70538109E-04
  -9.88000011      -7.35885114E-04
  -9.86999989      -7.08765408E-04
  -9.85999966      -5.93721576E-04
  -9.85000038      -4.07402345E-04
  -9.84000015      -1.76416754E-04
  -9.82999992       6.67083295E-05
  -9.81999969       2.88926036E-04
  -9.81000042       4.62409284E-04
  -9.80000019       5.69354568E-04
  -9.78999996       6.04653789E-04
  -9.77999973       5.75702230E-04
  -9.77000046       4.99354268E-04
  -9.76000023       3.96848220E-04
  -9.75000000       2.88133771E-04
  -9.73999977       1.87229991E-04
  -9.72999954       9.99283729E-05
  -9.72000027       2.44091862E-05
  -9.71000004      -4.56095368E-05
  -9.69999981      -1.16405216E-04
  -9.68999958      -1.90116625E-04
  -9.68000031      -2.62465765E-04
  -9.67000008      -3.23200540E-04
  -9.65999985      -3.59151454E-04
  -9.64999962      -3.58842983E-04
  -9.64000034      -3.17007507E-04
  -9.63000011      -2.37331187E-04
  -9.61999989      -1.32342437E-04
  -9.60999966      -2.03374821E-05
  -9.60000038       7.97127650E-05
  -9.59000015       1.53587898E-04
  -9.57999992       1.95723958E-04
  -9.56999969       2.10232116E-04
  -9.56000042       2.08636702E-04
  -9.55000019       2.05071832E-04
  -9.53999996       2.10570244E-04
  -9.52999973       2.28420657E-04
  -9.52000046       2.52233847E-04
  -9.51000023       2.67455122E-04
  -9.50000000       2.55901017E-04
  -9.48999977       2.01878865E-04
  -9.47999954       9.79176039E-05
  -9.47000027      -5.17285043E-05
  -9.46000004      -2.30902908E-04
  -9.44999981      -4.14716516E-04
  -9.43999958      -5.75040001E-04
  -9.43000031      -6.86637068E-04
  -9.42000008      -7.32190383E-04
  -9.40999985      -7.04979699E-04
  -9.39999962      -6.08844450E-04
  -9.39000034      -4.55958128E-04
  -9.38000011      -2.63545109E-04
  -9.36999989      -5.07816439E-05
  -9.35999966       1.63254779E-04
  -9.35000038       3.60395876E-04
  -9.34000015       5.23435127E-04
  -9.32999992       6.36285287E-04
  -9.31999969       6.85033796E-04
  -9.31000042       6.60195539E-04
  -9.30000019       5.59746404E-04
  -9.28999996       3.91895999E-04
  -9.27999973       1.76301983E-04
  -9.27000046      -5.73104044E-05
  -9.26000023      -2.73421989E-04
  -9.25000000      -4.37220064E-04
  -9.23999977      -5.21800423E-04
  -9.22999954      -5.14121086E-04
  -9.22000027      -4.17949777E-04
  -9.21000004      -2.52827827E-04
  -9.19999981      -4.92125873E-05
  -9.18999958       1.58910669E-04
  -9.18000031       3.41902720E-04
  -9.17000008       4.80654096E-04
  -9.15999985       5.69438620E-04
  -9.14999962       6.14822435E-04
  -9.14000034       6.31201023E-04
  -9.13000011       6.34510710E-04
  -9.11999989       6.36128767E-04
  -9.10999966       6.38815225E-04
  -9.10000038       6.35841745E-04
  -9.09000015       6.13442273E-04
  -9.07999992       5.55726234E-04
  -9.06999969       4.50515130E-04
  -9.06000042       2.94364989E-04
  -9.05000019       9.53443378E-05
  -9.03999996      -1.27184307E-04
  -9.02999973      -3.45701963E-04
  -9.02000046      -5.29767305E-04
  -9.01000023      -6.52048737E-04
  -9.00000000      -6.93736598E-04
  -8.98999977      -6.48143294E-04
  -8.97999954      -5.21778013E-04
  -8.97000027      -3.32782016E-04
  -8.96000004      -1.07192987E-04
  -8.94999981       1.26046652E-04
  -8.93999958       3.40191560E-04
  -8.93000031       5.14784129E-04
  -8.92000008       6.37889956E-04
  -8.90999985       7.06109975E-04
  -8.89999962       7.22581171E-04
  -8.89000034       6.93720125E-04
  -8.88000011       6.25823101E-04
  -8.86999989       5.22687973E-04
  -8.85999966       3.85115331E-04
  -8.85000038       2.12532599E-04
  -8.84000015       6.22806328E-06
  -8.82999992      -2.26981661E-04
  -8.81999969      -4.72151529E-04
  -8.81000042      -7.06007238E-04
  -8.80000019      -8.99803010E-04
  -8.78999996      -1.02489535E-03
  -8.77999973      -1.05967547E-03
  -8.77000046      -9.95829003E-04
  -8.76000023      -8.41844070E-04
  -8.75000000      -6.22354390E-04
  -8.73999977      -3.73114570E-04
  -8.72999954      -1.32802612E-04
  -8.72000027       6.60522928E-05
  -8.71000004       2.04307929E-04
  -8.69999981       2.79383559E-04
  -8.68999958       3.03395820E-04
  -8.68000031       2.96918035E-04
  -8.67000008       2.80494191E-04
  -8.65999985       2.66820134E-04
  -8.64999962       2.56294938E-04
  -8.64000034       2.37493878E-04
  -8.63000011       1.92391381E-04
  -8.61999989       1.04472769E-04
  -8.60999966      -3.31860974E-05
  -8.60000038      -2.12827479E-04
  -8.59000015      -4.11847635E-04
  -8.57999992      -5.97778126E-04
  -8.56999969      -7.36818707E-04
  -8.56000042      -8.03076779E-04
  -8.55000019      -7.85430835E-04
  -8.53999996      -6.89802866E-04
  -8.52999973      -5.36273699E-04
  -8.52000046      -3.52300180E-04
  -8.51000023      -1.64620971E-04
  -8.50000000       7.22777486E-06
  -8.48999977       1.53628847E-04
  -8.47999954       2.73243466E-04
  -8.47000027       3.68185662E-04
  -8.46000004       4.38449846E-04
  -8.44999981       4.78303613E-04
  -8.43999958       4.76517744E-04
  -8.43000031       4.20670171E-04
  -8.42000008       3.03960260E-04
  -8.40999985       1.31724461E-04
  -8.39999962      -7.53295608E-05
  -8.39000034      -2.83131434E-04
  -8.38000011      -4.51583444E-04
  -8.36999989      -5.45254792E-04
  -8.35999966      -5.44015784E-04
  -8.35000038      -4.49916901E-04
  -8.34000015      -2.87679053E-04
  -8.32999992      -9.82246493E-05
  -8.31999969       7.29605599E-05
  -8.31000042       1.89027429E-04
  -8.30000019       2.32295206E-04
  -8.28999996       2.08702419E-04
  -8.27999973       1.44749836E-04
  -8.27000046       7.79819602E-05
  -8.26000023       4.41675147E-05
  -8.25000000       6.53725874E-05
  -8.23999977       1.42740842E-04
  -8.22999954       2.56163505E-04
  -8.22000027       3.70723894E-04
  -8.21000004       4.47632367E-04
  -8.19999981       4.56045440E-04
  -8.18999958       3.82085011E-04
  -8.18000031       2.32487873E-04
  -8.17000008       3.21782099E-05
  -8.15999985      -1.83013850E-04
  -8.14999962      -3.75900272E-04
  -8.14000034      -5.16767555E-04
  -8.13000011      -5.89106523E-04
  -8.11999989      -5.91128250E-04
  -8.10999966      -5.33396495E-04
  -8.10000038      -4.34013084E-04
  -8.09000015      -3.13236058E-04
  -8.07999992      -1.89156723E-04
  -8.06999969      -7.53181739E-05
  -8.06000042       1.97111349E-05
  -8.05000019       9.14506018E-05
  -8.03999996       1.38191186E-04
  -8.02999973       1.59962845E-04
  -8.02000046       1.58081253E-04
  -8.01000023       1.35147406E-04
  -8.00000000       9.51402253E-05
  -7.98999977       4.32663401E-05
  -7.98000002      -1.45516342E-05
  -7.96999979      -7.24141137E-05
  -7.96000004      -1.25137143E-04
  -7.94999981      -1.68672064E-04
  -7.94000006      -2.00217313E-04
  -7.92999983      -2.18196714E-04
  -7.92000008      -2.22364615E-04
  -7.90999985      -2.14185187E-04
  -7.90000010      -1.97366753E-04
  -7.88999987      -1.78153379E-04
  -7.88000011      -1.64863726E-04
  -7.86999989      -1.66339058E-04
  -7.86000013      -1.89404091E-04
  -7.84999990      -2.35991261E-04
  -7.84000015      -3.00981774E-04
  -7.82999992      -3.71837843E-04
  -7.82000017      -4.30648244E-04
  -7.80999994      -4.58386232E-04
  -7.80000019      -4.40276519E-04
  -7.78999996      -3.70559399E-04
  -7.78000021      -2.54922430E-04
  -7.76999998      -1.09532528E-04
  -7.76000023       4.32478228E-05
  -7.75000000       1.81138865E-04
  -7.73999977       2.88067880E-04
  -7.73000002       3.57937708E-04
  -7.71999979       3.94639472E-04
  -7.71000004       4.08315478E-04
  -7.69999981       4.09364031E-04
  -7.69000006       4.02651000E-04
  -7.67999983       3.84429935E-04
  -7.67000008       3.43492313E-04
  -7.65999985       2.66402640E-04
  -7.65000010       1.44945676E-04
  -7.63999987      -1.71770862E-05
  -7.63000011      -2.01343370E-04
  -7.61999989      -3.76430864E-04
  -7.61000013      -5.06403681E-04
  -7.59999990      -5.60768065E-04
  -7.59000015      -5.24314528E-04
  -7.57999992      -4.02576872E-04
  -7.57000017      -2.20813847E-04
  -7.55999994      -1.65997808E-05
  -7.55000019       1.71541280E-04
  -7.53999996       3.15505051E-04
  -7.53000021       4.04946826E-04
  -7.51999998       4.47999890E-04
  -7.51000023       4.65233461E-04
  -7.50000000       4.79264650E-04
  -7.48999977       5.04117692E-04
  -7.48000002       5.38556778E-04
  -7.46999979       5.66122297E-04
  -7.46000004       5.62009518E-04
  -7.44999981       5.04221651E-04
  -7.44000006       3.84642713E-04