  -16.0000000       0.00000000    
  -15.9899998       0.00000000    
  -15.9799995       0.00000000    
  -15.9700003       0.00000000    
  -15.9600000       0.00000000    
  -15.9499998       0.00000000    
  -15.9399996       0.00000000    
  -15.9300003       0.00000000    
  -15.9200001       0.00000000    
  -15.9099998       0.00000000    
  -15.8999996      -3.79841764E-36
  -15.8900003      -3.56030090E-35
  -15.8800001      -1.09984302E-34
  -15.8699999      -6.40599020E-35
  -15.8599997      -1.53652733E-33
  -15.8500004      -2.75827281E-32
  -15.8400002      -2.07444801E-31
  -15.8299999      -9.86997907E-31
  -15.8199997      -3.35171845E-30
  -15.8100004      -8.32038750E-30
  -15.8000002      -1.40144731E-29
  -15.7900000      -8.98149305E-30
  -15.7799997       3.41108043E-29
  -15.7700005       1.47389721E-28
  -15.7600002       3.11817375E-28
  -15.7500000       3.56983899E-28
  -15.7399998      -6.06872803E-29
  -15.7299995      -1.05780990E-27
  -15.7200003      -1.23499584E-27
  -15.7100000       4.45860871E-27
  -15.6999998       2.58059852E-26
  -15.6899996       7.21911574E-26
  -15.6800003       1.33687802E-25
  -15.6700001       1.45179385E-25
  -15.6599998      -5.01971977E-26
  -15.6499996      -6.84219295E-25
  -15.6400003      -1.89966620E-24
  -15.6300001      -3.35487002E-24
  -15.6199999      -3.65128293E-24
  -15.6099997       3.05153523E-26
  -15.6000004       1.12429103E-23
  -15.5900002       3.14269784E-23
  -15.5799999       5.43719223E-23
  -15.5699997       5.95369292E-23
  -15.5600004       9.57225201E-24
  -15.5500002      -1.38564201E-22
  -15.5400000      -3.98885687E-22
  -15.5299997      -6.96477644E-22
  -15.5200005      -8.02932619E-22
  -15.5100002      -3.21275481E-22
  -15.5000000       1.19577752E-21
  -15.4899998       3.91661175E-21
  -15.4799995       7.19560134E-21
  -15.4700003       9.02063238E-21
  -15.4600000       5.88469495E-21
  -15.4499998      -6.28068546E-21
  -15.4399996      -2.95581166E-20
  -15.4300003      -5.99541994E-20
  -15.4200001      -8.31167106E-20
  -15.4099998      -7.28874397E-20
  -15.3999996       3.03419401E-21
  -15.3900003       1.66604114E-19
  -15.3800001       4.02253408E-19
  -15.3699999       6.26867040E-19
  -15.3599997       6.74829091E-19
  -15.3500004       3.23767100E-19
  -15.3400002      -6.15482191E-19
  -15.3299999      -2.14102839E-18
  -15.3199997      -3.87155806E-18
  -15.3100004      -4.91960624E-18
  -15.3000002      -3.96446574E-18
  -15.2900000       3.37460920E-19
  -15.2799997       8.55312777E-18
  -15.2700005       1.94249636E-17
  -15.2600002       2.89869597E-17
  -15.2500000       3.05098091E-17
  -15.2399998       1.60087705E-17
  -15.2299995      -2.02560055E-17
  -15.2200003      -7.66522399E-17
  -15.2100000      -1.39001918E-16
  -15.1999998      -1.78210504E-16
  -15.1899996      -1.54202375E-16
  -15.1800003      -2.88829699E-17
  -15.1700001       2.11997285E-16
  -15.1599998       5.33067956E-16
  -15.1499996       8.30363286E-16
  -15.1400003       9.34003961E-16
  -15.1300001       6.46697056E-16
  -15.1199999      -1.76282485E-16
  -15.1099997      -1.51715724E-15
  -15.1000004      -3.09023284E-15
  -15.0900002      -4.29637049E-15
  -15.0799999      -4.29982173E-15
  -15.0699997      -2.27086590E-15
  -15.0600004       2.21463159E-15
  -15.0500002       8.70860238E-15
  -15.0400000       1.55352636E-14
  -15.0299997       1.97828729E-14
  -15.0200005       1.78611195E-14
  -15.0100002       6.71251630E-15
  -15.0000000      -1.44811734E-14
  -14.9899998      -4.25748236E-14
  -14.9799995      -6.94803373E-14
  -14.9700003      -8.27973012E-14
  -14.9600000      -6.86957544E-14
  -14.9499998      -1.70618829E-14
  -14.9399996       7.20615381E-14
  -14.9300003       1.82793383E-13
  -14.9200001       2.81320187E-13
  -14.9099998       3.20193633E-13
  -14.8999996       2.50596310E-13
  -14.8900003       4.16379137E-14
  -14.8800001      -2.97645291E-13
  -14.8699999      -7.01199569E-13
  -14.8599997      -1.04315482E-12
  -14.8500004      -1.15751473E-12
  -14.8400002      -8.83467128E-13
  -14.8299999      -1.30744428E-13
  -14.8199997       1.05107589E-12
  -14.8100004       2.42445560E-12
  -14.8000002       3.56535569E-12
  -14.7900000       3.93637076E-12
  -14.7799997       3.03604125E-12
  -14.7700005       6.01891963E-13
  -14.7600002      -3.18522292E-12
  -14.7500000      -7.57083285E-12
  -14.7399998      -1.12502412E-11
  -14.7299995      -1.26017599E-11
  -14.7200003      -1.01322267E-11
  -14.7100000      -3.06120754E-12
  -14.6999998       8.10900219E-12
  -14.6899996       2.12455210E-11
  -14.6800003       3.26687878E-11
  -14.6700001       3.78058279E-11
  -14.6599998       3.24031739E-11
  -14.6499996       1.40918284E-11
  -14.6400003      -1.61002860E-11
  -14.6300001      -5.28206749E-11
  -14.6199999      -8.65714722E-11
  -14.6099997      -1.05326678E-10
  -14.6000004      -9.75511685E-11
  -14.5900002      -5.61072439E-11
  -14.5799999       1.79289656E-11
  -14.5699997       1.12809241E-10
  -14.5600004       2.06247977E-10
  -14.5500002       2.68938427E-10
  -14.5400000       2.71401485E-10
  -14.5299997       1.93042873E-10
  -14.5200005       3.12600119E-11
  -14.5100002      -1.92213606E-10
  -14.5000000      -4.30493696E-10
  -14.4899998      -6.18106621E-10
  -14.4799995      -6.85025814E-10
  -14.4700003      -5.76032277E-10
  -14.4600000      -2.71059369E-10
  -14.4499998       1.99257402E-10
  -14.4399996       7.48668960E-10
  -14.4300003       1.24521182E-09
  -14.4200001       1.53676971E-09
  -14.4099998       1.48878365E-09
  -14.3999996       1.02624187E-09
  -14.3900003       1.69021644E-10
  -14.3800001      -9.50923007E-10
  -14.3699999      -2.09942685E-09
  -14.3599997      -2.98023362E-09
  -14.3500004      -3.30077232E-09
  -14.3400002      -2.85092128E-09
  -14.3299999      -1.57596436E-09
  -14.3199997       3.77115755E-10
  -14.3100004       2.65754596E-09
  -14.3000002       4.76167861E-09
  -14.2900000       6.13304252E-09
  -14.2799997       6.29387475E-09
  -14.2700005       4.97919128E-09
  -14.2600002       2.23912711E-09
  -14.2500000      -1.52173962E-09
  -14.2399998      -5.58763347E-09
  -14.2299995      -9.05841002E-09
  -14.2200003      -1.10396510E-08
  -14.2100000      -1.08568798E-08
  -14.1999998      -8.24377899E-09
  -14.1899996      -3.45495921E-09
  -14.1800003       2.73270584E-09
  -14.1700001       9.14202491E-09
  -14.1599998       1.44230308E-08
  -14.1499996       1.73406889E-08
  -14.1400003       1.70587917E-08
  -14.1300001       1.33523379E-08
  -14.1199999       6.69390365E-09
  -14.1099997      -1.81255488E-09
  -14.1000004      -1.06408020E-08
  -14.0900002      -1.81491728E-08
  -14.0799999      -2.29147759E-08
  -14.0699997      -2.40168880E-08
  -14.0600004      -2.12040092E-08
  -14.0500002      -1.49093786E-08
  -14.0400000      -6.11982554E-09
  -14.0299997       3.85825638E-09
  -14.0200005       1.36659164E-08
  -14.0100002       2.21164811E-08
  -14.0000000       2.83212938E-08
  -13.9899998       3.16964197E-08
  -13.9799995       3.18750892E-08
  -13.9700003       2.85887527E-08
  -13.9600000       2.15969038E-08
  -13.9499998       1.07339808E-08
  -13.9399996      -3.89995991E-09
  -13.9300003      -2.16392806E-08
  -13.9200001      -4.09409786E-08
  -13.9099998      -5.92012732E-08
  -13.8999996      -7.28439318E-08
  -13.8900003      -7.77766971E-08
  -13.8800001      -7.02189382E-08
  -13.8699999      -4.77824003E-08
  -13.8599997      -1.05700622E-08
  -13.8500004       3.80182570E-08
  -13.8400002       9.10879763E-08
  -13.8299999       1.38886676E-07
  -13.8199997       1.70330239E-07
  -13.8100004       1.75245617E-07
  -13.8000002       1.46927675E-07
  -13.7900000       8.44379002E-08
  -13.7799997      -5.98032690E-09
  -13.7700005      -1.10894476E-07
  -13.7600002      -2.11354120E-07
  -13.7500000      -2.86142523E-07
  -13.7399998      -3.16103922E-07
  -13.7299995      -2.88695759E-07
  -13.7200003      -2.01726763E-07
  -13.7100000      -6.52823218E-08
  -13.6999998       9.88683340E-08
  -13.6899996       2.60583050E-07
  -13.6800003       3.86952451E-07
  -13.6700001       4.49178543E-07
  -13.6599998       4.29279282E-07
  -13.6499996       3.25047210E-07
  -13.6400003       1.51931786E-07
  -13.6300001      -5.88959423E-08
  -13.6199999      -2.66207593E-07
  -13.6099997      -4.27128214E-07
  -13.6000004      -5.06567744E-07
  -13.5900002      -4.85549890E-07
  -13.5799999      -3.66395653E-07
  -13.5699997      -1.73302610E-07
  -13.5600004       5.21506038E-08
  -13.5500002       2.59858439E-07
  -13.5400000       4.02574415E-07
  -13.5299997       4.47251239E-07
  -13.5200005       3.83580357E-07
  -13.5100002       2.27463914E-07
  -13.5000000       1.82421402E-08
  -13.4899998      -1.90039472E-07
  -13.4799995      -3.41535582E-07
  -13.4700003      -3.92722541E-07
  -13.4600000      -3.24268001E-07
  -13.4499998      -1.47501240E-07
  -13.4399996       9.65212337E-08
  -13.4300003       3.45627740E-07
  -13.4200001       5.31161959E-07
  -13.4099998       5.95321467E-07
  -13.3999996       5.06963374E-07
  -13.3900003       2.71720182E-07
  -13.3800001      -6.65733069E-08
  -13.3699999      -4.34132943E-07
  -13.3599997      -7.43735086E-07
  -13.3500004      -9.15832118E-07
  -13.3400002      -8.99178644E-07
  -13.3299999      -6.85627583E-07
  -13.3199997      -3.14881731E-07
  -13.3100004       1.32717290E-07
  -13.3000002       5.54319740E-07
  -13.2900000       8.49663309E-07
  -13.2799997       9.47076728E-07
  -13.2700005       8.23659093E-07
  -13.2600002       5.13925329E-07
  -13.2500000       1.03798186E-07
  -13.2399998      -2.89563559E-07
  -13.2299995      -5.47855620E-07
  -13.2200003      -5.84446525E-07
  -13.2100000      -3.71422971E-07
  -13.1999998       4.68303334E-08
  -13.1899996       5.58345619E-07
  -13.1800003       1.00704733E-06
  -13.1700001       1.23061341E-06
  -13.1599998       1.10422820E-06
  -13.1499996       5.79443622E-07
  -13.1400003      -2.92352524E-07
  -13.1300001      -1.35940070E-06
  -13.1199999      -2.39437600E-06
  -13.1099997      -3.14080444E-06
  -13.1000004      -3.37165648E-06
  -13.0900002      -2.94687084E-06
  -13.0799999      -1.85576778E-06
  -13.0699997      -2.32882698E-07
  -13.0600004       1.65864765E-06
  -13.0500002       3.47460264E-06
  -13.0400000       4.85902910E-06
  -13.0299997       5.52055008E-06
  -13.0200005       5.29822410E-06
  -13.0100002       4.20108381E-06
  -13.0000000       2.41096382E-06
  -12.9899998       2.46522148E-07
  -12.9799995      -1.90439300E-06
  -12.9700003      -3.66898848E-06
  -12.9600000      -4.77070989E-06
  -12.9499998      -5.08774474E-06
  -12.9399996      -4.67414247E-06
  -12.9300003      -3.73765806E-06
  -12.9200001      -2.57911756E-06
  -12.9099998      -1.50808535E-06
  -12.8999996      -7.56300949E-07
  -12.8900003      -4.11876528E-07
  -12.8800001      -3.92914359E-07
  -12.8699999      -4.69780474E-07
  -12.8599997      -3.32871309E-07
  -12.8500004       3.09665467E-07
  -12.8400002       1.62895731E-06
  -12.8299999       3.59524165E-06
  -12.8199997       5.94488301E-06
  -12.8100004       8.20864716E-06
  -12.8000002       9.80054119E-06
  -12.7900000       1.01507940E-05
  -12.7799997       8.85366717E-06
  -12.7700005       5.79436255E-06
  -12.7600002       1.22126130E-06
  -12.7500000      -4.25973258E-06
  -12.7399998      -9.77484888E-06
  -12.7299995      -1.43424131E-05
  -12.7200003      -1.70715266E-05
  -12.7100000      -1.73564240E-05
  -12.6999998      -1.50216183E-05
  -12.6899996      -1.03817611E-05
  -12.6800003      -4.19793969E-06
  -12.6700001       2.46472405E-06
  -12.6599998       8.45027171E-06
  -12.6499996       1.27504281E-05
  -12.6400003       1.47154233E-05
  -12.6300001       1.41886403E-05
  -12.6199999       1.15327675E-05
  -12.6099997       7.53933091E-06
  -12.6000004       3.24037069E-06
  -12.5900002      -3.35706687E-07
  -12.5799999      -2.40808731E-06
  -12.5699997      -2.63014431E-06
  -12.5600004      -1.17374327E-06
  -12.5500002       1.31056390E-06
  -12.5400000       3.85045951E-06
  -12.5299997       5.39112079E-06
  -12.5200005       5.06183051E-06
  -12.5100002       2.40725376E-06
  -12.5000000      -2.47246726E-06
  -12.4899998      -8.90858610E-06
  -12.4799995      -1.57845589E-05
  -12.4700003      -2.17667712E-05
  -12.4600000      -2.55952000E-05
  -12.4499998      -2.63692818E-05
  -12.4399996      -2.37639797E-05
  -12.4300003      -1.81259275E-05
  -12.4200001      -1.04257524E-05
  -12.4099998      -2.07473431E-06
  -12.3999996       5.35582922E-06
  -12.3900003       1.04523133E-05
  -12.3800001       1.22451720E-05
  -12.3699999       1.04027604E-05
  -12.3599997       5.29201770E-06
  -12.3500004      -2.10493477E-06
  -12.3400002      -1.03976636E-05
  -12.3299999      -1.80706847E-05
  -12.3199997      -2.37805398E-05
  -12.3100004      -2.66030274E-05
  -12.3000002      -2.61801415E-05
  -12.2900000      -2.27403416E-05
  -12.2799997      -1.69951818E-05
  -12.2700005      -9.94293987E-06
  -12.2600002      -2.62968751E-06
  -12.2500000       4.07448897E-06
  -12.2399998       9.63278944E-06
  -12.2299995       1.38994728E-05
  -12.2200003       1.70707463E-05
  -12.2100000       1.95480734E-05
  -12.1999998       2.17545494E-05
  -12.1899996       2.39559286E-05
  -12.1800003       2.61356799E-05
  -12.1700001       2.79590968E-05
  -12.1599998       2.88380324E-05
  -12.1499996       2.80815038E-05
  -12.1400003       2.50944049E-05
  -12.1300001       1.95728117E-05
  -12.1199999       1.16433494E-05
  -12.1099997       1.90651201E-06
  -12.1000004      -8.63340392E-06
  -12.0900002      -1.87410478E-05
  -12.0799999      -2.71884237E-05
  -12.0699997      -3.30041003E-05
  -12.0600004      -3.56734308E-05
  -12.0500002      -3.52399693E-05
  -12.0400000      -3.22808992E-05
  -12.0299997      -2.77595482E-05
  -12.0200005      -2.27883975E-05
  -12.0100002      -1.83591383E-05
  -12.0000000      -1.51058284E-05
  -11.9899998      -1.31606421E-05
  -11.9799995      -1.21398189E-05
  -11.9700003      -1.12655935E-05
  -11.9600000      -9.59575664E-06
  -11.9499998      -6.30454042E-06
  -11.9399996      -9.44134399E-07
  -11.9300003       6.38065012E-06
  -11.9200001       1.49717680E-05
  -11.9099998       2.36458600E-05
  -11.8999996       3.09682218E-05
  -11.8900003       3.55584780E-05
  -11.8800001       3.63949985E-05
  -11.8699999       3.30448893E-05
  -11.8599997       2.57645879E-05
  -11.8500004       1.54483587E-05
  -11.8400002       3.43990632E-06
  -11.8299999      -8.74385569E-06
  -11.8199997      -1.97070567E-05
  -11.8100004      -2.84149428E-05
  -11.8000002      -3.43242682E-05
  -11.7900000      -3.73795883E-05
  -11.7799997      -3.78883051E-05
  -11.7700005      -3.63202853E-05
  -11.7600002      -3.30977273E-05
  -11.7500000      -2.84419821E-05
  -11.7399998      -2.23258285E-05
  -11.7299995      -1.45472723E-05
  -11.7200003      -4.90310958E-06
  -11.7100000       6.59202396E-06
  -11.6999998       1.95130342E-05
  -11.6899996       3.29276263E-05
  -11.6800003       4.54418696E-05
  -11.6700001       5.53967366E-05
  -11.6599998       6.11813957E-05
  -11.6499996       6.15930257E-05
  -11.6400003       5.61532324E-05
  -11.6300001       4.52950662E-05
  -11.6199999       3.03607794E-05
  -11.6099997       1.33946414E-05
  -11.6000004      -3.23472773E-06
  -11.5900002      -1.73036060E-05
  -11.5799999      -2.71884019E-05
  -11.5699997      -3.21994230E-05
  -11.5600004      -3.27100897E-05
  -11.5500002      -3.00438351E-05
  -11.5400000      -2.61369296E-05
  -11.5299997      -2.30486967E-05
  -11.5200005      -2.24286796E-05
  -11.5100002      -2.50639150E-05
  -11.5000000      -3.06151924E-05
  -11.4899998      -3.76119096E-05
  -11.4799995      -4.37195849E-05
  -11.4700003      -4.62341523E-05
  -11.4600000      -4.27062514E-05
  -11.4499998      -3.15669022E-05
  -11.4399996      -1.26208206E-05
  -11.4300003       1.27047915E-05
  -11.4200001       4.14234528E-05
  -11.4099998       6.93732582E-05
  -11.3999996       9.18681617E-05
  -11.3900003       1.04510007E-04
  -11.3800001       1.04019164E-04
  -11.3699999       8.89307703E-05
  -11.3599997       6.00199528E-05
  -11.3500004       2.03607069E-05
  -11.3400002      -2.50165849E-05
  -11.3299999      -6.98340300E-05
  -11.3199997      -1.07538603E-04
  -11.3100004      -1.32380941E-04
  -11.3000002      -1.40414137E-04
  -11.2900000      -1.30228625E-04
  -11.2799997      -1.03276237E-04
  -11.2700005      -6.37036646E-05
  -11.2600002      -1.77034781E-05
  -11.2500000       2.75174225E-05
  -11.2399998       6.49728536E-05
  -11.2299995       8.91090822E-05
  -11.2200003       9.67614033E-05
  -11.2100000       8.76665435E-05
  -11.1999998       6.44257743E-05
  -11.1899996       3.19237843E-05
  -11.1800003      -3.67856114E-06
  -11.1700001      -3.61687344E-05
  -11.1599998      -6.04675297E-05
  -11.1499996      -7.35267968E-05
  -11.1400003      -7.47565791E-05
  -11.1300001      -6.59055295E-05
  -11.1199999      -5.04436975E-05
  -11.1099997      -3.26104819E-05
  -11.1000004      -1.63654895E-05
  -11.0900002      -4.49662821E-06
  -11.0799999       1.90584228E-06
  -11.0699997       3.49762968E-06
  -11.0600004       2.26386601E-06
  -11.0500002       7.70179895E-07
  -11.0400000       1.29815828E-06
  -11.0299997       5.10851669E-06
  -11.0200005       1.20367276E-05
  -11.0100002       2.05323340E-05
  -11.0000000       2.81288449E-05
  -10.9899998       3.22097003E-05
  -10.9799995       3.08499439E-05
  -10.9700003       2.34874551E-05
  -10.9600000       1.12195730E-05
  -10.9499998      -3.37860865E-06
  -10.9399996      -1.68859497E-05
  -10.9300003      -2.59596618E-05
  -10.9200001      -2.83053214E-05
  -10.9099998      -2.34200470E-05
  -10.8999996      -1.28851034E-05
  -10.8900003      -9.59547464E-08
  -10.8800001       1.05348927E-05
  -10.8699999       1.47228957E-05
  -10.8599997       9.52196297E-06
  -10.8500004      -5.71487408E-06
  -10.8400002      -2.88917508E-05
  -10.8299999      -5.53916871E-05
  -10.8199997      -7.89511032E-05
  -10.8100004      -9.30111273E-05
  -10.8000002      -9.22455220E-05
  -10.7900000      -7.39115421E-05
  -10.7799997      -3.87009532E-05
  -10.7700005       9.12277210E-06
  -10.7600002       6.23547749E-05
  -10.7500000       1.12127891E-04
  -10.7399998       1.49576925E-04
  -10.7299995       1.67541497E-04
  -10.7200003       1.61956457E-04
  -10.7100000       1.32651185E-04
  -10.6999998       8.34084713E-05
  -10.6899996       2.12886116E-05
  -10.6800003      -4.46310405E-05
  -10.6700001      -1.04845116E-04
  -10.6599998      -1.51035114E-04
  -10.6499996      -1.77421534E-04
  -10.6400003      -1.81631345E-04
  -10.6300001      -1.64958008E-04
  -10.6199999      -1.32001645E-04
  -10.6099997      -8.97773134E-05
  -10.6000004      -4.64568438E-05
  -10.5900002      -9.95530445E-06
  -10.5799999       1.34123866E-05
  -10.5699997       1.99951173E-05
  -10.5600004       9.42112274E-06
  -10.5500002      -1.53398305E-05
  -10.5400000      -4.84929842E-05
  -10.5299997      -8.24495437E-05
  -10.5200005      -1.09218039E-04
  -10.5100002      -1.21927282E-04
  -10.5000000      -1.16208270E-04
  -10.4899998      -9.11638999E-05
  -10.4799995      -4.97114743E-05
  -10.4700003       1.81038786E-06
  -10.4600000       5.47362470E-05
  -10.4499998       9.96860545E-05
  -10.4399996       1.28387910E-04
  -10.4300003       1.35339797E-04
  -10.4200001       1.18953991E-04
  -10.4099998       8.19265188E-05
  -10.3999996       3.07369846E-05
  -10.3900003      -2.56231160E-05
  -10.3800001      -7.74203218E-05
  -10.3699999      -1.16059513E-04
  -10.3599997      -1.35663518E-04
  -10.3500004      -1.34016460E-04
  -10.3400002      -1.12691341E-04
  -10.3299999      -7.63801363E-05
  -10.3199997      -3.16333062E-05
  -10.3100004       1.46537786E-05
  -10.3000002       5.66288691E-05
  -10.2900000       9.04249173E-05
  -10.2799997       1.14473827E-04
  -10.2700005       1.29188222E-04
  -10.2600002       1.36176983E-04
  -10.2500000       1.37274823E-04
  -10.2399998       1.33695663E-04
  -10.2299995       1.25560808E-04
  -10.2200003       1.11924928E-04
  -10.2100000       9.12654796E-05
  -10.1999998       6.22612424E-05
  -10.1899996       2.46021482E-05
  -10.1800003      -2.04322350E-05
  -10.1700001      -6.98158474E-05
  -10.1599998      -1.19104494E-04
  -10.1499996      -1.63172517E-04
  -10.1400003      -1.97166097E-04
  -10.1300001      -2.17425986E-04
  -10.1199999      -2.22148825E-04
  -10.1099997      -2.11637045E-04
  -10.1000004      -1.88105463E-04
  -10.0900002      -1.55131376E-04
  -10.0799999      -1.16919146E-04
  -10.0699997      -7.75779918E-05
  -10.0600004      -4.05772662E-05
  -10.0500002      -8.46462171E-06
  -10.0400000       1.71637712E-05
  -10.0299997       3.55305492E-05
  -10.0200005       4.65077464E-05
  -10.0100002       5.05187636E-05
  -10.0000000       4.85576420E-05
  -9.98999977       4.22889862E-05
  -9.97999954       3.41224913E-05
  -9.97000027       2.71291119E-05
  -9.96000004       2.46967993E-05
  -9.94999981       2.99080566E-05
  -9.93999958       4.47347120E-05
  -9.93000031       6.92491012E-05
  -9.92000008       1.01105710E-04
  -9.90999985       1.35526105E-04
  -9.89999962       1.65916877E-04
  -9.89000034       1.85086334E-04
  -9.88000011       1.86843696E-04
  -9.86999989       1.67618025E-04
  -9.85999966       1.27672945E-04
  -9.85000038       7.15446586E-05
  -9.84000015       7.49339188E-06
  -9.82999992      -5.40032597E-05
  -9.81999969      -1.02432154E-04
  -9.81000042      -1.29617940E-04
  -9.80000019      -1.31715904E-04
  -9.78999996      -1.10308683E-04
  -9.77999973      -7.22853729E-05
  -9.77000046      -2.84695234E-05
  -9.76000023       8.72827331E-06
  -9.75000000       2.81062203E-05
  -9.73999977       2.22634972E-05
  -9.72999954      -1.06276339E-05
  -9.72000027      -6.62965249E-05
  -9.71000004      -1.35225389E-04
  -9.69999981      -2.04678494E-04
  -9.68999958      -2.61433364E-04
  -9.68000031      -2.94581405E-04
  -9.67000008      -2.97764316E-04
  -9.65999985      -2.70364952E-04
  -9.64999962      -2.17431691E-04
  -9.64000034      -1.48415391E-04
  -9.63000011      -7.50634208E-05
  -9.61999989      -8.98195867E-06
  -9.60999966       4.05869323E-05
  -9.60000038       6.83200633E-05
  -9.59000015       7.34355635E-05
  -9.57999992       5.93486038E-05
  -9.56999969       3.25376095E-05
  -9.56000042       9.43857344E-07
  -9.55000019      -2.77175095E-05
  -9.53999996      -4.73924592E-05
  -9.52999973      -5.46295851E-05
  -9.52000046      -4.89239683E-05
  -9.51000023      -3.24901957E-05
  -9.50000000      -9.58988039E-06
  -9.48999977       1.44079468E-05
  -9.47999954       3.40467122E-05
  -9.47000027       4.47196580E-05
  -9.46000004       4.34028734E-05
  -9.44999981       2.91061206E-05
  -9.43999958       3.00340298E-06
  -9.43000031      -3.17598933E-05
  -9.42000008      -7.05537896E-05
  -9.40999985      -1.07980479E-04
  -9.39999962      -1.38722709E-04
  -9.39000034      -1.58396040E-04
  -9.38000011      -1.64262543E-04
  -9.36999989      -1.55674192E-04
  -9.35999966      -1.34153102E-04
  -9.35000038      -1.03081868E-04
  -9.34000015      -6.70567169E-05
  -9.32999992      -3.10305441E-05
  -9.31999969       5.77279025E-07
  -9.31000042       2.46182735E-05
  -9.30000019       3.96488576E-05
  -9.28999996       4.59834228E-05
  -9.27999973       4.53802313E-05
  -9.27000046       4.04598541E-05
  -9.26000023       3.40128208E-05
  -9.25000000       2.83673053E-05
  -9.23999977       2.49565492E-05
  -9.22999954       2.41608650E-05
  -9.22000027       2.54212318E-05
  -9.21000004       2.75527800E-05
  -9.19999981       2.91466531E-05
  -9.18999958       2.89455547E-05
  -9.18000031       2.61084751E-05
  -9.17000008       2.03290201E-05
  -9.15999985       1.18214366E-05
  -9.14999962       1.22212907E-06
  -9.14000034      -1.05376785E-05
  -9.13000011      -2.23480874E-05
  -9.11999989      -3.30149924E-05
  -9.10999966      -4.13498419E-05
  -9.10000038      -4.62838470E-05
  -9.09000015      -4.70258856E-05
  -9.07999992      -4.32551205E-05
  -9.06999969      -3.53043433E-05
  -9.06000042      -2.42652386E-05
  -9.05000019      -1.19466013E-05
  -9.03999996      -6.46378396E-07
  -9.02999973       7.24771735E-06
  -9.02000046       9.75249077E-06
  -9.01000023       5.75385047E-06
  -9.00000000      -4.69558154E-06
  -8.98999977      -2.03531035E-05
  -8.97999954      -3.90731911E-05
  -8.97000027      -5.83498113E-05
  -8.96000004      -7.59742616E-05
  -8.94999981      -9.06193964E-05
  -8.93999958      -1.02167694E-04
  -8.93000031      -1.11664973E-04
  -8.92000008      -1.20888493E-04
  -8.90999985      -1.31637280E-04
  -8.89999962      -1.44947131E-04
  -8.89000034      -1.60472831E-04
  -8.88000011      -1.76247660E-04
  -8.86999989      -1.88933715E-04
  -8.85999966      -1.94539578E-04
  -8.85000038      -1.89444982E-04
  -8.84000015      -1.71472726E-04
  -8.82999992      -1.40720862E-04
  -8.81999969      -9.99175390E-05
  -8.81000042      -5.41775044E-05
  -8.80000019      -1.01904980E-05
  -8.78999996       2.49852837E-05
  -8.77999973       4.52541717E-05
  -8.77000046       4.66417296E-05
  -8.76000023       2.80336644E-05
  -8.75000000      -8.64510548E-06
  -8.73999977      -5.88160910E-05
  -8.72999954      -1.16078321E-04
  -8.72000027      -1.73281922E-04
  -8.71000004      -2.23615134E-04
  -8.69999981      -2.61507463E-04
  -8.68999958      -2.83222442E-04
  -8.68000031      -2.87101488E-04
  -8.67000008      -2.73495796E-04
  -8.65999985      -2.44472205E-04
  -8.64999962      -2.03392396E-04
  -8.64000034      -1.54449284E-04
  -8.63000011      -1.02215417E-04
  -8.61999989      -5.12278602E-05
  -8.60999966      -5.61713068E-06
  -8.60000038       3.12133670E-05
  -8.59000015       5.68419382E-05
  -8.57999992       6.99905650E-05
  -8.56999969       7.05649873E-05
  -8.56000042       5.95563833E-05
  -8.55000019       3.88138214E-05
  -8.53999996       1.07281949E-05
  -8.52999973      -2.21064602E-05
  -8.52000046      -5.71805067E-05
  -8.51000023      -9.22467152E-05
  -8.50000000      -1.25365361E-04
  -8.48999977      -1.54838272E-04
  -8.47999954      -1.79094131E-04
  -8.47000027      -1.96607711E-04
  -8.46000004      -2.05926539E-04
  -8.44999981      -2.05842778E-04
  -8.43999958      -1.95692424E-04
  -8.43000031      -1.75707697E-04
  -8.42000008      -1.47309125E-04
  -8.40999985      -1.13217822E-04
  -8.39999962      -7.72990388E-05
  -8.39000034      -4.41110060E-05
  -8.38000011      -1.82125368E-05
  -8.36999989      -3.35591585E-06
  -8.35999966      -1.73849139E-06
  -8.35000038      -1.34907477E-05
  -8.34000015      -3.65383130E-05
  -8.32999992      -6.68969151E-05
  -8.31999969      -9.93619469E-05
  -8.31000042      -1.28462576E-04
  -8.30000019      -1.49485626E-04
  -8.28999996      -1.59354764E-04
  -8.27999973      -1.57179602E-04
  -8.27000046      -1.44361213E-04
  -8.26000023      -1.24238941E-04
  -8.25000000      -1.01363134E-04
  -8.23999977      -8.05587915E-05
  -8.22999954      -6.59848520E-05
  -8.22000027      -6.03868830E-05
  -8.21000004      -6.46886547E-05
  -8.19999981      -7.79842958E-05
  -8.18999958      -9.78977187E-05
  -8.18000031      -1.21194469E-04
  -8.17000008      -1.44481717E-04
  -8.15999985      -1.64826459E-04
  -8.14999962      -1.80161253E-04
  -8.14000034      -1.89417115E-04
  -8.13000011      -1.92406776E-04
  -8.11999989      -1.89552215E-04
  -8.10999966      -1.81587413E-04
  -8.10000038      -1.69359875E-04
  -8.09000015      -1.53804474E-04
  -8.07999992      -1.36084622E-04
  -8.06999969      -1.17817093E-04
  -8.06000042      -1.01243662E-04
  -8.05000019      -8.92068419E-05
  -8.03999996      -8.48371055E-05
  -8.02999973      -9.09534501E-05
  -8.02000046      -1.09292036E-04
  -8.01000023      -1.39768003E-04
  -8.00000000      -1.80014962E-04
  -7.98999977      -2.25408861E-04
  -7.98000002      -2.69670883E-04
  -7.96999979      -3.05984897E-04
  -7.96000004      -3.28402151E-04
  -7.94999981      -3.33192205E-04
  -7.94000006      -3.19773622E-04
  -7.92999983      -2.90942233E-04
  -7.92000008      -2.52287311E-04
  -7.90999985      -2.10906728E-04
  -7.90000010      -1.73736058E-04
  -7.88999987      -1.45927479E-04
  -7.88000011      -1.29716471E-04
  -7.86999989      -1.24086160E-04
  -7.86000013      -1.25316903E-04
  -7.84999990      -1.28256157E-04
  -7.84000015      -1.27936830E-04
  -7.82999992      -1.21074328E-04
  -7.82000017      -1.07016793E-04
  -7.80999994      -8.78923529E-05
  -7.80000019      -6.79427685E-05
  -7.78999996      -5.22751834E-05
  -7.78000021      -4.54272304E-05
  -7.76999998      -5.01760587E-05
  -7.76000023      -6.69216970E-05
  -7.75000000      -9.37757795E-05
  -7.73999977      -1.27257284E-04
  -7.73000002      -1.63314311E-04
  -7.71999979      -1.98314534E-04
  -7.71000004      -2.29695550E-04
  -7.69999981      -2.56118918E-04
  -7.69000006      -2.77166662E-04
  -7.67999983      -2.92786310E-04
  -7.67000008      -3.02769477E-04
  -7.65999985      -3.06513452E-04
  -7.65000010      -3.03179433E-04
  -7.63999987      -2.92186713E-04
  -7.63000011      -2.73827900E-04
  -7.61999989      -2.49723962E-04
  -7.61000013      -2.22881092E-04
  -7.59999990      -1.97253787E-04
  -7.59000015      -1.76903806E-04
  -7.57999992      -1.65005360E-04
  -7.57000017      -1.63022298E-04
  -7.55999994      -1.70339219E-04
  -7.55000019      -1.84483491E-04
  -7.53999996      -2.01875810E-04
  -7.53000021      -2.18868197E-04
  -7.51999998      -2.32731240E-04
  -7.51000023      -2.42275462E-04
  -7.50000000      -2.47923716E-04
  -7.48999977      -2.51244433E-04
  -7.48000002      -2.54141079E-04
  -7.46999979      -2.58003973E-04
  -7.46000004      -2.63128750E-04
  -7.44999981      -2.68595933E-04
  -7.44000006      -2.72632577E-04