  -16.0000000       0.00000000    
  -15.9899998       0.00000000    
  -15.9799995       0.00000000    
  -15.9700003       0.00000000    
  -15.9600000       0.00000000    
  -15.9499998       0.00000000    
  -15.9399996       0.00000000    
  -15.9300003       0.00000000    
  -15.9200001       0.00000000    
  -15.9099998       0.00000000    
  -15.8999996       0.00000000    
  -15.8900003       5.95434138E-40
  -15.8800001       8.23077596E-39
  -15.8699999       3.59796273E-38
  -15.8599997      -1.74277483E-37
  -15.8500004      -3.83582626E-36
  -15.8400002      -3.34175624E-35
  -15.8299999      -2.08153762E-34
  -15.8199997      -1.05517764E-33
  -15.8100004      -4.59200844E-33
  -15.8000002      -1.76008665E-32
  -15.7900000      -6.01567815E-32
  -15.7799997      -1.84340648E-31
  -15.7700005      -5.07208509E-31
  -15.7600002      -1.25116102E-30
  -15.7500000      -2.75288025E-30
  -15.7399998      -5.34341589E-30
  -15.7299995      -8.93837779E-30
  -15.7200003      -1.21840535E-29
  -15.7100000      -1.12135533E-29
  -15.6999998       1.41083434E-30
  -15.6899996       3.62400974E-29
  -15.6800003       1.03139976E-28
  -15.6700001       2.02984325E-28
  -15.6599998       3.16295619E-28
  -15.6499996       3.94486353E-28
  -15.6400003       3.62420775E-28
  -15.6300001       1.38236763E-28
  -15.6199999      -3.35628369E-28
  -15.6099997      -1.07321146E-27
  -15.6000004      -2.06550267E-27
  -15.5900002      -3.33607120E-27
  -15.5799999      -4.94552694E-27
  -15.5699997      -6.76502460E-27
  -15.5600004      -7.84656677E-27
  -15.5500002      -5.48486013E-27
  -15.5400000       5.32920493E-27
  -15.5299997       3.06241627E-26
  -15.5200005       7.26675185E-26
  -15.5100002       1.21289460E-25
  -15.5000000       1.44379825E-25
  -15.4899998       8.56971341E-26
  -15.4799995      -1.18107121E-25
  -15.4700003      -4.92009588E-25
  -15.4600000      -9.53621506E-25
  -15.4499998      -1.25174200E-24
  -15.4399996      -9.72040718E-25
  -15.4300003       3.21147469E-25
  -15.4200001       2.77496516E-24
  -15.4099998       5.83782432E-24
  -15.3999996       7.96037804E-24
  -15.3900003       6.73708118E-24
  -15.3800001      -2.03355880E-25
  -15.3699999      -1.35170969E-23
  -15.3599997      -3.01596639E-23
  -15.3500004      -4.22064566E-23
  -15.3400002      -3.79497726E-23
  -15.3299999      -6.37918051E-24
  -15.3199997       5.52363120E-23
  -15.3100004       1.33182124E-22
  -15.3000002       1.93278116E-22
  -15.2900000       1.86469363E-22
  -15.2799997       6.72907945E-23
  -15.2700005      -1.77179737E-22
  -15.2600002      -4.98015538E-22
  -15.2500000      -7.71329210E-22
  -15.2399998      -8.18407671E-22
  -15.2299995      -4.67263039E-22
  -15.2200003       3.54217126E-22
  -15.2100000       1.52475670E-21
  -15.1999998       2.68179871E-21
  -15.1899996       3.26295448E-21
  -15.1800003       2.65658626E-21
  -15.1700001       4.41456307E-22
  -15.1599998      -3.34503418E-21
  -15.1499996      -7.99376358E-21
  -15.1400003      -1.20475835E-20
  -15.1300001      -1.34249475E-20
  -15.1199999      -9.79359792E-21
  -15.1099997       7.49737393E-22
  -15.1000004       1.86373389E-20
  -15.0900002       4.14509252E-20
  -15.0799999       6.24908328E-20
  -15.0699997       7.00583916E-20
  -15.0600004       4.87648239E-20
  -15.0500002      -1.56065281E-20
  -15.0400000      -1.26877628E-19
  -15.0299997      -2.66238058E-19
  -15.0200005      -3.81823184E-19
  -15.0100002      -3.88572022E-19
  -15.0000000      -1.88200650E-19
  -14.9899998       2.84780139E-19
  -14.9799995       9.96313819E-19
  -14.9700003       1.74814552E-18
  -14.9600000       2.15591020E-18
  -14.9499998       1.71780133E-18
  -14.9399996       5.51553652E-21
  -14.9300003      -3.03829022E-18
  -14.9200001      -6.78554785E-18
  -14.9099998      -9.75661352E-18
  -14.8999996      -9.80298031E-18
  -14.8900003      -4.78594998E-18
  -14.8800001       6.27420300E-18
  -14.8699999       2.18787088E-17
  -14.8599997       3.71527510E-17
  -14.8500004       4.41235079E-17
  -14.8400002       3.37881807E-17
  -14.8299999       3.47708375E-20
  -14.8199997      -5.54455823E-17
  -14.8100004      -1.19150735E-16
  -14.8000002      -1.65234912E-16
  -14.7900000      -1.60781107E-16
  -14.7799997      -7.76520895E-17
  -14.7700005       9.11304550E-17
  -14.7600002       3.15908984E-16
  -14.7500000       5.23806657E-16
  -14.7399998       6.09075452E-16
  -14.7299995       4.64593760E-16
  -14.7200003       3.08901865E-17
  -14.7100000      -6.51099139E-16
  -14.6999998      -1.40614891E-15
  -14.6899996      -1.93499489E-15
  -14.6800003      -1.88617403E-15
  -14.6700001      -9.87271322E-16
  -14.6599998       7.94689117E-16
  -14.6499996       3.12155189E-15
  -14.6400003       5.25325641E-15
  -14.6300001       6.17883726E-15
  -14.6199999       4.92652531E-15
  -14.6099997       9.99629638E-16
  -14.6000004      -5.19350501E-15
  -14.5900002      -1.21024804E-14
  -14.5799999      -1.71761409E-14
  -14.5699997      -1.74860313E-14
  -14.5600004      -1.07763453E-14
  -14.5500002       3.31673496E-15
  -14.5400000       2.23091250E-14
  -14.5299997       4.06755148E-14
  -14.5200005       5.08055376E-14
  -14.5100002       4.51832243E-14
  -14.5000000       1.94014201E-14
  -14.4899998      -2.48571068E-14
  -14.4799995      -7.80534898E-14
  -14.4700003      -1.23386896E-13
  -14.4600000      -1.40399777E-13
  -14.4499998      -1.11326956E-13
  -14.4399996      -2.87867467E-14
  -14.4300003       9.75794017E-14
  -14.4200001       2.38344419E-13
  -14.4099998       3.47768987E-13
  -14.3999996       3.74392412E-13
  -14.3900003       2.77360627E-13
  -14.3800001       4.46308402E-14
  -14.3699999      -2.92692791E-13
  -14.3599997      -6.56106300E-13
  -14.3500004      -9.30233321E-13
  -14.3400002      -9.89292524E-13
  -14.3299999      -7.35716392E-13
  -14.3199997      -1.42017054E-13
  -14.3100004       7.16701817E-13
  -14.3000002       1.65292086E-12
  -14.2900000       2.38967440E-12
  -14.2799997       2.61918915E-12
  -14.2700005       2.08994909E-12
  -14.2600002       7.04179282E-13
  -14.2500000      -1.40075365E-12
  -14.2399998      -3.81668395E-12
  -14.2299995      -5.89985786E-12
  -14.2200003      -6.88903622E-12
  -14.2100000      -6.09793292E-12
  -14.1999998      -3.14890063E-12
  -14.1899996       1.80807723E-12
  -14.1800003       7.96122369E-12
  -14.1700001       1.38562677E-11
  -14.1599998       1.76156850E-11
  -14.1499996       1.73606633E-11
  -14.1400003       1.17785478E-11
  -14.1300001       7.14451014E-13
  -14.1199999      -1.43844736E-11
  -14.1099997      -3.03588717E-11
  -14.1000004      -4.27108141E-11
  -14.0900002      -4.65134042E-11
  -14.0799999      -3.77602498E-11
  -14.0699997      -1.48879797E-11
  -14.0600004       1.99403844E-11
  -14.0500002       6.02680753E-11
  -14.0400000       9.59047425E-11
  -14.0299997       1.14807622E-10
  -14.0200005       1.06125393E-10
  -14.0100002       6.38324948E-11
  -14.0000000      -9.98232746E-12
  -13.9899998      -1.03288607E-10
  -13.9799995      -1.94744540E-10
  -13.9700003      -2.57313643E-10
  -13.9600000      -2.64626432E-10
  -13.9499998      -1.98932815E-10
  -13.9399996      -5.86854731E-11
  -13.9300003       1.36622685E-10
  -13.9200001       3.46536272E-10
  -13.9099998       5.15873899E-10
  -13.8999996       5.86830418E-10
  -13.8900003       5.14827292E-10
  -13.8800001       2.84378243E-10
  -13.8699999      -7.96362004E-11
  -13.8599997      -5.09584153E-10
  -13.8500004      -9.04244346E-10
  -13.8400002      -1.14939447E-09
  -13.8299999      -1.14639942E-09
  -13.8199997      -8.42397929E-10
  -13.8100004      -2.53980337E-10
  -13.8000002       5.23455335E-10
  -13.7900000       1.32592182E-09
  -13.7799997       1.95140015E-09
  -13.7700005       2.20603980E-09
  -13.7600002       1.95625649E-09
  -13.7500000       1.17380328E-09
  -13.7399998      -3.92384909E-11
  -13.7299995      -1.45524348E-09
  -13.7200003      -2.75884759E-09
  -13.7100000      -3.61284225E-09
  -13.6999998      -3.73923292E-09
  -13.6899996      -2.99690539E-09
  -13.6800003      -1.43579260E-09
  -13.6700001       6.89163893E-10
  -13.6599998       2.95288172E-09
  -13.6499996       4.84129359E-09
  -13.6400003       5.86439919E-09
  -13.6300001       5.67723468E-09
  -13.6199999       4.18000967E-09
  -13.6099997       1.57043345E-09
  -13.6000004      -1.67014158E-09
  -13.5900002      -4.86104623E-09
  -13.5799999      -7.26455340E-09
  -13.5699997      -8.25776425E-09
  -13.5600004      -7.49503304E-09
  -13.5500002      -5.01939779E-09
  -13.5400000      -1.28900368E-09
  -13.5299997       2.89829472E-09
  -13.5200005       6.57513777E-09
  -13.5100002       8.83710083E-09
  -13.5000000       9.08393272E-09
  -13.4899998       7.20615612E-09
  -13.4799995       3.65901442E-09
  -13.4700003      -6.12136508E-10
  -13.4600000      -4.39515757E-09
  -13.4499998      -6.54137144E-09
  -13.4399996      -6.32331298E-09
  -13.4300003      -3.71888342E-09
  -13.4200001       4.75675943E-10
  -13.4099998       4.76890571E-09
  -13.3999996       7.34020045E-09
  -13.3900003       6.58418475E-09
  -13.3800001       1.70215408E-09
  -13.3699999      -6.83168855E-09
  -13.3599997      -1.70996231E-08
  -13.3500004      -2.59830610E-08
  -13.3400002      -2.98375973E-08
  -13.3299999      -2.54951793E-08
  -13.3199997      -1.13691021E-08
  -13.3100004       1.16403687E-08
  -13.3000002       3.97481301E-08
  -13.2900000       6.66213964E-08
  -13.2799997       8.45173460E-08
  -13.2700005       8.60749694E-08
  -13.2600002       6.64037429E-08
  -13.2500000       2.49603023E-08
  -13.2399998      -3.33350876E-08
  -13.2299995      -9.81880035E-08
  -13.2200003      -1.55429902E-07
  -13.2100000      -1.89797348E-07
  -13.1999998      -1.88501943E-07
  -13.1899996      -1.44816326E-07
  -13.1800003      -6.07728126E-08
  -13.1700001       5.18430454E-08
  -13.1599998       1.72714039E-07
  -13.1499996       2.76455324E-07
  -13.1400003       3.37792272E-07
  -13.1300001       3.37426201E-07
  -13.1199999       2.67257661E-07
  -13.1099997       1.33627367E-07
  -13.1000004      -4.24413962E-08
  -13.0900002      -2.28400751E-07
  -13.0799999      -3.86353491E-07
  -13.0699997      -4.81084783E-07
  -13.0600004      -4.88217779E-07
  -13.0500002      -4.00557070E-07
  -13.0400000      -2.30942760E-07
  -13.0299997      -1.06382698E-08
  -13.0200005       2.16713985E-07
  -13.0100002       4.04438225E-07
  -13.0000000       5.13433008E-07
  -12.9899998       5.21526658E-07
  -12.9799995       4.29190777E-07
  -12.9700003       2.59964565E-07
  -12.9600000       5.51707906E-08
  -12.9499998      -1.36062880E-07
  -12.9399996      -2.69181243E-07
  -12.9300003      -3.15897410E-07
  -12.9200001      -2.72092620E-07
  -12.9099998      -1.59590769E-07
  -12.8999996      -2.09414264E-08
  -12.8900003       9.18482002E-08
  -12.8800001       1.31999101E-07
  -12.8699999       7.23125240E-08
  -12.8599997      -8.47603445E-08
  -12.8500004      -3.04434081E-07
  -12.8400002      -5.25652979E-07
  -12.8299999      -6.75034926E-07
  -12.8199997      -6.85663167E-07
  -12.8100004      -5.16184514E-07
  -12.8000002      -1.65253695E-07
  -12.7900000       3.22782427E-07
  -12.7799997       8.63099103E-07
  -12.7700005       1.34601646E-06
  -12.7600002       1.65990684E-06
  -12.7500000       1.71630472E-06
  -12.7399998       1.47137678E-06
  -12.7299995       9.38575795E-07
  -12.7200003       1.89258444E-07
  -12.7100000      -6.59195109E-07
  -12.6999998      -1.46532125E-06
  -12.6899996      -2.09084010E-06
  -12.6800003      -2.42735450E-06
  -12.6700001      -2.41682505E-06
  -12.6599998      -2.06170284E-06
  -12.6499996      -1.42300087E-06
  -12.6400003      -6.07225104E-07
  -12.6300001       2.54647432E-07
  -12.6199999       1.03159186E-06
  -12.6099997       1.61553021E-06
  -12.6000004       1.93882602E-06
  -12.5900002       1.98367434E-06
  -12.5799999       1.78250230E-06
  -12.5699997       1.41007490E-06
  -12.5600004       9.69104008E-07
  -12.5500002       5.71743101E-07
  -12.5400000       3.19478602E-07
  -12.5299997       2.83811346E-07
  -12.5200005       4.89964236E-07
  -12.5100002       9.05737522E-07
  -12.5000000       1.43753039E-06
  -12.4899998       1.93526421E-06
  -12.4799995       2.20725587E-06
  -12.4700003       2.04486196E-06
  -12.4600000       1.25494500E-06
  -12.4499998      -3.03803347E-07
  -12.4399996      -2.68646909E-06
  -12.4300003      -5.83623660E-06
  -12.4200001      -9.57392240E-06
  -12.4099998      -1.36073322E-05
  -12.3999996      -1.75617170E-05
  -12.3900003      -2.10283288E-05
  -12.3800001      -2.36238102E-05
  -12.3699999      -2.50498742E-05
  -12.3599997      -2.51415240E-05
  -12.3500004      -2.38933426E-05
  -12.3400002      -2.14572847E-05
  -12.3299999      -1.81112082E-05
  -12.3199997      -1.42038652E-05
  -12.3100004      -1.00877069E-05
  -12.3000002      -6.05426476E-06
  -12.2900000      -2.28688828E-06
  -12.2799997       1.15790237E-06
  -12.2700005       4.33564173E-06
  -12.2600002       7.36895799E-06
  -12.2500000       1.03832808E-05
  -12.2399998       1.34394140E-05
  -12.2299995       1.64806916E-05
  -12.2200003       1.93096275E-05
  -12.2100000       2.16022781E-05
  -12.1999998       2.29596189E-05
  -12.1899996       2.29860107E-05
  -12.1800003       2.13780640E-05
  -12.1700001       1.80040824E-05
  -12.1599998       1.29561367E-05
  -12.1499996       6.56284010E-06
  -12.1400003      -6.40318376E-07
  -12.1300001      -7.97698340E-06
  -12.1199999      -1.47189094E-05
  -12.1099997      -2.01808380E-05
  -12.1000004      -2.38048797E-05
  -12.0900002      -2.52224127E-05
  -12.0799999      -2.42879778E-05
  -12.0699997      -2.10861799E-05
  -12.0600004      -1.59170722E-05
  -12.0500002      -9.26704888E-06
  -12.0400000      -1.77065817E-06
  -12.0299997       5.83457859E-06
  -12.0200005       1.27615676E-05
  -12.0100002       1.82378553E-05
  -12.0000000       2.15815435E-05
  -11.9899998       2.22850613E-05
  -11.9799995       2.00967515E-05
  -11.9700003       1.50846663E-05
  -11.9600000       7.66488938E-06
  -11.9499998      -1.42036993E-06
  -11.9399996      -1.11812333E-05
  -11.9300003      -2.05091910E-05
  -11.9200001      -2.83375120E-05
  -11.9099998      -3.38035716E-05
  -11.8999996      -3.63797153E-05
  -11.8900003      -3.59437254E-05
  -11.8800001      -3.27722482E-05
  -11.8699999      -2.74582744E-05
  -11.8599997      -2.07721787E-05
  -11.8500004      -1.35000446E-05
  -11.8400002      -6.29886699E-06
  -11.8299999       3.96417931E-07
  -11.8199997       6.39339123E-06
  -11.8100004       1.16895862E-05
  -11.8000002       1.63672012E-05
  -11.7900000       2.04707794E-05
  -11.7799997       2.39090350E-05
  -11.7700005       2.64155769E-05
  -11.7600002       2.75864804E-05
  -11.7500000       2.69895027E-05
  -11.7399998       2.43169070E-05
  -11.7299995       1.95377270E-05
  -11.7200003       1.30007284E-05
  -11.7100000       5.44841532E-06
  -11.6999998      -2.07648986E-06
  -11.6899996      -8.42269492E-06
  -11.6800003      -1.25827801E-05
  -11.6700001      -1.39485865E-05
  -11.6599998      -1.25045435E-05
  -11.6499996      -8.90260344E-06
  -11.6400003      -4.38599545E-06
  -11.6300001      -5.62411685E-07
  -11.6199999       9.36859067E-07
  -11.6099997      -1.15470505E-06
  -11.6000004      -7.38643166E-06
  -11.5900002      -1.73565932E-05
  -11.5799999      -2.96604649E-05
  -11.5699997      -4.20493961E-05
  -11.5600004      -5.17872468E-05
  -11.5500002      -5.61482484E-05
  -11.5400000      -5.29671488E-05
  -11.5299997      -4.11359906E-05
  -11.5200005      -2.09456011E-05
  -11.5100002       5.80560845E-06
  -11.5000000       3.59723635E-05
  -11.4899998       6.54798569E-05
  -11.4799995       8.99356601E-05
  -11.4700003       1.05335203E-04
  -11.4600000       1.08738772E-04
  -11.4499998       9.87989915E-05
  -11.4399996       7.60419207E-05
  -11.4300003       4.28471321E-05
  -11.4200001       3.12537077E-06
  -11.4099998      -3.82539038E-05
  -11.3999996      -7.61883275E-05
  -11.3900003      -1.06098800E-04
  -11.3800001      -1.24589234E-04
  -11.3699999      -1.29902808E-04
  -11.3599997      -1.22106198E-04
  -11.3500004      -1.02982667E-04
  -11.3400002      -7.56659501E-05
  -11.3299999      -4.40893127E-05
  -11.3199997      -1.23505724E-05
  -11.3100004       1.58985786E-05
  -11.3000002       3.79431949E-05
  -11.2900000       5.23069830E-05
  -11.2799997       5.88329349E-05
  -11.2700005       5.85475536E-05
  -11.2600002       5.33462953E-05
  -11.2500000       4.55616573E-05
  -11.2399998       3.74884548E-05
  -11.2299995       3.09430689E-05
  -11.2200003       2.69266075E-05
  -11.2100000       2.54466850E-05
  -11.1999998       2.55309460E-05
  -11.1899996       2.54377974E-05
  -11.1800003       2.30385540E-05
  -11.1700001       1.63130244E-05
  -11.1599998       3.87278487E-06
  -11.1499996      -1.45902486E-05
  -11.1400003      -3.80319325E-05
  -11.1300001      -6.40400904E-05
  -11.1199999      -8.91102900E-05
  -11.1099997      -1.09189343E-04
  -11.1000004      -1.20400065E-04
  -11.0900002      -1.19809600E-04
  -11.0799999      -1.06080122E-04
  -11.0699997      -7.98529145E-05
  -11.0600004      -4.37671551E-05
  -11.0500002      -2.09260838E-06
  -11.0400000       3.99568053E-05
  -11.0299997       7.70875413E-05
  -11.0200005       1.04787432E-04
  -11.0100002       1.20006727E-04
  -11.0000000       1.21532423E-04
  -10.9899998       1.10009219E-04
  -10.9799995       8.76473714E-05
  -10.9700003       5.77255996E-05
  -10.9600000       2.40273257E-05
  -10.9499998      -9.66624702E-06
  -10.9399996      -3.99530472E-05
  -10.9300003      -6.40487488E-05
  -10.9200001      -7.99323752E-05
  -10.9099998      -8.64645117E-05
  -10.8999996      -8.35230239E-05
  -10.8900003      -7.21482284E-05
  -10.8800001      -5.46275332E-05
  -10.8699999      -3.44095279E-05
  -10.8599997      -1.57440227E-05
  -10.8500004      -3.00715556E-06
  -10.8400002       2.23099832E-07
  -10.8299999      -7.84116492E-06
  -10.8199997      -2.64049904E-05
  -10.8100004      -5.17762601E-05
  -10.8000002      -7.77307287E-05
  -10.7900000      -9.65969084E-05
  -10.7799997      -1.00898731E-04
  -10.7700005      -8.52077064E-05
  -10.7600002      -4.77485119E-05
  -10.7500000       8.68525876E-06
  -10.7399998       7.68062600E-05
  -10.7299995       1.45960847E-04
  -10.7200003       2.04097174E-04
  -10.7100000       2.40135560E-04
  -10.6999998       2.46189302E-04
  -10.6899996       2.19121226E-04
  -10.6800003       1.61098025E-04
  -10.6700001       7.90683407E-05
  -10.6599998      -1.66366717E-05
  -10.6499996      -1.14182883E-04
  -10.6400003      -2.02125404E-04
  -10.6300001      -2.70916848E-04
  -10.6199999      -3.13813944E-04
  -10.6099997      -3.27180896E-04
  -10.6000004      -3.10365256E-04
  -10.5900002      -2.65398587E-04
  -10.5799999      -1.96731387E-04
  -10.5699997      -1.11073496E-04
  -10.5600004      -1.72446653E-05
  -10.5500002       7.41814438E-05
  -10.5400000       1.51670873E-04
  -10.5299997       2.04078242E-04
  -10.5200005       2.22459756E-04
  -10.5100002       2.02024967E-04
  -10.5000000       1.43734200E-04
  -10.4899998       5.50204350E-05
  -10.4799995      -5.07426448E-05
  -10.4700003      -1.56115551E-04
  -10.4600000      -2.42546157E-04
  -10.4499998      -2.93821242E-04
  -10.4399996      -2.99262494E-04
  -10.4300003      -2.55936116E-04
  -10.4200001      -1.69366918E-04
  -10.4099998      -5.26011136E-05
  -10.3999996       7.61503979E-05
  -10.3900003       1.96749985E-04
  -10.3800001       2.90562515E-04
  -10.3699999       3.43419058E-04
  -10.3599997       3.47642403E-04
  -10.3500004       3.02920933E-04
  -10.3400002       2.16065368E-04
  -10.3299999       9.98491378E-05
  -10.3199997      -2.88042411E-05
  -10.3100004      -1.51045999E-04
  -10.3000002      -2.48548924E-04
  -10.2900000      -3.06007860E-04
  -10.2799997      -3.13485885E-04
  -10.2700005      -2.68309814E-04
  -10.2600002      -1.76131114E-04
  -10.2500000      -5.07626064E-05
  -10.2399998       8.74710604E-05
  -10.2299995       2.14850239E-04
  -10.2200003       3.08447343E-04
  -10.2100000       3.50616785E-04
  -10.1999998       3.32790980E-04
  -10.1899996       2.57606094E-04
  -10.1800003       1.38689807E-04
  -10.1700001      -2.01011267E-06
  -10.1599998      -1.38835254E-04
  -10.1499996      -2.47895892E-04
  -10.1400003      -3.12073826E-04
  -10.1300001      -3.24300199E-04
  -10.1199999      -2.88322743E-04
  -10.1099997      -2.16874483E-04
  -10.1000004      -1.27880267E-04
  -10.0900002      -3.98594893E-05
  -10.0799999       3.21599109E-05
  -10.0699997       7.91555140E-05
  -10.0600004       9.85704610E-05
  -10.0500002       9.29373055E-05
  -10.0400000       6.74659532E-05
  -10.0299997       2.76615847E-05
  -10.0200005      -2.20995626E-05
  -10.0100002      -7.85904922E-05
  -10.0000000      -1.38545234E-04
  -9.98999977      -1.97012807E-04
  -9.97999954      -2.46254145E-04
  -9.97000027      -2.76020553E-04
  -9.96000004      -2.75520666E-04
  -9.94999981      -2.36671229E-04
  -9.93999958      -1.57601607E-04
  -9.93000031      -4.50904809E-05
  -9.92000008       8.51998266E-05
  -9.90999985       2.11192484E-04
  -9.89999962       3.09182797E-04
  -9.89000034       3.59715719E-04
  -9.88000011       3.52837291E-04
  -9.86999989       2.91058997E-04
  -9.85999966       1.88994134E-04
  -9.85000038       6.96255156E-05
  -9.84000015      -4.17722222E-05
  -9.82999992      -1.24265440E-04
  -9.81999969      -1.66454556E-04
  -9.81000042      -1.68675484E-04
  -9.80000019      -1.41613607E-04
  -9.78999996      -1.01890641E-04
  -9.77999973      -6.61552549E-05
  -9.77000046      -4.56637899E-05
  -9.76000023      -4.31227709E-05
  -9.75000000      -5.27538687E-05
  -9.73999977      -6.34132302E-05
  -9.72999954      -6.35421093E-05
  -9.72000027      -4.61101517E-05
  -9.71000004      -1.17502686E-05
  -9.69999981       3.10421092E-05
  -9.68999958       6.87025095E-05
  -9.68000031       8.73566169E-05
  -9.67000008       7.78076719E-05
  -9.65999985       3.89333254E-05
  -9.64999962      -2.17479683E-05
  -9.64000034      -9.05486231E-05
  -9.63000011      -1.52217122E-04
  -9.61999989      -1.94984634E-04
  -9.60999966      -2.14190208E-04
  -9.60000038      -2.13138977E-04
  -9.59000015      -2.00872732E-04
  -9.57999992      -1.87696918E-04
  -9.56999969      -1.80184448E-04
  -9.56000042      -1.77632828E-04
  -9.55000019      -1.71474865E-04
  -9.53999996      -1.48086852E-04
  -9.52999973      -9.41691978E-05
  -9.52000046      -2.85208557E-06
  -9.51000023       1.21716352E-04
  -9.50000000       2.63141410E-04
  -9.48999977       3.95672367E-04
  -9.47999954       4.90567763E-04
  -9.47000027       5.24053059E-04
  -9.46000004       4.84355580E-04
  -9.44999981       3.75513540E-04
  -9.43999958       2.16659697E-04
  -9.43000031       3.69423069E-05
  -9.42000008      -1.32328612E-04
  -9.40999985      -2.65825947E-04
  -9.39999962      -3.50099348E-04
  -9.39000034      -3.85477731E-04
  -9.38000011      -3.83618375E-04
  -9.36999989      -3.61813523E-04
  -9.35999966      -3.36216151E-04
  -9.35000038      -3.16411402E-04
  -9.34000015      -3.03156208E-04
  -9.32999992      -2.89867690E-04
  -9.31999969      -2.67017516E-04
  -9.31000042      -2.27512952E-04
  -9.30000019      -1.70810381E-04
  -9.28999996      -1.04038918E-04
  -9.27999973      -3.96144678E-05
  -9.27000046       9.75479179E-06
  -9.26000023       3.66697132E-05
  -9.25000000       4.28990024E-05
  -9.23999977       3.97101139E-05
  -9.22999954       4.41814009E-05
  -9.22000027       7.25688660E-05
  -9.21000004       1.33050358E-04
  -9.19999981       2.20616857E-04
  -9.18999958       3.16310179E-04
  -9.18000031       3.91574722E-04
  -9.17000008       4.16674826E-04
  -9.15999985       3.70574358E-04
  -9.14999962       2.48956814E-04
  -9.14000034       6.74882176E-05
  -9.13000011      -1.41105425E-04
  -9.11999989      -3.35530262E-04
  -9.10999966      -4.77447727E-04
  -9.10000038      -5.42368041E-04
  -9.09000015      -5.26353251E-04
  -9.07999992      -4.46295569E-04
  -9.06999969      -3.33659700E-04
  -9.06000042      -2.23785639E-04
  -9.05000019      -1.44367223E-04
  -9.03999996      -1.07013133E-04
  -9.02999973      -1.04736464E-04
  -9.02000046      -1.16152376E-04
  -9.01000023      -1.14805422E-04
  -9.00000000      -8.02220093E-05
  -8.98999977      -6.64631261E-06
  -8.97999954       9.37847581E-05
  -8.97000027       1.94697728E-04
  -8.96000004       2.64772621E-04
  -8.94999981       2.79380300E-04
  -8.93999958       2.30328253E-04
  -8.93000031       1.30031665E-04
  -8.92000008       8.32856676E-06
  -8.90999985      -9.72337075E-05
  -8.89999962      -1.54416484E-04
  -8.89000034      -1.48061692E-04
  -8.88000011      -8.63235546E-05
  -8.86999989       1.13823637E-06
  -8.85999966       7.27505176E-05
  -8.85000038       8.93852339E-05
  -8.84000015       2.86616796E-05
  -8.82999992      -1.05810781E-04
  -8.81999969      -2.83693400E-04
  -8.81000042      -4.56318492E-04
  -8.80000019      -5.71748591E-04
  -8.78999996      -5.91654330E-04
  -8.77999973      -5.04403666E-04
  -8.77000046      -3.29881004E-04
  -8.76000023      -1.14224233E-04
  -8.75000000       8.39956338E-05
  -8.73999977       2.11753941E-04
  -8.72999954       2.37882516E-04
  -8.72000027       1.62396405E-04
  -8.71000004       1.58228577E-05
  -8.69999981      -1.51165732E-04
  -8.68999958      -2.84303067E-04
  -8.68000031      -3.42935469E-04
  -8.67000008      -3.12214834E-04
  -8.65999985      -2.06384473E-04
  -8.64999962      -6.23394808E-05
  -8.64000034       7.40445175E-05
  -8.63000011       1.63909252E-04
  -8.61999989       1.88146412E-04
  -8.60999966       1.52533685E-04
  -8.60000038       8.36938707E-05
  -8.59000015       1.75695259E-05
  -8.57999992      -1.52506300E-05
  -8.56999969      -1.92692619E-06
  -8.56000042       4.70995546E-05
  -8.55000019       1.01549536E-04
  -8.53999996       1.22598198E-04
  -8.52999973       7.80388727E-05
  -8.52000046      -4.41283264E-05
  -8.51000023      -2.28682780E-04
  -8.50000000      -4.35527589E-04
  -8.48999977      -6.10950869E-04
  -8.47999954      -7.04245234E-04
  -8.47000027      -6.84200029E-04
  -8.46000004      -5.49915479E-04
  -8.44999981      -3.32217693E-04
  -8.43999958      -8.50586439E-05
  -8.43000031       1.30391723E-04
  -8.42000008       2.63839233E-04
  -8.40999985       2.90328520E-04
  -8.39999962       2.16506218E-04
  -8.39000034       7.68644895E-05
  -8.38000011      -7.85460361E-05
  -8.36999989      -2.00693365E-04
  -8.35999966      -2.56910163E-04
  -8.35000038      -2.40071182E-04
  -8.34000015      -1.68874700E-04
  -8.32999992      -7.95493834E-05
  -8.31999969      -1.21504427E-05
  -8.31000042       3.70743555E-06
  -8.30000019      -4.11615292E-05
  -8.28999996      -1.33009482E-04
  -8.27999973      -2.40678026E-04
  -8.27000046      -3.26946611E-04
  -8.26000023      -3.61604878E-04
  -8.25000000      -3.31714342E-04
  -8.23999977      -2.45650881E-04
  -8.22999954      -1.29766006E-04
  -8.22000027      -1.90664850E-05
  -8.21000004       5.46969495E-05
  -8.19999981       7.33782726E-05
  -8.18999958       3.77506585E-05
  -8.18000031      -3.38435093E-05
  -8.17000008      -1.12804359E-04
  -8.15999985      -1.70834450E-04
  -8.14999962      -1.90013874E-04
  -8.14000034      -1.68940387E-04
  -8.13000011      -1.22928090E-04
  -8.11999989      -7.83289724E-05
  -8.10999966      -6.30233553E-05
  -8.10000038      -9.63552739E-05
  -8.09000015      -1.81886775E-04
  -8.07999992      -3.05322930E-04
  -8.06999969      -4.38203046E-04
  -8.06000042      -5.46071504E-04
  -8.05000019      -5.98456769E-04
  -8.03999996      -5.77522616E-04
  -8.02999973      -4.82819014E-04
  -8.02000046      -3.30905546E-04
  -8.01000023      -1.50276159E-04
  -8.00000000       2.65750205E-05
  -7.98999977       1.71373293E-04
  -7.98000002       2.66128278E-04
  -7.96999979       3.05497437E-04
  -7.96000004       2.95212580E-04
  -7.94999981       2.47609249E-04
  -7.94000006       1.76126137E-04
  -7.92999983       9.07874055E-05
  -7.92000008      -3.85448675E-06
  -7.90999985      -1.07833861E-04
  -7.90000010      -2.22559713E-04
  -7.88999987      -3.46719928E-04
  -7.88000011      -4.73043561E-04
  -7.86999989      -5.87353832E-04
  -7.86000013      -6.70541311E-04
  -7.84999990      -7.03072990E-04
  -7.84000015      -6.70748937E-04
  -7.82999992      -5.69918251E-04
  -7.82000017      -4.10428329E-04
  -7.80999994      -2.15186243E-04
  -7.80000019      -1.61778426E-05
  -7.78999996       1.52169392E-04
  -7.78000021       2.60591100E-04
  -7.76999998       2.91545293E-04
  -7.76000023       2.42967100E-04
  -7.75000000       1.28222586E-04
  -7.73999977      -2.76804058E-05
  -7.73000002      -1.94527558E-04
  -7.71999979      -3.44164728E-04
  -7.71000004      -4.56593669E-04
  -7.69999981      -5.23297465E-04
  -7.69000006      -5.47067611E-04
  -7.67999983      -5.38679655E-04
  -7.67000008      -5.11710765E-04
  -7.65999985      -4.77314839E-04
  -7.65000010      -4.40704054E-04
  -7.63999987      -4.00443387E-04
  -7.63000011      -3.50663438E-04
  -7.61999989      -2.85257644E-04
  -7.61000013      -2.02412237E-04
  -7.59999990      -1.07666085E-04
  -7.59000015      -1.41889896E-05
  -7.57999992       6.00597996E-05
  -7.57000017       9.74955910E-05
  -7.55999994       8.66966438E-05
  -7.55000019       2.67812393E-05
  -7.53999996      -7.12893234E-05
  -7.53000021      -1.87163096E-04
  -7.51999998      -2.96709652E-04
  -7.51000023      -3.79065837E-04
  -7.50000000      -4.22807672E-04
  -7.48999977      -4.29140171E-04
  -7.48000002      -4.10941924E-04
  -7.46999979      -3.87888460E-04
  -7.46000004      -3.79242818E-04
  -7.44999981      -3.96757445E-04
  -7.44000006      -4.40161792E-04