  -16.0000000       0.00000000    
  -15.9899998       0.00000000    
  -15.9799995       0.00000000    
  -15.9700003       0.00000000    
  -15.9600000       0.00000000    
  -15.9499998       0.00000000    
  -15.9399996       0.00000000    
  -15.9300003       0.00000000    
  -15.9200001       0.00000000    
  -15.9099998       0.00000000    
  -15.8999996       1.45451978E-40
  -15.8900003       2.72125015E-39
  -15.8800001       5.70988655E-38
  -15.8699999       9.66518644E-37
  -15.8599997       1.13371946E-35
  -15.8500004       9.77786418E-35
  -15.8400002       6.62326644E-34
  -15.8299999       3.69536853E-33
  -15.8199997       1.75540965E-32
  -15.8100004       7.26767838E-32
  -15.8000002       2.66709888E-31
  -15.7900000       8.78349691E-31
  -15.7799997       2.61939318E-30
  -15.7700005       7.11936630E-30
  -15.7600002       1.77113679E-29
  -15.7500000       4.04215200E-29
  -15.7399998       8.46350997E-29
  -15.7299995       1.62138770E-28
  -15.7200003       2.82251485E-28
  -15.7100000       4.40142448E-28
  -15.6999998       5.96428485E-28
  -15.6899996       6.50470368E-28
  -15.6800003       4.18820285E-28
  -15.6700001      -3.56747418E-28
  -15.6599998      -1.93552088E-27
  -15.6499996      -4.40336110E-27
  -15.6400003      -7.39217827E-27
  -15.6300001      -9.76052437E-27
  -15.6199999      -9.41490853E-27
  -15.6099997      -3.56698481E-27
  -15.6000004       1.02434282E-26
  -15.5900002       3.21968679E-26
  -15.5799999       5.76309730E-26
  -15.5699997       7.49731987E-26
  -15.5600004       6.61438422E-26
  -15.5500002       1.17851775E-26
  -15.5400000      -9.72549940E-26
  -15.5299997      -2.43738249E-25
  -15.5200005      -3.69742089E-25
  -15.5100002      -3.76387946E-25
  -15.5000000      -1.52109528E-25
  -15.4899998       3.61932194E-25
  -15.4799995       1.07919949E-24
  -15.4700003       1.68809371E-24
  -15.4600000       1.65676824E-24
  -15.4499998       4.03679970E-25
  -15.4399996      -2.32621927E-24
  -15.4300003      -5.95255546E-24
  -15.4200001      -8.66177557E-24
  -15.4099998      -7.52327573E-24
  -15.3999996       4.61464598E-25
  -15.3900003       1.62338171E-23
  -15.3800001       3.59799585E-23
  -15.3699999       4.92566706E-23
  -15.3599997       4.00639103E-23
  -15.3500004      -7.13074880E-24
  -15.3400002      -9.60565948E-23
  -15.3299999      -2.05018184E-22
  -15.3199997      -2.78309522E-22
  -15.3100004      -2.33017117E-22
  -15.3000002       9.83475573E-24
  -15.2900000       4.69478564E-22
  -15.2799997       1.04073367E-21
  -15.2700005       1.45529090E-21
  -15.2600002       1.31553332E-21
  -15.2500000       2.38512536E-22
  -15.2399998      -1.89250018E-21
  -15.2299995      -4.64139200E-21
  -15.2200003      -6.84806996E-21
  -15.2100000      -6.76665851E-21
  -15.1999998      -2.66281374E-21
  -15.1899996       6.14809018E-21
  -15.1800003       1.81187289E-20
  -15.1700001       2.87392013E-20
  -15.1599998       3.10077086E-20
  -15.1499996       1.76703744E-20
  -15.1400003      -1.48405346E-20
  -15.1300001      -6.18675651E-20
  -15.1199999      -1.07561604E-19
  -15.1099997      -1.26198073E-19
  -15.1000004      -8.98315237E-20
  -15.0900002       1.78846546E-20
  -15.0799999       1.85419152E-19
  -15.0699997       3.61996260E-19
  -15.0600004       4.60360701E-19
  -15.0500002       3.80807950E-19
  -15.0400000       5.64051552E-20
  -15.0299997      -4.92097398E-19
  -15.0200005      -1.11507700E-18
  -15.0100002      -1.53628285E-18
  -15.0000000      -1.42237387E-18
  -14.9899998      -5.21896734E-19
  -14.9799995       1.15906936E-18
  -14.9700003       3.21452085E-18
  -14.9600000       4.82060719E-18
  -14.9499998       4.91941722E-18
  -14.9399996       2.62094783E-18
  -14.9300003      -2.26137200E-18
  -14.9200001      -8.73756010E-18
  -14.9099998      -1.44973246E-17
  -14.8999996      -1.63376790E-17
  -14.8900003      -1.12475057E-17
  -14.8800001       2.04135313E-18
  -14.8699999       2.15464651E-17
  -14.8599997       4.13105578E-17
  -14.8500004       5.21882112E-17
  -14.8400002       4.45091627E-17
  -14.8299999       1.22815732E-17
  -14.8199997      -4.22704513E-17
  -14.8100004      -1.05748695E-16
  -14.8000002      -1.54265531E-16
  -14.7900000      -1.59116092E-16
  -14.7799997      -9.71483263E-17
  -14.7700005       3.66605587E-17
  -14.7600002       2.18937397E-16
  -14.7500000       3.95355487E-16
  -14.7399998       4.90084740E-16
  -14.7299995       4.28164382E-16
  -14.7200003       1.66624960E-16
  -14.7100000      -2.75076888E-16
  -14.6999998      -7.98025686E-16
  -14.6899996      -1.23213087E-15
  -14.6800003      -1.37566494E-15
  -14.6700001      -1.06151884E-15
  -14.6599998      -2.33460915E-16
  -14.6499996       9.93821004E-16
  -14.6400003       2.31924969E-15
  -14.6300001       3.30446187E-15
  -14.6199999       3.48881944E-15
  -14.6099997       2.54705560E-15
  -14.6000004       4.43741873E-16
  -14.5900002      -2.47239431E-15
  -14.5799999      -5.48372306E-15
  -14.5699997      -7.64998315E-15
  -14.5600004      -8.06449058E-15
  -14.5500002      -6.15510721E-15
  -14.5400000      -1.93574684E-15
  -14.5299997       3.88570986E-15
  -14.5200005       1.00022462E-14
  -14.5100002       1.48019279E-14
  -14.5000000       1.67876712E-14
  -14.4899998       1.49968505E-14
  -14.4799995       9.28540387E-15
  -14.4700003       3.83611454E-16
  -14.4600000      -1.02853059E-14
  -14.4499998      -2.09384461E-14
  -14.4399996      -2.97705484E-14
  -14.4300003      -3.51526025E-14
  -14.4200001      -3.56327211E-14
  -14.4099998      -2.98176401E-14
  -14.3999996      -1.63441750E-14
  -14.3900003       5.80159420E-15
  -14.3800001       3.64546785E-14
  -14.3699999       7.30173436E-14
  -14.3599997       1.09207687E-13
  -14.3500004       1.34536371E-13
  -14.3400002       1.35326009E-13
  -14.3299999       9.78271554E-14
  -14.3199997       1.33331668E-14
  -14.3100004      -1.15730437E-13
  -14.3000002      -2.70691537E-13
  -14.2900000      -4.14981363E-13
  -14.2799997      -4.98216756E-13
  -14.2700005      -4.67091047E-13
  -14.2600002      -2.82073735E-13
  -14.2500000       6.35927807E-14
  -14.2399998       5.28285586E-13
  -14.2299995       1.01641850E-12
  -14.2200003       1.38848167E-12
  -14.2100000       1.48899881E-12
  -14.1999998       1.18952201E-12
  -14.1899996       4.37903267E-13
  -14.1800003      -6.99766634E-13
  -14.1700001      -2.02009611E-12
  -14.1599998      -3.19928892E-12
  -14.1499996      -3.85178044E-12
  -14.1400003      -3.62520799E-12
  -14.1300001      -2.31366770E-12
  -14.1199999       3.93419225E-14
  -14.1099997       3.08163477E-12
  -14.1000004       6.16601908E-12
  -14.0900002       8.45247396E-12
  -14.0799999       9.09252187E-12
  -14.0699997       7.46409792E-12
  -14.0600004       3.40285612E-12
  -14.0500002      -2.63622999E-12
  -14.0400000      -9.54909415E-12
  -14.0299997      -1.57241112E-11
  -14.0200005      -1.93554738E-11
  -14.0100002      -1.88813461E-11
  -14.0000000      -1.34548457E-11
  -13.9899998      -3.32732951E-12
  -13.9799995       9.97775473E-12
  -13.9700003       2.37901192E-11
  -13.9600000       3.47436975E-11
  -13.9499998       3.94979847E-11
  -13.9399996       3.55918350E-11
  -13.9300003       2.22320478E-11
  -13.9200001       8.01887202E-13
  -13.9099998      -2.50881850E-11
  -13.8999996      -5.00953203E-11
  -13.8900003      -6.81459680E-11
  -13.8800001      -7.37718567E-11
  -13.8699999      -6.34999830E-11
  -13.8599997      -3.69675610E-11
  -13.8500004       2.53890789E-12
  -13.8400002       4.83153448E-11
  -13.8299999       9.12741341E-11
  -13.8199997       1.21628305E-10
  -13.8100004       1.30914390E-10
  -13.8000002       1.13947116E-10
  -13.7900000       7.02900585E-11
  -13.7799997       4.90944438E-12
  -13.7700005      -7.21722473E-11
  -13.7600002      -1.47222526E-10
  -13.7500000      -2.04966655E-10
  -13.7399998      -2.31260511E-10
  -13.7299995      -2.15866117E-10
  -13.7200003      -1.54896693E-10
  -13.7100000      -5.25102808E-11
  -13.6999998       7.85220153E-11
  -13.6899996       2.17661431E-10
  -13.6800003       3.39012513E-10
  -13.6700001       4.15240370E-10
  -13.6599998       4.22641477E-10
  -13.6499996       3.46667001E-10
  -13.6400003       1.86858307E-10
  -13.6300001      -4.00562743E-11
  -13.6199999      -3.00111519E-10
  -13.6099997      -5.45915479E-10
  -13.6000004      -7.24369509E-10
  -13.5900002      -7.87324594E-10
  -13.5799999      -7.03164138E-10
  -13.5699997      -4.66573113E-10
  -13.5600004      -1.03650831E-10
  -13.5500002       3.29745037E-10
  -13.5400000       7.57006680E-10
  -13.5299997       1.09571274E-09
  -13.5200005       1.27513755E-09
  -13.5100002       1.25178945E-09
  -13.5000000       1.01854714E-09
  -13.4899998       6.04591099E-10
  -13.4799995       6.61636718E-11
  -13.4700003      -5.28558308E-10
  -13.4600000      -1.11470821E-09
  -13.4499998      -1.63972991E-09
  -13.4399996      -2.06175255E-09
  -13.4300003      -2.33735586E-09
  -13.4200001      -2.40434272E-09
  -13.4099998      -2.16994400E-09
  -13.3999996      -1.51653945E-09
  -13.3900003      -3.33743422E-10
  -13.3800001       1.42283407E-09
  -13.3699999       3.65807828E-09
  -13.3599997       6.07339201E-09
  -13.3500004       8.14415202E-09
  -13.3400002       9.16868714E-09
  -13.3299999       8.40492298E-09
  -13.3199997       5.28546051E-09
  -13.3100004      -3.29657079E-10
  -13.3000002      -7.93195554E-09
  -13.2900000      -1.62597278E-08
  -13.2799997      -2.33854855E-08
  -13.2700005      -2.70355436E-08
  -13.2600002      -2.51209400E-08
  -13.2500000      -1.63863465E-08
  -13.2399998      -1.01888931E-09
  -13.2299995       1.89751201E-08
  -13.2200003       3.98018045E-08
  -13.2100000       5.64221416E-08
  -13.1999998       6.35838546E-08
  -13.1899996       5.71728371E-08
  -13.1800003       3.55800154E-08
  -13.1700001       7.03751390E-10
  -13.1599998      -4.17739656E-08
  -13.1499996      -8.30715408E-08
  -13.1400003      -1.12963292E-07
  -13.1300001      -1.22146105E-07
  -13.1199999      -1.04805878E-07
  -13.1099997      -6.07198913E-08
  -13.1000004       3.75973475E-09
  -13.0900002       7.62997985E-08
  -13.0799999       1.40853103E-07
  -13.0699997       1.81245355E-07
  -13.0600004       1.85305609E-07
  -13.0500002       1.48494337E-07
  -13.0400000       7.59698082E-08
  -13.0299997      -1.76821562E-08
  -13.0200005      -1.11283953E-07
  -13.0100002      -1.82008648E-07
  -13.0000000      -2.11319360E-07
  -12.9899998      -1.90373413E-07
  -12.9799995      -1.23319225E-07
  -12.9700003      -2.73164567E-08
  -12.9600000       7.11020220E-08
  -12.9499998       1.42715649E-07
  -12.9399996       1.63800593E-07
  -12.9300003       1.23659291E-07
  -12.9200001       2.92807378E-08
  -12.9099998      -9.45189029E-08
  -12.8999996      -2.10031573E-07
  -12.8900003      -2.75854688E-07
  -12.8800001      -2.58255056E-07
  -12.8699999      -1.41786018E-07
  -12.8599997       6.38339372E-08
  -12.8500004       3.22823183E-07
  -12.8400002       5.79221364E-07
  -12.8299999       7.68580378E-07
  -12.8199997       8.32850219E-07
  -12.8100004       7.34821697E-07
  -12.8000002       4.68405204E-07
  -12.7900000       6.19640232E-08
  -12.7799997      -4.26328626E-07
  -12.7700005      -9.20039156E-07
  -12.7600002      -1.33999526E-06
  -12.7500000      -1.61976618E-06
  -12.7399998      -1.71713816E-06
  -12.7299995      -1.61882417E-06
  -12.7200003      -1.33767458E-06
  -12.7100000      -9.03928083E-07
  -12.6999998      -3.53858866E-07
  -12.6899996       2.80035152E-07
  -12.6800003       9.73695592E-07
  -12.6700001       1.70915598E-06
  -12.6599998       2.46578270E-06
  -12.6499996       3.20812296E-06
  -12.6400003       3.87497812E-06
  -12.6300001       4.37452218E-06
  -12.6199999       4.58895056E-06
  -12.6099997       4.38954203E-06
  -12.6000004       3.65997516E-06
  -12.5900002       2.32306138E-06
  -12.5799999       3.64730226E-07
  -12.5699997      -2.15051432E-06
  -12.5600004      -5.07633013E-06
  -12.5500002      -8.19392426E-06
  -12.5400000      -1.12312573E-05
  -12.5299997      -1.38869027E-05
  -12.5200005      -1.58528601E-05
  -12.5100002      -1.68321203E-05
  -12.5000000      -1.65497731E-05
  -12.4899998      -1.47600513E-05
  -12.4799995      -1.12543748E-05
  -12.4700003      -5.87624254E-06
  -12.4600000       1.45313265E-06
  -12.4499998       1.06987372E-05
  -12.4399996       2.16709959E-05
  -12.4300003       3.39909784E-05
  -12.4200001       4.70747436E-05
  -12.4099998       6.01486827E-05
  -12.3999996       7.23022968E-05
  -12.3900003       8.25762472E-05
  -12.3800001       9.00738160E-05
  -12.3699999       9.40758255E-05
  -12.3599997       9.41353210E-05
  -12.3500004       9.01305320E-05
  -12.3400002       8.22629881E-05
  -12.3299999       7.10005625E-05
  -12.3199997       5.69792282E-05
  -12.3100004       4.08889355E-05
  -12.3000002       2.33742849E-05
  -12.2900000       4.97768269E-06
  -12.2799997      -1.38585965E-05
  -12.2700005      -3.27321141E-05
  -12.2600002      -5.11808466E-05
  -12.2500000      -6.85784107E-05
  -12.2399998      -8.40640350E-05
  -12.2299995      -9.65425279E-05
  -12.2200003      -1.04773804E-04
  -12.2100000      -1.07548447E-04
  -12.1999998      -1.03920742E-04
  -12.1899996      -9.34504496E-05
  -12.1800003      -7.63953867E-05
  -12.1700001      -5.38014174E-05
  -12.1599998      -2.74556132E-05
  -12.1499996       3.02899849E-07
  -12.1400003       2.68874046E-05
  -12.1300001       4.98286718E-05
  -12.1199999       6.71301023E-05
  -12.1099997       7.75426379E-05
  -12.1000004       8.07060060E-05
  -12.0900002       7.71322884E-05
  -12.0799999       6.80425946E-05
  -12.0699997       5.50994337E-05
  -12.0600004       4.00975478E-05
  -12.0500002       2.46812197E-05
  -12.0400000       1.01435253E-05
  -12.0299997      -2.66156712E-06
  -12.0200005      -1.32943123E-05
  -12.0100002      -2.16199896E-05
  -12.0000000      -2.76623014E-05
  -11.9899998      -3.14703539E-05
  -11.9799995      -3.30395742E-05
  -11.9700003      -3.23053791E-05
  -11.9600000      -2.92028890E-05
  -11.9499998      -2.37640761E-05
  -11.9399996      -1.62122305E-05
  -11.9300003      -7.01513545E-06
  -11.9200001       3.12731527E-06
  -11.9099998       1.33635131E-05
  -11.8999996       2.28183653E-05
  -11.8900003       3.07331538E-05
  -11.8800001       3.65764936E-05
  -11.8699999       4.00947611E-05
  -11.8599997       4.12897862E-05
  -11.8500004       4.03353988E-05
  -11.8400002       3.74649280E-05
  -11.8299999       3.28719652E-05
  -11.8199997       2.66630977E-05
  -11.8100004       1.88838621E-05
  -11.8000002       9.61332898E-06
  -11.7900000      -9.03707473E-07
  -11.7799997      -1.21364337E-05
  -11.7700005      -2.32125476E-05
  -11.7600002      -3.29666545E-05
  -11.7500000      -4.01030302E-05
  -11.7399998      -4.34476315E-05
  -11.7299995      -4.22319936E-05
  -11.7200003      -3.63329891E-05
  -11.7100000      -2.63946113E-05
  -11.6999998      -1.37819761E-05
  -11.6899996      -3.59080730E-07
  -11.6800003       1.18703219E-05
  -11.6700001       2.11780971E-05
  -11.6599998       2.64806422E-05
  -11.6499996       2.75633520E-05
  -11.6400003       2.50949579E-05
  -11.6300001       2.04191383E-05
  -11.6199999       1.51708764E-05
  -11.6099997       1.08161175E-05
  -11.6000004       8.24011022E-06
  -11.5900002       7.50354548E-06
  -11.5799999       7.84541044E-06
  -11.5699997       7.94642256E-06
  -11.5600004       6.39324071E-06
  -11.5500002       2.22114977E-06
  -11.5400000      -4.62026719E-06
  -11.5299997      -1.30265453E-05
  -11.5200005      -2.08219026E-05
  -11.5100002      -2.51854290E-05
  -11.5000000      -2.33455430E-05
  -11.4899998      -1.33870417E-05
  -11.4799995       5.03231740E-06
  -11.4700003       3.02571352E-05
  -11.4600000       5.86492351E-05
  -11.4499998       8.50933066E-05
  -11.4399996       1.03927377E-04
  -11.4300003       1.10121626E-04
  -11.4200001       1.00453268E-04
  -11.4099998       7.44052886E-05
  -11.3999996       3.45605076E-05
  -11.3900003      -1.36366189E-05
  -11.3800001      -6.27410409E-05
  -11.3699999      -1.04639570E-04
  -11.3599997      -1.32089219E-04
  -11.3500004      -1.40138407E-04
  -11.3400002      -1.27122155E-04
  -11.3299999      -9.50082540E-05
  -11.3199997      -4.90107341E-05
  -11.3100004       3.45166768E-06
  -11.3000002       5.42269845E-05
  -11.2900000       9.60096513E-05
  -11.2799997       1.23682665E-04
  -11.2700005       1.35133974E-04
  -11.2600002       1.31383407E-04
  -11.2500000       1.16020208E-04
  -11.2399998       9.41141043E-05
  -11.2299995       7.08851803E-05
  -11.2200003       5.04687996E-05
  -11.2100000       3.50785740E-05
  -11.1999998       2.47603566E-05
  -11.1899996       1.77712154E-05
  -11.1800003       1.14505938E-05
  -11.1700001       3.31931938E-06
  -11.1599998      -7.91821094E-06
  -11.1499996      -2.17657835E-05
  -11.1400003      -3.59084734E-05
  -11.1300001      -4.67911159E-05
  -11.1199999      -5.06524993E-05
  -11.1099997      -4.47296006E-05
  -11.1000004      -2.82859964E-05
  -11.0900002      -3.15335933E-06
  -11.0799999       2.64023438E-05
  -11.0699997       5.44989562E-05
  -11.0600004       7.49614264E-05
  -11.0500002       8.28256889E-05
  -11.0400000       7.56370937E-05
  -11.0299997       5.41980153E-05
  -11.0200005       2.25536005E-05
  -11.0100002      -1.28030597E-05
  -11.0000000      -4.43254903E-05
  -10.9899998      -6.50746588E-05
  -10.9799995      -7.02472389E-05
  -10.9700003      -5.82112480E-05
  -10.9600000      -3.08192029E-05
  -10.9499998       7.04613740E-06
  -10.9399996       4.85506935E-05
  -10.9300003       8.63290843E-05
  -10.9200001       1.13903952E-04
  -10.9099998       1.26796833E-04
  -10.8999996       1.23132719E-04
  -10.8900003       1.03687904E-04
  -10.8800001       7.14714406E-05
  -10.8699999       3.10227042E-05
  -10.8599997      -1.23679729E-05
  -10.8500004      -5.33512866E-05
  -10.8400002      -8.70437070E-05
  -10.8299999      -1.09394983E-04
  -10.8199997      -1.17467731E-04
  -10.8100004      -1.09705943E-04
  -10.8000002      -8.62235684E-05
  -10.7900000      -4.90673956E-05
  -10.7799997      -2.33589662E-06
  -10.7700005       4.79965820E-05
  -10.7600002       9.46688378E-05
  -10.7500000       1.30156113E-04
  -10.7399998       1.48010658E-04
  -10.7299995       1.44266960E-04
  -10.7200003       1.18573887E-04
  -10.7100000       7.47197701E-05
  -10.6999998       2.03211348E-05
  -10.6899996      -3.43667307E-05
  -10.6800003      -7.83359428E-05
  -10.6700001      -1.02029779E-04
  -10.6599998      -9.93727008E-05
  -10.6499996      -6.91458044E-05
  -10.6400003      -1.53648143E-05
  -10.6300001       5.34494793E-05
  -10.6199999       1.25951774E-04
  -10.6099997       1.90217499E-04
  -10.6000004       2.36036940E-04
  -10.5900002       2.56746018E-04
  -10.5799999       2.50216399E-04
  -10.5699997       2.18852292E-04
  -10.5600004       1.68692699E-04
  -10.5500002       1.07925742E-04
  -10.5400000       4.52309505E-05
  -10.5299997      -1.16462288E-05
  -10.5200005      -5.68059877E-05
  -10.5100002      -8.64974354E-05
  -10.5000000      -9.89121036E-05
  -10.4899998      -9.37047225E-05
  -10.4799995      -7.15244169E-05
  -10.4700003      -3.37826823E-05
  -10.4600000       1.72487526E-05
  -10.4499998       7.80817136E-05
  -10.4399996       1.43607511E-04
  -10.4300003       2.06921235E-04
  -10.4200001       2.59619585E-04
  -10.4099998       2.92694283E-04
  -10.3999996       2.97963299E-04
  -10.3900003       2.69793469E-04
  -10.3800001       2.06731711E-04
  -10.3699999       1.12612106E-04
  -10.3599997      -3.22740880E-06
  -10.3500004      -1.26821848E-04
  -10.3400002      -2.41517570E-04
  -10.3299999      -3.30693758E-04
  -10.3199997      -3.80781945E-04
  -10.3100004      -3.83986160E-04
  -10.3000002      -3.40113678E-04
  -10.2900000      -2.57064443E-04
  -10.2799997      -1.49769112E-04
  -10.2700005      -3.76721437E-05
  -10.2600002       5.88362782E-05
  -10.2500000       1.22388301E-04
  -10.2399998       1.42224875E-04
  -10.2299995       1.16641182E-04
  -10.2200003       5.37145461E-05
  -10.2100000      -2.99433887E-05
  -10.1999998      -1.12271788E-04
  -10.1899996      -1.70147148E-04
  -10.1800003      -1.84225049E-04
  -10.1700001      -1.43241530E-04
  -10.1599998      -4.68371509E-05
  -10.1499996       9.37647274E-05
  -10.1400003       2.57462962E-04
  -10.1300001       4.17097093E-04
  -10.1199999       5.44639770E-04
  -10.1099997       6.16700796E-04
  -10.1000004       6.19186554E-04
  -10.0900002       5.50123979E-04
  -10.0799999       4.20049124E-04
  -10.0699997       2.49892357E-04
  -10.0600004       6.68398643E-05
  -10.0500002      -1.00916404E-04
  -10.0400000      -2.29410623E-04
  -10.0299997      -3.03032954E-04
  -10.0200005      -3.16766062E-04
  -10.0100002      -2.76196341E-04
  -10.0000000      -1.95476037E-04
  -9.98999977      -9.38453231E-05
  -9.97999954       8.42103054E-06
  -9.97000027       9.37439399E-05
  -9.96000004       1.49928543E-04
  -9.94999981       1.71417603E-04
  -9.93999958       1.59090778E-04
  -9.93000031       1.18913573E-04
  -9.92000008       5.99389314E-05
  -9.90999985      -7.79357742E-06
  -9.89999962      -7.50129693E-05
  -9.89000034      -1.34363770E-04
  -9.88000011      -1.80887379E-04
  -9.86999989      -2.11945749E-04
  -9.85999966      -2.26784978E-04
  -9.85000038      -2.25946103E-04
  -9.84000015      -2.10684258E-04
  -9.82999992      -1.82490068E-04
  -9.81999969      -1.42753604E-04
  -9.81000042      -9.25852000E-05
  -9.80000019      -3.28067217E-05
  -9.78999996       3.58693178E-05
  -9.77999973       1.12470800E-04
  -9.77000046       1.95250963E-04
  -9.76000023       2.81141751E-04
  -9.75000000       3.65357933E-04
  -9.73999977       4.41363081E-04
  -9.72999954       5.01367263E-04
  -9.72000027       5.37407468E-04
  -9.71000004       5.42884169E-04
  -9.69999981       5.14244253E-04
  -9.68999958       4.52374807E-04
  -9.68000031       3.63259722E-04
  -9.67000008       2.57579202E-04
  -9.65999985       1.49179745E-04
  -9.64999962       5.26501826E-05
  -9.64000034      -1.94841668E-05
  -9.63000011      -5.92816723E-05
  -9.61999989      -6.49738940E-05
  -9.60999966      -4.11909932E-05
  -9.60000038       2.26514931E-06
  -9.59000015       5.28037162E-05
  -9.57999992       9.79776014E-05
  -9.56999969       1.28218133E-04
  -9.56000042       1.38693562E-04
  -9.55000019       1.29872860E-04
  -9.53999996       1.06746098E-04
  -9.52999973       7.70184852E-05
  -9.52000046       4.88489204E-05
  -9.51000023       2.87745734E-05
  -9.50000000       2.03410618E-05
  -9.48999977       2.36960732E-05
  -9.47999954       3.60960148E-05
  -9.47000027       5.30249199E-05
  -9.46000004       6.95046620E-05
  -9.44999981       8.12114886E-05
  -9.43999958       8.51700679E-05
  -9.43000031       7.99992777E-05
  -9.42000008       6.58488716E-05
  -9.40999985       4.42295059E-05
  -9.39999962       1.78874016E-05
  -9.39000034      -9.25702352E-06
  -9.38000011      -3.22282358E-05
  -9.36999989      -4.53669563E-05
  -9.35999966      -4.31058761E-05
  -9.35000038      -2.11469724E-05
  -9.34000015       2.21747432E-05
  -9.32999992       8.47365154E-05
  -9.31999969       1.60138254E-04
  -9.31000042       2.38224951E-04
  -9.30000019       3.06700822E-04
  -9.28999996       3.53568088E-04
  -9.27999973       3.69811896E-04
  -9.27000046       3.51596478E-04
  -9.26000023       3.01308493E-04
  -9.25000000       2.27079421E-04
  -9.23999977       1.40856646E-04
  -9.22999954       5.55384067E-05
  -9.22000027      -1.80138486E-05
  -9.21000004      -7.32233093E-05
  -9.19999981      -1.08670632E-04
  -9.18999958      -1.27392530E-04
  -9.18000031      -1.34909002E-04
  -9.17000008      -1.36683593E-04
  -9.15999985      -1.35886861E-04
  -9.14999962      -1.32206464E-04
  -9.14000034      -1.22072393E-04
  -9.13000011      -1.00172780E-04
  -9.11999989      -6.16954494E-05
  -9.10999966      -4.49288973E-06
  -9.10000038       6.95860144E-05
  -9.09000015       1.54647205E-04
  -9.07999992       2.41979971E-04
  -9.06999969       3.22117208E-04
  -9.06000042       3.87013017E-04
  -9.05000019       4.31618275E-04
  -9.03999996       4.54387628E-04
  -9.02999973       4.56663372E-04
  -9.02000046       4.41297016E-04
  -9.01000023       4.11134533E-04
  -9.00000000       3.68009787E-04
  -8.98999977       3.12657241E-04
  -8.97999954       2.45561852E-04
  -8.97000027       1.68364408E-04
  -8.96000004       8.51833975E-05
  -8.94999981       3.20486674E-06
  -8.93999958      -6.78651922E-05
  -8.93000031      -1.17479285E-04
  -8.92000008      -1.36624047E-04
  -8.90999985      -1.20172321E-04
  -8.89999962      -6.84524857E-05
  -8.89000034       1.24944845E-05
  -8.88000011       1.12084141E-04
  -8.86999989       2.17442037E-04
  -8.85999966       3.16064397E-04
  -8.85000038       3.98109434E-04
  -8.84000015       4.57709946E-04
  -8.82999992       4.93063417E-04
  -8.81999969       5.05483069E-04
  -8.81000042       4.97926259E-04
  -8.80000019       4.73637192E-04
  -8.78999996       4.35416849E-04
  -8.77999973       3.85716499E-04
  -8.77000046       3.27374903E-04
  -8.76000023       2.64526549E-04
  -8.75000000       2.03116972E-04
  -8.73999977       1.50604334E-04
  -8.72999954       1.14751310E-04
  -8.72000027       1.01790924E-04
  -8.71000004       1.14543371E-04
  -8.69999981       1.51149870E-04
  -8.68999958       2.04935583E-04
  -8.68000031       2.65567331E-04
  -8.67000008       3.21252126E-04
  -8.65999985       3.61378537E-04
  -8.64999962       3.78852390E-04
  -8.64000034       3.71474423E-04
  -8.63000011       3.42011394E-04
  -8.61999989       2.97021092E-04
  -8.60999966       2.44861352E-04
  -8.60000038       1.93527711E-04
  -8.59000015       1.48954132E-04
  -8.57999992       1.14205082E-04
  -8.56999969       8.96568672E-05
  -8.56000042       7.39399184E-05
  -8.55000019       6.51995142E-05
  -8.53999996       6.21890431E-05
  -8.52999973       6.48371206E-05
  -8.52000046       7.41639014E-05
  -8.51000023       9.16677454E-05
  -8.50000000       1.18474949E-04
  -8.48999977       1.54588575E-04
  -8.47999954       1.98490699E-04
  -8.47000027       2.47193850E-04
  -8.46000004       2.96670652E-04
  -8.44999981       3.42481624E-04
  -8.43999958       3.80401878E-04
  -8.43000031       4.06909763E-04
  -8.42000008       4.19501128E-04
  -8.40999985       4.16880706E-04
  -8.39999962       3.99113691E-04
  -8.39000034       3.67784058E-04
  -8.38000011       3.26126814E-04
  -8.36999989       2.79022148E-04
  -8.35999966       2.32710197E-04
  -8.35000038       1.94129869E-04
  -8.34000015       1.69900348E-04
  -8.32999992       1.65107136E-04
  -8.31999969       1.82170828E-04
  -8.31000042       2.20113303E-04
  -8.30000019       2.74470163E-04
  -8.28999996       3.37940437E-04
  -8.27999973       4.01664700E-04
  -8.27000046       4.56845562E-04
  -8.26000023       4.96329565E-04
  -8.25000000       5.15784719E-04
  -8.23999977       5.14232903E-04
  -8.22999954       4.93880420E-04
  -8.22000027       4.59374598E-04
  -8.21000004       4.16740484E-04
  -8.19999981       3.72289040E-04
  -8.18999958       3.31730203E-04
  -8.18000031       2.99607666E-04
  -8.17000008       2.79047788E-04
  -8.15999985       2.71723547E-04
  -8.14999962       2.77910760E-04
  -8.14000034       2.96551501E-04
  -8.13000011       3.25312867E-04
  -8.11999989       3.60701728E-04
  -8.10999966       3.98327335E-04
  -8.10000038       4.33382113E-04
  -8.09000015       4.61336924E-04
  -8.07999992       4.78752190E-04
  -8.06999969       4.84026270E-04
  -8.06000042       4.77874186E-04
  -8.05000019       4.63362230E-04
  -8.03999996       4.45419020E-04
  -8.02999973       4.29872249E-04
  -8.02000046       4.22191049E-04
  -8.01000023       4.26203740E-04
  -8.00000000       4.43091150E-04
  -7.98999977       4.70916042E-04
  -7.98000002       5.04839758E-04
  -7.96999979       5.38031629E-04
  -7.96000004       5.63117675E-04
  -7.94999981       5.73874800E-04
  -7.94000006       5.66799659E-04
  -7.92999983       5.42172405E-04
  -7.92000008       5.04318275E-04
  -7.90999985       4.60934592E-04
  -7.90000010       4.21559555E-04
  -7.88999987       3.95482319E-04
  -7.88000011       3.89562163E-04
  -7.86999989       4.06491628E-04
  -7.86000013       4.43971512E-04
  -7.84999990       4.95065877E-04
  -7.84000015       5.49709075E-04
  -7.82999992       5.97027945E-04
  -7.82000017       6.27898611E-04
  -7.80999994       6.37065852E-04
  -7.80000019       6.24252716E-04
  -7.78999996       5.93958364E-04
  -7.78000021       5.54015453E-04
  -7.76999998       5.13336563E-04
  -7.76000023       4.79524722E-04
  -7.75000000       4.57051588E-04
  -7.73999977       4.46521881E-04
  -7.73000002       4.45190148E-04
  -7.71999979       4.48490173E-04
  -7.71000004       4.52011911E-04
  -7.69999981       4.53228742E-04
  -7.69000006       4.52380220E-04
  -7.67999983       4.52226814E-04
  -7.67000008       4.56796901E-04
  -7.65999985       4.69613966E-04
  -7.65000010       4.92079358E-04
  -7.63999987       5.22634713E-04
  -7.63000011       5.57052612E-04
  -7.61999989       5.89792442E-04
  -7.61000013       6.15961209E-04
  -7.59999990       6.33180724E-04
  -7.59000015       6.42660074E-04
  -7.57999992       6.49032998E-04
  -7.57000017       6.58933597E-04
  -7.55999994       6.78725832E-04
  -7.55000019       7.12115725E-04
  -7.53999996       7.58444774E-04
  -7.53000021       8.12269165E-04
  -7.51999998       8.64425383E-04
  -7.51000023       9.04312823E-04
  -7.50000000       9.22728912E-04
  -7.48999977       9.14414763E-04
  -7.48000002       8.79560888E-04
  -7.46999979       8.23835609E-04
  -7.46000004       7.56950525E-04
  -7.44999981       6.90214045E-04
  -7.44000006       6.33798598E-04