  -16.0000000       0.00000000    
  -15.9899998       0.00000000    
  -15.9799995       0.00000000    
  -15.9700003       0.00000000    
  -15.9600000       0.00000000    
  -15.9499998       0.00000000    
  -15.9399996       0.00000000    
  -15.9300003       0.00000000    
  -15.9200001       0.00000000    
  -15.9099998       0.00000000    
  -15.8999996       0.00000000    
  -15.8900003       4.84989399E-41
  -15.8800001       3.10427827E-39
  -15.8699999       7.82841609E-38
  -15.8599997       1.15697623E-36
  -15.8500004       1.18608291E-35
  -15.8400002       9.24275194E-35
  -15.8299999       5.79358187E-34
  -15.8199997       3.03384990E-33
  -15.8100004       1.36315218E-32
  -15.8000002       5.35886539E-32
  -15.7900000       1.87022961E-31
  -15.7799997       5.85785369E-31
  -15.7700005       1.65991821E-30
  -15.7600002       4.27924594E-30
  -15.7500000       1.00697999E-29
  -15.7399998       2.16491032E-29
  -15.7299995       4.24345441E-29
  -15.7200003       7.53450155E-29
  -15.7100000       1.19480842E-28
  -15.6999998       1.64082876E-28
  -15.6899996       1.80290142E-28
  -15.6800003       1.13905395E-28
  -15.6700001      -1.13642963E-28
  -15.6599998      -5.85280817E-28
  -15.6499996      -1.33847259E-27
  -15.6400003      -2.28354124E-27
  -15.6300001      -3.10872191E-27
  -15.6199999      -3.22096568E-27
  -15.6099997      -1.79928156E-27
  -15.6000004       1.96056202E-27
  -15.5900002       8.38078276E-27
  -15.5799999       1.66987093E-26
  -15.5699997       2.45578024E-26
  -15.5600004       2.79356724E-26
  -15.5500002       2.18273036E-26
  -15.5400000       1.77460366E-27
  -15.5299997      -3.40449995E-26
  -15.5200005      -8.27828045E-26
  -15.5100002      -1.35534020E-25
  -15.5000000      -1.76719683E-25
  -15.4899998      -1.83723252E-25
  -15.4799995      -1.26392317E-25
  -15.4700003       3.20351021E-26
  -15.4600000       3.27064640E-25
  -15.4499998       7.68806878E-25
  -15.4399996       1.29372390E-24
  -15.4300003       1.69786612E-24
  -15.4200001       1.58582716E-24
  -15.4099998       4.05840611E-25
  -15.3999996      -2.33907060E-24
  -15.3900003      -6.64952156E-24
  -15.3800001      -1.14286105E-23
  -15.3699999      -1.40045419E-23
  -15.3599997      -1.02836878E-23
  -15.3500004       3.89025375E-24
  -15.3400002       2.98929437E-23
  -15.3299999       6.25203822E-23
  -15.3199997       8.69765722E-23
  -15.3100004       7.95157025E-23
  -15.3000002       1.47588618E-23
  -15.2900000      -1.19105160E-22
  -15.2799997      -3.00279487E-22
  -15.2700005      -4.57438553E-22
  -15.2600002      -4.71890535E-22
  -15.2500000      -2.11798904E-22
  -15.2399998       3.96619851E-22
  -15.2299995       1.27553997E-21
  -15.2200003       2.11998757E-21
  -15.2100000       2.40118617E-21
  -15.1999998       1.50804881E-21
  -15.1899996      -9.53173488E-22
  -15.1800003      -4.76165873E-21
  -15.1700001      -8.75077924E-21
  -15.1599998      -1.07859893E-20
  -15.1499996      -8.28719944E-21
  -15.1400003       6.20224103E-22
  -15.1300001       1.55461940E-20
  -15.1199999       3.24738022E-20
  -15.1099997       4.34980131E-20
  -15.1000004       3.85532178E-20
  -15.0900002       9.49273925E-21
  -15.0799999      -4.41838201E-20
  -15.0699997      -1.10021316E-19
  -15.0600004      -1.60874389E-19
  -15.0500002      -1.59960420E-19
  -15.0400000      -7.42699558E-20
  -15.0299997       1.05584274E-19
  -15.0200005       3.45580860E-19
  -15.0100002       5.58969677E-19
  -15.0000000       6.18604488E-19
  -14.9899998       3.97560089E-19
  -14.9799995      -1.65926240E-19
  -14.9700003      -9.97800056E-19
  -14.9600000      -1.84399858E-18
  -14.9499998      -2.28999803E-18
  -14.9399996      -1.87085383E-18
  -14.9300003      -2.69137171E-19
  -14.9200001       2.44579916E-18
  -14.9099998       5.62880608E-18
  -14.8999996       8.03708866E-18
  -14.8900003       8.07605714E-18
  -14.8800001       4.34218991E-18
  -14.8699999      -3.62829251E-18
  -14.8599997      -1.46351031E-17
  -14.8500004      -2.54484448E-17
  -14.8400002      -3.11446537E-17
  -14.8299999      -2.63486539E-17
  -14.8199997      -7.30225532E-18
  -14.8100004       2.57057112E-17
  -14.8000002       6.63746201E-17
  -14.7900000       1.01909260E-16
  -14.7799997       1.14906756E-16
  -14.7700005       8.79762168E-17
  -14.7600002       1.05776838E-17
  -14.7500000      -1.13478063E-16
  -14.7399998      -2.60338779E-16
  -14.7299995      -3.85117744E-16
  -14.7200003      -4.28106572E-16
  -14.7100000      -3.29346633E-16
  -14.6999998      -5.04330365E-17
  -14.6899996       4.00471566E-16
  -14.6800003       9.47388564E-16
  -14.6700001       1.43820572E-15
  -14.6599998       1.65890662E-15
  -14.6499996       1.37755880E-15
  -14.6400003       4.19137552E-16
  -14.6300001      -1.23794935E-15
  -14.6199999      -3.36613392E-15
  -14.6099997      -5.42986109E-15
  -14.6000004      -6.60845238E-15
  -14.5900002      -5.94213179E-15
  -14.5799999      -2.62030510E-15
  -14.5699997       3.61408503E-15
  -14.5600004       1.20345823E-14
  -14.5500002       2.06342308E-14
  -14.5400000       2.61646970E-14
  -14.5299997       2.47006276E-14
  -14.5200005       1.28141660E-14
  -14.5100002      -1.07607345E-14
  -14.5000000      -4.33733114E-14
  -14.4899998      -7.72835775E-14
  -14.4799995      -9.98939565E-14
  -14.4700003      -9.60892742E-14
  -14.4600000      -5.29059591E-14
  -14.4499998       3.40972706E-14
  -14.4399996       1.54447703E-13
  -14.4300003       2.78946083E-13
  -14.4200001       3.61358729E-13
  -14.4099998       3.47820568E-13
  -14.3999996       1.94149208E-13
  -14.3900003      -1.11846506E-13
  -14.3800001      -5.29469426E-13
  -14.3699999      -9.54672973E-13
  -14.3599997      -1.22930117E-12
  -14.3500004      -1.17592654E-12
  -14.3400002      -6.56842744E-13
  -14.3299999       3.54427100E-13
  -14.3199997       1.71104992E-12
  -14.3100004       3.06852525E-12
  -14.3000002       3.92447750E-12
  -14.2900000       3.73603145E-12
  -14.2799997       2.10435228E-12
  -14.2700005      -1.01418743E-12
  -14.2600002      -5.13813905E-12
  -14.2500000      -9.21334363E-12
  -14.2399998      -1.17562236E-11
  -14.2299995      -1.12136455E-11
  -14.2200003      -6.49506750E-12
  -14.2100000       2.44839522E-12
  -14.1999998       1.41897761E-11
  -14.1899996       2.57501295E-11
  -14.1800003       3.30453859E-11
  -14.1700001       3.18947750E-11
  -14.1599998       1.94426940E-11
  -14.1499996      -4.35536286E-12
  -14.1400003      -3.56807917E-11
  -14.1300001      -6.67559549E-11
  -14.1199999      -8.70748890E-11
  -14.1099997      -8.59977228E-11
  -14.1000004      -5.62871902E-11
  -14.0900002       2.29923524E-12
  -14.0799999       8.05592121E-11
  -14.0699997       1.59736252E-10
  -14.0600004       2.14543328E-10
  -14.0500002       2.19309612E-10
  -14.0400000       1.56195987E-10
  -14.0299997       2.34179533E-11
  -14.0200005      -1.59207245E-10
  -14.0100002      -3.49988677E-10
  -14.0000000      -4.92002383E-10
  -13.9899998      -5.26514221E-10
  -13.9799995      -4.10837059E-10
  -13.9700003      -1.36208878E-10
  -13.9600000       2.59929606E-10
  -13.9499998       6.92611246E-10
  -13.9399996       1.04229902E-09
  -13.9300003       1.18185584E-09
  -13.9200001       1.01285413E-09
  -13.9099998       5.02512421E-10
  -13.8999996      -2.89774482E-10
  -13.8900003      -1.20683707E-09
  -13.8800001      -2.01575112E-09
  -13.8699999      -2.45743226E-09
  -13.8599997      -2.31553199E-09
  -13.8500004      -1.48880552E-09
  -13.8400002      -4.66300817E-11
  -13.8299999       1.75208648E-09
  -13.8199997       3.48991658E-09
  -13.8100004       4.67350514E-09
  -13.8000002       4.85496798E-09
  -13.7900000       3.76572107E-09
  -13.7799997       1.42769863E-09
  -13.7700005      -1.79349458E-09
  -13.7600002      -5.21939203E-09
  -13.7500000      -7.98086308E-09
  -13.7399998      -9.21523480E-09
  -13.7299995      -8.29840108E-09
  -13.7200003      -5.05538500E-09
  -13.7100000       1.11161386E-10
  -13.6999998       6.22319041E-09
  -13.6899996       1.18820340E-08
  -13.6800003       1.55603583E-08
  -13.6700001       1.59769371E-08
  -13.6599998       1.24691573E-08
  -13.6499996       5.26519850E-09
  -13.6400003      -4.43122383E-09
  -13.6300001      -1.45950123E-08
  -13.6199999      -2.27695445E-08
  -13.6099997      -2.66268589E-08
  -13.6000004      -2.45784246E-08
  -13.5900002      -1.62855525E-08
  -13.5799999      -2.92243341E-09
  -13.5699997       1.29121966E-08
  -13.5600004       2.76617076E-08
  -13.5500002       3.75881228E-08
  -13.5400000       3.96986195E-08
  -13.5299997       3.25998109E-08
  -13.5200005       1.70454655E-08
  -13.5100002      -4.00748057E-09
  -13.5000000      -2.59135966E-08
  -13.4899998      -4.33600569E-08
  -13.4799995      -5.16836849E-08
  -13.4700003      -4.81638160E-08
  -13.4600000      -3.29344587E-08
  -13.4499998      -9.21684773E-09
  -13.4399996       1.72760224E-08
  -13.4300003       3.96970883E-08
  -13.4200001       5.18926342E-08
  -13.4099998       5.02312538E-08
  -13.3999996       3.49007578E-08
  -13.3900003       1.02202131E-08
  -13.3800001      -1.62588982E-08
  -13.3699999      -3.57597507E-08
  -13.3599997      -4.09435863E-08
  -13.3500004      -2.85083583E-08
  -13.3400002      -9.05971242E-10
  -13.3299999       3.35027757E-08
  -13.3199997       6.21726599E-08
  -13.3100004       7.17731865E-08
  -13.3000002       5.25086961E-08
  -13.2900000       2.18854446E-09
  -13.2799997      -7.12609989E-08
  -13.2700005      -1.49922158E-07
  -13.2600002      -2.09135706E-07
  -13.2500000      -2.23523358E-07
  -13.2399998      -1.74545562E-07
  -13.2299995      -5.76793191E-08
  -13.2200003       1.12942878E-07
  -13.2100000       3.04258862E-07
  -13.1999998       4.69286590E-07
  -13.1899996       5.57020599E-07
  -13.1800003       5.25396729E-07
  -13.1700001       3.54358633E-07
  -13.1599998       5.55375337E-08
  -13.1499996      -3.24601501E-07
  -13.1400003      -7.10062750E-07
  -13.1300001      -1.00907107E-06
  -13.1199999      -1.13408214E-06
  -13.1099997      -1.02394142E-06
  -13.1000004      -6.62958939E-07
  -13.0900002      -9.17334333E-08
  -13.0799999       5.94067330E-07
  -13.0699997       1.25827250E-06
  -13.0600004       1.75031778E-06
  -13.0500002       1.93807909E-06
  -13.0400000       1.74043851E-06
  -13.0299997       1.15187527E-06
  -13.0200005       2.52442618E-07
  -13.0100002      -8.00758983E-07
  -13.0000000      -1.80054565E-06
  -12.9899998      -2.53068015E-06
  -12.9799995      -2.81290818E-06
  -12.9700003      -2.54980637E-06
  -12.9600000      -1.75329103E-06
  -12.9499998      -5.51034816E-07
  -12.9399996       8.32566286E-07
  -12.9300003       2.11867882E-06
  -12.9200001       3.03186789E-06
  -12.9099998       3.36157882E-06
  -12.8999996       3.01353180E-06
  -12.8900003       2.03848367E-06
  -12.8800001       6.29970657E-07
  -12.8699999      -9.10903850E-07
  -12.8599997      -2.23812731E-06
  -12.8500004      -3.03855700E-06
  -12.8400002      -3.10792620E-06
  -12.8299999      -2.40713030E-06
  -12.8199997      -1.08387485E-06
  -12.8100004       5.48465323E-07
  -12.8000002       2.07361245E-06
  -12.7900000       3.06570882E-06
  -12.7799997       3.19386572E-06
  -12.7700005       2.31410058E-06
  -12.7600002       5.25477105E-07
  -12.7500000      -1.82652650E-06
  -12.7399998      -4.20560218E-06
  -12.7299995      -5.99198347E-06
  -12.7200003      -6.62148068E-06
  -12.7100000      -5.72658701E-06
  -12.6999998      -3.24666030E-06
  -12.6899996       5.21713389E-07
  -12.6800003       4.95175300E-06
  -12.6700001       9.19192280E-06
  -12.6599998       1.23324708E-05
  -12.6499996       1.35998716E-05
  -12.6400003       1.25366096E-05
  -12.6300001       9.12368978E-06
  -12.6199999       3.81338737E-06
  -12.6099997      -2.54147199E-06
  -12.6000004      -8.85189093E-06
  -12.5900002      -1.40178972E-05
  -12.5799999      -1.71649535E-05
  -12.5699997      -1.78360187E-05
  -12.5600004      -1.60910022E-05
  -12.5500002      -1.24849985E-05
  -12.5400000      -7.92493847E-06
  -12.5299997      -3.43451620E-06
  -12.5200005       1.17771336E-07
  -12.5100002       2.25978715E-06
  -12.5000000       3.06181641E-06
  -12.4899998       3.14314980E-06
  -12.4799995       3.52749976E-06
  -12.4700003       5.37359665E-06
  -12.4600000       9.64129504E-06
  -12.4499998       1.67745075E-05
  -12.4399996       2.64840055E-05
  -12.4300003       3.76937642E-05
  -12.4200001       4.86777244E-05
  -12.4099998       5.73678190E-05
  -12.3999996       6.17702244E-05
  -12.3900003       6.03963090E-05
  -12.3800001       5.26060903E-05
  -12.3699999       3.87790096E-05
  -12.3599997       2.02655847E-05
  -12.3500004      -8.74186412E-07
  -12.3400002      -2.22871859E-05
  -12.3299999      -4.18005111E-05
  -12.3199997      -5.78381914E-05
  -12.3100004      -6.96805437E-05
  -12.3000002      -7.75042790E-05
  -12.2900000      -8.21967114E-05
  -12.2799997      -8.49954085E-05
  -12.2700005      -8.70499716E-05
  -12.2600002      -8.90231458E-05
  -12.2500000      -9.08392103E-05
  -12.2399998      -9.16494610E-05
  -12.2299995      -9.00284722E-05
  -12.2200003      -8.43545786E-05
  -12.2100000      -7.32795306E-05
  -12.1999998      -5.61686065E-05
  -12.1899996      -3.33989192E-05
  -12.1800003      -6.43888234E-06
  -12.1700001       2.23142415E-05
  -12.1599998       4.99034795E-05
  -12.1499996       7.33048219E-05
  -12.1400003       8.99351508E-05
  -12.1300001       9.80695186E-05
  -12.1199999       9.70898909E-05
  -12.1099997       8.75314727E-05
  -12.1000004       7.09400992E-05
  -12.0900002       4.95922868E-05
  -12.0799999       2.61490222E-05
  -12.0699997       3.31288243E-06
  -12.0600004      -1.64606136E-05
  -12.0500002      -3.11738695E-05
  -12.0400000      -3.94220770E-05
  -12.0299997      -4.04690218E-05
  -12.0200005      -3.42817402E-05
  -12.0100002      -2.15312084E-05
  -12.0000000      -3.55049542E-06
  -11.9899998       1.77692800E-05
  -11.9799995       4.01642174E-05
  -11.9700003       6.12673321E-05
  -11.9600000       7.89382684E-05
  -11.9499998       9.15984929E-05
  -11.9399996       9.84962171E-05
  -11.9300003       9.98243340E-05
  -11.9200001       9.66384687E-05
  -11.9099998       9.05687775E-05
  -11.8999996       8.33768718E-05
  -11.8900003       7.64615252E-05
  -11.8800001       7.04461927E-05
  -11.8699999       6.49750582E-05
  -11.8599997       5.87994327E-05
  -11.8500004       5.01609175E-05
  -11.8400002       3.73919647E-05
  -11.8299999       1.95810662E-05
  -11.8199997      -2.88623164E-06
  -11.8100004      -2.80852873E-05
  -11.8000002      -5.27178927E-05
  -11.7900000      -7.26909930E-05
  -11.7799997      -8.40001885E-05
  -11.7700005      -8.37160915E-05
  -11.7600002      -7.08267326E-05
  -11.7500000      -4.67075915E-05
  -11.7399998      -1.50724545E-05
  -11.7299995       1.86181132E-05
  -11.7200003       4.81778588E-05
  -11.7100000       6.79223376E-05
  -11.6999998       7.38239469E-05
  -11.6899996       6.43302192E-05
  -11.6800003       4.06624386E-05
  -11.6700001       6.53730103E-06
  -11.6599998      -3.26087575E-05
  -11.6499996      -7.07019717E-05
  -11.6400003      -1.02171434E-04
  -11.6300001      -1.22905374E-04
  -11.6199999      -1.30847198E-04
  -11.6099997      -1.26156403E-04
  -11.6000004      -1.10965397E-04
  -11.5900002      -8.88444920E-05
  -11.5799999      -6.41251318E-05
  -11.5699997      -4.12214249E-05
  -11.5600004      -2.40466561E-05
  -11.5500002      -1.55642429E-05
  -11.5400000      -1.74684865E-05
  -11.5299997      -2.99734002E-05
  -11.5200005      -5.17019871E-05
  -11.5100002      -7.97016110E-05
  -11.5000000      -1.09641631E-04
  -11.4899998      -1.36254996E-04
  -11.4799995      -1.54051217E-04
  -11.4700003      -1.58255629E-04
  -11.4600000      -1.45837956E-04
  -11.4499998      -1.16412877E-04
  -11.4399996      -7.27612933E-05
  -11.4300003      -2.07573776E-05
  -11.4200001       3.14023528E-05
  -11.4099998       7.46054429E-05
  -11.3999996       1.00623605E-04
  -11.3900003       1.03924489E-04
  -11.3800001       8.30585777E-05
  -11.3699999       4.12435256E-05
  -11.3599997      -1.40647180E-05
  -11.3500004      -7.25846767E-05
  -11.3400002      -1.23326055E-04
  -11.3299999      -1.56936032E-04
  -11.3199997      -1.67720689E-04
  -11.3100004      -1.54848036E-04
  -11.3000002      -1.22430647E-04
  -11.2900000      -7.84609656E-05
  -11.2799997      -3.28576862E-05
  -11.2700005       4.89582590E-06
  -11.2600002       2.79425585E-05
  -11.2500000       3.35438090E-05
  -11.2399998       2.35276839E-05
  -11.2299995       3.61615162E-06
  -11.2200003      -1.81694304E-05
  -11.2100000      -3.36066987E-05
  -11.1999998      -3.63522631E-05
  -11.1899996      -2.35091684E-05
  -11.1800003       3.66720974E-06
  -11.1700001       4.00554745E-05
  -11.1599998       7.78446920E-05
  -11.1499996       1.08307329E-04
  -11.1400003       1.23763835E-04
  -11.1300001       1.19318101E-04
  -11.1199999       9.40138343E-05
  -11.1099997       5.11931175E-05
  -11.1000004      -2.00162776E-06
  -11.0900002      -5.58840911E-05
  -11.0799999      -1.00009551E-04
  -11.0699997      -1.25168823E-04
  -11.0600004      -1.25228602E-04
  -11.0500002      -9.84680664E-05
  -11.0400000      -4.81314382E-05
  -11.0299997       1.79593426E-05
  -11.0200005       8.87183414E-05
  -11.0100002       1.51832020E-04
  -11.0000000       1.96140682E-04
  -10.9899998       2.13873849E-04
  -10.9799995       2.02236042E-04
  -10.9700003       1.63950084E-04
  -10.9600000       1.06587904E-04
  -10.9499998       4.08115520E-05
  -10.9399996      -2.20673355E-05
  -10.9300003      -7.26020371E-05
  -10.9200001      -1.05149542E-04
  -10.9099998      -1.18724369E-04
  -10.8999996      -1.16554897E-04
  -10.8900003      -1.04503830E-04
  -10.8800001      -8.88552095E-05
  -10.8699999      -7.41685362E-05
  -10.8599997      -6.18858394E-05
  -10.8500004      -5.01429640E-05
  -10.8400002      -3.48490103E-05
  -10.8299999      -1.16761785E-05
  -10.8199997       2.17130528E-05
  -10.8100004       6.39770951E-05
  -10.8000002       1.09565939E-04
  -10.7900000       1.49605068E-04
  -10.7799997       1.73984445E-04
  -10.7700005       1.74041066E-04
  -10.7600002       1.45018945E-04
  -10.7500000       8.75565165E-05
  -10.7399998       7.76976776E-06
  -10.7299995      -8.40416178E-05
  -10.7200003      -1.75599605E-04
  -10.7100000      -2.55038409E-04
  -10.6999998      -3.12766526E-04
  -10.6899996      -3.42361454E-04
  -10.6800003      -3.40490980E-04
  -10.6700001      -3.06267029E-04
  -10.6599998      -2.40659239E-04
  -10.6499996      -1.46520120E-04
  -10.6400003      -2.94141337E-05
  -10.6300001       1.01070604E-04
  -10.6199999       2.30301855E-04
  -10.6099997       3.38828715E-04
  -10.6000004       4.04584018E-04
  -10.5900002       4.07181098E-04
  -10.5799999       3.33590782E-04
  -10.5699997       1.83721728E-04
  -10.5600004      -2.59651079E-05
  -10.5500002      -2.62481946E-04
  -10.5400000      -4.80841642E-04
  -10.5299997      -6.32700103E-04
  -10.5200005      -6.77398581E-04
  -10.5100002      -5.92711149E-04
  -10.5000000      -3.82326631E-04
  -10.4899998      -7.76878514E-05
  -10.4799995       2.66834482E-04
  -10.4700003       5.84693858E-04
  -10.4600000       8.11444886E-04
  -10.4499998       8.99085077E-04
  -10.4399996       8.26885574E-04
  -10.4300003       6.06013229E-04
  -10.4200001       2.76877458E-04
  -10.4099998      -9.99580952E-05
  -10.3999996      -4.56843205E-04
  -10.3900003      -7.32760411E-04
  -10.3800001      -8.84465466E-04
  -10.3699999      -8.92794866E-04
  -10.3599997      -7.63383869E-04
  -10.3500004      -5.22567017E-04
  -10.3400002      -2.10309227E-04
  -10.3299999       1.27627558E-04
  -10.3199997       4.46464954E-04
  -10.3100004       7.07197818E-04
  -10.3000002       8.79432540E-04
  -10.2900000       9.42990184E-04
  -10.2799997       8.89131683E-04
  -10.2700005       7.21863762E-04
  -10.2600002       4.59079194E-04
  -10.2500000       1.32648827E-04
  -10.2399998      -2.13650390E-04
  -10.2299995      -5.29121200E-04
  -10.2200003      -7.63908552E-04
  -10.2100000      -8.78293242E-04
  -10.1999998      -8.51374643E-04
  -10.1899996      -6.86710759E-04
  -10.1800003      -4.12997470E-04
  -10.1700001      -7.90989798E-05
  -10.1599998       2.55679450E-04
  -10.1499996       5.33765182E-04
  -10.1400003       7.10863736E-04
  -10.1300001       7.63970194E-04
  -10.1199999       6.94005692E-04
  -10.1099997       5.22853690E-04
  -10.1000004       2.86185939E-04
  -10.0900002       2.45537740E-05
  -10.0799999      -2.24590112E-04
  -10.0699997      -4.31984081E-04
  -10.0600004      -5.78127918E-04
  -10.0500002      -6.52088725E-04
  -10.0400000      -6.49232941E-04
  -10.0299997      -5.69698517E-04
  -10.0200005      -4.18705895E-04
  -10.0100002      -2.08575642E-04
  -10.0000000       3.88932422E-05
  -9.98999977       2.91676610E-04
  -9.97999954       5.10142243E-04
  -9.97000027       6.53617608E-04
  -9.96000004       6.89850596E-04
  -9.94999981       6.04793546E-04
  -9.93999958       4.09394590E-04
  -9.93000031       1.40497039E-04
  -9.92000008      -1.45490572E-04
  -9.90999985      -3.85238527E-04
  -9.89999962      -5.24341478E-04
  -9.89000034      -5.31899976E-04
  -9.88000011      -4.09403758E-04
  -9.86999989      -1.90979321E-04
  -9.85999966       6.53977186E-05
  -9.85000038       2.93357181E-04
  -9.84000015       4.35800233E-04
  -9.82999992       4.59628296E-04
  -9.81999969       3.63329658E-04
  -9.81000042       1.75490801E-04
  -9.80000019      -5.48580574E-05
  -9.78999996      -2.72695586E-04
  -9.77999973      -4.31622146E-04
  -9.77000046      -5.04301395E-04
  -9.76000023      -4.86108795E-04
  -9.75000000      -3.91826150E-04
  -9.73999977      -2.47536256E-04
  -9.72999954      -8.12295693E-05
  -9.72000027       8.43948292E-05
  -9.71000004       2.34774023E-04
  -9.69999981       3.61851271E-04
  -9.68999958       4.59776376E-04
  -9.68000031       5.20791509E-04
  -9.67000008       5.33926359E-04
  -9.65999985       4.87722951E-04
  -9.64999962       3.76213517E-04
  -9.64000034       2.05619275E-04
  -9.63000011      -1.53514873E-06
  -9.61999989      -2.07593606E-04
  -9.60999966      -3.67111759E-04
  -9.60000038      -4.38863673E-04
  -9.59000015      -3.98942124E-04
  -9.57999992      -2.50475452E-04
  -9.56999969      -2.61635669E-05
  -9.56000042       2.18041750E-04
  -9.55000019       4.16904484E-04
  -9.53999996       5.13662817E-04
  -9.52999973       4.76250832E-04
  -9.52000046       3.06921866E-04
  -9.51000023       4.21730438E-05
  -9.50000000      -2.57111009E-04
  -9.48999977      -5.22307877E-04
  -9.47999954      -6.95429102E-04
  -9.47000027      -7.43729994E-04
  -9.46000004      -6.66440930E-04
  -9.44999981      -4.92148334E-04
  -9.43999958      -2.68347707E-04
  -9.43000031      -4.70092527E-05
  -9.42000008       1.29094129E-04
  -9.40999985       2.35287691E-04
  -9.39999962       2.67127267E-04
  -9.39000034       2.36266671E-04
  -9.38000011       1.62628610E-04
  -9.36999989       6.63706960E-05
  -9.35999966      -3.73305702E-05
  -9.35000038      -1.39225085E-04
  -9.34000015      -2.33205239E-04
  -9.32999992      -3.11939628E-04
  -9.31999969      -3.63668252E-04
  -9.31000042      -3.72289884E-04
  -9.30000019      -3.21331929E-04
  -9.28999996      -2.00567374E-04
  -9.27999973      -1.26813657E-05
  -9.27000046       2.22949122E-04
  -9.26000023       4.71459614E-04
  -9.25000000       6.89065550E-04
  -9.23999977       8.33414379E-04
  -9.22999954       8.74678954E-04
  -9.22000027       8.03926145E-04
  -9.21000004       6.36068755E-04
  -9.19999981       4.06410574E-04
  -9.18999958       1.61809745E-04
  -9.18000031      -5.08780722E-05
  -9.17000008      -1.95704240E-04
  -9.15999985      -2.54909595E-04
  -9.14999962      -2.30923353E-04
  -9.14000034      -1.43127807E-04
  -9.13000011      -2.09423288E-05
  -9.11999989       1.04390019E-04
  -9.10999966       2.06964425E-04
  -9.10000038       2.70732096E-04
  -9.09000015       2.90875207E-04
  -9.07999992       2.72534613E-04
  -9.06999969       2.27944329E-04
  -9.06000042       1.73055509E-04
  -9.05000019       1.24368788E-04
  -9.03999996       9.62243648E-05
  -9.02999973       9.84993312E-05
  -9.02000046       1.34673333E-04
  -9.01000023       2.00487149E-04
  -9.00000000       2.83714122E-04
  -8.98999977       3.65634420E-04
  -8.97999954       4.24487982E-04
  -8.97000027       4.40524280E-04
  -8.96000004       4.01507597E-04
  -8.94999981       3.07026785E-04
  -8.93999958       1.69997729E-04
  -8.93000031       1.44373062E-05
  -8.92000008      -1.30242333E-04
  -8.90999985      -2.36922948E-04
  -8.89999962      -2.88120180E-04
  -8.89000034      -2.80587905E-04
  -8.88000011      -2.25622207E-04
  -8.86999989      -1.44946389E-04
  -8.85999966      -6.36101904E-05
  -8.85000038      -2.40414079E-06
  -8.84000015       2.75599068E-05
  -8.82999992       2.63061211E-05
  -8.81999969       2.24557152E-06
  -8.81000042      -3.33733915E-05
  -8.80000019      -7.23186022E-05
  -8.78999996      -1.12959460E-04
  -8.77999973      -1.60006399E-04
  -8.77000046      -2.20511094E-04
  -8.76000023      -2.97926657E-04
  -8.75000000      -3.87017208E-04
  -8.73999977      -4.72238316E-04
  -8.72999954      -5.30894788E-04
  -8.72000027      -5.40400739E-04
  -8.71000004      -4.87114332E-04
  -8.69999981      -3.73272022E-04
  -8.68999958      -2.18968431E-04
  -8.68000031      -5.78315994E-05
  -8.67000008       7.25707796E-05
  -8.65999985       1.42417077E-04
  -8.64999962       1.39208758E-04
  -8.64000034       7.16082795E-05
  -8.63000011      -3.40674778E-05
  -8.61999989      -1.43550977E-04
  -8.60999966      -2.26955774E-04
  -8.60000038      -2.69049982E-04
  -8.59000015      -2.73476500E-04
  -8.57999992      -2.59227643E-04
  -8.56999969      -2.50746234E-04
  -8.56000042      -2.65660492E-04
  -8.55000019      -3.05286201E-04
  -8.53999996      -3.52124771E-04
  -8.52999973      -3.75910866E-04
  -8.52000046      -3.46302462E-04
  -8.51000023      -2.47408723E-04
  -8.50000000      -8.82106979E-05
  -8.48999977       9.58933888E-05
  -8.47999954       2.52022262E-04
  -8.47000027       3.26808047E-04
  -8.46000004       2.85689370E-04
  -8.44999981       1.27402323E-04
  -8.43999958      -1.12114685E-04
  -8.43000031      -3.68591660E-04
  -8.42000008      -5.68649382E-04
  -8.40999985      -6.53025345E-04
  -8.39999962      -5.95736550E-04
  -8.39000034      -4.12327383E-04
  -8.38000011      -1.54146168E-04
  -8.36999989       1.09391374E-04
  -8.35999966       3.14200355E-04
  -8.35000038       4.22141078E-04
  -8.34000015       4.31437074E-04
  -8.32999992       3.73307266E-04
  -8.31999969       2.96431157E-04
  -8.31000042       2.45490577E-04
  -8.30000019       2.42297654E-04
  -8.28999996       2.77017534E-04
  -8.27999973       3.13059514E-04
  -8.27000046       3.03814100E-04
  -8.26000023       2.14624641E-04
  -8.25000000       4.10840039E-05
  -8.23999977      -1.84106830E-04
  -8.22999954      -3.99234035E-04
  -8.22000027      -5.34355349E-04
  -8.21000004      -5.37390879E-04
  -8.19999981      -3.95683775E-04
  -8.18999958      -1.44445003E-04
  -8.18000031       1.41909433E-04
  -8.17000008       3.73229326E-04
  -8.15999985       4.73964174E-04
  -8.14999962       4.09566768E-04
  -8.14000034       1.99275077E-04
  -8.13000011      -8.96812344E-05
  -8.11999989      -3.64728534E-04
  -8.10999966      -5.39562316E-04
  -8.10000038      -5.63486945E-04
  -8.09000015      -4.37989918E-04
  -8.07999992      -2.14670945E-04
  -8.06999969       2.45558203E-05
  -8.06000042       1.97594083E-04
  -8.05000019       2.51495600E-04
  -8.03999996       1.80239469E-04
  -8.02999973       2.45881474E-05
  -8.02000046      -1.45616927E-04
  -8.01000023      -2.59783556E-04
  -8.00000000      -2.74636492E-04
  -7.98999977      -1.91295141E-04
  -7.98000002      -5.48311909E-05
  -7.96999979       6.35600372E-05
  -7.96000004       9.50215908E-05
  -7.94999981       1.29036584E-06
  -7.94000006      -2.08103782E-04
  -7.92999983      -4.76470916E-04
  -7.92000008      -7.18563970E-04
  -7.90999985      -8.50563229E-04
  -7.90000010      -8.20555026E-04
  -7.88999987      -6.28334354E-04
  -7.88000011      -3.27198155E-04
  -7.86999989      -6.91881905E-06
  -7.86000013       2.36118969E-04
  -7.84999990       3.31061659E-04
  -7.84000015       2.55744817E-04
  -7.82999992       4.29582724E-05
  -7.82000017      -2.31960992E-04
  -7.80999994      -4.77369700E-04
  -7.80000019      -6.15859986E-04
  -7.78999996      -6.08434668E-04
  -7.78000021      -4.64369223E-04
  -7.76999998      -2.34248597E-04
  -7.76000023       1.02633412E-05
  -7.75000000       2.01901144E-04
  -7.73999977       2.99193489E-04
  -7.73000002       2.96613085E-04
  -7.71999979       2.20956485E-04
  -7.71000004       1.16679083E-04
  -7.69999981       2.67693704E-05
  -7.69000006      -2.31540835E-05
  -7.67999983      -3.17457561E-05
  -7.67000008      -1.80560091E-05
  -7.65999985      -9.49807236E-06
  -7.65000010      -2.73534752E-05
  -7.63999987      -7.61088741E-05
  -7.63000011      -1.40940523E-04
  -7.61999989      -1.94036998E-04
  -7.61000013      -2.06717392E-04
  -7.59999990      -1.61987933E-04
  -7.59000015      -6.21716463E-05
  -7.57999992       7.15298884E-05
  -7.57000017       2.07215417E-04
  -7.55999994       3.14632955E-04
  -7.55000019       3.76449461E-04
  -7.53999996       3.93748283E-04
  -7.53000021       3.83579812E-04
  -7.51999998       3.69798188E-04
  -7.51000023       3.71275615E-04
  -7.50000000       3.92695656E-04
  -7.48999977       4.22025158E-04
  -7.48000002       4.35904803E-04
  -7.46999979       4.10766777E-04
  -7.46000004       3.34929180E-04
  -7.44999981       2.16315224E-04
  -7.44000006       8.21014983E-05