  -16.0000000       0.00000000    
  -15.9899998       0.00000000    
  -15.9799995       0.00000000    
  -15.9700003       0.00000000    
  -15.9600000       0.00000000    
  -15.9499998       0.00000000    
  -15.9399996       0.00000000    
  -15.9300003       0.00000000    
  -15.9200001       0.00000000    
  -15.9099998       0.00000000    
  -15.8999996       2.11946393E-41
  -15.8900003      -1.55143638E-39
  -15.8800001      -8.50643771E-38
  -15.8699999      -1.55797664E-36
  -15.8599997      -1.70785310E-35
  -15.8500004      -1.34405301E-34
  -15.8400002      -8.30126488E-34
  -15.8299999      -4.23874777E-33
  -15.8199997      -1.85009616E-32
  -15.8100004      -7.06024888E-32
  -15.8000002      -2.39294421E-31
  -15.7900000      -7.28280534E-31
  -15.7799997      -2.00525606E-30
  -15.7700005      -5.01854161E-30
  -15.7600002      -1.14405858E-29
  -15.7500000      -2.37430780E-29
  -15.7399998      -4.46789566E-29
  -15.7299995      -7.55231099E-29
  -15.7200003      -1.12454712E-28
  -15.7100000      -1.41142462E-28
  -15.6999998      -1.31253594E-28
  -15.6899996      -3.50893994E-29
  -15.6800003       2.03317391E-28
  -15.6700001       6.22814544E-28
  -15.6599998       1.20326036E-27
  -15.6499996       1.81819419E-27
  -15.6400003       2.20566954E-27
  -15.6300001       1.98549356E-27
  -15.6199999       7.38018425E-28
  -15.6099997      -1.87089573E-27
  -15.6000004      -5.96118266E-27
  -15.5900002      -1.13331455E-26
  -15.5799999      -1.73267135E-26
  -15.5699997      -2.24691344E-26
  -15.5600004      -2.37343779E-26
  -15.5500002      -1.55806330E-26
  -15.5400000       1.02565276E-26
  -15.5299997       6.22443178E-26
  -15.5200005       1.41605438E-25
  -15.5100002       2.29719328E-25
  -15.5000000       2.75336812E-25
  -15.4899998       1.93883004E-25
  -15.4799995      -1.04169477E-25
  -15.4700003      -6.44824518E-25
  -15.4600000      -1.29492326E-24
  -15.4499998      -1.69291404E-24
  -15.4399996      -1.29802684E-24
  -15.4300003       3.52342727E-25
  -15.4200001       3.17386214E-24
  -15.4099998       6.03775204E-24
  -15.3999996       6.65297993E-24
  -15.3900003       2.34333637E-24
  -15.3800001      -8.00049241E-24
  -15.3699999      -2.12477271E-23
  -15.3599997      -2.82069554E-23
  -15.3500004      -1.51762812E-23
  -15.3400002       2.88369303E-23
  -15.3299999       9.93225862E-23
  -15.3199997       1.62791406E-22
  -15.3100004       1.53185971E-22
  -15.3000002      -8.39960711E-24
  -15.2900000      -3.62313817E-22
  -15.2799997      -8.35537792E-22
  -15.2700005      -1.17829354E-21
  -15.2600002      -9.72444211E-22
  -15.2500000       2.23490934E-22
  -15.2399998       2.56727297E-21
  -15.2299995       5.53275343E-21
  -15.2200003       7.61621218E-21
  -15.2100000       6.45569636E-21
  -15.1999998      -3.42406679E-22
  -15.1899996      -1.35997411E-20
  -15.1800003      -3.05785699E-20
  -15.1700001      -4.35939628E-20
  -15.1599998      -4.06417132E-20
  -15.1499996      -9.32744530E-21
  -15.1400003       5.56720340E-20
  -15.1300001       1.43410603E-19
  -15.1199999       2.20013008E-19
  -15.1099997       2.30575924E-19
  -15.1000004       1.15071628E-19
  -15.0900002      -1.60549980E-19
  -15.0799999      -5.64880813E-19
  -15.0699997      -9.69753360E-19
  -15.0600004      -1.15072797E-18
  -15.0500002      -8.41505468E-19
  -15.0400000       1.50427331E-19
  -15.0299997       1.78827019E-18
  -15.0200005       3.66753189E-18
  -15.0100002       4.97961281E-18
  -15.0000000       4.66230054E-18
  -14.9899998       1.77785702E-18
  -14.9799995      -3.93283808E-18
  -14.9700003      -1.14920558E-17
  -14.9600000      -1.83986938E-17
  -14.9499998      -2.09146993E-17
  -14.9399996      -1.51174139E-17
  -14.9300003       1.35071429E-18
  -14.9200001       2.72725154E-17
  -14.9099998       5.63805379E-17
  -14.8999996       7.73798942E-17
  -14.8900003       7.62477883E-17
  -14.8800001       4.09596744E-17
  -14.8699999      -3.22032794E-17
  -14.8599997      -1.32704162E-16
  -14.8500004      -2.32856160E-16
  -14.8400002      -2.90646280E-16
  -14.8299999      -2.59793899E-16
  -14.8199997      -1.06324095E-16
  -14.8100004       1.71926354E-16
  -14.8000002       5.29082560E-16
  -14.7900000       8.65831149E-16
  -14.7799997       1.04151425E-15
  -14.7700005       9.06874554E-16
  -14.7600002       3.54779221E-16
  -14.7500000      -6.20818929E-16
  -14.7399998      -1.87401211E-15
  -14.7299995      -3.08468541E-15
  -14.7200003      -3.78529622E-15
  -14.7100000      -3.45115231E-15
  -14.6999998      -1.65584152E-15
  -14.6899996       1.72618994E-15
  -14.6800003       6.31296578E-15
  -14.6700001       1.10732660E-14
  -14.6599998       1.43377030E-14
  -14.6499996       1.40497948E-14
  -14.6400003       8.30960582E-15
  -14.6300001      -3.81642426E-15
  -14.6199999      -2.13689811E-14
  -14.6099997      -4.07464589E-14
  -14.6000004      -5.55445921E-14
  -14.5900002      -5.74161825E-14
  -14.5799999      -3.82283045E-14
  -14.5699997       6.57779232E-15
  -14.5600004       7.40860078E-14
  -14.5500002       1.50754043E-13
  -14.5400000       2.11756150E-13
  -14.5299997       2.24534380E-13
  -14.5200005       1.57494027E-13
  -14.5100002      -6.84647499E-15
  -14.5000000      -2.57179776E-13
  -14.4899998      -5.42371161E-13
  -14.4799995      -7.70498682E-13
  -14.4700003      -8.23673053E-13
  -14.4600000      -5.90875927E-13
  -14.4499998      -1.48743560E-14
  -14.4399996       8.58377442E-13
  -14.4300003       1.84617686E-12
  -14.4200001       2.63229911E-12
  -14.4099998       2.82343615E-12
  -14.3999996       2.06211285E-12
  -14.3900003       1.78827127E-13
  -14.3800001      -2.65697013E-12
  -14.3699999      -5.84513471E-12
  -14.3599997      -8.38350656E-12
  -14.3500004      -9.05906860E-12
  -14.3400002      -6.80044172E-12
  -14.3299999      -1.12956909E-12
  -14.3199997       7.41238407E-12
  -14.3100004       1.70315585E-11
  -14.3000002       2.48037112E-11
  -14.2900000       2.72508023E-11
  -14.2799997       2.13443742E-11
  -14.2700005       5.74416903E-12
  -14.2600002      -1.80764344E-11
  -14.2500000      -4.52565728E-11
  -14.2399998      -6.79309942E-11
  -14.2299995      -7.67873543E-11
  -14.2200003      -6.36844188E-11
  -14.2100000      -2.48119268E-11
  -14.1999998       3.64922259E-11
  -14.1899996       1.08335250E-10
  -14.1800003       1.71221523E-10
  -14.1700001       2.01831482E-10
  -14.1599998       1.79304696E-10
  -14.1499996       9.27718735E-11
  -14.1400003      -5.19216406E-11
  -14.1300001      -2.28727898E-10
  -14.1199999      -3.93256344E-10
  -14.1099997      -4.90998409E-10
  -14.1000004      -4.71195472E-10
  -14.0900002      -3.03632092E-10
  -14.0799999       6.05789767E-12
  -14.0699997       4.07735817E-10
  -14.0600004       8.09255052E-10
  -14.0500002       1.09236975E-09
  -14.0400000       1.14079279E-09
  -14.0299997       8.75112260E-10
  -14.0200005       2.85868301E-10
  -14.0100002      -5.45509915E-10
  -14.0000000      -1.44709045E-09
  -13.9899998      -2.18319185E-09
  -13.9799995      -2.50597010E-09
  -13.9700003      -2.22269114E-09
  -13.9600000      -1.26293953E-09
  -13.9499998       2.73428558E-10
  -13.9399996       2.10539430E-09
  -13.9300003       3.80793619E-09
  -13.9200001       4.89692642E-09
  -13.9099998       4.94796071E-09
  -13.8999996       3.72313247E-09
  -13.8900003       1.27256039E-09
  -13.8800001      -2.02182693E-09
  -13.8699999      -5.48286661E-09
  -13.8599997      -8.25992164E-09
  -13.8500004      -9.51838963E-09
  -13.8400002      -8.65833538E-09
  -13.8299999      -5.50938140E-09
  -13.8199997      -4.46770732E-10
  -13.8100004       5.61427838E-09
  -13.8000002       1.13632614E-08
  -13.7900000       1.53615058E-08
  -13.7799997       1.63807155E-08
  -13.7700005       1.37361678E-08
  -13.7600002       7.52889218E-09
  -13.7500000      -1.27652322E-09
  -13.7399998      -1.09785807E-08
  -13.7299995      -1.94622203E-08
  -13.7200003      -2.46597089E-08
  -13.7100000      -2.50479992E-08
  -13.6999998      -2.00614974E-08
  -13.6899996      -1.03089617E-08
  -13.6800003       2.47693444E-09
  -13.6700001       1.57661244E-08
  -13.6599998       2.67718079E-08
  -13.6499996       3.30828414E-08
  -13.6400003       3.32328831E-08
  -13.6300001       2.70580145E-08
  -13.6199999       1.57424260E-08
  -13.6099997       1.53084190E-09
  -13.6000004      -1.28231239E-08
  -13.5900002      -2.47263525E-08
  -13.5799999      -3.23474154E-08
  -13.5699997      -3.49765017E-08
  -13.5600004      -3.30372423E-08
  -13.5500002      -2.77484116E-08
  -13.5400000      -2.05476063E-08
  -13.5299997      -1.24778099E-08
  -13.5200005      -3.76866716E-09
  -13.5100002       6.19950669E-09
  -13.5000000       1.84765145E-08
  -13.4899998       3.37547412E-08
  -13.4799995       5.14574339E-08
  -13.4700003       6.90490083E-08
  -13.4600000       8.19164185E-08
  -13.4499998       8.40533332E-08
  -13.4399996       6.95569540E-08
  -13.4300003       3.46710998E-08
  -13.4200001      -2.01437977E-08
  -13.4099998      -8.87773552E-08
  -13.3999996      -1.59304264E-07
  -13.3900003      -2.15485059E-07
  -13.3800001      -2.39923651E-07
  -13.3699999      -2.18381274E-07
  -13.3599997      -1.44300373E-07
  -13.3500004      -2.23287984E-08
  -13.3400002       1.30333802E-07
  -13.3299999       2.85575908E-07
  -13.3199997       4.09145457E-07
  -13.3100004       4.67877044E-07
  -13.3000002       4.37924200E-07
  -13.2900000       3.12036292E-07
  -13.2799997       1.03858135E-07
  -13.2700005      -1.52296820E-07
  -13.2600002      -4.06795237E-07
  -13.2500000      -6.04502134E-07
  -13.2399998      -6.97168844E-07
  -13.2299995      -6.55581232E-07
  -13.2200003      -4.78373124E-07
  -13.2100000      -1.94905255E-07
  -13.1999998       1.39155759E-07
  -13.1899996       4.53177393E-07
  -13.1800003       6.77605783E-07
  -13.1700001       7.61039928E-07
  -13.1599998       6.84021643E-07
  -13.1499996       4.65662112E-07
  -13.1400003       1.60741152E-07
  -13.1300001      -1.52781737E-07
  -13.1199999      -3.93346511E-07
  -13.1099997      -4.97815222E-07
  -13.1000004      -4.40175427E-07
  -13.0900002      -2.41490397E-07
  -13.0799999       3.24967075E-08
  -13.0699997       2.86688788E-07
  -13.0600004       4.21981554E-07
  -13.0500002       3.64651044E-07
  -13.0400000       9.20286922E-08
  -13.0299997      -3.53143662E-07
  -13.0200005      -8.65053380E-07
  -13.0100002      -1.29528894E-06
  -13.0000000      -1.48812057E-06
  -12.9899998      -1.32287551E-06
  -12.9799995      -7.52899325E-07
  -12.9700003       1.69708557E-07
  -12.9600000       1.29185196E-06
  -12.9499998       2.38297730E-06
  -12.9399996       3.18133925E-06
  -12.9300003       3.45376225E-06
  -12.9200001       3.05530489E-06
  -12.9099998       1.97398163E-06
  -12.8999996       3.48113133E-07
  -12.8900003      -1.55031853E-06
  -12.8800001      -3.36502990E-06
  -12.8699999      -4.72805550E-06
  -12.8599997      -5.33982757E-06
  -12.8500004      -5.03814044E-06
  -12.8400002      -3.83911356E-06
  -12.8299999      -1.93928668E-06
  -12.8199997       3.23019833E-07
  -12.8100004       2.53905318E-06
  -12.8000002       4.31740818E-06
  -12.7900000       5.36746029E-06
  -12.7799997       5.55828865E-06
  -12.7700005       4.93863809E-06
  -12.7600002       3.71307533E-06
  -12.7500000       2.18059404E-06
  -12.7399998       6.51787218E-07
  -12.7299995      -6.33334594E-07
  -12.7200003      -1.56440512E-06
  -12.7100000      -2.17970637E-06
  -12.6999998      -2.63847551E-06
  -12.6899996      -3.15249054E-06
  -12.6800003      -3.89470551E-06
  -12.6700001      -4.91053470E-06
  -12.6599998      -6.05901005E-06
  -12.6499996      -7.00554983E-06
  -12.6400003      -7.27636461E-06
  -12.6300001      -6.36902359E-06
  -12.6199999      -3.89797833E-06
  -12.6099997       2.58237208E-07
  -12.6000004       5.84654754E-06
  -12.5900002       1.22002812E-05
  -12.5799999       1.82935564E-05
  -12.5699997       2.28916742E-05
  -12.5600004       2.47776534E-05
  -12.5500002       2.30144797E-05
  -12.5400000       1.71889060E-05
  -12.5299997       7.57967882E-06
  -12.5200005      -4.79736764E-06
  -12.5100002      -1.82933600E-05
  -12.5000000      -3.08757044E-05
  -12.4899998      -4.04863385E-05
  -12.4799995      -4.54443398E-05
  -12.4700003      -4.48114297E-05
  -12.4600000      -3.86380852E-05
  -12.4499998      -2.80255299E-05
  -12.4399996      -1.49726357E-05
  -12.4300003      -2.02095339E-06
  -12.4200001       8.24310428E-06
  -12.4099998       1.37329744E-05
  -12.3999996       1.33385438E-05
  -12.3900003       7.22498726E-06
  -12.3800001      -3.12521183E-06
  -12.3699999      -1.51547410E-05
  -12.3599997      -2.57241281E-05
  -12.3500004      -3.17610829E-05
  -12.3400002      -3.09309253E-05
  -12.3299999      -2.21786922E-05
  -12.3199997      -6.01369493E-06
  -12.3100004       1.55405924E-05
  -12.3000002       3.93347545E-05
  -12.2900000       6.17439073E-05
  -12.2799997       7.94384905E-05
  -12.2700005       9.00979649E-05
  -12.2600002       9.28955415E-05
  -12.2500000       8.86302078E-05
  -12.2399998       7.94639418E-05
  -12.2299995       6.83184699E-05
  -12.2200003       5.80743726E-05
  -12.2100000       5.07723453E-05
  -12.1999998       4.70259183E-05
  -12.1899996       4.58112445E-05
  -12.1800003       4.47105740E-05
  -12.1700001       4.05716855E-05
  -12.1599998       3.04337591E-05
  -12.1499996       1.24901244E-05
  -12.1400003      -1.31676279E-05
  -12.1300001      -4.42408891E-05
  -12.1199999      -7.64699435E-05
  -12.1099997      -1.04419145E-04
  -12.1000004      -1.22646336E-04
  -12.0900002      -1.26992236E-04
  -12.0799999      -1.15677052E-04
  -12.0699997      -8.99189326E-05
  -12.0600004      -5.38906061E-05
  -12.0500002      -1.39834492E-05
  -12.0400000       2.24826454E-05
  -12.0299997       4.88220867E-05
  -12.0200005       6.04580782E-05
  -12.0100002       5.59540786E-05
  -12.0000000       3.73419862E-05
  -11.9899998       9.64892115E-06
  -11.9799995      -2.02835690E-05
  -11.9700003      -4.54195506E-05
  -11.9600000      -6.02060609E-05
  -11.9499998      -6.19035636E-05
  -11.9399996      -5.12418774E-05
  -11.9300003      -3.22325832E-05
  -11.9200001      -1.11720701E-05
  -11.9099998       4.93217885E-06
  -11.8999996       1.01355145E-05
  -11.8900003       1.09975792E-06
  -11.8800001      -2.19730009E-05
  -11.8699999      -5.52519632E-05
  -11.8599997      -9.20672755E-05
  -11.8500004      -1.24398444E-04
  -11.8400002      -1.44712612E-04
  -11.8299999      -1.47717830E-04
  -11.8199997      -1.31615277E-04
  -11.8100004      -9.85532315E-05
  -11.8000002      -5.41749068E-05
  -11.7900000      -6.36717050E-06
  -11.7799997       3.64952248E-05
  -11.7700005       6.73987815E-05
  -11.7600002       8.22042784E-05
  -11.7500000       8.04774609E-05
  -11.7399998       6.54544783E-05
  -11.7299995       4.31630433E-05
  -11.7200003       2.09163081E-05
  -11.7100000       5.53868404E-06
  -11.6999998       1.73967715E-06
  -11.6899996       1.10113033E-05
  -11.6800003       3.12986595E-05
  -11.6700001       5.75122431E-05
  -11.6599998       8.27570402E-05
  -11.6499996       9.99916883E-05
  -11.6400003       1.03736762E-04
  -11.6300001       9.14437042E-05
  -11.6199999       6.42155937E-05
  -11.6099997       2.67167270E-05
  -11.6000004      -1.37120414E-05
  -11.5900002      -4.85428609E-05
  -11.5799999      -6.98368603E-05
  -11.5699997      -7.19297459E-05
  -11.5600004      -5.26729564E-05
  -11.5500002      -1.39726772E-05
  -11.5400000       3.84825580E-05
  -11.5299997       9.62478080E-05
  -11.5200005       1.49691914E-04
  -11.5100002       1.89798069E-04
  -11.5000000       2.09841994E-04
  -11.4899998       2.06627330E-04
  -11.4799995       1.81052499E-04
  -11.4700003       1.37916868E-04
  -11.4600000       8.50210417E-05
  -11.4499998       3.17443410E-05
  -11.4399996      -1.26288360E-05
  -11.4300003      -4.05287283E-05
  -11.4200001      -4.73847977E-05
  -11.4099998      -3.23656495E-05
  -11.3999996       1.53142355E-06
  -11.3900003       4.80330964E-05
  -11.3800001       9.86721789E-05
  -11.3699999       1.44207603E-04
  -11.3599997       1.76147325E-04
  -11.3500004       1.88133694E-04
  -11.3400002       1.76980175E-04
  -11.3299999       1.43205558E-04
  -11.3199997       9.09872397E-05
  -11.3100004       2.75390230E-05
  -11.3000002      -3.79977500E-05
  -11.2900000      -9.59881872E-05
  -11.2799997      -1.37847543E-04
  -11.2700005      -1.57452829E-04
  -11.2600002      -1.52188135E-04
  -11.2500000      -1.23434860E-04
  -11.2399998      -7.63988210E-05
  -11.2299995      -1.92739535E-05
  -11.2200003       3.81388963E-05
  -11.2100000       8.61313893E-05
  -11.1999998       1.16803880E-04
  -11.1899996       1.25475213E-04
  -11.1800003       1.11505658E-04
  -11.1700001       7.83557844E-05
  -11.1599998       3.28530296E-05
  -11.1499996      -1.61988064E-05
  -11.1400003      -5.97885191E-05
  -11.1300001      -9.04773406E-05
  -11.1199999      -1.03812388E-04
  -11.1099997      -9.90712579E-05
  -11.1000004      -7.91821949E-05
  -11.0900002      -4.98507070E-05
  -11.0799999      -1.81060659E-05
  -11.0699997       9.38413996E-06
  -11.0600004       2.78307143E-05
  -11.0500002       3.53147479E-05
  -11.0400000       3.30301518E-05
  -11.0299997       2.47394146E-05
  -11.0200005       1.56009228E-05
  -11.0100002       1.06812231E-05
  -11.0000000       1.35393011E-05
  -10.9899998       2.52446334E-05
  -10.9799995       4.40724252E-05
  -10.9700003       6.59404541E-05
  -10.9600000       8.54597456E-05
  -10.9499998       9.73169153E-05
  -10.9399996       9.76298179E-05
  -10.9300003       8.49382122E-05
  -10.9200001       6.05992318E-05
  -10.9099998       2.85211408E-05
  -10.8999996      -5.65964729E-06
  -10.8900003      -3.57214703E-05
  -10.8800001      -5.60263688E-05
  -10.8699999      -6.24497989E-05
  -10.8599997      -5.29054741E-05
  -10.8500004      -2.74345803E-05
  -10.8400002       1.20469122E-05
  -10.8299999       6.21743093E-05
  -10.8199997       1.18561846E-04
  -10.8100004       1.76123707E-04
  -10.8000002       2.29282494E-04
  -10.7900000       2.72158155E-04
  -10.7799997       2.98882136E-04
  -10.7700005       3.04161862E-04
  -10.7600002       2.84126960E-04
  -10.7500000       2.37350745E-04
  -10.7399998       1.65805803E-04
  -10.7299995       7.54350331E-05
  -10.7200003      -2.39620385E-05
  -10.7100000      -1.19701479E-04
  -10.6999998      -1.98010865E-04
  -10.6899996      -2.46376410E-04
  -10.6800003      -2.55975057E-04
  -10.6700001      -2.23636060E-04
  -10.6599998      -1.52832101E-04
  -10.6499996      -5.33945749E-05
  -10.6400003       6.00632411E-05
  -10.6300001       1.70721760E-04
  -10.6199999       2.62591988E-04
  -10.6099997       3.23362416E-04
  -10.6000004       3.46453249E-04
  -10.5900002       3.31871357E-04
  -10.5799999       2.85747490E-04
  -10.5699997       2.18737929E-04
  -10.5600004       1.43709622E-04
  -10.5500002       7.32424669E-05
  -10.5400000       1.74612596E-05
  -10.5299997      -1.74269899E-05
  -10.5200005      -2.97143524E-05
  -10.5100002      -2.19173016E-05
  -10.5000000       1.76077009E-07
  -10.4899998       2.88817591E-05
  -10.4799995       5.61563284E-05
  -10.4700003       7.50705440E-05
  -10.4600000       8.10462152E-05
  -10.4499998       7.27196530E-05
  -10.4399996       5.23148556E-05
  -10.4300003       2.54256101E-05
  -10.4200001       1.47545720E-07
  -10.4099998      -1.44129526E-05
  -10.3999996      -1.00926381E-05
  -10.3900003       1.82280710E-05
  -10.3800001       7.08220105E-05
  -10.3699999       1.42096877E-04
  -10.3599997       2.20763730E-04
  -10.3500004       2.91373784E-04
  -10.3400002       3.37083649E-04
  -10.3299999       3.43166845E-04
  -10.3199997       3.00523912E-04
  -10.3100004       2.08344238E-04
  -10.3000002       7.51912885E-05
  -10.2900000      -8.18922854E-05
  -10.2799997      -2.40201931E-04
  -10.2700005      -3.75575444E-04
  -10.2600002      -4.67082718E-04
  -10.2500000      -5.01148694E-04
  -10.2399998      -4.74172150E-04
  -10.2299995      -3.93054157E-04
  -10.2200003      -2.73547135E-04
  -10.2100000      -1.36851129E-04
  -10.1999998      -5.27776092E-06
  -10.1899996       1.02018566E-04
  -10.1800003       1.72315529E-04
  -10.1700001       2.00971481E-04
  -10.1599998       1.91241619E-04
  -10.1499996       1.52496010E-04
  -10.1400003       9.74192008E-05
  -10.1300001       3.89420784E-05
  -10.1199999      -1.23685450E-05
  -10.1099997      -4.99342277E-05
  -10.1000004      -7.15738570E-05
  -10.0900002      -7.87876270E-05
  -10.0799999      -7.52654523E-05
  -10.0699997      -6.51151422E-05
  -10.0600004      -5.13165141E-05
  -10.0500002      -3.47951100E-05
  -10.0400000      -1.43118759E-05
  -10.0299997       1.28645324E-05
  -10.0200005       4.97442670E-05
  -10.0100002       9.82416241E-05
  -10.0000000       1.58057475E-04
  -9.98999977       2.26166594E-04
  -9.97999954       2.97093065E-04
  -9.97000027       3.63937957E-04
  -9.96000004       4.19903867E-04
  -9.94999981       4.59900126E-04
  -9.93999958       4.81763622E-04
  -9.93000031       4.86713368E-04
  -9.92000008       4.78862232E-04
  -9.90999985       4.63886128E-04
  -9.89999962       4.47217608E-04
  -9.89000034       4.32306901E-04
  -9.88000011       4.19508957E-04
  -9.86999989       4.05994302E-04
  -9.85999966       3.86778003E-04
  -9.85000038       3.56603501E-04
  -9.84000015       3.12119751E-04
  -9.82999992       2.53652281E-04
  -9.81999969       1.85954821E-04
  -9.81000042       1.17618962E-04
  -9.80000019       5.92374854E-05
  -9.78999996       2.08269394E-05
  -9.77999973       9.27967994E-06
  -9.77000046       2.66377992E-05
  -9.76000023       6.97405849E-05
  -9.75000000       1.31362933E-04
  -9.73999977       2.02473035E-04
  -9.72999954       2.74856749E-04
  -9.72000027       3.43219464E-04
  -9.71000004       4.06041130E-04
  -9.69999981       4.64877259E-04
  -9.68999958       5.22341230E-04
  -9.68000031       5.79484447E-04
  -9.67000008       6.33545860E-04
  -9.65999985       6.76976866E-04
  -9.64999962       6.98268355E-04
  -9.64000034       6.84529950E-04
  -9.63000011       6.25182758E-04
  -9.61999989       5.15715510E-04
  -9.60999966       3.60357750E-04
  -9.60000038       1.72779502E-04
  -9.59000015      -2.55422437E-05
  -9.57999992      -2.09003643E-04
  -9.56999969      -3.52750096E-04
  -9.56000042      -4.37577139E-04
  -9.55000019      -4.53692977E-04
  -9.53999996      -4.02499601E-04
  -9.52999973      -2.96067825E-04
  -9.52000046      -1.54543915E-04
  -9.51000023      -2.17601109E-06
  -9.50000000       1.37120660E-04
  -9.48999977       2.43751769E-04
  -9.47999954       3.05293332E-04
  -9.47000027       3.17831844E-04
  -9.46000004       2.85755959E-04
  -9.44999981       2.20222864E-04
  -9.43999958       1.36686125E-04
  -9.43000031       5.19410569E-05
  -9.42000008      -1.88484391E-05
  -9.40999985      -6.47022243E-05
  -9.39999962      -8.05638847E-05
  -9.39000034      -6.79222358E-05
  -9.38000011      -3.41497471E-05
  -9.36999989       9.39558231E-06
  -9.35999966       5.01984905E-05
  -9.35000038       7.77847818E-05
  -9.34000015       8.65615002E-05
  -9.32999992       7.75644876E-05
  -9.31999969       5.85724774E-05
  -9.31000042       4.24223545E-05
  -9.30000019       4.38286806E-05
  -9.28999996       7.54453940E-05
  -9.27999973       1.44173755E-04
  -9.27000046       2.48719734E-04
  -9.26000023       3.79120000E-04
  -9.25000000       5.18453598E-04
  -9.23999977       6.46372733E-04
  -9.22999954       7.43592216E-04
  -9.22000027       7.96212174E-04
  -9.21000004       7.98791181E-04
  -9.19999981       7.55426358E-04
  -9.18999958       6.78622222E-04
  -9.18000031       5.86303358E-04
  -9.17000008       4.97771311E-04
  -9.15999985       4.29624313E-04
  -9.14999962       3.92595713E-04
  -9.14000034       3.89966124E-04
  -9.13000011       4.17768169E-04
  -9.11999989       4.66551486E-04
  -9.10999966       5.24132571E-04
  -9.10000038       5.78590494E-04
  -9.09000015       6.20801875E-04
  -9.07999992       6.46004046E-04
  -9.06999969       6.54162723E-04
  -9.06000042       6.49221998E-04
  -9.05000019       6.37556892E-04
  -9.03999996       6.26086956E-04
  -9.02999973       6.20528415E-04
  -9.02000046       6.24169130E-04
  -9.01000023       6.37379300E-04
  -9.00000000       6.57869037E-04
  -8.98999977       6.81513397E-04
  -8.97999954       7.03441037E-04
  -8.97000027       7.19048083E-04
  -8.96000004       7.24668906E-04
  -8.94999981       7.17787771E-04
  -8.93999958       6.96859148E-04
  -8.93000031       6.60965452E-04
  -8.92000008       6.09607087E-04
  -8.90999985       5.42867405E-04
  -8.89999962       4.62016033E-04
  -8.89000034       3.70379305E-04
  -8.88000011       2.74092134E-04
  -8.86999989       1.82256947E-04
  -8.85999966       1.06127845E-04
  -8.85000038       5.72198405E-05
  -8.84000015       4.46368140E-05
  -8.82999992       7.22879122E-05
  -8.81999969       1.36871007E-04
  -8.81000042       2.27436773E-04
  -8.80000019       3.26976355E-04
  -8.78999996       4.15891234E-04
  -8.77999973       4.76573157E-04
  -8.77000046       4.97861358E-04
  -8.76000023       4.78037924E-04
  -8.75000000       4.25344566E-04
  -8.73999977       3.55691329E-04
  -8.72999954       2.88080308E-04
  -8.72000027       2.39022309E-04
  -8.71000004       2.17610839E-04
  -8.69999981       2.22796589E-04
  -8.68999958       2.43779723E-04
  -8.68000031       2.63490656E-04
  -8.67000008       2.64161383E-04
  -8.65999985       2.33310420E-04
  -8.64999962       1.68306520E-04
  -8.64000034       7.80907503E-05
  -8.63000011      -1.84960700E-05
  -8.61999989      -9.73040369E-05
  -8.60999966      -1.35036098E-04
  -8.60000038      -1.15203533E-04
  -8.59000015      -3.22292835E-05
  -8.57999992       1.07321161E-04
  -8.56999969       2.86503346E-04
  -8.56000042       4.82012139E-04
  -8.55000019       6.69160101E-04
  -8.53999996       8.26425327E-04
  -8.52999973       9.38529731E-04
  -8.52000046       9.97632509E-04
  -8.51000023       1.00287690E-03
  -8.50000000       9.58973542E-04
  -8.48999977       8.74608057E-04
  -8.47999954       7.61231116E-04
  -8.47000027       6.32368959E-04
  -8.46000004       5.03177056E-04
  -8.44999981       3.89745663E-04
  -8.43999958       3.07737588E-04
  -8.43000031       2.70269520E-04
  -8.42000008       2.85387359E-04
  -8.40999985       3.53843818E-04
  -8.39999962       4.67996811E-04
  -8.39000034       6.12440228E-04
  -8.38000011       7.66507932E-04
  -8.36999989       9.08217684E-04
  -8.35999966       1.01874385E-03
  -8.35000038       1.08629337E-03
  -8.34000015       1.10838364E-03
  -8.32999992       1.09195197E-03
  -8.31999969       1.05131080E-03
  -8.31000042       1.00451999E-03
  -8.30000019       9.69118206E-04
  -8.28999996       9.58244258E-04
  -8.27999973       9.77985794E-04
  -8.27000046       1.02642796E-03
  -8.26000023       1.09443604E-03
  -8.25000000       1.16784207E-03
  -8.23999977       1.23047817E-03
  -8.22999954       1.26742595E-03
  -8.22000027       1.26789603E-03
  -8.21000004       1.22727989E-03
  -8.19999981       1.14806835E-03
  -8.18999958       1.03950209E-03
  -8.18000031       9.16009420E-04
  -8.17000008       7.94683699E-04
  -8.15999985       6.92251604E-04
  -8.14999962       6.22126972E-04
  -8.14000034       5.92178549E-04
  -8.13000011       6.03710243E-04
  -8.11999989       6.51870680E-04
  -8.10999966       7.27332314E-04
  -8.10000038       8.18711938E-04
  -8.09000015       9.14993230E-04
  -8.07999992       1.00723747E-03
  -8.06999969       1.08915521E-03
  -8.06000042       1.15655176E-03
  -8.05000019       1.20612222E-03
  -8.03999996       1.23433571E-03
  -8.02999973       1.23712886E-03
  -8.02000046       1.21077080E-03
  -8.01000023       1.15371170E-03
  -8.00000000       1.06868951E-03
  -7.98999977       9.64084174E-04
  -7.98000002       8.53615406E-04
  -7.96999979       7.54010922E-04
  -7.96000004       6.81045174E-04
  -7.94999981       6.45080756E-04
  -7.94000006       6.47644221E-04
  -7.92999983       6.80422760E-04
  -7.92000008       7.27373583E-04
  -7.90999985       7.69590086E-04
  -7.90000010       7.91538390E-04
  -7.88999987       7.86640448E-04
  -7.88000011       7.60206778E-04
  -7.86999989       7.28486979E-04
  -7.86000013       7.13861489E-04
  -7.84999990       7.37528200E-04
  -7.84000015       8.11994076E-04
  -7.82999992       9.35884425E-04
  -7.82000017       1.09292264E-03
  -7.80999994       1.25561457E-03
  -7.80000019       1.39262190E-03
  -7.78999996       1.47756340E-03
  -7.78000021       1.49647554E-03
  -7.76999998       1.45159289E-03
  -7.76000023       1.36030617E-03
  -7.75000000       1.24974642E-03
  -7.73999977       1.14885345E-03
  -7.73000002       1.08053198E-03
  -7.71999979       1.05635333E-03
  -7.71000004       1.07528095E-03
  -7.69999981       1.12645770E-03
  -7.69000006       1.19470595E-03
  -7.67999983       1.26655656E-03
  -7.67000008       1.33460795E-03
  -7.65999985       1.39878725E-03
  -7.65000010       1.46434538E-03
  -7.63999987       1.53766503E-03
  -7.63000011       1.62175624E-03
  -7.61999989       1.71335984E-03
  -7.61000013       1.80289848E-03
  -7.59999990       1.87736854E-03
  -7.59000015       1.92510802E-03
  -7.57999992       1.94062549E-03
  -7.57000017       1.92760956E-03
  -7.55999994       1.89887348E-03
  -7.55000019       1.87307631E-03
  -7.53999996       1.86919852E-03
  -7.53000021       1.90054625E-03
  -7.51999998       1.97022432E-03
  -7.51000023       2.06954149E-03
  -7.50000000       2.17985618E-03
  -7.48999977       2.27729930E-03
  -7.48000002       2.33896915E-03
  -7.46999979       2.34883605E-03
  -7.46000004       2.30179983E-03
  -7.44999981       2.20498093E-03
  -7.44000006       2.07614433E-03