  -16.0000000       0.00000000    
  -15.9899998       0.00000000    
  -15.9799995       0.00000000    
  -15.9700003       0.00000000    
  -15.9600000       0.00000000    
  -15.9499998       0.00000000    
  -15.9399996       0.00000000    
  -15.9300003       0.00000000    
  -15.9200001       0.00000000    
  -15.9099998       0.00000000    
  -15.8999996       0.00000000    
  -15.8900003      -2.66699944E-38
  -15.8800001       8.95791674E-39
  -15.8699999       8.68054006E-36
  -15.8599997       1.45835078E-34
  -15.8500004       1.39001279E-33
  -15.8400002       9.46133069E-33
  -15.8299999       5.04147428E-32
  -15.8199997       2.20982311E-31
  -15.8100004       8.21345551E-31
  -15.8000002       2.63924079E-30
  -15.7900000       7.41914557E-30
  -15.7799997       1.83431391E-29
  -15.7700005       3.98081414E-29
  -15.7600002       7.48168894E-29
  -15.7500000       1.17168450E-28
  -15.7399998       1.35352563E-28
  -15.7299995       4.76526166E-29
  -15.7200003      -3.03942993E-28
  -15.7100000      -1.15851128E-27
  -15.6999998      -2.77901772E-27
  -15.6899996      -5.28397562E-27
  -15.6800003      -8.34234582E-27
  -15.6700001      -1.07851723E-26
  -15.6599998      -1.03208706E-26
  -15.6499996      -3.66725334E-27
  -15.6400003       1.26086512E-26
  -15.6300001       4.05911799E-26
  -15.6199999       7.95826547E-26
  -15.6099997       1.26071300E-25
  -15.6000004       1.75958420E-25
  -15.5900002       2.27032221E-25
  -15.5799999       2.74126749E-25
  -15.5699997       2.84198654E-25
  -15.5600004       1.42025088E-25
  -15.5500002      -4.18269336E-25
  -15.5400000      -1.82723891E-24
  -15.5299997      -4.50272181E-24
  -15.5200005      -8.31665287E-24
  -15.5100002      -1.16575056E-23
  -15.5000000      -1.04072471E-23
  -15.4899998       2.22187999E-24
  -15.4799995       3.34132986E-23
  -15.4700003       8.44548616E-23
  -15.4600000       1.40405175E-22
  -15.4499998       1.59524146E-22
  -15.4399996       7.19275548E-23
  -15.4300003      -1.98364830E-22
  -15.4200001      -6.75590880E-22
  -15.4099998      -1.24133112E-21
  -15.3999996      -1.54543784E-21
  -15.3900003      -9.96664387E-22
  -15.3800001       1.05867900E-21
  -15.3699999       4.88406127E-21
  -15.3599997       9.65925782E-21
  -15.3500004       1.28114137E-20
  -15.3400002       9.92545245E-21
  -15.3299999      -4.02680691E-21
  -15.3199997      -3.15776716E-20
  -15.3100004      -6.80120824E-20
  -15.3000002      -9.66932971E-20
  -15.2900000      -8.79745614E-20
  -15.2799997      -6.31597594E-21
  -15.2700005       1.70829883E-19
  -15.2600002       4.23443527E-19
  -15.2500000       6.58279172E-19
  -15.2399998       6.97019142E-19
  -15.2299995       3.09894428E-19
  -15.2200003      -6.83243069E-19
  -15.2100000      -2.24601457E-18
  -15.1999998      -3.93880702E-18
  -15.1899996      -4.81356913E-18
  -15.1800003      -3.53186807E-18
  -15.1700001       1.16495113E-18
  -15.1599998       9.60903044E-18
  -15.1499996       2.01676642E-17
  -15.1400003       2.84735055E-17
  -15.1300001       2.76130259E-17
  -15.1199999       9.97276409E-18
  -15.1099997      -2.89499980E-17
  -15.1000004      -8.53528102E-17
  -15.0900002      -1.42388449E-16
  -15.0799999      -1.68916991E-16
  -15.0699997      -1.25203341E-16
  -15.0600004       2.21732678E-17
  -15.0500002       2.77258686E-16
  -15.0400000       5.89792906E-16
  -15.0299997       8.40344246E-16
  -15.0200005       8.50812620E-16
  -15.0100002       4.33285569E-16
  -15.0000000      -5.20524298E-16
  -14.9899998      -1.92641614E-15
  -14.9799995      -3.41244206E-15
  -14.9700003      -4.30144761E-15
  -14.9600000      -3.73324435E-15
  -14.9499998      -9.60077541E-16
  -14.9399996       4.21414053E-15
  -14.9300003       1.09697213E-14
  -14.9200001       1.71894478E-14
  -14.9099998       1.96103120E-14
  -14.8999996       1.46109829E-14
  -14.8900003      -3.37277693E-16
  -14.8800001      -2.48214755E-14
  -14.8699999      -5.38489134E-14
  -14.8599997      -7.72951717E-14
  -14.8500004      -8.13320765E-14
  -14.8400002      -5.23540528E-14
  -14.8299999       1.69007789E-14
  -14.8199997       1.20485016E-13
  -14.8100004       2.34219572E-13
  -14.8000002       3.15722898E-13
  -14.7900000       3.12255728E-13
  -14.7799997       1.77268004E-13
  -14.7700005      -1.06709041E-13
  -14.7600002      -5.05105994E-13
  -14.7500000      -9.17848154E-13
  -14.7399998      -1.18585404E-12
  -14.7299995      -1.12499116E-12
  -14.7200003      -5.87425779E-13
  -14.7100000       4.60895048E-13
  -14.6999998       1.86989009E-12
  -14.6899996       3.27364286E-12
  -14.6800003       4.12836041E-12
  -14.6700001       3.83786709E-12
  -14.6599998       1.95831610E-12
  -14.6499996      -1.56089855E-12
  -14.6400003      -6.17636671E-12
  -14.6300001      -1.06846823E-11
  -14.6199999      -1.33756860E-11
  -14.6099997      -1.24425192E-11
  -14.6000004      -6.60521074E-12
  -14.5900002       4.19355696E-12
  -14.5799999       1.82471139E-11
  -14.5699997       3.19598376E-11
  -14.5600004       4.03530577E-11
  -14.5500002       3.82713861E-11
  -14.5400000       2.21327401E-11
  -14.5299997      -8.19069552E-12
  -14.5200005      -4.79767129E-11
  -14.5100002      -8.74172124E-11
  -14.5000000      -1.13056606E-10
  -14.4899998      -1.11019104E-10
  -14.4799995      -7.15580997E-11
  -14.4700003       6.16181542E-12
  -14.4600000       1.10597274E-10
  -14.4499998       2.17300899E-10
  -14.4399996       2.92515262E-10
  -14.4300003       3.01063535E-10
  -14.4200001       2.17331445E-10
  -14.4099998       3.67178371E-11
  -14.3999996      -2.16052148E-10
  -14.3900003      -4.85445462E-10
  -14.3800001      -6.93057556E-10
  -14.3699999      -7.55267127E-10
  -14.3599997      -6.07854045E-10
  -14.3500004      -2.31788228E-10
  -14.3400002       3.27630173E-10
  -14.3299999       9.56173918E-10
  -14.3199997       1.48610801E-09
  -14.3100004       1.73228387E-09
  -14.3000002       1.54328250E-09
  -14.2900000       8.55841342E-10
  -14.2799997      -2.63215977E-10
  -14.2700005      -1.60342939E-09
  -14.2600002      -2.83663537E-09
  -14.2500000      -3.58414254E-09
  -14.2399998      -3.51484686E-09
  -14.2299995      -2.45230192E-09
  -14.2200003      -4.61117006E-10
  -14.2100000       2.11731344E-09
  -14.1999998       4.70119632E-09
  -14.1899996       6.58152732E-09
  -14.1800003       7.09517733E-09
  -14.1700001       5.82005200E-09
  -14.1599998       2.74065104E-09
  -14.1499996      -1.66898373E-09
  -14.1400003      -6.48401377E-09
  -14.1300001      -1.05004725E-08
  -14.1199999      -1.25150201E-08
  -14.1099997      -1.16528156E-08
  -14.1000004      -7.65972885E-09
  -14.0900002      -1.07149756E-09
  -14.0799999       6.80681200E-09
  -14.0699997       1.41345726E-08
  -14.0600004       1.89498159E-08
  -14.0500002       1.96757561E-08
  -14.0400000       1.55930078E-08
  -14.0299997       7.14301907E-09
  -14.0200005      -4.04304723E-09
  -14.0100002      -1.54331037E-08
  -14.0000000      -2.41609790E-08
  -13.9899998      -2.77495271E-08
  -13.9799995      -2.48100243E-08
  -13.9700003      -1.55233266E-08
  -13.9600000      -1.74635517E-09
  -13.9499998       1.33258489E-08
  -13.9399996       2.58963606E-08
  -13.9300003       3.25387219E-08
  -13.9200001       3.11599848E-08
  -13.9099998       2.16858229E-08
  -13.8999996       6.24885788E-09
  -13.8900003      -1.12217284E-08
  -13.8800001      -2.59533319E-08
  -13.8699999      -3.36107497E-08
  -13.8599997      -3.15746185E-08
  -13.8500004      -1.98534433E-08
  -13.8400002      -1.33075018E-09
  -13.8299999       1.87941307E-08
  -13.8199997       3.42986155E-08
  -13.8100004       3.96727344E-08
  -13.8000002       3.18490692E-08
  -13.7900000       1.14275922E-08
  -13.7799997      -1.70180048E-08
  -13.7700005      -4.57538363E-08
  -13.7600002      -6.57268515E-08
  -13.7500000      -6.90387196E-08
  -13.7399998      -5.14303622E-08
  -13.7299995      -1.40741756E-08
  -13.7200003       3.59238435E-08
  -13.7100000       8.66256187E-08
  -13.6999998       1.23874287E-07
  -13.6899996       1.34897505E-07
  -13.6800003       1.12040070E-07
  -13.6700001       5.56198003E-08
  -13.6599998      -2.49879246E-08
  -13.6499996      -1.12564322E-07
  -13.6400003      -1.85532187E-07
  -13.6300001      -2.23069833E-07
  -13.6199999      -2.10695831E-07
  -13.6099997      -1.44898792E-07
  -13.6000004      -3.54664706E-08
  -13.5900002       9.53837613E-08
  -13.5799999       2.17233620E-07
  -13.5699997       2.98346521E-07
  -13.5600004       3.13719283E-07
  -13.5500002       2.52339191E-07
  -13.5400000       1.21663135E-07
  -13.5299997      -5.21670067E-08
  -13.5200005      -2.28920825E-07
  -13.5100002      -3.63049452E-07
  -13.5000000      -4.14841679E-07
  -13.4899998      -3.61364158E-07
  -13.4799995      -2.04349618E-07
  -13.4700003       2.73307421E-08
  -13.4600000       2.81853517E-07
  -13.4499998       4.94969129E-07
  -13.4399996       6.04908394E-07
  -13.4300003       5.68392579E-07
  -13.4200001       3.73845438E-07
  -13.4099998       4.81931046E-08
  -13.3999996      -3.45138432E-07
  -13.3900003      -7.17481953E-07
  -13.3800001      -9.73656711E-07
  -13.3699999      -1.03436264E-06
  -13.3599997      -8.57165674E-07
  -13.3500004      -4.50852014E-07
  -13.3400002       1.20959896E-07
  -13.3299999       7.48850823E-07
  -13.3199997       1.29830732E-06
  -13.3100004       1.63825791E-06
  -13.3000002       1.67139251E-06
  -13.2900000       1.35929008E-06
  -13.2799997       7.36051391E-07
  -13.2700005      -9.36419227E-08
  -13.2600002      -9.72744147E-07
  -13.2500000      -1.72325088E-06
  -13.2399998      -2.18437322E-06
  -13.2299995      -2.24903670E-06
  -13.2200003      -1.89010393E-06
  -13.2100000      -1.16962997E-06
  -13.1999998      -2.28083977E-07
  -13.1899996       7.44923341E-07
  -13.1800003       1.55235523E-06
  -13.1700001       2.03453305E-06
  -13.1599998       2.10637768E-06
  -13.1499996       1.77778224E-06
  -13.1400003       1.15145667E-06
  -13.1300001       3.97849050E-07
  -13.1199999      -2.87552780E-07
  -13.1099997      -7.34545551E-07
  -13.1000004      -8.43684063E-07
  -13.0900002      -6.14958026E-07
  -13.0799999      -1.51308129E-07
  -13.0699997       3.65429258E-07
  -13.0600004       7.21603612E-07
  -13.0500002       7.31057128E-07
  -13.0400000       2.91924181E-07
  -13.0299997      -5.74230683E-07
  -13.0200005      -1.71266265E-06
  -13.0100002      -2.86013506E-06
  -13.0000000      -3.70065027E-06
  -12.9899998      -3.94064909E-06
  -12.9799995      -3.38626774E-06
  -12.9700003      -2.00340901E-06
  -12.9600000       5.57095063E-08
  -12.9499998       2.46868422E-06
  -12.9399996       4.80091194E-06
  -12.9300003       6.59423904E-06
  -12.9200001       7.46684464E-06
  -12.9099998       7.20105982E-06
  -12.8999996       5.79752759E-06
  -12.8900003       3.48124809E-06
  -12.8800001       6.56164787E-07
  -12.8699999      -2.18257810E-06
  -12.8599997      -4.55878308E-06
  -12.8500004      -6.12150188E-06
  -12.8400002      -6.72120950E-06
  -12.8299999      -6.43611338E-06
  -12.8199997      -5.54067856E-06
  -12.8100004      -4.42282362E-06
  -12.8000002      -3.46965112E-06
  -12.7900000      -2.95059999E-06
  -12.7799997      -2.92909499E-06
  -12.7700005      -3.22812048E-06
  -12.7600002      -3.46277420E-06
  -12.7500000      -3.13640726E-06
  -12.7399998      -1.78035805E-06
  -12.7299995       8.95324149E-07
  -12.7200003       4.87813622E-06
  -12.7100000       9.79063861E-06
  -12.6999998       1.49111956E-05
  -12.6899996       1.92814787E-05
  -12.6800003       2.18838595E-05
  -12.6700001       2.18540754E-05
  -12.6599998       1.86839625E-05
  -12.6499996       1.23683349E-05
  -12.6400003       3.45979538E-06
  -12.6300001      -6.98618169E-06
  -12.6199999      -1.75704208E-05
  -12.6099997      -2.67850319E-05
  -12.6000004      -3.32784584E-05
  -12.5900002      -3.60970735E-05
  -12.5799999      -3.48536378E-05
  -12.5699997      -2.97876777E-05
  -12.5600004      -2.17054494E-05
  -12.5500002      -1.18127664E-05
  -12.5400000      -1.47668504E-06
  -12.5299997       8.03284820E-06
  -12.5200005       1.57665345E-05
  -12.5100002       2.12379055E-05
  -12.5000000       2.44562561E-05
  -12.4899998       2.58473392E-05
  -12.4799995       2.60843135E-05
  -12.4700003       2.58719192E-05
  -12.4600000       2.57374268E-05
  -12.4499998       2.58803520E-05
  -12.4399996       2.61190562E-05
  -12.4300003       2.59494973E-05
  -12.4200001       2.47043063E-05
  -12.4099998       2.17752877E-05
  -12.3999996       1.68451643E-05
  -12.3900003       1.00692050E-05
  -12.3800001       2.15569935E-06
  -12.3699999      -5.68491578E-06
  -12.3599997      -1.19236711E-05
  -12.3500004      -1.50000187E-05
  -12.3400002      -1.36569697E-05
  -12.3299999      -7.25436803E-06
  -12.3199997       4.00982481E-06
  -12.3100004       1.90248411E-05
  -12.3000002       3.58654797E-05
  -12.2900000       5.20548892E-05
  -12.2799997       6.49484646E-05
  -12.2700005       7.21689576E-05
  -12.2600002       7.20106400E-05
  -12.2500000       6.37350822E-05
  -12.2399998       4.77025060E-05
  -12.2299995       2.53157759E-05
  -12.2200003      -1.20773473E-06
  -12.2100000      -2.91871966E-05
  -12.1999998      -5.58799147E-05
  -12.1899996      -7.88546386E-05
  -12.1800003      -9.62685081E-05
  -12.1700001      -1.07005326E-04
  -12.1599998      -1.10666690E-04
  -12.1499996      -1.07441505E-04
  -12.1400003      -9.79053802E-05
  -12.1300001      -8.28133125E-05
  -12.1199999      -6.29442657E-05
  -12.1099997      -3.90366804E-05
  -12.1000004      -1.18246826E-05
  -12.0900002       1.78464506E-05
  -12.0799999       4.88715450E-05
  -12.0699997       7.97620014E-05
  -12.0600004       1.08602253E-04
  -12.0500002       1.33122754E-04
  -12.0400000       1.50897162E-04
  -12.0299997       1.59640113E-04
  -12.0200005       1.57554430E-04
  -12.0100002       1.43661935E-04
  -12.0000000       1.18050753E-04
  -11.9899998       8.19868728E-05
  -11.9799995       3.78633304E-05
  -11.9700003      -1.10087940E-05
  -11.9600000      -6.07344809E-05
  -11.9499998      -1.07240354E-04
  -11.9399996      -1.46689577E-04
  -11.9300003      -1.75848327E-04
  -11.9200001      -1.92361054E-04
  -11.9099998      -1.94912442E-04
  -11.8999996      -1.83275697E-04
  -11.8900003      -1.58263079E-04
  -11.8800001      -1.21604957E-04
  -11.8699999      -7.57845773E-05
  -11.8599997      -2.38505545E-05
  -11.8500004       3.07789305E-05
  -11.8400002       8.45149261E-05
  -11.8299999       1.33799200E-04
  -11.8199997       1.75308436E-04
  -11.8100004       2.06158016E-04
  -11.8000002       2.24095624E-04
  -11.7900000       2.27669603E-04
  -11.7799997       2.16353801E-04
  -11.7700005       1.90611681E-04
  -11.7600002       1.51888307E-04
  -11.7500000       1.02527258E-04
  -11.7399998       4.56188827E-05
  -11.7299995      -1.52055554E-05
  -11.7200003      -7.60146431E-05
  -11.7100000      -1.32832371E-04
  -11.6999998      -1.81890719E-04
  -11.6899996      -2.19865586E-04
  -11.6800003      -2.44086215E-04
  -11.6700001      -2.52710481E-04
  -11.6599998      -2.44859024E-04
  -11.6499996      -2.20699178E-04
  -11.6400003      -1.81469601E-04
  -11.6300001      -1.29435342E-04
  -11.6199999      -6.77682547E-05
  -11.6099997      -3.53385474E-07
  -11.6000004       6.84682091E-05
  -11.5900002       1.34200469E-04
  -11.5799999       1.92509717E-04
  -11.5699997       2.39528425E-04
  -11.5600004       2.72117031E-04
  -11.5500002       2.88063660E-04
  -11.5400000       2.86211056E-04
  -11.5299997       2.66511284E-04
  -11.5200005       2.30016085E-04
  -11.5100002       1.78814604E-04
  -11.5000000       1.15927724E-04
  -11.4899998       4.51641208E-05
  -11.4799995      -2.90639273E-05
  -11.4700003      -1.01969636E-04
  -11.4600000      -1.68669518E-04
  -11.4499998      -2.24506002E-04
  -11.4399996      -2.65399256E-04
  -11.4300003      -2.88198062E-04
  -11.4200001      -2.90989236E-04
  -11.4099998      -2.73319340E-04
  -11.3999996      -2.36287859E-04
  -11.3900003      -1.82486212E-04
  -11.3800001      -1.15778144E-04
  -11.3699999      -4.09442982E-05
  -11.3599997       3.67638822E-05
  -11.3500004       1.12100199E-04
  -11.3400002       1.80265255E-04
  -11.3299999       2.37258180E-04
  -11.3199997       2.80102715E-04
  -11.3100004       3.06937436E-04
  -11.3000002       3.16985330E-04
  -11.2900000       3.10436939E-04
  -11.2799997       2.88291019E-04
  -11.2700005       2.52193277E-04
  -11.2600002       2.04302138E-04
  -11.2500000       1.47191138E-04
  -11.2399998       8.37796324E-05
  -11.2299995       1.72696637E-05
  -11.2200003      -4.89378799E-05
  -11.2100000      -1.11369161E-04
  -11.1999998      -1.66653030E-04
  -11.1899996      -2.11737104E-04
  -11.1800003      -2.44118273E-04
  -11.1700001      -2.62052548E-04
  -11.1599998      -2.64707516E-04
  -11.1499996      -2.52230850E-04
  -11.1400003      -2.25722761E-04
  -11.1300001      -1.87120415E-04
  -11.1199999      -1.39016149E-04
  -11.1099997      -8.44415408E-05
  -11.1000004      -2.66479292E-05
  -11.0900002       3.10936957E-05
  -11.0799999       8.56640472E-05
  -11.0699997       1.34240938E-04
  -11.0600004       1.74429209E-04
  -11.0500002       2.04384807E-04
  -11.0400000       2.22934192E-04
  -11.0299997       2.29676763E-04
  -11.0200005       2.25045456E-04
  -11.0100002       2.10294675E-04
  -11.0000000       1.87389538E-04
  -10.9899998       1.58787167E-04
  -10.9799995       1.27126812E-04
  -10.9700003       9.48726156E-05
  -10.9600000       6.39752325E-05
  -10.9499998       3.56250857E-05
  -10.9399996       1.01595433E-05
  -10.9300003      -1.28431539E-05
  -10.9200001      -3.42917665E-05
  -10.9099998      -5.51843295E-05
  -10.8999996      -7.61723059E-05
  -10.8900003      -9.71902700E-05
  -10.8800001      -1.17246716E-04
  -10.8699999      -1.34440037E-04
  -10.8599997      -1.46215243E-04
  -10.8500004      -1.49822896E-04
  -10.8400002      -1.42894700E-04
  -10.8299999      -1.24020822E-04
  -10.8199997      -9.32094408E-05
  -10.8100004      -5.21283255E-05
  -10.8000002      -4.06886011E-06
  -10.7900000       4.63769175E-05
  -10.7799997       9.38841622E-05
  -10.7700005       1.33123816E-04
  -10.7600002       1.59540781E-04
  -10.7500000       1.70061903E-04
  -10.7399998       1.63623175E-04
  -10.7299995       1.41428798E-04
  -10.7200003       1.06890497E-04
  -10.7100000       6.52366289E-05
  -10.6999998       2.28266672E-05
  -10.6899996      -1.37492607E-05
  -10.6800003      -3.86671418E-05
  -10.6700001      -4.78164729E-05
  -10.6599998      -3.95438510E-05
  -10.6499996      -1.50532442E-05
  -10.6400003       2.16353164E-05
  -10.6300001       6.42016457E-05
  -10.6199999       1.04968014E-04
  -10.6099997       1.36138100E-04
  -10.6000004       1.51133674E-04
  -10.5900002       1.45795202E-04
  -10.5799999       1.19218799E-04
  -10.5699997       7.40558389E-05
  -10.5600004       1.61938824E-05
  -10.5500002      -4.61474156E-05
  -10.5400000      -1.03757513E-04
  -10.5299997      -1.47976723E-04
  -10.5200005      -1.72158529E-04
  -10.5100002      -1.72784072E-04
  -10.5000000      -1.50027190E-04
  -10.4899998      -1.07673812E-04
  -10.4799995      -5.24234129E-05
  -10.4700003       7.28486839E-06
  -10.4600000       6.26959372E-05
  -10.4499998       1.06151900E-04
  -10.4399996       1.32251560E-04
  -10.4300003       1.38575386E-04
  -10.4200001       1.25887149E-04
  -10.4099998       9.78230819E-05
  -10.3999996       6.01663996E-05
  -10.3900003       1.98640537E-05
  -10.3800001      -1.60348118E-05
  -10.3699999      -4.13519119E-05
  -10.3599997      -5.15373686E-05
  -10.3500004      -4.41388765E-05
  -10.3400002      -1.89652164E-05
  -10.3299999       2.20278271E-05
  -10.3199997       7.50716499E-05
  -10.3100004       1.35069655E-04
  -10.3000002       1.96165362E-04
  -10.2900000       2.52336293E-04
  -10.2799997       2.97969324E-04
  -10.2700005       3.28381837E-04
  -10.2600002       3.40259227E-04
  -10.2500000       3.31980031E-04
  -10.2399998       3.03800625E-04
  -10.2299995       2.57874490E-04
  -10.2200003       1.98089474E-04
  -10.2100000       1.29721288E-04
  -10.1999998       5.89223673E-05
  -10.1899996      -7.91276489E-06
  -10.1800003      -6.48427886E-05
  -10.1700001      -1.07057960E-04
  -10.1599998      -1.31458408E-04
  -10.1499996      -1.37054449E-04
  -10.1400003      -1.25127510E-04
  -10.1300001      -9.91152338E-05
  -10.1199999      -6.42167433E-05
  -10.1099997      -2.67479136E-05
  -10.1000004       6.68908206E-06
  -10.0900002       3.01288201E-05
  -10.0799999       3.91436843E-05
  -10.0699997       3.15986545E-05
  -10.0600004       8.14060604E-06
  -10.0500002      -2.76751962E-05
  -10.0400000      -6.96792777E-05
  -10.0299997      -1.09806155E-04
  -10.0200005      -1.39175725E-04
  -10.0100002      -1.49412197E-04
  -10.0000000      -1.34020549E-04
  -9.98999977      -8.96088022E-05
  -9.97999954      -1.67444614E-05
  -9.97000027       7.97290268E-05
  -9.96000004       1.91017549E-04
  -9.94999981       3.05345893E-04
  -9.93999958       4.09465720E-04
  -9.93000031       4.90496051E-04
  -9.92000008       5.37821034E-04
  -9.90999985       5.44744369E-04
  -9.89999962       5.09624835E-04
  -9.89000034       4.36296337E-04
  -9.88000011       3.33684497E-04
  -9.86999989       2.14666259E-04
  -9.85999966       9.43363702E-05
  -9.85000038      -1.20578188E-05
  -9.84000015      -9.12050818E-05
  -9.82999992      -1.33536596E-04
  -9.81999969      -1.34495800E-04
  -9.81000042      -9.51064867E-05
  -9.80000019      -2.17824163E-05
  -9.78999996       7.45697689E-05
  -9.77999973       1.80009374E-04
  -9.77000046       2.79372500E-04
  -9.76000023       3.58193909E-04
  -9.75000000       4.04500694E-04
  -9.73999977       4.10267094E-04
  -9.72999954       3.72370676E-04
  -9.72000027       2.92952376E-04
  -9.71000004       1.79151917E-04
  -9.69999981       4.22586018E-05
  -9.68999958      -1.03618317E-04
  -9.68000031      -2.43202099E-04
  -9.67000008      -3.61827755E-04
  -9.65999985      -4.47134720E-04
  -9.64999962      -4.90467646E-04
  -9.64000034      -4.87814425E-04
  -9.63000011      -4.40169097E-04
  -9.61999989      -3.53285810E-04
  -9.60999966      -2.36870808E-04
  -9.60000038      -1.03336381E-04
  -9.59000015       3.37043093E-05
  -9.57999992       1.60997894E-04
  -9.56999969       2.67070980E-04
  -9.56000042       3.43351683E-04
  -9.55000019       3.84891697E-04
  -9.53999996       3.90651810E-04
  -9.52999973       3.63370695E-04
  -9.52000046       3.09076073E-04
  -9.51000023       2.36319509E-04
  -9.50000000       1.55217771E-04
  -9.48999977       7.63805510E-05
  -9.47999954       9.79883498E-06
  -9.47000027      -3.62285027E-05
  -9.46000004      -5.60414301E-05
  -9.44999981      -4.73360997E-05
  -9.43999958      -1.15439771E-05
  -9.43000031       4.62231183E-05
  -9.42000008       1.17717987E-04
  -9.40999985       1.92580963E-04
  -9.39999962       2.59743538E-04
  -9.39000034       3.09029652E-04
  -9.38000011       3.32708703E-04
  -9.36999989       3.26734124E-04
  -9.35999966       2.91436590E-04
  -9.35000038       2.31527010E-04
  -9.34000015       1.55390444E-04
  -9.32999992       7.37860682E-05
  -9.31999969      -1.81593009E-06
  -9.31000042      -6.09637646E-05
  -9.30000019      -9.57187585E-05
  -9.28999996      -1.01674945E-04
  -9.27999973      -7.83694049E-05
  -9.27000046      -2.90749649E-05
  -9.26000023       3.99173623E-05
  -9.25000000       1.20342040E-04
  -9.23999977       2.03118179E-04
  -9.22999954       2.79437489E-04
  -9.22000027       3.41653271E-04
  -9.21000004       3.83914186E-04
  -9.19999981       4.02548612E-04
  -9.18999958       3.96240881E-04
  -9.18000031       3.66046064E-04
  -9.17000008       3.15270270E-04
  -9.15999985       2.49217032E-04
  -9.14999962       1.74780464E-04
  -9.14000034       9.98684845E-05
  -9.13000011       3.26645859E-05
  -9.11999989      -1.92204916E-05
  -9.10999966      -4.96116299E-05
  -9.10000038      -5.45219700E-05
  -9.09000015      -3.26691516E-05
  -9.07999992       1.43393036E-05
  -9.06999969       8.21875146E-05
  -9.06000042       1.64368234E-04
  -9.05000019       2.52943224E-04
  -9.03999996       3.39417136E-04
  -9.02999973       4.15592338E-04
  -9.02000046       4.74300119E-04
  -9.01000023       5.09949401E-04
  -9.00000000       5.18885034E-04
  -8.98999977       4.99584363E-04
  -8.97999954       4.52733861E-04
  -8.97000027       3.81213671E-04
  -8.96000004       2.89993361E-04
  -8.94999981       1.85908008E-04
  -8.93999958       7.72691055E-05
  -8.93000031      -2.67258001E-05
  -8.92000008      -1.16787647E-04
  -8.90999985      -1.84481818E-04
  -8.89999962      -2.23216164E-04
  -8.89000034      -2.29119847E-04
  -8.88000011      -2.01649469E-04
  -8.86999989      -1.43787242E-04
  -8.85999966      -6.17588521E-05
  -8.85000038       3.57151002E-05
  -8.84000015       1.38532472E-04
  -8.82999992       2.36513937E-04
  -8.81999969       3.20688792E-04
  -8.81000042       3.84358456E-04
  -8.80000019       4.23779944E-04
  -8.78999996       4.38387244E-04
  -8.77999973       4.30552172E-04
  -8.77000046       4.04965162E-04
  -8.76000023       3.67769651E-04
  -8.75000000       3.25606728E-04
  -8.73999977       2.84718117E-04
  -8.72999954       2.50220823E-04
  -8.72000027       2.25621654E-04
  -8.71000004       2.12591331E-04
  -8.69999981       2.10981423E-04
  -8.68999958       2.19042471E-04
  -8.68000031       2.33794155E-04
  -8.67000008       2.51498452E-04
  -8.65999985       2.68192205E-04
  -8.64999962       2.80236563E-04
  -8.64000034       2.84838054E-04
  -8.63000011       2.80489417E-04
  -8.61999989       2.67270632E-04
  -8.60999966       2.46951473E-04
  -8.60000038       2.22850678E-04
  -8.59000015       1.99437825E-04
  -8.57999992       1.81705473E-04
  -8.56999969       1.74388173E-04
  -8.56000042       1.81148062E-04
  -8.55000019       2.03868884E-04
  -8.53999996       2.42195820E-04
  -8.52999973       2.93423538E-04
  -8.52000046       3.52771574E-04
  -8.51000023       4.14012233E-04
  -8.50000000       4.70345170E-04
  -8.48999977       5.15363528E-04
  -8.47999954       5.43940521E-04
  -8.47000027       5.52890415E-04
  -8.46000004       5.41309011E-04
  -8.44999981       5.10573504E-04
  -8.43999958       4.64049081E-04
  -8.43000031       4.06596577E-04
  -8.42000008       3.43993714E-04
  -8.40999985       2.82366091E-04
  -8.39999962       2.27683762E-04
  -8.39000034       1.85335317E-04
  -8.38000011       1.59755626E-04
  -8.36999989       1.54075911E-04
  -8.35999966       1.69783263E-04
  -8.35000038       2.06417404E-04
  -8.34000015       2.61375564E-04
  -8.32999992       3.29921197E-04
  -8.31999969       4.05485916E-04
  -8.31000042       4.80306888E-04
  -8.30000019       5.46361320E-04
  -8.28999996       5.96473925E-04
  -8.27999973       6.25400164E-04
  -8.27000046       6.30659051E-04
  -8.26000023       6.12921955E-04
  -8.25000000       5.75847866E-04
  -8.23999977       5.25382231E-04
  -8.22999954       4.68663551E-04
  -8.22000027       4.12779948E-04
  -8.21000004       3.63652740E-04
  -8.19999981       3.25287110E-04
  -8.18999958       2.99527775E-04
  -8.18000031       2.86321039E-04
  -8.17000008       2.84347276E-04
  -8.15999985       2.91798584E-04
  -8.14999962       3.07053648E-04
  -8.14000034       3.29051109E-04
  -8.13000011       3.57275130E-04
  -8.11999989       3.91395093E-04
  -8.10999966       4.30714979E-04
  -8.10000038       4.73648834E-04
  -8.09000015       5.17427397E-04
  -8.07999992       5.58166939E-04
  -8.06999969       5.91315620E-04
  -8.06000042       6.12379401E-04
  -8.05000019       6.17745391E-04
  -8.03999996       6.05399022E-04
  -8.02999973       5.75368176E-04
  -8.02000046       5.29809506E-04
  -8.01000023       4.72753483E-04
  -8.00000000       4.09600500E-04
  -7.98999977       3.46501300E-04
  -7.98000002       2.89745571E-04
  -7.96999979       2.45230709E-04
  -7.96000004       2.18026311E-04
  -7.94999981       2.12003477E-04
  -7.94000006       2.29487487E-04
  -7.92999983       2.70922232E-04
  -7.92000008       3.34587734E-04
  -7.90999985       4.16465569E-04
  -7.90000010       5.10367565E-04
  -7.88999987       6.08417380E-04
  -7.88000011       7.01899582E-04
  -7.86999989       7.82383431E-04
  -7.86000013       8.42929585E-04
  -7.84999990       8.79128580E-04
  -7.84000015       8.89729068E-04
  -7.82999992       8.76696082E-04
  -7.82000017       8.44675524E-04
  -7.80999994       7.99995323E-04
  -7.80000019       7.49449362E-04
  -7.78999996       6.99161377E-04
  -7.78000021       6.53791649E-04
  -7.76999998       6.16236532E-04
  -7.76000023       5.87816932E-04
  -7.75000000       5.68810443E-04
  -7.73999977       5.59091219E-04
  -7.73000002       5.58630447E-04
  -7.71999979       5.67684241E-04
  -7.71000004       5.86617389E-04
  -7.69999981       6.15450670E-04
  -7.69000006       6.53320574E-04
  -7.67999983       6.98075164E-04
  -7.67000008       7.46186066E-04
  -7.65999985       7.93056330E-04
  -7.65000010       8.33678117E-04
  -7.63999987       8.63488822E-04
  -7.63000011       8.79213912E-04
  -7.61999989       8.79495929E-04
  -7.61000013       8.65173992E-04
  -7.59999990       8.39173095E-04
  -7.59000015       8.06056953E-04
  -7.57999992       7.71359191E-04
  -7.57000017       7.40833115E-04
  -7.55999994       7.19738950E-04
  -7.55000019       7.12244248E-04
  -7.53999996       7.20972719E-04
  -7.53000021       7.46711507E-04
  -7.51999998       7.88281555E-04
  -7.51000023       8.42584006E-04
  -7.50000000       9.04845539E-04
  -7.48999977       9.69077344E-04
  -7.48000002       1.02873275E-03
  -7.46999979       1.07749947E-03
  -7.46000004       1.11011742E-03
  -7.44999981       1.12308178E-03
  -7.44000006       1.11510220E-03