  -16.0000000       0.00000000    
  -15.9899998       0.00000000    
  -15.9799995       0.00000000    
  -15.9700003       0.00000000    
  -15.9600000       0.00000000    
  -15.9499998       0.00000000    
  -15.9399996       0.00000000    
  -15.9300003       0.00000000    
  -15.9200001       0.00000000    
  -15.9099998       0.00000000    
  -15.8999996       0.00000000    
  -15.8900003      -7.96049632E-39
  -15.8800001      -2.58254217E-37
  -15.8699999      -3.77935604E-36
  -15.8599997      -3.38332443E-35
  -15.8500004      -2.07677686E-34
  -15.8400002      -9.04951846E-34
  -15.8299999      -2.64299711E-33
  -15.8199997      -3.07488310E-33
  -15.8100004       1.81160533E-32
  -15.8000002       1.48310194E-31
  -15.7900000       6.56085386E-31
  -15.7799997       2.16708383E-30
  -15.7700005       5.73597120E-30
  -15.7600002       1.22699974E-29
  -15.7500000       2.02396790E-29
  -15.7399998       2.05048781E-29
  -15.7299995      -1.13170555E-29
  -15.7200003      -1.19535009E-28
  -15.7100000      -3.56051604E-28
  -15.6999998      -7.29056206E-28
  -15.6899996      -1.09621024E-27
  -15.6800003      -1.02382349E-27
  -15.6700001       2.82296576E-28
  -15.6599998       3.75696778E-27
  -15.6499996       9.69243042E-27
  -15.6400003       1.62684319E-26
  -15.6300001       1.77967421E-26
  -15.6199999       4.00498942E-27
  -15.6099997      -3.73217675E-26
  -15.6000004      -1.11792166E-25
  -15.5900002      -2.03136281E-25
  -15.5799999      -2.55065281E-25
  -15.5699997      -1.61438844E-25
  -15.5600004       2.16716953E-25
  -15.5500002       9.86621727E-25
  -15.5400000       2.10055160E-24
  -15.5299997       3.18984762E-24
  -15.5200005       3.41608800E-24
  -15.5100002       1.45302026E-24
  -15.5000000      -4.24126254E-24
  -15.4899998      -1.46913590E-23
  -15.4799995      -2.91033002E-23
  -15.4700003      -4.30805113E-23
  -15.4600000      -4.68353977E-23
  -15.4499998      -2.45177070E-23
  -15.4399996       4.33925405E-23
  -15.4300003       1.72021003E-22
  -15.4200001       3.56084063E-22
  -15.4099998       5.46247479E-22
  -15.3999996       6.24382472E-22
  -15.3900003       3.94222294E-22
  -15.3800001      -3.85082009E-22
  -15.3699999      -1.89039931E-21
  -15.3599997      -4.03278296E-21
  -15.3500004      -6.18925332E-21
  -15.3400002      -6.97609959E-21
  -15.3299999      -4.27126826E-21
  -15.3199997       4.23912333E-21
  -15.3100004       1.97645114E-20
  -15.3000002       4.03982280E-20
  -15.2900000       5.89414266E-20
  -15.2799997       6.18040919E-20
  -15.2700005       3.08050267E-20
  -15.2600002      -5.03280918E-20
  -15.2500000      -1.84151472E-19
  -15.2399998      -3.44504750E-19
  -15.2299995      -4.64394602E-19
  -15.2200003      -4.36719931E-19
  -15.2100000      -1.39150985E-19
  -15.1999998       5.09723014E-19
  -15.1899996       1.46789186E-18
  -15.1800003       2.48537292E-18
  -15.1700001       3.06351613E-18
  -15.1599998       2.51732546E-18
  -15.1499996       1.90708170E-19
  -15.1400003      -4.16963838E-18
  -15.1300001      -9.95759029E-18
  -15.1199999      -1.53468920E-17
  -15.1099997      -1.72892329E-17
  -15.1000004      -1.21411668E-17
  -15.0900002       2.93894604E-18
  -15.0799999       2.79766347E-17
  -15.0699997       5.81237185E-17
  -15.0600004       8.25526450E-17
  -15.0500002       8.55059445E-17
  -15.0400000       5.04535109E-17
  -15.0299997      -3.25713153E-17
  -15.0200005      -1.57872555E-16
  -15.0100002      -2.96395304E-16
  -15.0000000      -3.93934827E-16
  -14.9899998      -3.79792236E-16
  -14.9799995      -1.88360090E-16
  -14.9700003       2.08311792E-16
  -14.9600000       7.65058475E-16
  -14.9499998       1.33936079E-15
  -14.9399996       1.69554651E-15
  -14.9300003       1.55185510E-15
  -14.9200001       6.74115671E-16
  -14.9099998      -9.98306467E-16
  -14.8999996      -3.23017645E-15
  -14.8900003      -5.42502876E-15
  -14.8800001      -6.67408557E-15
  -14.8699999      -5.95873025E-15
  -14.8599997      -2.50246906E-15
  -14.8500004       3.79454074E-15
  -14.8400002       1.19712301E-14
  -14.8299999       1.98482469E-14
  -14.8199997       2.42678700E-14
  -14.8100004       2.18255759E-14
  -14.8000002       1.00404905E-14
  -14.7900000      -1.12793262E-14
  -14.7799997      -3.89022582E-14
  -14.7700005      -6.57923558E-14
  -14.7600002      -8.19493670E-14
  -14.7500000      -7.66847252E-14
  -14.7399998      -4.21181204E-14
  -14.7299995       2.28441330E-14
  -14.7200003       1.09249720E-13
  -14.7100000       1.96976821E-13
  -14.6999998       2.56969684E-13
  -14.6899996       2.57372926E-13
  -14.6800003       1.72995041E-13
  -14.6700001      -3.77394005E-15
  -14.6599998      -2.53611124E-13
  -14.6499996      -5.26052021E-13
  -14.6400003      -7.43606619E-13
  -14.6300001      -8.15868640E-13
  -14.6199999      -6.62768451E-13
  -14.6099997      -2.43063436E-13
  -14.6000004       4.18709419E-13
  -14.5900002       1.21537101E-12
  -14.5799999       1.95877017E-12
  -14.5699997       2.40587932E-12
  -14.5600004       2.31021257E-12
  -14.5500002       1.49262720E-12
  -14.5400000      -8.18614924E-14
  -14.5299997      -2.24088565E-12
  -14.5200005      -4.57784982E-12
  -14.5100002      -6.48204797E-12
  -14.5000000      -7.23806822E-12
  -14.4899998      -6.19195797E-12
  -14.4799995      -2.96198938E-12
  -14.4700003       2.34931107E-12
  -14.4600000       9.00201268E-12
  -14.4499998       1.55912557E-11
  -14.4399996       2.02016563E-11
  -14.4300003       2.07688294E-11
  -14.4200001       1.56216880E-11
  -14.4099998       4.11534869E-12
  -14.3999996      -1.27981610E-11
  -14.3900003      -3.22549903E-11
  -14.3800001      -4.96111520E-11
  -14.3699999      -5.91484570E-11
  -14.3599997      -5.53561641E-11
  -14.3500004      -3.46136939E-11
  -14.3400002       3.08593407E-12
  -14.3299999       5.28756205E-11
  -14.3199997       1.04757134E-10
  -14.3100004       1.44770404E-10
  -14.3000002       1.57721267E-10
  -14.2900000       1.31170713E-10
  -14.2799997       5.99082381E-11
  -14.2700005      -5.02667977E-11
  -14.2600002      -1.80790827E-10
  -14.2500000      -3.01750597E-10
  -14.2399998      -3.76999570E-10
  -14.2299995      -3.72565478E-10
  -14.2200003      -2.66839884E-10
  -14.2100000      -6.00904396E-11
  -14.1999998       2.19639654E-10
  -14.1899996       5.16906129E-10
  -14.1800003       7.57037544E-10
  -14.1700001       8.61757166E-10
  -14.1599998       7.69662334E-10
  -14.1499996       4.56955973E-10
  -14.1400003      -4.73268300E-11
  -14.1300001      -6.57090882E-10
  -14.1199999      -1.23954025E-09
  -14.1099997      -1.64037284E-09
  -14.1000004      -1.71995329E-09
  -14.0900002      -1.39278666E-09
  -14.0799999      -6.60213495E-10
  -14.0699997       3.73754028E-10
  -14.0600004       1.51071300E-09
  -14.0500002       2.49218823E-09
  -14.0400000       3.05517789E-09
  -14.0299997       2.99757952E-09
  -14.0200005       2.23781393E-09
  -14.0100002       8.52225179E-10
  -14.0000000      -9.22496857E-10
  -13.9899998      -2.72700151E-09
  -13.9799995      -4.15223145E-09
  -13.9700003      -4.83293627E-09
  -13.9600000      -4.54000126E-09
  -13.9499998      -3.24792748E-09
  -13.9399996      -1.15796506E-09
  -13.9300003       1.33273181E-09
  -13.9200001       3.71229847E-09
  -13.9099998       5.46861756E-09
  -13.8999996       6.20998497E-09
  -13.8900003       5.76150772E-09
  -13.8800001       4.21121538E-09
  -13.8699999       1.89167859E-09
  -13.8599997      -7.00666081E-10
  -13.8500004      -3.02940273E-09
  -13.8400002      -4.65344607E-09
  -13.8299999      -5.33710365E-09
  -13.8199997      -5.10331244E-09
  -13.8100004      -4.21249347E-09
  -13.8000002      -3.06967585E-09
  -13.7900000      -2.08348450E-09
  -13.7799997      -1.51678492E-09
  -13.7700005      -1.37522571E-09
  -13.7600002      -1.37383516E-09
  -13.7500000      -1.00364350E-09
  -13.7399998       3.06636855E-10
  -13.7299995       2.96809222E-09
  -13.7200003       7.00658376E-09
  -13.7100000       1.19052643E-08
  -13.6999998       1.65788183E-08
  -13.6899996       1.95190335E-08
  -13.6800003       1.91113134E-08
  -13.6700001       1.40738310E-08
  -13.6599998       3.92676780E-09
  -13.6499996      -1.06299254E-08
  -13.6400003      -2.75542789E-08
  -13.6300001      -4.36103313E-08
  -13.6199999      -5.48611787E-08
  -13.6099997      -5.74598396E-08
  -13.6000004      -4.86043881E-08
  -13.5900002      -2.74535470E-08
  -13.5799999       4.23310986E-09
  -13.5699997       4.19450181E-08
  -13.5600004       7.88954182E-08
  -13.5500002       1.07126603E-07
  -13.5400000       1.19096526E-07
  -13.5299997       1.09452863E-07
  -13.5200005       7.66031008E-08
  -13.5100002       2.36741631E-08
  -13.5000000      -4.14626022E-08
  -13.4899998      -1.07247381E-07
  -13.4799995      -1.60476702E-07
  -13.4700003      -1.88991820E-07
  -13.4600000      -1.84463843E-07
  -13.4499998      -1.44634882E-07
  -13.4399996      -7.44268576E-08
  -13.4300003       1.44672043E-08
  -13.4200001       1.05571466E-07
  -13.4099998       1.80883703E-07
  -13.3999996       2.24749328E-07
  -13.3900003       2.27491256E-07
  -13.3800001       1.87912164E-07
  -13.3699999       1.13981137E-07
  -13.3599997       2.14006324E-08
  -13.3500004      -6.97558207E-08
  -13.3400002      -1.39654347E-07
  -13.3299999      -1.73514934E-07
  -13.3199997      -1.65448185E-07
  -13.3100004      -1.20283417E-07
  -13.3000002      -5.27745989E-08
  -13.2900000       1.58199587E-08
  -13.2799997       6.31244745E-08
  -13.2700005       7.17823383E-08
  -13.2600002       3.48235289E-08
  -13.2500000      -4.12057908E-08
  -13.2399998      -1.36396693E-07
  -13.2299995      -2.21232938E-07
  -13.2200003      -2.63389296E-07
  -13.2100000      -2.36185173E-07
  -13.1999998      -1.26737959E-07
  -13.1899996       5.82841082E-08
  -13.1800003       2.91052487E-07
  -13.1700001       5.26029226E-07
  -13.1599998       7.08258142E-07
  -13.1499996       7.85072586E-07
  -13.1400003       7.18806348E-07
  -13.1300001       4.97590293E-07
  -13.1199999       1.41462721E-07
  -13.1099997      -2.98150297E-07
  -13.1000004      -7.46142803E-07
  -13.0900002      -1.11753980E-06
  -13.0799999      -1.33477261E-06
  -13.0699997      -1.34473441E-06
  -13.0600004      -1.13166698E-06
  -13.0500002      -7.22605648E-07
  -13.0400000      -1.83633887E-07
  -13.0299997       3.92738968E-07
  -13.0200005       9.06603930E-07
  -13.0100002       1.27191151E-06
  -13.0000000       1.43499130E-06
  -12.9899998       1.38574796E-06
  -12.9799995       1.15850992E-06
  -12.9700003       8.21946855E-07
  -12.9600000       4.60224385E-07
  -12.9499998       1.49961423E-07
  -12.9399996      -6.10584650E-08
  -12.9300003      -1.67528697E-07
  -12.9200001      -2.08333063E-07
  -12.9099998      -2.54925908E-07
  -12.8999996      -3.88463576E-07
  -12.8900003      -6.71043665E-07
  -12.8800001      -1.11857457E-06
  -12.8699999      -1.68320094E-06
  -12.8599997      -2.25158169E-06
  -12.8500004      -2.66187499E-06
  -12.8400002      -2.73772434E-06
  -12.8299999      -2.33290984E-06
  -12.8199997      -1.37677137E-06
  -12.8100004       9.09807909E-08
  -12.8000002       1.90629055E-06
  -12.7900000       3.79406652E-06
  -12.7799997       5.40949759E-06
  -12.7700005       6.40152757E-06
  -12.7600002       6.48680134E-06
  -12.7500000       5.51867379E-06
  -12.7399998       3.53528458E-06
  -12.7299995       7.73797638E-07
  -12.7200003      -2.35583639E-06
  -12.7100000      -5.33586126E-06
  -12.6999998      -7.63401295E-06
  -12.6899996      -8.80757580E-06
  -12.6800003      -8.59686861E-06
  -12.6700001      -6.98750182E-06
  -12.6599998      -4.22604035E-06
  -12.6499996      -7.82845518E-07
  -12.6400003       2.73301043E-06
  -12.6300001       5.69105850E-06
  -12.6199999       7.56531654E-06
  -12.6099997       8.04191404E-06
  -12.6000004       7.08434573E-06
  -12.5900002       4.94054075E-06
  -12.5799999       2.08836946E-06
  -12.5699997      -8.69998473E-07
  -12.5600004      -3.34227457E-06
  -12.5500002      -4.87861644E-06
  -12.5400000      -5.27153315E-06
  -12.5299997      -4.59849844E-06
  -12.5200005      -3.19519199E-06
  -12.5100002      -1.56345834E-06
  -12.5000000      -2.34097328E-07
  -12.4899998       3.83266581E-07
  -12.4799995       1.25997047E-07
  -12.4700003      -8.53555321E-07
  -12.4600000      -2.09925747E-06
  -12.4499998      -2.94488632E-06
  -12.4399996      -2.67353334E-06
  -12.4300003      -7.08600510E-07
  -12.4200001       3.20800427E-06
  -12.4099998       8.89514467E-06
  -12.3999996       1.57035593E-05
  -12.3900003       2.25938711E-05
  -12.3800001       2.83126756E-05
  -12.3699999       3.16343539E-05
  -12.3599997       3.16190381E-05
  -12.3500004       2.78302596E-05
  -12.3400002       2.04616208E-05
  -12.3299999       1.03395178E-05
  -12.3199997      -1.20500056E-06
  -12.3100004      -1.25733359E-05
  -12.3000002      -2.21984646E-05
  -12.2900000      -2.88437022E-05
  -12.2799997      -3.18367893E-05
  -12.2700005      -3.11875192E-05
  -12.2600002      -2.75616749E-05
  -12.2500000      -2.21153605E-05
  -12.2399998      -1.62251890E-05
  -12.2299995      -1.11736908E-05
  -12.2200003      -7.86054079E-06
  -12.2100000      -6.60551768E-06
  -12.1999998      -7.08939979E-06
  -12.1899996      -8.44830174E-06
  -12.1800003      -9.50203685E-06
  -12.1700001      -9.06576406E-06
  -12.1599998      -6.27373447E-06
  -12.1499996      -8.39195707E-07
  -12.1400003       6.81297706E-06
  -12.1300001       1.55771504E-05
  -12.1199999       2.38613538E-05
  -12.1099997       2.99081166E-05
  -12.1000004       3.21747902E-05
  -12.0900002       2.96908547E-05
  -12.0799999       2.23120678E-05
  -12.0699997       1.08116819E-05
  -12.0600004      -3.21710399E-06
  -12.0500002      -1.76328576E-05
  -12.0400000      -3.01390464E-05
  -12.0299997      -3.87186519E-05
  -12.0200005      -4.20199176E-05
  -12.0100002      -3.96122450E-05
  -12.0000000      -3.20580002E-05
  -11.9899998      -2.07851754E-05
  -11.9799995      -7.78839876E-06
  -11.9700003       4.77736785E-06
  -11.9600000       1.50229598E-05
  -11.9499998       2.16797180E-05
  -11.9399996       2.43077557E-05
  -11.9300003       2.33157170E-05
  -11.9200001       1.97923873E-05
  -11.9099998       1.51928962E-05
  -11.8999996       1.09549437E-05
  -11.8900003       8.13615679E-06
  -11.8800001       7.15824308E-06
  -11.8699999       7.71843770E-06
  -11.8599997       8.88917839E-06
  -11.8500004       9.38207631E-06
  -11.8400002       7.91265302E-06
  -11.8299999       3.57711724E-06
  -11.8199997      -3.85188832E-06
  -11.8100004      -1.37860525E-05
  -11.8000002      -2.48781180E-05
  -11.7900000      -3.52679672E-05
  -11.7799997      -4.29661377E-05
  -11.7700005      -4.62888602E-05
  -11.7600002      -4.42445998E-05
  -11.7500000      -3.67812281E-05
  -11.7399998      -2.48337765E-05
  -11.7299995      -1.01579481E-05
  -11.7200003       5.01592149E-06
  -11.7100000       1.84321179E-05
  -11.6999998       2.82613400E-05
  -11.6899996       3.34534161E-05
  -11.6800003       3.39119979E-05
  -11.6700001       3.04534042E-05
  -11.6599998       2.45616648E-05
  -11.6499996       1.79989802E-05
  -11.6400003       1.23640202E-05
  -11.6300001       8.70226359E-06
  -11.6199999       7.26023382E-06
  -11.6099997       7.44183399E-06
  -11.6000004       7.97795474E-06
  -11.5900002       7.27097176E-06
  -11.5799999       3.83487031E-06
  -11.5699997      -3.27122120E-06
  -11.5600004      -1.41180653E-05
  -11.5500002      -2.77690124E-05
  -11.5400000      -4.23686324E-05
  -11.5299997      -5.54462604E-05
  -11.5200005      -6.43762978E-05
  -11.5100002      -6.69023357E-05
  -11.5000000      -6.16172474E-05
  -11.4899998      -4.82990945E-05
  -11.4799995      -2.80318181E-05
  -11.4700003      -3.08308699E-06
  -11.4600000       2.34396048E-05
  -11.4499998       4.80890121E-05
  -11.4399996       6.76388881E-05
  -11.4300003       7.95996093E-05
  -11.4200001       8.25939787E-05
  -11.4099998       7.65287477E-05
  -11.3999996       6.25391476E-05
  -11.3900003       4.27291161E-05
  -11.3800001       1.97680583E-05
  -11.3699999      -3.57036265E-06
  -11.3599997      -2.48364649E-05
  -11.3500004      -4.22222874E-05
  -11.3400002      -5.47200143E-05
  -11.3299999      -6.21094950E-05
  -11.3199997      -6.48000423E-05
  -11.3100004      -6.35805918E-05
  -11.3000002      -5.93469085E-05
  -11.2900000      -5.28725686E-05
  -11.2799997      -4.46735103E-05
  -11.2700005      -3.49886577E-05
  -11.2600002      -2.38682333E-05
  -11.2500000      -1.13346650E-05
  -11.2399998       2.43582053E-06
  -11.2299995       1.69661780E-05
  -11.2200003       3.14111821E-05
  -11.2100000       4.45940423E-05
  -11.1999998       5.51453086E-05
  -11.1899996       6.17174301E-05
  -11.1800003       6.32303199E-05
  -11.1700001       5.90953932E-05
  -11.1599998       4.93697880E-05
  -11.1499996       3.48069188E-05
  -11.1400003       1.67905600E-05
  -11.1300001      -2.83742452E-06
  -11.1199999      -2.20257189E-05
  -11.1099997      -3.87954678E-05
  -11.1000004      -5.15080719E-05
  -11.0900002      -5.90760901E-05
  -11.0799999      -6.10861825E-05
  -11.0699997      -5.78190738E-05
  -11.0600004      -5.01687173E-05
  -11.0500002      -3.94781673E-05
  -11.0400000      -2.73209644E-05
  -11.0299997      -1.52632565E-05
  -11.0200005      -4.64272398E-06
  -11.0100002       3.60351100E-06
  -11.0000000       9.03786713E-06
  -10.9899998       1.17352038E-05
  -10.9799995       1.22095071E-05
  -10.9700003       1.12676826E-05
  -10.9600000       9.81598168E-06
  -10.9499998       8.65369475E-06
  -10.9399996       8.29277360E-06
  -10.9300003       8.83967095E-06
  -10.9200001       9.96607378E-06
  -10.9099998       1.09792854E-05
  -10.8999996       1.09831526E-05
  -10.8900003       9.10032577E-06
  -10.8800001       4.71083331E-06
  -10.8699999      -2.34550839E-06
  -10.8599997      -1.16515930E-05
  -10.8500004      -2.22140989E-05
  -10.8400002      -3.25927722E-05
  -10.8299999      -4.11395195E-05
  -10.8199997      -4.63031138E-05
  -10.8100004      -4.69384104E-05
  -10.8000002      -4.25548169E-05
  -10.7900000      -3.34495635E-05
  -10.7799997      -2.06945369E-05
  -10.7700005      -5.97595090E-06
  -10.7600002       8.68281131E-06
  -10.7500000       2.12608611E-05
  -10.7399998       3.00757820E-05
  -10.7299995       3.40525075E-05
  -10.7200003       3.28776623E-05
  -10.7100000       2.70169330E-05
  -10.6999998       1.76006997E-05
  -10.6899996       6.20743413E-06
  -10.6800003      -5.40977135E-06
  -10.6700001      -1.56028491E-05
  -10.6599998      -2.30685037E-05
  -10.6499996      -2.70141918E-05
  -10.6400003      -2.72322177E-05
  -10.6300001      -2.40795507E-05
  -10.6199999      -1.83743832E-05
  -10.6099997      -1.12300158E-05
  -10.6000004      -3.85270141E-06
  -10.5900002       2.66674147E-06
  -10.5799999       7.53706036E-06
  -10.5699997       1.03978236E-05
  -10.5600004       1.13743072E-05
  -10.5500002       1.10417159E-05
  -10.5400000       1.02978474E-05
  -10.5299997       1.01598835E-05
  -10.5200005       1.15179055E-05
  -10.5100002       1.48912768E-05
  -10.5000000       2.02399642E-05
  -10.4899998       2.68781769E-05
  -10.4799995       3.35215300E-05
  -10.4700003       3.84734558E-05
  -10.4600000       3.99266428E-05
  -10.4499998       3.63272338E-05
  -10.4399996       2.67308678E-05
  -10.4300003       1.10749215E-05
  -10.4200001      -9.69689154E-06
  -10.4099998      -3.36947815E-05
  -10.3999996      -5.83291803E-05
  -10.3900003      -8.07059478E-05
  -10.3800001      -9.81015255E-05
  -10.3699999      -1.08430067E-04
  -10.3599997      -1.10613313E-04
  -10.3500004      -1.04780127E-04
  -10.3400002      -9.22536929E-05
  -10.3299999      -7.53240674E-05
  -10.3199997      -5.68439900E-05
  -10.3100004      -3.97199219E-05
  -10.3000002      -2.63904421E-05
  -10.2900000      -1.83879383E-05
  -10.2799997      -1.60653108E-05
  -10.2700005      -1.85401041E-05
  -10.2600002      -2.38693556E-05
  -10.2500000      -2.94262536E-05
  -10.2399998      -3.24123175E-05
  -10.2299995      -3.04131463E-05
  -10.2200003      -2.18967925E-05
  -10.2100000      -6.56314023E-06
  -10.1999998       1.45210743E-05
  -10.1899996       3.90285604E-05
  -10.1800003       6.37031335E-05
  -10.1700001       8.48609998E-05
  -10.1599998       9.89770633E-05
  -10.1499996       1.03258630E-04
  -10.1400003       9.61129772E-05
  -10.1300001       7.74354266E-05
  -10.1199999       4.86754543E-05
  -10.1099997       1.26738942E-05
  -10.1000004      -2.67018277E-05
  -10.0900002      -6.50701259E-05
  -10.0799999      -9.81233316E-05
  -10.0699997      -1.22211815E-04
  -10.0600004      -1.34846690E-04
  -10.0500002      -1.35053066E-04
  -10.0400000      -1.23523161E-04
  -10.0299997      -1.02540340E-04
  -10.0200005      -7.56731170E-05
  -10.0100002      -4.72693864E-05
  -10.0000000      -2.18132191E-05
  -9.98999977      -3.23496442E-06
  -9.97999954       5.71652572E-06
  -9.97000027       3.92923721E-06
  -9.96000004      -7.88048510E-06
  -9.94999981      -2.72909019E-05
  -9.93999958      -5.06063516E-05
  -9.93000031      -7.35286740E-05
  -9.92000008      -9.19453669E-05
  -9.90999985      -1.02678794E-04
  -9.89999962      -1.04040810E-04
  -9.89000034      -9.60733814E-05
  -9.88000011      -8.04222436E-05
  -9.86999989      -5.98730403E-05
  -9.85999966      -3.76587086E-05
  -9.85000038      -1.67017552E-05
  -9.84000015       1.02867955E-06
  -9.82999992       1.48935187E-05
  -9.81999969       2.56100302E-05
  -9.81000042       3.49324764E-05
  -9.80000019       4.50797561E-05
  -9.78999996       5.80658707E-05
  -9.77999973       7.51105908E-05
  -9.77000046       9.62816339E-05
  -9.76000023       1.20453944E-04
  -9.75000000       1.45583894E-04
  -9.73999977       1.69211678E-04
  -9.72999954       1.89046696E-04
  -9.72000027       2.03474876E-04
  -9.71000004       2.11855455E-04
  -9.69999981       2.14540356E-04
  -9.68999958       2.12629078E-04
  -9.68000031       2.07546051E-04
  -9.67000008       2.00570998E-04
  -9.65999985       1.92458087E-04
  -9.64999962       1.83245313E-04
  -9.64000034       1.72294356E-04
  -9.63000011       1.58533963E-04
  -9.61999989       1.40825534E-04
  -9.60999966       1.18343618E-04
  -9.60000038       9.08714210E-05
  -9.59000015       5.89463998E-05
  -9.57999992       2.38386219E-05
  -9.56999969      -1.26103305E-05
  -9.56000042      -4.82328724E-05
  -9.55000019      -8.08055629E-05
  -9.53999996      -1.08299289E-04
  -9.52999973      -1.29089676E-04
  -9.52000046      -1.42129546E-04
  -9.51000023      -1.47092927E-04
  -9.50000000      -1.44490987E-04
  -9.48999977      -1.35740207E-04
  -9.47999954      -1.23142454E-04
  -9.47000027      -1.09729925E-04
  -9.46000004      -9.89432228E-05
  -9.44999981      -9.41489488E-05
  -9.43999958      -9.80547338E-05
  -9.43000031      -1.12128444E-04
  -9.42000008      -1.36154704E-04
  -9.40999985      -1.68053826E-04
  -9.39999962      -2.04041644E-04
  -9.39000034      -2.39134009E-04
  -9.38000011      -2.67916854E-04
  -9.36999989      -2.85434653E-04
  -9.35999966      -2.88018084E-04
  -9.35000038      -2.73885933E-04
  -9.34000015      -2.43411429E-04
  -9.32999992      -1.99023023E-04
  -9.31999969      -1.44790261E-04
  -9.31000042      -8.58045678E-05
  -9.30000019      -2.74870999E-05
  -9.28999996       2.50582434E-05
  -9.27999973       6.75694391E-05
  -9.27000046       9.69989051E-05
  -9.26000023       1.11740934E-04
  -9.25000000       1.11734436E-04
  -9.23999977       9.84526851E-05
  -9.22999954       7.47717786E-05
  -9.22000027       4.46947161E-05
  -9.21000004       1.29125574E-05
  -9.19999981      -1.57851500E-05
  -9.18999958      -3.71900751E-05
  -9.18000031      -4.83347940E-05
  -9.17000008      -4.79945847E-05
  -9.15999985      -3.69043555E-05
  -9.14999962      -1.76169651E-05
  -9.14000034       5.98555152E-06
  -9.13000011       2.94253496E-05
  -9.11999989       4.84371340E-05
  -9.10999966       5.96634854E-05
  -9.10000038       6.10875068E-05
  -9.09000015       5.21378170E-05
  -9.07999992       3.35029908E-05
  -9.06999969       6.77630351E-06
  -9.06000042      -2.59126864E-05
  -9.05000019      -6.21485306E-05
  -9.03999996      -9.93082358E-05
  -9.02999973      -1.34510658E-04
  -9.02000046      -1.64558965E-04
  -9.01000023      -1.86022851E-04
  -9.00000000      -1.95564571E-04
  -8.98999977      -1.90513005E-04
  -8.97999954      -1.69568928E-04
  -8.97000027      -1.33429479E-04
  -8.96000004      -8.50931683E-05
  -8.94999981      -2.96664148E-05
  -8.93999958       2.63703023E-05
  -8.93000031       7.63090065E-05
  -8.92000008       1.14498616E-04
  -8.90999985       1.37423776E-04
  -8.89999962       1.44274163E-04
  -8.89000034       1.36841991E-04
  -8.88000011       1.18787131E-04
  -8.86999989       9.45047505E-05
  -8.85999966       6.79522709E-05
  -8.85000038       4.17971605E-05
  -8.84000015       1.71306256E-05
  -8.82999992      -6.20796391E-06
  -8.81999969      -2.88666106E-05
  -8.81000042      -5.11011604E-05
  -8.80000019      -7.21432589E-05
  -8.78999996      -9.00837476E-05
  -8.77999973      -1.02344158E-04
  -8.77000046      -1.06582222E-04
  -8.76000023      -1.01700803E-04
  -8.75000000      -8.85690824E-05
  -8.73999977      -7.01469107E-05
  -8.72999954      -5.09027377E-05
  -8.72000027      -3.56648925E-05
  -8.71000004      -2.82565325E-05
  -8.69999981      -3.03605157E-05
  -8.68999958      -4.10028115E-05
  -8.68000031      -5.68482646E-05
  -8.67000008      -7.32345216E-05
  -8.65999985      -8.56205006E-05
  -8.64999962      -9.09821392E-05
  -8.64000034      -8.87016358E-05
  -8.63000011      -8.06644530E-05
  -8.61999989      -7.05440762E-05
  -8.60999966      -6.25257453E-05
  -8.60000038      -5.99051345E-05
  -8.59000015      -6.40313228E-05
  -8.57999992      -7.39354728E-05
  -8.56999969      -8.67433337E-05
  -8.56000042      -9.86973828E-05
  -8.55000019      -1.06408814E-04
  -8.53999996      -1.07892767E-04
  -8.52999973      -1.03033213E-04
  -8.52000046      -9.33418487E-05
  -8.51000023      -8.11374848E-05
  -8.50000000      -6.84850893E-05
  -8.48999977      -5.63179565E-05
  -8.47999954      -4.40944532E-05
  -8.47000027      -3.01375148E-05
  -8.46000004      -1.25450269E-05
  -8.44999981       9.66304560E-06
  -8.43999958       3.55984012E-05
  -8.43000031       6.21427753E-05
  -8.42000008       8.43612288E-05
  -8.40999985       9.66151783E-05
  -8.39999962       9.40550308E-05
  -8.39000034       7.40348551E-05
  -8.38000011       3.70072703E-05
  -8.36999989      -1.33790218E-05
  -8.35999966      -7.10038730E-05
  -8.35000038      -1.28592146E-04
  -8.34000015      -1.79221679E-04
  -8.32999992      -2.17592329E-04
  -8.31999969      -2.40737689E-04
  -8.31000042      -2.48071039E-04
  -8.30000019      -2.40882626E-04
  -8.28999996      -2.21569615E-04
  -8.27999973      -1.92922264E-04
  -8.27000046      -1.57708942E-04
  -8.26000023      -1.18630582E-04
  -8.25000000      -7.85310767E-05
  -8.23999977      -4.06239633E-05
  -8.22999954      -8.48282707E-06
  -8.22000027       1.43532197E-05
  -8.21000004       2.51252841E-05
  -8.19999981       2.27315250E-05
  -8.18999958       8.40072698E-06
  -8.18000031      -1.41603241E-05
  -8.17000008      -3.93260016E-05
  -8.15999985      -6.07669790E-05
  -8.14999962      -7.30310494E-05
  -8.14000034      -7.30380852E-05
  -8.13000011      -6.10184470E-05
  -8.11999989      -4.05641076E-05
  -8.10999966      -1.77204165E-05
  -8.10000038       6.55513645E-07
  -8.09000015       8.80704556E-06
  -8.07999992       3.70047360E-06
  -8.06999969      -1.41245773E-05
  -8.06000042      -4.07278567E-05
  -8.05000019      -6.99047450E-05
  -8.03999996      -9.49358873E-05
  -8.02999973      -1.10422399E-04
  -8.02000046      -1.13668466E-04
  -8.01000023      -1.05231069E-04
  -8.00000000      -8.85262634E-05
  -7.98999977      -6.86738204E-05
  -7.98000002      -5.09821366E-05
  -7.96999979      -3.95552161E-05
  -7.96000004      -3.64252483E-05
  -7.94999981      -4.14108763E-05
  -7.94000006      -5.26491385E-05
  -7.92999983      -6.75339397E-05
  -7.92000008      -8.36864638E-05
  -7.90999985      -9.96139861E-05
  -7.90000010      -1.14863346E-04
  -7.88999987      -1.29683729E-04
  -7.88000011      -1.44402322E-04
  -7.86999989      -1.58817988E-04
  -7.86000013      -1.71897424E-04
  -7.84999990      -1.81927302E-04
  -7.84000015      -1.87084210E-04
  -7.82999992      -1.86206104E-04
  -7.82000017      -1.79451075E-04
  -7.80999994      -1.68550396E-04
  -7.80000019      -1.56498107E-04
  -7.78999996      -1.46721955E-04
  -7.78000021      -1.41979792E-04
  -7.76999998      -1.43346988E-04
  -7.76000023      -1.49660642E-04
  -7.75000000      -1.57656250E-04
  -7.73999977      -1.62814555E-04
  -7.73000002      -1.60700190E-04
  -7.71999979      -1.48398205E-04
  -7.71000004      -1.25600971E-04
  -7.69999981      -9.49861351E-05
  -7.69000006      -6.17340120E-05
  -7.67999983      -3.22921987E-05
  -7.67000008      -1.27277435E-05
  -7.65999985      -7.13773034E-06
  -7.65000010      -1.65765487E-05
  -7.63999987      -3.88058579E-05
  -7.63000011      -6.89295193E-05
  -7.61999989      -1.00715682E-04
  -7.61000013      -1.28212501E-04
  -7.59999990      -1.47190323E-04
  -7.59000015      -1.56010850E-04
  -7.57999992      -1.55709640E-04
  -7.57000017      -1.49320840E-04
  -7.55999994      -1.40696269E-04
  -7.55000019      -1.33209760E-04
  -7.53999996      -1.28750049E-04
  -7.53000021      -1.27295425E-04
  -7.51999998      -1.27169842E-04
  -7.51000023      -1.25863487E-04
  -7.50000000      -1.21130652E-04
  -7.48999977      -1.12002002E-04
  -7.48000002      -9.93875656E-05
  -7.46999979      -8.60809305E-05
  -7.46000004      -7.61610791E-05
  -7.44999981      -7.39664974E-05
  -7.44000006      -8.29378187E-05