  -16.0000000       0.00000000    
  -15.9899998       0.00000000    
  -15.9799995       0.00000000    
  -15.9700003       0.00000000    
  -15.9600000       0.00000000    
  -15.9499998       0.00000000    
  -15.9399996       0.00000000    
  -15.9300003       0.00000000    
  -15.9200001       0.00000000    
  -15.9099998       0.00000000    
  -15.8999996      -1.48580461E-36
  -15.8900003      -2.33392782E-35
  -15.8800001      -1.79187457E-34
  -15.8699999      -9.12474918E-34
  -15.8599997      -3.76208775E-33
  -15.8500004      -1.58636901E-32
  -15.8400002      -7.72352803E-32
  -15.8299999      -3.84956415E-31
  -15.8199997      -1.70891939E-30
  -15.8100004      -6.40379756E-30
  -15.8000002      -1.99946466E-29
  -15.7900000      -5.15174945E-29
  -15.7799997      -1.06295275E-28
  -15.7700005      -1.58480020E-28
  -15.7600002      -9.03502728E-29
  -15.7500000       3.89446170E-28
  -15.7399998       1.76014185E-27
  -15.7299995       4.41966602E-27
  -15.7200003       7.82908395E-27
  -15.7100000       8.96792484E-27
  -15.6999998       8.42388276E-28
  -15.6899996      -2.65735561E-26
  -15.6800003      -7.88836685E-26
  -15.6700001      -1.39804580E-25
  -15.6599998      -1.46899459E-25
  -15.6499996       2.05400845E-26
  -15.6400003       5.01375438E-25
  -15.6300001       1.31097362E-24
  -15.6199999       2.08476492E-24
  -15.6099997       1.81070596E-24
  -15.6000004      -1.14829985E-24
  -15.5900002      -8.25863925E-24
  -15.5799999      -1.88288476E-23
  -15.5699997      -2.70514604E-23
  -15.5600004      -1.97119537E-23
  -15.5500002       2.19075035E-23
  -15.5400000       1.11290856E-22
  -15.5299997       2.34417099E-22
  -15.5200005       3.20713080E-22
  -15.5100002       2.25522433E-22
  -15.5000000      -2.42436242E-22
  -15.4899998      -1.21016251E-21
  -15.4799995      -2.53077524E-21
  -15.4700003      -3.52737601E-21
  -15.4600000      -2.85166174E-21
  -15.4499998       1.27148888E-21
  -15.4399996       1.01222253E-20
  -15.4300003       2.27894366E-20
  -15.4200001       3.41059717E-20
  -15.4099998       3.33941505E-20
  -15.3999996       5.94969568E-21
  -15.3900003      -6.06758757E-20
  -15.3800001      -1.64789603E-19
  -15.3699999      -2.75467843E-19
  -15.3599997      -3.21553771E-19
  -15.3500004      -1.96884030E-19
  -15.3400002       2.04713566E-19
  -15.3299999       9.17550818E-19
  -15.3199997       1.80583288E-18
  -15.3100004       2.47729799E-18
  -15.3000002       2.27640105E-18
  -15.2900000       4.38301241E-19
  -15.2799997      -3.54030738E-18
  -15.2700005      -9.34057642E-18
  -15.2600002      -1.52389234E-17
  -15.2500000      -1.78332695E-17
  -15.2399998      -1.25151318E-17
  -15.2299995       4.93637856E-18
  -15.2200003       3.55937108E-17
  -15.2100000       7.40385676E-17
  -15.1999998       1.05834530E-16
  -15.1899996       1.07888552E-16
  -15.1800003       5.38398328E-17
  -15.1700001      -7.44410935E-17
  -15.1599998      -2.70609107E-16
  -15.1499996      -4.87790234E-16
  -15.1400003      -6.31264274E-16
  -15.1300001      -5.70231315E-16
  -15.1199999      -1.76765638E-16
  -15.1099997       6.07923222E-16
  -15.1000004       1.69345465E-15
  -15.0900002       2.77634064E-15
  -15.0799999       3.33474415E-15
  -15.0699997       2.72496513E-15
  -15.0600004       4.02522497E-16
  -15.0500002      -3.75363159E-15
  -15.0400000      -9.09807914E-15
  -15.0299997      -1.40046547E-14
  -15.0200005      -1.59627933E-14
  -15.0100002      -1.21379703E-14
  -15.0000000      -4.33659693E-16
  -14.9899998       1.91111419E-14
  -14.9799995       4.30050926E-14
  -14.9700003       6.36973045E-14
  -14.9600000       7.03674383E-14
  -14.9499998       5.15925735E-14
  -14.9399996      -1.64717892E-16
  -14.9300003      -8.31132851E-14
  -14.9200001      -1.81491486E-13
  -14.9099998      -2.64115905E-13
  -14.8999996      -2.88481912E-13
  -14.8900003      -2.11749956E-13
  -14.8800001      -7.83389941E-15
  -14.8699999       3.13092136E-13
  -14.8599997       6.89238380E-13
  -14.8500004       1.00426611E-12
  -14.8400002       1.10428116E-12
  -14.8299999       8.38134195E-13
  -14.8199997       1.16926068E-13
  -14.8100004      -1.02085094E-12
  -14.8000002      -2.36081575E-12
  -14.7900000      -3.50730642E-12
  -14.7799997      -3.94352823E-12
  -14.7700005      -3.16526146E-12
  -14.7600002      -8.72156405E-13
  -14.7500000       2.82804856E-12
  -14.7399998       7.27172749E-12
  -14.7299995       1.12270219E-11
  -14.7200003       1.30807231E-11
  -14.7100000       1.12430351E-11
  -14.6999998       4.71808920E-12
  -14.6899996      -6.29313095E-12
  -14.6800003      -1.99572026E-11
  -14.6700001      -3.27615261E-11
  -14.6599998      -4.00297538E-11
  -14.6499996      -3.70443745E-11
  -14.6400003      -2.06278120E-11
  -14.6300001       9.18229902E-12
  -14.6199999       4.78982479E-11
  -14.6099997       8.63715835E-11
  -14.6000004       1.12057238E-10
  -14.5900002       1.11868355E-10
  -14.5799999       7.62446009E-11
  -14.5699997       3.51896030E-12
  -14.5600004      -9.67489353E-11
  -14.5500002      -2.02917974E-10
  -14.5400000      -2.84006096E-10
  -14.5299997      -3.06337289E-10
  -14.5200005      -2.43237236E-10
  -14.5100002      -8.56587162E-11
  -14.5000000       1.49350254E-10
  -14.4899998       4.15688678E-10
  -14.4799995       6.43375520E-10
  -14.4700003       7.52679252E-10
  -14.4600000       6.75447476E-10
  -14.4499998       3.79107551E-10
  -14.4399996      -1.13313393E-10
  -14.4300003      -7.14417026E-10
  -14.4200001      -1.28068389E-09
  -14.4099998      -1.63981351E-09
  -14.3999996      -1.63389680E-09
  -14.3900003      -1.16947363E-09
  -14.3800001      -2.61157096E-10
  -14.3699999       9.45846956E-10
  -14.3599997       2.18617391E-09
  -14.3500004       3.12241166E-09
  -14.3400002       3.42537332E-09
  -14.3299999       2.87011348E-09
  -14.3199997       1.42287693E-09
  -14.3100004      -7.08534287E-10
  -14.3000002      -3.08349302E-09
  -14.2900000      -5.10603826E-09
  -14.2799997      -6.16237372E-09
  -14.2700005      -5.79011061E-09
  -14.2600002      -3.83609233E-09
  -14.2500000      -5.54775115E-10
  -14.2399998       3.39228623E-09
  -14.2299995       7.05332281E-09
  -14.2200003       9.40590539E-09
  -14.2100000       9.63279856E-09
  -14.1999998       7.38321981E-09
  -14.1899996       2.94104052E-09
  -14.1800003      -2.76393930E-09
  -14.1700001      -8.32939673E-09
  -14.1599998      -1.22160415E-08
  -14.1499996      -1.31711415E-08
  -14.1400003      -1.06282387E-08
  -14.1300001      -4.96132646E-09
  -14.1199999       2.50323429E-09
  -14.1099997       9.75582726E-09
  -14.1000004       1.46140877E-08
  -14.0900002       1.53567861E-08
  -14.0799999       1.13084351E-08
  -14.0699997       3.19108806E-09
  -14.0600004      -6.89747059E-09
  -14.0500002      -1.59284923E-08
  -14.0400000      -2.07393924E-08
  -14.0299997      -1.89960581E-08
  -14.0200005      -1.00551922E-08
  -14.0100002       4.54875426E-09
  -14.0000000       2.11974740E-08
  -13.9899998       3.49275382E-08
  -13.9799995       4.06969463E-08
  -13.9700003       3.48892506E-08
  -13.9600000       1.66513896E-08
  -13.9499998      -1.13511129E-08
  -13.9399996      -4.30719567E-08
  -13.9300003      -7.02148100E-08
  -13.9200001      -8.41886987E-08
  -13.9099998      -7.84616390E-08
  -13.8999996      -5.07136164E-08
  -13.8900003      -4.16180468E-09
  -13.8800001       5.24262553E-08
  -13.8699999       1.06219908E-07
  -13.8599997       1.43116011E-07
  -13.8500004       1.51255747E-07
  -13.8400002       1.24420524E-07
  -13.8299999       6.43865903E-08
  -13.8199997      -1.85152231E-08
  -13.8100004      -1.06999664E-07
  -13.8000002      -1.80420528E-07
  -13.7900000      -2.19643269E-07
  -13.7799997      -2.12063256E-07
  -13.7700005      -1.55471810E-07
  -13.7600002      -5.96337131E-08
  -13.7500000       5.50795960E-08
  -13.7399998       1.61950425E-07
  -13.7299995       2.34248219E-07
  -13.7200003       2.52179262E-07
  -13.7100000       2.08677690E-07
  -13.6999998       1.12378970E-07
  -13.6899996      -1.33116078E-08
  -13.6800003      -1.35220404E-07
  -13.6700001      -2.18571117E-07
  -13.6599998      -2.36458831E-07
  -13.6499996      -1.78212971E-07
  -13.6400003      -5.42469181E-08
  -13.6300001       1.04345688E-07
  -13.6199999       2.51981021E-07
  -13.6099997       3.39598728E-07
  -13.6000004       3.28116187E-07
  -13.5900002       2.00981859E-07
  -13.5799999      -2.76967711E-08
  -13.5699997      -3.12241696E-07
  -13.5600004      -5.82929715E-07
  -13.5500002      -7.61084777E-07
  -13.5400000      -7.78746369E-07
  -13.5299997      -5.98330416E-07
  -13.5200005      -2.27120367E-07
  -13.5100002       2.77866178E-07
  -13.5000000       8.17126761E-07
  -13.4899998       1.26768691E-06
  -13.4799995       1.51043992E-06
  -13.4700003       1.45983643E-06
  -13.4600000       1.08867732E-06
  -13.4499998       4.41226376E-07
  -13.4399996      -3.69871458E-07
  -13.4300003      -1.18371838E-06
  -13.4200001      -1.82494239E-06
  -13.4099998      -2.14394436E-06
  -13.3999996      -2.05413539E-06
  -13.3900003      -1.55661712E-06
  -13.3800001      -7.45141904E-07
  -13.3699999       2.11384915E-07
  -13.3599997       1.10608039E-06
  -13.3500004       1.74290608E-06
  -13.3400002       1.98549878E-06
  -13.3299999       1.79348717E-06
  -13.3199997       1.23607140E-06
  -13.3100004       4.77775586E-07
  -13.3000002      -2.61834373E-07
  -13.2900000      -7.65718084E-07
  -13.2799997      -8.80221307E-07
  -13.2700005      -5.63226308E-07
  -13.2600002       9.44044416E-08
  -13.2500000       8.82249481E-07
  -13.2399998       1.51830091E-06
  -13.2299995       1.72204250E-06
  -13.2200003       1.29569548E-06
  -13.2100000       1.92913760E-07
  -13.1999998      -1.44456590E-06
  -13.1899996      -3.29548311E-06
  -13.1800003      -4.91570609E-06
  -13.1700001      -5.83391466E-06
  -13.1599998      -5.66649896E-06
  -13.1499996      -4.22509765E-06
  -13.1400003      -1.58945625E-06
  -13.1300001       1.87576086E-06
  -13.1199999       5.56985697E-06
  -13.1099997       8.76529430E-06
  -13.1000004       1.07568248E-05
  -13.0900002       1.10190040E-05
  -13.0799999       9.33608408E-06
  -13.0699997       5.87214709E-06
  -13.0600004       1.16122555E-06
  -13.0500002      -3.98538850E-06
  -13.0400000      -8.63813329E-06
  -13.0299997      -1.19414408E-05
  -13.0200005      -1.32966607E-05
  -13.0100002      -1.24930521E-05
  -13.0000000      -9.75458261E-06
  -12.9899998      -5.68880932E-06
  -12.9799995      -1.14698150E-06
  -12.9700003       2.97371071E-06
  -12.9600000       5.93957338E-06
  -12.9499998       7.35061394E-06
  -12.9399996       7.22823006E-06
  -12.9300003       5.99583836E-06
  -12.9200001       4.35373795E-06
  -12.9099998       3.07640175E-06
  -12.8999996       2.78171569E-06
  -12.8900003       3.73173839E-06
  -12.8800001       5.72013096E-06
  -12.8699999       8.08274672E-06
  -12.8599997       9.83866903E-06
  -12.8500004       9.93591675E-06
  -12.8400002       7.54715711E-06
  -12.8299999       2.34340951E-06
  -12.8199997      -5.32678177E-06
  -12.8100004      -1.44077885E-05
  -12.8000002      -2.32796829E-05
  -12.7900000      -3.00556894E-05
  -12.7799997      -3.29776703E-05
  -12.7700005      -3.08249873E-05
  -12.7600002      -2.32424027E-05
  -12.7500000      -1.09051443E-05
  -12.7399998       4.52839140E-06
  -12.7299995       2.06795048E-05
  -12.7200003       3.48815192E-05
  -12.7100000       4.46942358E-05
  -12.6999998       4.83905169E-05
  -12.6899996       4.53069988E-05
  -12.6800003       3.59783699E-05
  -12.6700001       2.20215261E-05
  -12.6599998       5.79263451E-06
  -12.6499996      -1.01073338E-05
  -12.6400003      -2.33668088E-05
  -12.6300001      -3.24152497E-05
  -12.6199999      -3.66883687E-05
  -12.6099997      -3.66469467E-05
  -12.6000004      -3.35485020E-05
  -12.5900002      -2.90317384E-05
  -12.5799999      -2.46207710E-05
  -12.5699997      -2.12780178E-05
  -12.5600004      -1.91244453E-05
  -12.5500002      -1.74057986E-05
  -12.5400000      -1.47219625E-05
  -12.5299997      -9.46857108E-06
  -12.5200005      -3.82008864E-07
  -12.5100002       1.29539130E-05
  -12.5000000       2.97798979E-05
  -12.4899998       4.81150091E-05
  -12.4799995       6.50308430E-05
  -12.4700003       7.72064159E-05
  -12.4600000       8.16514585E-05
  -12.4499998       7.64366341E-05
  -12.4399996       6.12565564E-05
  -12.4300003       3.76800781E-05
  -12.4200001       9.00686155E-06
  -12.4099998      -2.02634601E-05
  -12.3999996      -4.52540189E-05
  -12.3900003      -6.16586913E-05
  -12.3800001      -6.66132910E-05
  -12.3699999      -5.92979304E-05
  -12.3599997      -4.11325018E-05
  -12.3500004      -1.55138841E-05
  -12.3400002       1.28559468E-05
  -12.3299999       3.89105080E-05
  -12.3199997       5.82267749E-05
  -12.3100004       6.78828437E-05
  -12.3000002       6.69804358E-05
  -12.2900000       5.67220814E-05
  -12.2799997       4.00327990E-05
  -12.2700005       2.08191213E-05
  -12.2600002       3.03954675E-06
  -12.2500000      -1.01973401E-05
  -12.2399998      -1.72989257E-05
  -12.2299995      -1.84667624E-05
  -12.2200003      -1.55263951E-05
  -12.2100000      -1.13542992E-05
  -12.1999998      -9.04315948E-06
  -12.1899996      -1.10100218E-05
  -12.1800003      -1.82673230E-05
  -12.1700001      -3.00404863E-05
  -12.1599998      -4.38355273E-05
  -12.1499996      -5.59539840E-05
  -12.1400003      -6.23451051E-05
  -12.1300001      -5.96015379E-05
  -12.1199999      -4.58648137E-05
  -12.1099997      -2.14212796E-05
  -12.1000004       1.11652753E-05
  -12.0900002       4.74345470E-05
  -12.0799999       8.18568515E-05
  -12.0699997       1.08934291E-04
  -12.0600004       1.24336118E-04
  -12.0500002       1.25814680E-04
  -12.0400000       1.13692375E-04
  -12.0299997       9.08032089E-05
  -12.0200005       6.18937192E-05
  -12.0100002       3.26105401E-05
  -12.0000000       8.29665805E-06
  -11.9899998      -7.13632608E-06
  -11.9799995      -1.20078903E-05
  -11.9700003      -7.16168870E-06
  -11.9600000       4.31172293E-06
  -11.9499998       1.78561550E-05
  -11.9399996       2.85533388E-05
  -11.9300003       3.22936503E-05
  -11.9200001       2.67445157E-05
  -11.9099998       1.18954031E-05
  -11.8999996      -9.94184211E-06
  -11.8900003      -3.46709385E-05
  -11.8800001      -5.73554717E-05
  -11.8699999      -7.33444176E-05
  -11.8599997      -7.93143845E-05
  -11.8500004      -7.39880925E-05
  -11.8400002      -5.83696383E-05
  -11.8299999      -3.54545045E-05
  -11.8199997      -9.49855439E-06
  -11.8100004       1.49670086E-05
  -11.8000002       3.41317900E-05
  -11.7900000       4.56754751E-05
  -11.7799997       4.91352330E-05
  -11.7700005       4.58010290E-05
  -11.7600002       3.81880054E-05
  -11.7500000       2.92393652E-05
  -11.7399998       2.14760003E-05
  -11.7299995       1.63158165E-05
  -11.7200003       1.37353891E-05
  -11.7100000       1.23533337E-05
  -11.6999998       9.90327680E-06
  -11.6899996       3.96332416E-06
  -11.6800003      -7.25582595E-06
  -11.6700001      -2.42744663E-05
  -11.6599998      -4.60278243E-05
  -11.6499996      -6.99545635E-05
  -11.6400003      -9.24695923E-05
  -11.6300001      -1.09703666E-04
  -11.6199999      -1.18327051E-04
  -11.6099997      -1.16256771E-04
  -11.6000004      -1.03080529E-04
  -11.5900002      -8.01055285E-05
  -11.5799999      -5.00356946E-05
  -11.5699997      -1.63727127E-05
  -11.5600004       1.72999426E-05
  -11.5500002       4.79696319E-05
  -11.5400000       7.36293878E-05
  -11.5299997       9.34055352E-05
  -11.5200005       1.07374413E-04
  -11.5100002       1.16148221E-04
  -11.5000000       1.20370285E-04
  -11.4899998       1.20281089E-04
  -11.4799995       1.15494055E-04
  -11.4700003       1.05059815E-04
  -11.4600000       8.78160208E-05
  -11.4499998       6.29370115E-05
  -11.4399996       3.05353351E-05
  -11.4300003      -7.85909378E-06
  -11.4200001      -4.90990642E-05
  -11.4099998      -8.85987029E-05
  -11.3999996      -1.20904806E-04
  -11.3900003      -1.40581149E-04
  -11.3800001      -1.43245008E-04
  -11.3699999      -1.26545448E-04
  -11.3599997      -9.08674119E-05
  -11.3500004      -3.95860443E-05
  -11.3400002       2.12230116E-05
  -11.3299999       8.36059189E-05
  -11.3199997       1.38964533E-04
  -11.3100004       1.79489594E-04
  -11.3000002       1.99527713E-04
  -11.2900000       1.96614754E-04
  -11.2799997       1.71959735E-04
  -11.2700005       1.30262182E-04
  -11.2600002       7.88736288E-05
  -11.2500000       2.64465361E-05
  -11.2399998      -1.86761299E-05
  -11.2299995      -5.00139722E-05
  -11.2200003      -6.41278530E-05
  -11.2100000      -6.11740397E-05
  -11.1999998      -4.47075545E-05
  -11.1899996      -2.07657486E-05
  -11.1800003       3.57876138E-06
  -11.1700001       2.18826372E-05
  -11.1599998       2.98416871E-05
  -11.1499996       2.62964331E-05
  -11.1400003       1.34882075E-05
  -11.1300001      -3.51310655E-06
  -11.1199999      -1.80960087E-05
  -11.1099997      -2.38205939E-05
  -11.1000004      -1.61560274E-05
  -11.0900002       6.18194099E-06
  -11.0799999       4.06381223E-05
  -11.0699997       8.11477512E-05
  -11.0600004       1.19349330E-04
  -11.0500002       1.46424252E-04
  -11.0400000       1.55144269E-04
  -11.0299997       1.41641620E-04
  -11.0200005       1.06468127E-04
  -11.0100002       5.46679257E-05
  -11.0000000      -5.17947910E-06
  -10.9899998      -6.27417467E-05
  -10.9799995      -1.08134351E-04
  -10.9700003      -1.34025555E-04
  -10.9600000      -1.37150710E-04
  -10.9499998      -1.18881697E-04
  -10.9399996      -8.47268457E-05
  -10.9300003      -4.28968524E-05
  -10.9200001      -2.29900229E-06
  -10.9099998       2.95435020E-05
  -10.8999996       4.81405114E-05
  -10.8900003       5.28631317E-05
  -10.8800001       4.67751306E-05
  -10.8699999       3.55453412E-05
  -10.8599997       2.57471747E-05
  -10.8500004       2.29969319E-05
  -10.8400002       3.04091827E-05
  -10.8299999       4.77522299E-05
  -10.8199997       7.14964990E-05
  -10.8100004       9.57165321E-05
  -10.8000002       1.13593414E-04
  -10.7900000       1.19124408E-04
  -10.7799997       1.08611661E-04
  -10.7700005       8.15781750E-05
  -10.7600002       4.09184831E-05
  -10.7500000      -7.71024133E-06
  -10.7399998      -5.70682059E-05
  -10.7299995      -9.97744864E-05
  -10.7200003      -1.29667387E-04
  -10.7100000      -1.42796503E-04
  -10.6999998      -1.37880139E-04
  -10.6899996      -1.16209259E-04
  -10.6800003      -8.11103309E-05
  -10.6700001      -3.71612623E-05
  -10.6599998       1.06287098E-05
  -10.6499996       5.75072772E-05
  -10.6400003       9.94475995E-05
  -10.6300001       1.33395108E-04
  -10.6199999       1.57353104E-04
  -10.6099997       1.70389409E-04
  -10.6000004       1.72626387E-04
  -10.5900002       1.65229139E-04
  -10.5799999       1.50356034E-04
  -10.5699997       1.31006178E-04
  -10.5600004       1.10705172E-04
  -10.5500002       9.30154492E-05
  -10.5400000       8.09242774E-05
  -10.5299997       7.62287964E-05
  -10.5200005       7.90750346E-05
  -10.5100002       8.77989078E-05
  -10.5000000       9.91580964E-05
  -10.4899998       1.08947555E-04
  -10.4799995       1.12886417E-04
  -10.4700003       1.07580883E-04
  -10.4600000       9.13352778E-05
  -10.4499998       6.46125045E-05
  -10.4399996       3.00308620E-05
  -10.4300003      -8.09843368E-06
  -10.4200001      -4.45732185E-05
  -10.4099998      -7.42422562E-05
  -10.3999996      -9.28667796E-05
  -10.3900003      -9.77228119E-05
  -10.3800001      -8.78538049E-05
  -10.3699999      -6.39889840E-05
  -10.3599997      -2.82306446E-05
  -10.3500004       1.63435652E-05
  -10.3400002       6.60310034E-05
  -10.3299999       1.16736781E-04
  -10.3199997       1.64102225E-04
  -10.3100004       2.03615171E-04
  -10.3000002       2.30818841E-04
  -10.2900000       2.41710601E-04
  -10.2799997       2.33344574E-04
  -10.2700005       2.04548589E-04
  -10.2600002       1.56574431E-04
  -10.2500000       9.34568016E-05
  -10.2399998       2.18846817E-05
  -10.2299995      -4.95092863E-05
  -10.2200003      -1.11385525E-04
  -10.2100000      -1.55247064E-04
  -10.1999998      -1.74973451E-04
  -10.1899996      -1.67977676E-04
  -10.1800003      -1.35691706E-04
  -10.1700001      -8.32404621E-05
  -10.1599998      -1.83659085E-05
  -10.1499996       5.01414870E-05
  -10.1400003       1.14118113E-04
  -10.1300001       1.67398321E-04
  -10.1199999       2.06560653E-04
  -10.1099997       2.30911057E-04
  -10.1000004       2.41785921E-04
  -10.0900002       2.41453934E-04
  -10.0799999       2.32005958E-04
  -10.0699997       2.14611224E-04
  -10.0600004       1.89387254E-04
  -10.0500002       1.55916467E-04
  -10.0400000       1.14210634E-04
  -10.0299997       6.57475975E-05
  -10.0200005       1.41448236E-05
  -10.0100002      -3.48838039E-05
  -10.0000000      -7.44312783E-05
  -9.98999977      -9.80237965E-05
  -9.97999954      -1.01565078E-04
  -9.97000027      -8.50239157E-05
  -9.96000004      -5.32816048E-05
  -9.94999981      -1.57275881E-05
  -9.93999958       1.54897789E-05
  -9.93000031       2.82665478E-05
  -9.92000008       1.37664429E-05
  -9.90999985      -3.07673909E-05
  -9.89999962      -1.00424892E-04
  -9.89000034      -1.82829273E-04
  -9.88000011      -2.60260393E-04
  -9.86999989      -3.13334574E-04
  -9.85999966      -3.25433008E-04
  -9.85000038      -2.86815048E-04
  -9.84000015      -1.97366520E-04
  -9.82999992      -6.72245078E-05
  -9.81999969       8.49714415E-05
  -9.81000042       2.35858257E-04
  -9.80000019       3.62289400E-04
  -9.78999996       4.46254999E-04
  -9.77999973       4.78590198E-04
  -9.77000046       4.60580835E-04
  -9.76000023       4.03110083E-04
  -9.75000000       3.23618209E-04
  -9.73999977       2.41697839E-04
  -9.72999954       1.74475848E-04
  -9.72000027       1.32947433E-04
  -9.71000004       1.20133867E-04
  -9.69999981       1.31415261E-04
  -9.68999958       1.56794573E-04
  -9.68000031       1.84343618E-04
  -9.67000008       2.03804622E-04
  -9.65999985       2.09341495E-04
  -9.64999962       2.00736336E-04
  -9.64000034       1.82810618E-04
  -9.63000011       1.63372068E-04
  -9.61999989       1.50394801E-04
  -9.60999966       1.49319618E-04
  -9.60000038       1.61273609E-04
  -9.59000015       1.82691263E-04
  -9.57999992       2.06379147E-04
  -9.56999969       2.23639639E-04
  -9.56000042       2.26781311E-04
  -9.55000019       2.11271836E-04
  -9.53999996       1.76941510E-04
  -9.52999973       1.27961306E-04
  -9.52000046       7.16936192E-05
  -9.51000023       1.68281022E-05
  -9.50000000      -2.86199665E-05
  -9.48999977      -5.88950388E-05
  -9.47999954      -7.13043410E-05
  -9.47000027      -6.61519662E-05
  -9.46000004      -4.59900766E-05
  -9.44999981      -1.45535796E-05
  -9.43999958       2.42188344E-05
  -9.43000031       6.67801505E-05
  -9.42000008       1.10088433E-04
  -9.40999985       1.51352695E-04
  -9.39999962       1.87674639E-04
  -9.39000034       2.15882159E-04
  -9.38000011       2.32758830E-04
  -9.36999989       2.35692904E-04
  -9.35999966       2.23568670E-04
  -9.35000038       1.97578527E-04
  -9.34000015       1.61602627E-04
  -9.32999992       1.21901299E-04
  -9.31999969       8.60680302E-05
  -9.31000042       6.14321980E-05
  -9.30000019       5.33025559E-05
  -9.28999996       6.35353208E-05
  -9.27999973       8.98582075E-05
  -9.27000046       1.26194616E-04
  -9.26000023       1.63960678E-04
  -9.25000000       1.94033550E-04
  -9.23999977       2.08894562E-04
  -9.22999954       2.04392170E-04
  -9.22000027       1.80668911E-04
  -9.21000004       1.42022938E-04
  -9.19999981       9.57655720E-05
  -9.18999958       5.04036689E-05
  -9.18000031       1.36460058E-05
  -9.17000008      -9.24115830E-06
  -9.15999985      -1.63268596E-05
  -9.14999962      -8.98472535E-06
  -9.14000034       8.96464553E-06
  -9.13000011       3.26154222E-05
  -9.11999989       5.74007317E-05
  -9.10999966       8.01570714E-05
  -9.10000038       9.95525988E-05
  -9.09000015       1.15825671E-04
  -9.07999992       1.30007815E-04
  -9.06999969       1.42967590E-04
  -9.06000042       1.54656213E-04
  -9.05000019       1.63851160E-04
  -9.03999996       1.68509636E-04
  -9.02999973       1.66620230E-04
  -9.02000046       1.57250935E-04
  -9.01000023       1.41401470E-04
  -9.00000000       1.22307261E-04
  -8.98999977       1.05006693E-04
  -8.97999954       9.52209666E-05
  -8.97000027       9.78340613E-05
  -8.96000004       1.15418508E-04
  -8.94999981       1.47277096E-04
  -8.93999958       1.89345665E-04
  -8.93000031       2.35055923E-04
  -8.92000008       2.76965176E-04
  -8.90999985       3.08709336E-04
  -8.89999962       3.26708512E-04
  -8.89000034       3.31099407E-04
  -8.88000011       3.25579807E-04
  -8.86999989       3.16170277E-04
  -8.85999966       3.09234078E-04
  -8.85000038       3.09344148E-04
  -8.84000015       3.17662110E-04
  -8.82999992       3.31368065E-04
  -8.81999969       3.44380009E-04
  -8.81000042       3.49210837E-04
  -8.80000019       3.39448685E-04
  -8.78999996       3.12124379E-04
  -8.77999973       2.69220996E-04
  -8.77000046       2.17802357E-04
  -8.76000023       1.68627681E-04
  -8.75000000       1.33568625E-04
  -8.73999977       1.22515135E-04
  -8.72999954       1.40636228E-04
  -8.72000027       1.86790654E-04
  -8.71000004       2.53571256E-04
  -8.69999981       3.29006172E-04
  -8.68999958       3.99464421E-04
  -8.68000031       4.52965702E-04
  -8.67000008       4.81977477E-04
  -8.65999985       4.84937045E-04
  -8.64999962       4.66113881E-04
  -8.64000034       4.33914043E-04
  -8.63000011       3.98180331E-04
  -8.61999989       3.67318658E-04
  -8.60999966       3.46103770E-04
  -8.60000038       3.34780081E-04
  -8.59000015       3.29656817E-04
  -8.57999992       3.24928493E-04
  -8.56999969       3.15080688E-04
  -8.56000042       2.97080580E-04
  -8.55000019       2.71644822E-04
  -8.53999996       2.43192684E-04
  -8.52999973       2.18523812E-04
  -8.52000046       2.04668118E-04
  -8.51000023       2.06612531E-04
  -8.50000000       2.25634489E-04
  -8.48999977       2.58769112E-04
  -8.47999954       2.99566949E-04
  -8.47000027       3.39891587E-04
  -8.46000004       3.72186681E-04
  -8.44999981       3.91512469E-04
  -8.43999958       3.96745629E-04
  -8.43000031       3.90616013E-04
  -8.42000008       3.78624332E-04
  -8.40999985       3.67226079E-04
  -8.39999962       3.61871731E-04
  -8.39000034       3.65501270E-04
  -8.38000011       3.77912220E-04
  -8.36999989       3.96121119E-04
  -8.35999966       4.15520190E-04
  -8.35000038       4.31400491E-04
  -8.34000015       4.40334057E-04
  -8.32999992       4.40999953E-04
  -8.31999969       4.34257789E-04
  -8.31000042       4.22538142E-04
  -8.30000019       4.08837455E-04
  -8.28999996       3.95707058E-04
  -8.27999973       3.84586921E-04
  -8.27000046       3.75676958E-04
  -8.26000023       3.68324399E-04
  -8.25000000       3.61716578E-04
  -8.23999977       3.55568220E-04
  -8.22999954       3.50514165E-04
  -8.22000027       3.48046335E-04
  -8.21000004       3.50017246E-04
  -8.19999981       3.57904704E-04
  -8.18999958       3.72127601E-04
  -8.18000031       3.91689857E-04
  -8.17000008       4.14312090E-04
  -8.15999985       4.37033275E-04
  -8.14999962       4.57090617E-04
  -8.14000034       4.72775806E-04
  -8.13000011       4.83962154E-04
  -8.11999989       4.92099440E-04
  -8.10999966       4.99649032E-04
  -8.10000038       5.09125704E-04
  -8.09000015       5.22055198E-04
  -8.07999992       5.38199383E-04
  -8.06999969       5.55333449E-04
  -8.06000042       5.69694326E-04
  -8.05000019       5.77010447E-04
  -8.03999996       5.73834521E-04
  -8.02999973       5.58789412E-04
  -8.02000046       5.33344282E-04
  -8.01000023       5.01854694E-04
  -8.00000000       4.70808591E-04
  -7.98999977       4.47438448E-04
  -7.98000002       4.38049581E-04
  -7.96999979       4.46500810E-04
  -7.96000004       4.73241322E-04
  -7.94999981       5.15163701E-04
  -7.94000006       5.66309434E-04
  -7.92999983       6.19237893E-04
  -7.92000008       6.66690874E-04
  -7.90999985       7.03111582E-04
  -7.90000010       7.25632301E-04
  -7.88999987       7.34297326E-04
  -7.88000011       7.31518085E-04
  -7.86999989       7.20971613E-04
  -7.86000013       7.06307183E-04
  -7.84999990       6.90067885E-04
  -7.84000015       6.73146511E-04
  -7.82999992       6.54922042E-04
  -7.82000017       6.33994176E-04
  -7.80999994       6.09243463E-04
  -7.80000019       5.80836670E-04
  -7.78999996       5.50813216E-04
  -7.78000021       5.23023948E-04
  -7.76999998       5.02405630E-04
  -7.76000023       4.93791478E-04
  -7.75000000       5.00614580E-04
  -7.73999977       5.23906143E-04
  -7.73000002       5.61904686E-04
  -7.71999979       6.10399817E-04
  -7.71000004       6.63710118E-04
  -7.69999981       7.15994742E-04
  -7.69000006       7.62502430E-04
  -7.67999983       8.00394046E-04
  -7.67000008       8.28923949E-04
  -7.65999985       8.48982425E-04
  -7.65000010       8.62213899E-04
  -7.63999987       8.70061864E-04
  -7.63000011       8.73100420E-04
  -7.61999989       8.70898075E-04
  -7.61000013       8.62464483E-04
  -7.59999990       8.47107731E-04
  -7.59000015       8.25373514E-04
  -7.57999992       7.99686648E-04
  -7.57000017       7.74401240E-04
  -7.55999994       7.55151093E-04
  -7.55000019       7.47621583E-04
  -7.53999996       7.56063615E-04
  -7.53000021       7.81972252E-04
  -7.51999998       8.23334034E-04
  -7.51000023       8.74695659E-04
  -7.50000000       9.28089197E-04
  -7.48999977       9.74618946E-04
  -7.48000002       1.00633095E-03
  -7.46999979       1.01792102E-03
  -7.46000004       1.00787601E-03
  -7.44999981       9.78787430E-04
  -7.44000006       9.36781347E-04