  -16.0000000       0.00000000    
  -15.9899998       0.00000000    
  -15.9799995       0.00000000    
  -15.9700003       0.00000000    
  -15.9600000       0.00000000    
  -15.9499998       0.00000000    
  -15.9399996       0.00000000    
  -15.9300003       0.00000000    
  -15.9200001       0.00000000    
  -15.9099998       0.00000000    
  -15.8999996       0.00000000    
  -15.8900003       2.41722584E-40
  -15.8800001       1.14851361E-38
  -15.8699999       2.36605075E-37
  -15.8599997       2.99716442E-36
  -15.8500004       2.71136209E-35
  -15.8400002       1.90220344E-34
  -15.8299999       1.08954248E-33
  -15.8199997       5.27411328E-33
  -15.8100004       2.21078969E-32
  -15.8000002       8.16810000E-32
  -15.7900000       2.69487769E-31
  -15.7799997       8.01638811E-31
  -15.7700005       2.16489215E-30
  -15.7600002       5.33203824E-30
  -15.7500000       1.20049285E-29
  -15.7399998       2.47044977E-29
  -15.7299995       4.63129818E-29
  -15.7200003       7.84469063E-29
  -15.7100000       1.18005592E-28
  -15.6999998       1.51755395E-28
  -15.6899996       1.50268842E-28
  -15.6800003       6.50455755E-29
  -15.6700001      -1.64491991E-28
  -15.6599998      -5.86158319E-28
  -15.6499996      -1.18776433E-27
  -15.6400003      -1.83406174E-27
  -15.6300001      -2.21364481E-27
  -15.6199999      -1.84313942E-27
  -15.6099997      -1.86241001E-28
  -15.6000004       3.07520476E-27
  -15.5900002       7.64758123E-27
  -15.5799999       1.22487149E-26
  -15.5699997       1.45032124E-26
  -15.5600004       1.14123005E-26
  -15.5500002       5.86622035E-28
  -15.5400000      -1.79038115E-26
  -15.5299997      -3.97223482E-26
  -15.5200005      -5.56607621E-26
  -15.5100002      -5.35436997E-26
  -15.5000000      -2.33722754E-26
  -15.4899998       3.50596318E-26
  -15.4799995       1.05017046E-25
  -15.4700003       1.51086992E-25
  -15.4600000       1.28233482E-25
  -15.4499998       4.38946320E-27
  -15.4399996      -2.07185590E-25
  -15.4300003      -4.19034186E-25
  -15.4200001      -4.66339808E-25
  -15.4099998      -1.54096496E-25
  -15.3999996       6.32168034E-25
  -15.3900003       1.76902452E-24
  -15.3800001       2.75441001E-24
  -15.3699999       2.69411816E-24
  -15.3599997       5.44048622E-25
  -15.3500004      -4.31423414E-24
  -15.3400002      -1.12381558E-23
  -15.3299999      -1.75466836E-23
  -15.3199997      -1.83783797E-23
  -15.3100004      -7.87580584E-24
  -15.3000002       1.78610920E-23
  -15.2900000       5.63884275E-23
  -15.2799997       9.47013948E-23
  -15.2700005       1.08130805E-22
  -15.2600002       6.58692545E-23
  -15.2500000      -5.46240297E-23
  -15.2399998      -2.45966956E-22
  -15.2299995      -4.49731293E-22
  -15.2200003      -5.49942225E-22
  -15.2100000      -3.97700174E-22
  -15.1999998       1.22870059E-22
  -15.1899996       9.95187740E-22
  -15.1800003       1.97278477E-21
  -15.1700001       2.54648258E-21
  -15.1599998       2.04772781E-21
  -15.1499996      -6.93446285E-23
  -15.1400003      -3.80222656E-21
  -15.1300001      -8.18055453E-21
  -15.1199999      -1.11110551E-20
  -15.1099997      -9.77621340E-21
  -15.1000004      -1.75510803E-21
  -15.0900002       1.32732406E-20
  -15.0799999       3.18260455E-20
  -15.0699997       4.59017838E-20
  -15.0600004       4.43519640E-20
  -15.0500002       1.69843913E-20
  -15.0400000      -3.90826684E-20
  -15.0299997      -1.12884601E-19
  -15.0200005      -1.76408324E-19
  -15.0100002      -1.88636639E-19
  -15.0000000      -1.09226046E-19
  -14.9899998       7.95724808E-20
  -14.9799995       3.49446431E-19
  -14.9700003       6.12541357E-19
  -14.9600000       7.30970563E-19
  -14.9499998       5.57707916E-19
  -14.9399996       5.60962993E-21
  -14.9300003      -8.75070338E-19
  -14.9200001      -1.84535640E-18
  -14.9099998      -2.49219923E-18
  -14.8999996      -2.33621096E-18
  -14.8900003      -1.02658439E-18
  -14.8800001       1.42913576E-18
  -14.8699999       4.49538583E-18
  -14.8599997       7.10903917E-18
  -14.8500004       7.92677420E-18
  -14.8400002       5.80917198E-18
  -14.8299999       4.11084311E-19
  -14.8199997      -7.35904541E-18
  -14.8100004      -1.52799814E-17
  -14.8000002      -2.03353834E-17
  -14.7900000      -1.97634757E-17
  -14.7799997      -1.23050842E-17
  -14.7700005       9.10390639E-19
  -14.7600002       1.64155101E-17
  -14.7500000       2.96616545E-17
  -14.7399998       3.71560565E-17
  -14.7299995       3.84746684E-17
  -14.7200003       3.67527695E-17
  -14.7100000       3.65280775E-17
  -14.6999998       3.89714433E-17
  -14.6899996       3.63695864E-17
  -14.6800003       9.51655826E-18
  -14.6700001      -6.77039787E-17
  -14.6599998      -2.13907358E-16
  -14.6499996      -4.17729624E-16
  -14.6400003      -6.15377007E-16
  -14.6300001      -6.82195624E-16
  -14.6199999      -4.54100769E-16
  -14.6099997       2.11059104E-16
  -14.6000004       1.33720064E-15
  -14.5900002       2.72589623E-15
  -14.5799999       3.89368425E-15
  -14.5699997       4.11075254E-15
  -14.5600004       2.58827752E-15
  -14.5500002      -1.18197953E-15
  -14.5400000      -7.00336539E-15
  -14.5299997      -1.36133128E-14
  -14.5200005      -1.85909349E-14
  -14.5100002      -1.87334821E-14
  -14.5000000      -1.10028894E-14
  -14.4899998       6.05385078E-15
  -14.4799995       3.07677942E-14
  -14.4700003       5.72939794E-14
  -14.4600000       7.57480355E-14
  -14.4499998       7.41048187E-14
  -14.4399996       4.19840418E-14
  -14.4300003      -2.42698572E-14
  -14.4200001      -1.16631165E-13
  -14.4099998      -2.12616938E-13
  -14.3999996      -2.76864089E-13
  -14.3900003      -2.68534788E-13
  -14.3800001      -1.54421547E-13
  -14.3699999       7.46564743E-14
  -14.3599997       3.88937688E-13
  -14.3500004       7.12637089E-13
  -14.3400002       9.30897612E-13
  -14.3299999       9.14420666E-13
  -14.3199997       5.60401335E-13
  -14.3100004      -1.58199219E-13
  -14.3000002      -1.14945434E-12
  -14.2900000      -2.18356127E-12
  -14.2799997      -2.91518849E-12
  -14.2700005      -2.95623443E-12
  -14.2600002      -1.99392369E-12
  -14.2500000       6.88357520E-14
  -14.2399998       2.99086819E-12
  -14.2299995       6.13745426E-12
  -14.2200003       8.53784491E-12
  -14.2100000       9.07991217E-12
  -14.1999998       6.82874026E-12
  -14.1899996       1.40906937E-12
  -14.1800003      -6.65250884E-12
  -14.1700001      -1.57547586E-11
  -14.1599998      -2.33386852E-11
  -14.1499996      -2.63623776E-11
  -14.1400003      -2.21089275E-11
  -14.1300001      -9.18483518E-12
  -14.1199999       1.15464921E-11
  -14.1099997       3.64203008E-11
  -14.1000004       5.91269048E-11
  -14.0900002       7.17642196E-11
  -14.0799999       6.67626371E-11
  -14.0699997       3.93725781E-11
  -14.0600004      -9.87629249E-12
  -14.0500002      -7.35250472E-11
  -14.0400000      -1.37130432E-10
  -14.0299997      -1.81350157E-10
  -14.0200005      -1.86226159E-10
  -14.0100002      -1.37060890E-10
  -14.0000000      -3.05955435E-11
  -13.9899998       1.20301574E-10
  -13.9799995       2.85334811E-10
  -13.9700003       4.20323248E-10
  -13.9600000       4.76012063E-10
  -13.9499998       4.11115392E-10
  -13.9399996       2.06961268E-10
  -13.9300003      -1.20154706E-10
  -13.9200001      -5.13259879E-10
  -13.9099998      -8.79275985E-10
  -13.8999996      -1.10549314E-09
  -13.8900003      -1.08650267E-09
  -13.8800001      -7.56648300E-10
  -13.8699999      -1.20063334E-10
  -13.8599997       7.31098404E-10
  -13.8500004       1.61871816E-09
  -13.8400002       2.30589170E-09
  -13.8299999       2.54804733E-09
  -13.8199997       2.15960494E-09
  -13.8100004       1.08116616E-09
  -13.8000002      -5.71708514E-10
  -13.7900000      -2.49649723E-09
  -13.7799997      -4.24088320E-09
  -13.7700005      -5.29050537E-09
  -13.7600002      -5.19479926E-09
  -13.7500000      -3.70480313E-09
  -13.7399998      -8.87489693E-10
  -13.7299995       2.82020096E-09
  -13.7200003       6.64586963E-09
  -13.7100000       9.61451097E-09
  -13.6999998       1.07645839E-08
  -13.6899996       9.40607414E-09
  -13.6800003       5.35942224E-09
  -13.6700001      -8.92876273E-10
  -13.6599998      -8.20006463E-09
  -13.6499996      -1.49122101E-08
  -13.6400003      -1.92129885E-08
  -13.6300001      -1.95585130E-08
  -13.6199999      -1.51255897E-08
  -13.6099997      -6.15302742E-09
  -13.6000004       5.93234928E-09
  -13.5900002       1.86749229E-08
  -13.5799999       2.90411677E-08
  -13.5699997       3.40928317E-08
  -13.5600004       3.17436601E-08
  -13.5500002       2.14170814E-08
  -13.5400000       4.42003634E-09
  -13.5299997      -1.61058100E-08
  -13.5200005      -3.57047796E-08
  -13.5100002      -4.95338206E-08
  -13.5000000      -5.35144586E-08
  -13.4899998      -4.54461819E-08
  -13.4799995      -2.57916355E-08
  -13.4700003       2.10955742E-09
  -13.4600000       3.25255094E-08
  -13.4499998       5.84778945E-08
  -13.4399996       7.33359613E-08
  -13.4300003       7.25035108E-08
  -13.4200001       5.47766241E-08
  -13.4099998       2.29855885E-08
  -13.3999996      -1.63246980E-08
  -13.3900003      -5.41984733E-08
  -13.3800001      -8.13246288E-08
  -13.3699999      -9.03871822E-08
  -13.3599997      -7.81246783E-08
  -13.3500004      -4.65235921E-08
  -13.3400002      -2.73682743E-09
  -13.3299999       4.23862154E-08
  -13.3199997       7.69103679E-08
  -13.3100004       9.09810396E-08
  -13.3000002       7.97412909E-08
  -13.2900000       4.51673294E-08
  -13.2799997      -3.81301790E-09
  -13.2700005      -5.31580540E-08
  -13.2600002      -8.72324648E-08
  -13.2500000      -9.32314848E-08
  -13.2399998      -6.53741736E-08
  -13.2299995      -7.64079733E-09
  -13.2200003       6.59332500E-08
  -13.2100000       1.33849184E-07
  -13.1999998       1.72319119E-07
  -13.1899996       1.61950950E-07
  -13.1800003       9.42874934E-08
  -13.1700001      -2.36687789E-08
  -13.1599998      -1.68542925E-07
  -13.1499996      -3.04133948E-07
  -13.1400003      -3.89172442E-07
  -13.1300001      -3.87851657E-07
  -13.1199999      -2.80714033E-07
  -13.1099997      -7.30050331E-08
  -13.1000004       2.02161800E-07
  -13.0900002       4.87503826E-07
  -13.0799999       7.12244287E-07
  -13.0699997       8.08052789E-07
  -13.0600004       7.26914436E-07
  -13.0500002       4.56607552E-07
  -13.0400000       2.94752756E-08
  -13.0299997      -4.78700144E-07
  -13.0200005      -9.60816010E-07
  -13.0100002      -1.30001570E-06
  -13.0000000      -1.39657186E-06
  -12.9899998      -1.19410288E-06
  -12.9799995      -6.98574695E-07
  -12.9700003       1.54359423E-08
  -12.9600000       8.14221210E-07
  -12.9499998       1.52961161E-06
  -12.9399996       1.99448300E-06
  -12.9300003       2.08163465E-06
  -12.9200001       1.73700107E-06
  -12.9099998       9.98658948E-07
  -12.8999996      -4.22198410E-09
  -12.8900003      -1.07397886E-06
  -12.8800001      -1.98496286E-06
  -12.8699999      -2.53363328E-06
  -12.8599997      -2.58689920E-06
  -12.8500004      -2.11690667E-06
  -12.8400002      -1.21289372E-06
  -12.8299999      -6.56784209E-08
  -12.8199997       1.07322637E-06
  -12.8100004       1.94946392E-06
  -12.8000002       2.36744677E-06
  -12.7900000       2.24067253E-06
  -12.7799997       1.61747789E-06
  -12.7700005       6.74205864E-07
  -12.7600002      -3.24598147E-07
  -12.7500000      -1.09106406E-06
  -12.7399998      -1.38917983E-06
  -12.7299995      -1.10185351E-06
  -12.7200003      -2.72176919E-07
  -12.7100000       8.93548645E-07
  -12.6999998       2.06473169E-06
  -12.6899996       2.86079671E-06
  -12.6800003       2.94501660E-06
  -12.6700001       2.11603333E-06
  -12.6599998       3.74343784E-07
  -12.6499996      -2.05432184E-06
  -12.6400003      -4.74737499E-06
  -12.6300001      -7.16208842E-06
  -12.6199999      -8.74537909E-06
  -12.6099997      -9.05274646E-06
  -12.6000004      -7.84920303E-06
  -12.5900002      -5.16838554E-06
  -12.5799999      -1.31525678E-06
  -12.5699997       3.18909497E-06
  -12.5600004       7.70825955E-06
  -12.5500002       1.16135561E-05
  -12.5400000       1.44004898E-05
  -12.5299997       1.57714003E-05
  -12.5200005       1.56655915E-05
  -12.5100002       1.42315375E-05
  -12.5000000       1.17506816E-05
  -12.4899998       8.53491474E-06
  -12.4799995       4.82685027E-06
  -12.4700003       7.31521823E-07
  -12.4600000      -3.80002598E-06
  -12.4499998      -8.92859953E-06
  -12.4399996      -1.48356212E-05
  -12.4300003      -2.16064927E-05
  -12.4200001      -2.91208744E-05
  -12.4099998      -3.69827685E-05
  -12.3999996      -4.45152873E-05
  -12.3900003      -5.08302473E-05
  -12.3800001      -5.49645156E-05
  -12.3699999      -5.60577282E-05
  -12.3599997      -5.35342660E-05
  -12.3500004      -4.72485008E-05
  -12.3400002      -3.75583404E-05
  -12.3299999      -2.53062426E-05
  -12.3199997      -1.17063000E-05
  -12.3100004       1.84350449E-06
  -12.3000002       1.39881913E-05
  -12.2900000       2.36368833E-05
  -12.2799997       3.01336222E-05
  -12.2700005       3.33434546E-05
  -12.2600002       3.36368430E-05
  -12.2500000       3.17766862E-05
  -12.2399998       2.87325965E-05
  -12.2299995       2.54622519E-05
  -12.2200003       2.27063501E-05
  -12.2100000       2.08407000E-05
  -12.1999998       1.98165035E-05
  -12.1899996       1.92009938E-05
  -12.1800003       1.83088050E-05
  -12.1700001       1.63945824E-05
  -12.1599998       1.28635311E-05
  -12.1499996       7.45183661E-06
  -12.1400003       3.34617482E-07
  -12.1300001      -7.86591954E-06
  -12.1199999      -1.61778025E-05
  -12.1099997      -2.34641375E-05
  -12.1000004      -2.86568611E-05
  -12.0900002      -3.09880270E-05
  -12.0799999      -3.01654309E-05
  -12.0699997      -2.64498649E-05
  -12.0600004      -2.06119512E-05
  -12.0500002      -1.37737470E-05
  -12.0400000      -7.16763043E-06
  -12.0299997      -1.86617774E-06
  -12.0200005       1.45364993E-06
  -12.0100002       2.65400308E-06
  -12.0000000       2.14902684E-06
  -11.9899998       7.79272284E-07
  -11.9799995      -4.26003879E-07
  -11.9700003      -5.42588907E-07
  -11.9600000       9.72347493E-07
  -11.9499998       4.09457562E-06
  -11.9399996       8.19203160E-06
  -11.9300003       1.21489857E-05
  -11.9200001       1.46336488E-05
  -11.9099998       1.44488831E-05
  -11.8999996       1.08800259E-05
  -11.8900003       3.94869585E-06
  -11.8800001      -5.50036475E-06
  -11.8699999      -1.59142619E-05
  -11.8599997      -2.53341368E-05
  -11.8500004      -3.18213933E-05
  -11.8400002      -3.39095641E-05
  -11.8299999      -3.09717652E-05
  -11.8199997      -2.34089548E-05
  -11.8100004      -1.26048180E-05
  -11.8000002      -6.48555840E-07
  -11.7900000       1.01155520E-05
  -11.7799997       1.76085723E-05
  -11.7700005       2.04842781E-05
  -11.7600002       1.84309265E-05
  -11.7500000       1.22339570E-05
  -11.7399998       3.58394368E-06
  -11.7299995      -5.32377680E-06
  -11.7200003      -1.23005721E-05
  -11.7100000      -1.56636615E-05
  -11.6999998      -1.46044322E-05
  -11.6899996      -9.34199397E-06
  -11.6800003      -1.03306570E-06
  -11.6700001       8.52973153E-06
  -11.6599998       1.73482640E-05
  -11.6499996       2.36671367E-05
  -11.6400003       2.63308793E-05
  -11.6300001       2.49711393E-05
  -11.6199999       1.99941042E-05
  -11.6099997       1.23924810E-05
  -11.6000004       3.45041940E-06
  -11.5900002      -5.56804480E-06
  -11.5799999      -1.36613380E-05
  -11.5699997      -2.02071951E-05
  -11.5600004      -2.49418263E-05
  -11.5500002      -2.78342923E-05
  -11.5400000      -2.89210948E-05
  -11.5299997      -2.81754728E-05
  -11.5200005      -2.54699935E-05
  -11.5100002      -2.06546065E-05
  -11.5000000      -1.37273319E-05
  -11.4899998      -5.03514048E-06
  -11.4799995       4.57800343E-06
  -11.4700003       1.37528605E-05
  -11.4600000       2.07705307E-05
  -11.4499998       2.38748689E-05
  -11.4399996       2.16992103E-05
  -11.4300003       1.36920662E-05
  -11.4200001       4.19884884E-07
  -11.4099998      -1.63579589E-05
  -11.3999996      -3.38979335E-05
  -11.3900003      -4.89513768E-05
  -11.3800001      -5.84274239E-05
  -11.3699999      -6.00969324E-05
  -11.3599997      -5.31701771E-05
  -11.3500004      -3.85979874E-05
  -11.3400002      -1.90017963E-05
  -11.3299999       1.77878997E-06
  -11.3199997       1.94415843E-05
  -11.3100004       3.01250020E-05
  -11.3000002       3.12610027E-05
  -11.2900000       2.21830906E-05
  -11.2799997       4.34390631E-06
  -11.2700005      -1.89183520E-05
  -11.2600002      -4.30245054E-05
  -11.2500000      -6.30762806E-05
  -11.2399998      -7.48579332E-05
  -11.2299995      -7.57006273E-05
  -11.2200003      -6.50227739E-05
  -11.2100000      -4.44320031E-05
  -11.1999998      -1.73725748E-05
  -11.1899996       1.15974117E-05
  -11.1800003       3.77342767E-05
  -11.1700001       5.70367047E-05
  -11.1599998       6.69739820E-05
  -11.1499996       6.68667926E-05
  -11.1400003       5.78567124E-05
  -11.1300001       4.24960526E-05
  -11.1199999       2.40745485E-05
  -11.1099997       5.85282714E-06
  -11.1000004      -9.61551268E-06
  -11.0900002      -2.09239297E-05
  -11.0799999      -2.79320921E-05
  -11.0699997      -3.15642865E-05
  -11.0600004      -3.33658645E-05
  -11.0500002      -3.49512375E-05
  -11.0400000      -3.74951524E-05
  -11.0299997      -4.13974922E-05
  -11.0200005      -4.61982054E-05
  -11.0100002      -5.07483746E-05
  -11.0000000      -5.35750296E-05
  -10.9899998      -5.33292005E-05
  -10.9799995      -4.91903920E-05
  -10.9700003      -4.11191504E-05
  -10.9600000      -2.98955965E-05
  -10.9499998      -1.69420946E-05
  -10.9399996      -3.98546126E-06
  -10.9300003       7.34693458E-06
  -10.9200001       1.58912608E-05
  -10.9099998       2.11824390E-05
  -10.8999996       2.35096795E-05
  -10.8900003       2.37891654E-05
  -10.8800001       2.32940256E-05
  -10.8699999       2.33103310E-05
  -10.8599997       2.47966982E-05
  -10.8500004       2.81156390E-05
  -10.8400002       3.28836177E-05
  -10.8299999       3.79621088E-05
  -10.8199997       4.15904906E-05
  -10.8100004       4.16463336E-05
  -10.8000002       3.60080521E-05
  -10.7900000       2.29846592E-05
  -10.7799997       1.76355729E-06
  -10.7700005      -2.71904919E-05
  -10.7600002      -6.18691556E-05
  -10.7500000      -9.86782979E-05
  -10.7399998      -1.32697067E-04
  -10.7299995      -1.58274124E-04
  -10.7200003      -1.69926992E-04
  -10.7100000      -1.63425808E-04
  -10.6999998      -1.36862276E-04
  -10.6899996      -9.14567281E-05
  -10.6800003      -3.18621424E-05
  -10.6700001       3.42030617E-05
  -10.6599998       9.70288529E-05
  -10.6499996       1.46562161E-04
  -10.6400003       1.74337067E-04
  -10.6300001       1.75283101E-04
  -10.6199999       1.48986801E-04
  -10.6099997       1.00065488E-04
  -10.6000004       3.74908850E-05
  -10.5900002      -2.70632809E-05
  -10.5799999      -8.15387830E-05
  -10.5699997      -1.15988558E-04
  -10.5600004      -1.24697093E-04
  -10.5500002      -1.07437270E-04
  -10.5400000      -6.95610725E-05
  -10.5299997      -2.08839101E-05
  -10.5200005       2.64029750E-05
  -10.5100002       6.03377630E-05
  -10.5000000       7.17446455E-05
  -10.4899998       5.61965971E-05
  -10.4799995       1.49828074E-05
  -10.4700003      -4.50943953E-05
  -10.4600000      -1.13016155E-04
  -10.4499998      -1.75643188E-04
  -10.4399996      -2.20179150E-04
  -10.4300003      -2.36532142E-04
  -10.4200001      -2.19161884E-04
  -10.4099998      -1.68126251E-04
  -10.3999996      -8.91969539E-05
  -10.3900003       6.93244192E-06
  -10.3800001       1.06197753E-04
  -10.3699999       1.93239059E-04
  -10.3599997       2.53711507E-04
  -10.3500004       2.76522303E-04
  -10.3400002       2.55685562E-04
  -10.3299999       1.91514991E-04
  -10.3199997       9.09341834E-05
  -10.3100004      -3.32143645E-05
  -10.3000002      -1.63840130E-04
  -10.2900000      -2.82067165E-04
  -10.2799997      -3.70136899E-04
  -10.2700005      -4.14277980E-04
  -10.2600002      -4.07030340E-04
  -10.2500000      -3.48574627E-04
  -10.2399998      -2.46788870E-04
  -10.2299995      -1.15996787E-04
  -10.2200003       2.53631497E-05
  -10.2100000       1.57698902E-04
  -10.1999998       2.63289548E-04
  -10.1899996       3.28819297E-04
  -10.1800003       3.47005902E-04
  -10.1700001       3.17135302E-04
  -10.1599998       2.44559982E-04
  -10.1499996       1.39420154E-04
  -10.1400003       1.49514162E-05
  -10.1300001      -1.14267277E-04
  -10.1199999      -2.33873550E-04
  -10.1099997      -3.30984360E-04
  -10.1000004      -3.95185984E-04
  -10.0900002      -4.19340737E-04
  -10.0799999      -4.00277699E-04
  -10.0699997      -3.39346181E-04
  -10.0600004      -2.42697875E-04
  -10.0500002      -1.21090314E-04
  -10.0400000       1.09850316E-05
  -10.0299997       1.36930466E-04
  -10.0200005       2.40310328E-04
  -10.0100002       3.07426002E-04
  -10.0000000       3.29698698E-04
  -9.98999977       3.05314752E-04
  -9.97999954       2.39696106E-04
  -9.97000027       1.44601232E-04
  -9.96000004       3.59846090E-05
  -9.94999981      -6.89514345E-05
  -9.93999958      -1.54874098E-04
  -9.93000031      -2.10929953E-04
  -9.92000008      -2.32310194E-04
  -9.90999985      -2.20510075E-04
  -9.89999962      -1.82351228E-04
  -9.89000034      -1.28123036E-04
  -9.88000011      -6.93654656E-05
  -9.86999989      -1.68214574E-05
  -9.85999966       2.10518410E-05
  -9.85000038       3.88488224E-05
  -9.84000015       3.43226056E-05
  -9.82999992       8.05613035E-06
  -9.81999969      -3.70369744E-05
  -9.81000042      -9.61836486E-05
  -9.80000019      -1.63131510E-04
  -9.78999996      -2.30510181E-04
  -9.77999973      -2.90320051E-04
  -9.77000046      -3.34673154E-04
  -9.76000023      -3.56800738E-04
  -9.75000000      -3.52191710E-04
  -9.73999977      -3.19598737E-04
  -9.72999954      -2.61605339E-04
  -9.72000027      -1.84516932E-04
  -9.71000004      -9.75053699E-05
  -9.69999981      -1.11485133E-05
  -9.68999958       6.43120802E-05
  -9.68000031       1.20585821E-04
  -9.67000008       1.52454231E-04
  -9.65999985       1.58191469E-04
  -9.64999962       1.39296782E-04
  -9.64000034       9.97512980E-05
  -9.63000011       4.51215237E-05
  -9.61999989      -1.81881642E-05
  -9.60999966      -8.33678205E-05
  -9.60000038      -1.43350189E-04
  -9.59000015      -1.90880426E-04
  -9.57999992      -2.18788526E-04
  -9.56999969      -2.20684626E-04
  -9.56000042      -1.92111867E-04
  -9.55000019      -1.31949768E-04
  -9.53999996      -4.36542759E-05
  -9.52999973       6.41591978E-05
  -9.52000046       1.78189468E-04
  -9.51000023       2.82122783E-04
  -9.50000000       3.59300408E-04
  -9.48999977       3.95847397E-04
  -9.47999954       3.83531937E-04
  -9.47000027       3.21633357E-04
  -9.46000004       2.17317094E-04
  -9.44999981       8.43913076E-05
  -9.43999958      -5.92655742E-05
  -9.43000031      -1.94984153E-04
  -9.42000008      -3.06518079E-04
  -9.40999985      -3.82490864E-04
  -9.39999962      -4.17631381E-04
  -9.39000034      -4.12708963E-04
  -9.38000011      -3.73415794E-04
  -9.36999989      -3.08660587E-04
  -9.35999966      -2.28783683E-04
  -9.35000038      -1.44085745E-04
  -9.34000015      -6.38479396E-05
  -9.32999992       4.19757043E-06
  -9.31999969       5.41297013E-05
  -9.31000042       8.20356363E-05
  -9.30000019       8.62530287E-05
  -9.28999996       6.76190757E-05
  -9.27999973       2.95627633E-05
  -9.27000046      -2.21620758E-05
  -9.26000023      -8.02277209E-05
  -9.25000000      -1.36925155E-04
  -9.23999977      -1.85563666E-04
  -9.22999954      -2.21708629E-04
  -9.22000027      -2.43876202E-04
  -9.21000004      -2.53434497E-04
  -9.19999981      -2.53698963E-04
  -9.18999958      -2.48477096E-04
  -9.18000031      -2.40519279E-04
  -9.17000008      -2.30391088E-04
  -9.15999985      -2.16168555E-04
  -9.14999962      -1.94104505E-04
  -9.14000034      -1.60098891E-04
  -9.13000011      -1.11536181E-04
  -9.11999989      -4.89150079E-05
  -9.10999966       2.32620641E-05
  -9.10000038       9.66637017E-05
  -9.09000015       1.60390060E-04
  -9.07999992       2.03031566E-04
  -9.06999969       2.15025706E-04
  -9.06000042       1.90745690E-04
  -9.05000019       1.29846580E-04
  -9.03999996       3.76002099E-05
  -9.02999973      -7.58000242E-05
  -9.02000046      -1.96766734E-04
  -9.01000023      -3.10345698E-04
  -9.00000000      -4.02375153E-04
  -8.98999977      -4.61452175E-04
  -8.97999954      -4.80466784E-04
  -8.97000027      -4.57548857E-04
  -8.96000004      -3.96339019E-04
  -8.94999981      -3.05543130E-04
  -8.93999958      -1.97781512E-04
  -8.93000031      -8.78186183E-05
  -8.92000008       9.63567436E-06
  -8.90999985       8.22429793E-05
  -8.89999962       1.22070211E-04
  -8.89000034       1.26922081E-04
  -8.88000011       1.00643214E-04
  -8.86999989       5.22564987E-05
  -8.85999966      -5.93303366E-06
  -8.85000038      -6.08808914E-05
  -8.84000015      -1.01430895E-04
  -8.82999992      -1.20436227E-04
  -8.81999969      -1.15913317E-04
  -8.81000042      -9.10248491E-05
  -8.80000019      -5.29938989E-05
  -8.78999996      -1.13104825E-05
  -8.77999973       2.42716287E-05
  -8.77000046       4.54714718E-05
  -8.76000023       4.66324818E-05
  -8.75000000       2.51984911E-05
  -8.73999977      -1.83665616E-05
  -8.72999954      -8.09765697E-05
  -8.72000027      -1.57404720E-04
  -8.71000004      -2.40723748E-04
  -8.69999981      -3.22730484E-04
  -8.68999958      -3.94492847E-04
  -8.68000031      -4.47173661E-04
  -8.67000008      -4.73186345E-04
  -8.65999985      -4.67558799E-04
  -8.64999962      -4.29201900E-04
  -8.64000034      -3.61681741E-04
  -8.63000011      -2.73140875E-04
  -8.61999989      -1.75209469E-04
  -8.60999966      -8.10382771E-05
  -8.60000038      -2.87571720E-06
  -8.59000015       5.02076800E-05
  -8.57999992       7.38456729E-05
  -8.56999969       6.87495267E-05
  -8.56000042       3.98612174E-05
  -8.55000019      -5.41419513E-06
  -8.53999996      -5.93250224E-05
  -8.52999973      -1.15582399E-04
  -8.52000046      -1.70342479E-04
  -8.51000023      -2.22145274E-04
  -8.50000000      -2.70964723E-04
  -8.48999977      -3.16827878E-04
  -8.47999954      -3.58594058E-04
  -8.47000027      -3.93402210E-04
  -8.46000004      -4.17030242E-04
  -8.44999981      -4.25060716E-04
  -8.43999958      -4.14439855E-04
  -8.43000031      -3.84861545E-04
  -8.42000008      -3.39456048E-04
  -8.40999985      -2.84497422E-04
  -8.39999962      -2.28175631E-04
  -8.39000034      -1.78793445E-04
  -8.38000011      -1.42934121E-04
  -8.36999989      -1.24143364E-04
  -8.35999966      -1.22486381E-04
  -8.35000038      -1.35046852E-04
  -8.34000015      -1.57135524E-04
  -8.32999992      -1.83770433E-04
  -8.31999969      -2.10945596E-04
  -8.31000042      -2.36322448E-04
  -8.30000019      -2.59206077E-04
  -8.28999996      -2.79922504E-04
  -8.27999973      -2.98904604E-04
  -8.27000046      -3.15864658E-04
  -8.26000023      -3.29366594E-04
  -8.25000000      -3.36949248E-04
  -8.23999977      -3.35751218E-04
  -8.22999954      -3.23422777E-04
  -8.22000027      -2.99027393E-04
  -8.21000004      -2.63651804E-04
  -8.19999981      -2.20541697E-04
  -8.18999958      -1.74719098E-04
  -8.18000031      -1.32172383E-04
  -8.17000008      -9.88061583E-05
  -8.15999985      -7.93786530E-05
  -8.14999962      -7.66425292E-05
  -8.14000034      -9.08549482E-05
  -8.13000011      -1.19749137E-04
  -8.11999989      -1.58976385E-04
  -8.10999966      -2.02944051E-04
  -8.10000038      -2.45893170E-04
  -8.09000015      -2.82999652E-04
  -8.07999992      -3.11255542E-04
  -8.06999969      -3.29913251E-04
  -8.06000042      -3.40362429E-04
  -8.05000019      -3.45451379E-04
  -8.03999996      -3.48424859E-04
  -8.02999973      -3.51783645E-04
  -8.02000046      -3.56425327E-04
  -8.01000023      -3.61366197E-04
  -8.00000000      -3.64173349E-04
  -7.98999977      -3.62000283E-04
  -7.98000002      -3.52891278E-04
  -7.96999979      -3.36888857E-04
  -7.96000004      -3.16500227E-04
  -7.94999981      -2.96267361E-04
  -7.94000006      -2.81490386E-04
  -7.92999983      -2.76472158E-04
  -7.92000008      -2.82870373E-04
  -7.90999985      -2.98769330E-04
  -7.90000010      -3.18887585E-04
  -7.88999987      -3.35971738E-04
  -7.88000011      -3.43010033E-04
  -7.86999989      -3.35576769E-04
  -7.86000013      -3.13517638E-04
  -7.84999990      -2.81357934E-04
  -7.84000015      -2.47217453E-04
  -7.82999992      -2.20518239E-04
  -7.82000017      -2.09202684E-04
  -7.80999994      -2.17376262E-04
  -7.80000019      -2.44176365E-04
  -7.78999996      -2.84266833E-04
  -7.78000021      -3.29803297E-04
  -7.76999998      -3.73194955E-04
  -7.76000023      -4.09692235E-04
  -7.75000000      -4.38874442E-04
  -7.73999977      -4.64483339E-04
  -7.73000002      -4.92631283E-04
  -7.71999979      -5.28999895E-04
  -7.71000004      -5.76025748E-04
  -7.69999981      -6.31107774E-04
  -7.69000006      -6.86537242E-04
  -7.67999983      -7.31264416E-04
  -7.67000008      -7.53974484E-04
  -7.65999985      -7.46480189E-04
  -7.65000010      -7.06309278E-04
  -7.63999987      -6.37632853E-04
  -7.63000011      -5.50235156E-04
  -7.61999989      -4.56891343E-04
  -7.61000013      -3.70047172E-04
  -7.59999990      -2.98904633E-04
  -7.59000015      -2.47838732E-04
  -7.57999992      -2.16569169E-04
  -7.57000017      -2.01870658E-04
  -7.55999994      -2.00059279E-04
  -7.55000019      -2.09236692E-04
  -7.53999996      -2.30396545E-04
  -7.53000021      -2.66951742E-04
  -7.51999998      -3.22857290E-04
  -7.51000023      -4.00052813E-04
  -7.50000000      -4.96230263E-04
  -7.48999977      -6.03844412E-04
  -7.48000002      -7.10855762E-04
  -7.46999979      -8.03082774E-04
  -7.46000004      -8.67469469E-04
  -7.44999981      -8.95242207E-04
  -7.44000006      -8.83961387E-04