  -16.0000000       0.00000000    
  -15.9899998       0.00000000    
  -15.9799995       0.00000000    
  -15.9700003       0.00000000    
  -15.9600000       0.00000000    
  -15.9499998       0.00000000    
  -15.9399996       0.00000000    
  -15.9300003       0.00000000    
  -15.9200001       0.00000000    
  -15.9099998       0.00000000    
  -15.8999996       0.00000000    
  -15.8900003      -2.36882499E-40
  -15.8800001      -3.19848757E-39
  -15.8699999      -1.32473614E-38
  -15.8599997       7.73195463E-38
  -15.8500004       1.57740971E-36
  -15.8400002       1.36455307E-35
  -15.8299999       8.50991674E-35
  -15.8199997       4.32306598E-34
  -15.8100004       1.88223351E-33
  -15.8000002       7.20084991E-33
  -15.7900000       2.45152330E-32
  -15.7799997       7.47380719E-32
  -15.7700005       2.04507429E-31
  -15.7600002       5.01841108E-31
  -15.7500000       1.09926082E-30
  -15.7399998       2.12634045E-30
  -15.7299995       3.54844091E-30
  -15.7200003       4.82965001E-30
  -15.7100000       4.43746522E-30
  -15.6999998      -5.86294923E-31
  -15.6899996      -1.44506030E-29
  -15.6800003      -4.10601283E-29
  -15.6700001      -8.05116717E-29
  -15.6599998      -1.24132408E-28
  -15.6499996      -1.50468332E-28
  -15.6400003      -1.26474170E-28
  -15.6300001      -1.78750448E-29
  -15.6199999       1.91950071E-28
  -15.6099997       4.84137332E-28
  -15.6000004       8.05146713E-28
  -15.5900002       1.09988492E-27
  -15.5799999       1.36374021E-27
  -15.5699997       1.65178056E-27
  -15.5600004       1.94465615E-27
  -15.5500002       1.80517356E-27
  -15.5400000      -6.55428988E-29
  -15.5299997      -5.94716497E-27
  -15.5200005      -1.81672910E-26
  -15.5100002      -3.64510715E-26
  -15.5000000      -5.37451859E-26
  -15.4899998      -5.25451128E-26
  -15.4799995      -6.03138281E-27
  -15.4700003       1.10569000E-25
  -15.4600000       2.95453825E-25
  -15.4499998       4.87642306E-25
  -15.4399996       5.44321617E-25
  -15.4300003       2.58472765E-25
  -15.4200001      -5.52023907E-25
  -15.4099998      -1.87578442E-24
  -15.3999996      -3.30522346E-24
  -15.3900003      -3.91767771E-24
  -15.3800001      -2.41357970E-24
  -15.3699999       2.33407198E-24
  -15.3599997       1.03129537E-23
  -15.3500004       1.92701569E-23
  -15.3400002       2.41112322E-23
  -15.3299999       1.76629191E-23
  -15.3199997      -6.49085363E-24
  -15.3100004      -4.91423425E-23
  -15.3000002      -9.99558332E-23
  -15.2900000      -1.34283109E-22
  -15.2799997      -1.16219053E-22
  -15.2700005      -1.11190457E-23
  -15.2600002       1.92396801E-22
  -15.2500000       4.56581888E-22
  -15.2399998       6.77058035E-22
  -15.2299995       6.90258745E-22
  -15.2200003       3.20497146E-22
  -15.2100000      -5.30248016E-22
  -15.1999998      -1.76830010E-21
  -15.1899996      -3.01510968E-21
  -15.1800003      -3.60077052E-21
  -15.1700001      -2.70977704E-21
  -15.1599998       2.90796445E-22
  -15.1499996       5.38595674E-21
  -15.1400003       1.14585364E-20
  -15.1300001       1.60898278E-20
  -15.1199999       1.58928861E-20
  -15.1099997       7.57029153E-21
  -15.1000004      -1.03534651E-20
  -15.0900002      -3.55518738E-20
  -15.0799999      -6.05053731E-20
  -15.0699997      -7.27922752E-20
  -15.0600004      -5.80240446E-20
  -15.0500002      -5.68245535E-21
  -15.0400000       8.31811984E-20
  -15.0299997       1.89039502E-19
  -15.0200005       2.71742376E-19
  -15.0100002       2.77239586E-19
  -15.0000000       1.55419107E-19
  -14.9899998      -1.12887949E-19
  -14.9799995      -4.87549559E-19
  -14.9700003      -8.52804083E-19
  -14.9600000      -1.02855535E-18
  -14.9499998      -8.20495287E-19
  -14.9399996      -1.07407005E-19
  -14.9300003       1.05588271E-18
  -14.9200001       2.36242680E-18
  -14.9099998       3.25839906E-18
  -14.8999996       3.07528009E-18
  -14.8900003       1.29716199E-18
  -14.8800001      -2.09258787E-18
  -14.8699999      -6.31430843E-18
  -14.8599997      -9.72414172E-18
  -14.8500004      -1.01432195E-17
  -14.8400002      -5.64830066E-18
  -14.8299999       4.30795663E-18
  -14.8199997       1.78212854E-17
  -14.8100004       3.00712578E-17
  -14.8000002       3.40519322E-17
  -14.7900000       2.28174761E-17
  -14.7799997      -7.00914801E-18
  -14.7700005      -5.14815971E-17
  -14.7600002      -9.70355915E-17
  -14.7500000      -1.21593935E-16
  -14.7399998      -1.00430897E-16
  -14.7299995      -1.66088801E-17
  -14.7200003       1.26483380E-16
  -14.7100000       2.95280847E-16
  -14.6999998       4.24950633E-16
  -14.6899996       4.32238954E-16
  -14.6800003       2.43696726E-16
  -14.6700001      -1.65569742E-16
  -14.6599998      -7.34707273E-16
  -14.6499996      -1.29892079E-15
  -14.6400003      -1.60788643E-15
  -14.6300001      -1.39085256E-15
  -14.6199999      -4.62985668E-16
  -14.6099997       1.15288140E-15
  -14.6000004       3.13360919E-15
  -14.5900002       4.84489378E-15
  -14.5799999       5.45441361E-15
  -14.5699997       4.17852830E-15
  -14.5600004       6.21288079E-16
  -14.5500002      -4.89090122E-15
  -14.5400000      -1.11149501E-14
  -14.5299997      -1.59737962E-14
  -14.5200005      -1.69994244E-14
  -14.5100002      -1.21118884E-14
  -14.5000000      -5.70094043E-16
  -14.4899998       1.61996576E-14
  -14.4799995       3.42572684E-14
  -14.4700003       4.75979594E-14
  -14.4600000       4.95293232E-14
  -14.4499998       3.48147313E-14
  -14.4399996       2.08497287E-15
  -14.4300003      -4.42490452E-14
  -14.4200001      -9.34322335E-14
  -14.4099998      -1.29806227E-13
  -14.3999996      -1.36426447E-13
  -14.3900003      -1.00330992E-13
  -14.3800001      -1.82112287E-14
  -14.3699999       9.92820328E-14
  -14.3599997       2.26437806E-13
  -14.3500004       3.25918112E-13
  -14.3400002       3.56966654E-13
  -14.3299999       2.87180436E-13
  -14.3199997       1.05178209E-13
  -14.3100004      -1.69495779E-13
  -14.3000002      -4.83019332E-13
  -14.2900000      -7.53293424E-13
  -14.2799997      -8.86051540E-13
  -14.2700005      -7.99080637E-13
  -14.2600002      -4.49726790E-13
  -14.2500000       1.41279227E-13
  -14.2399998       8.77367460E-13
  -14.2299995       1.59156206E-12
  -14.2200003       2.07313420E-12
  -14.2100000       2.11397978E-12
  -14.1999998       1.56757235E-12
  -14.1899996       4.08052634E-13
  -14.1800003      -1.22650327E-12
  -14.1700001      -3.02303018E-12
  -14.1599998      -4.52731429E-12
  -14.1499996      -5.22724442E-12
  -14.1400003      -4.67797979E-12
  -14.1300001      -2.64760219E-12
  -14.1199999       7.50946397E-13
  -14.1099997       4.98340258E-12
  -14.1000004       9.11321019E-12
  -14.0900002       1.19420003E-11
  -14.0799999       1.22707382E-11
  -14.0699997       9.24480718E-12
  -14.0600004       2.70871823E-12
  -14.0500002      -6.53173913E-12
  -14.0400000      -1.66480718E-11
  -14.0299997      -2.50110540E-11
  -14.0200005      -2.87188068E-11
  -14.0100002      -2.53669204E-11
  -14.0000000      -1.39018207E-11
  -13.9899998       4.67641767E-12
  -13.9799995       2.70201934E-11
  -13.9700003       4.77585783E-11
  -13.9600000       6.05188608E-11
  -13.9499998       5.95318517E-11
  -13.9399996       4.14947764E-11
  -13.9300003       7.19579301E-12
  -13.9200001      -3.76568048E-11
  -13.9099998      -8.28607946E-11
  -13.8999996      -1.15595387E-10
  -13.8900003      -1.23544328E-10
  -13.8800001      -9.86321094E-11
  -13.8699999      -4.03959852E-11
  -13.8599997       4.21086083E-11
  -13.8500004       1.30784245E-10
  -13.8400002       2.01753739E-10
  -13.8299999       2.31059449E-10
  -13.8199997       2.01635944E-10
  -13.8100004       1.09753144E-10
  -13.8000002      -3.11028286E-11
  -13.7900000      -1.90604477E-10
  -13.7799997      -3.26985633E-10
  -13.7700005      -3.96899735E-10
  -13.7600002      -3.67717468E-10
  -13.7500000      -2.29118516E-10
  -13.7399998      -4.22566523E-13
  -13.7299995       2.69329392E-10
  -13.7200003       5.09967513E-10
  -13.7100000       6.46606546E-10
  -13.6999998       6.20565599E-10
  -13.6899996       4.09540429E-10
  -13.6800003       4.10065593E-11
  -13.6700001      -4.06321948E-10
  -13.6599998      -8.15656598E-10
  -13.6499996      -1.05886966E-09
  -13.6400003      -1.03165176E-09
  -13.6300001      -6.88572588E-10
  -13.6199999      -6.79630727E-11
  -13.6099997       7.02448211E-10
  -13.6000004       1.42446499E-09
  -13.5900002       1.87232341E-09
  -13.5799999       1.85213123E-09
  -13.5699997       1.26438271E-09
  -13.5600004       1.52643800E-10
  -13.5500002      -1.27794486E-09
  -13.5400000      -2.68359757E-09
  -13.5299997      -3.64838604E-09
  -13.5200005      -3.78501941E-09
  -13.5100002      -2.84948265E-09
  -13.5000000      -8.41277881E-10
  -13.4899998       1.94086902E-09
  -13.4799995       4.91223862E-09
  -13.4700003       7.29542959E-09
  -13.4600000       8.28603763E-09
  -13.4499998       7.26237293E-09
  -13.4399996       3.99344158E-09
  -13.4300003      -1.20967081E-09
  -13.4200001      -7.45071915E-09
  -13.4099998      -1.33480080E-08
  -13.3999996      -1.72818684E-08
  -13.3900003      -1.77579302E-08
  -13.3800001      -1.38179832E-08
  -13.3699999      -5.40383249E-09
  -13.3599997       6.42806830E-09
  -13.3500004       1.95267038E-08
  -13.3400002       3.09450741E-08
  -13.3299999       3.74998450E-08
  -13.3199997       3.65058028E-08
  -13.3100004       2.65380056E-08
  -13.3000002       8.03877676E-09
  -13.2900000      -1.64101959E-08
  -13.2799997      -4.22819930E-08
  -13.2700005      -6.38059916E-08
  -13.2600002      -7.51010845E-08
  -13.2500000      -7.15456636E-08
  -13.2399998      -5.10968192E-08
  -13.2299995      -1.52336277E-08
  -13.2200003       3.07655270E-08
  -13.2100000       7.83894762E-08
  -13.1999998       1.17308957E-07
  -13.1899996       1.37441546E-07
  -13.1800003       1.31283073E-07
  -13.1700001       9.60004201E-08
  -13.1599998       3.47633566E-08
  -13.1499996      -4.31021085E-08
  -13.1400003      -1.23336150E-07
  -13.1300001      -1.89244446E-07
  -13.1199999      -2.25063872E-07
  -13.1099997      -2.19531032E-07
  -13.1000004      -1.68864261E-07
  -13.0900002      -7.84147005E-08
  -13.0799999       3.75302776E-08
  -13.0699997       1.57935702E-07
  -13.0600004       2.58898581E-07
  -13.0500002       3.18499417E-07
  -13.0400000       3.21619353E-07
  -13.0299997       2.63639663E-07
  -13.0200005       1.52112079E-07
  -13.0100002       5.88732751E-09
  -13.0000000      -1.48261179E-07
  -12.9899998      -2.80904118E-07
  -12.9799995      -3.66028530E-07
  -12.9700003      -3.86588709E-07
  -12.9600000      -3.38266858E-07
  -12.9499998      -2.30536912E-07
  -12.9399996      -8.47188204E-08
  -12.9300003       7.05980270E-08
  -12.9200001       2.05755313E-07
  -12.9099998       2.96439026E-07
  -12.8999996       3.28818828E-07
  -12.8900003       3.02208093E-07
  -12.8800001       2.28623321E-07
  -12.8699999       1.29366356E-07
  -12.8599997       2.94779188E-08
  -12.8500004      -4.85629279E-08
  -12.8400002      -9.03320228E-08
  -12.8299999      -9.27846457E-08
  -12.8199997      -6.45930527E-08
  -12.8100004      -2.34294983E-08
  -12.8000002       9.10349041E-09
  -12.7900000       1.36014675E-08
  -12.7799997      -2.15131397E-08
  -12.7700005      -9.62918776E-08
  -12.7600002      -1.98434222E-07
  -12.7500000      -3.05562054E-07
  -12.7399998      -3.90059540E-07
  -12.7299995      -4.25329176E-07
  -12.7200003      -3.91995371E-07
  -12.7100000      -2.82632556E-07
  -12.6999998      -1.03976994E-07
  -12.6899996       1.23811674E-07
  -12.6800003       3.70600759E-07
  -12.6700001       6.01635975E-07
  -12.6599998       7.83636324E-07
  -12.6499996       8.90402362E-07
  -12.6400003       9.06895309E-07
  -12.6300001       8.31112402E-07
  -12.6199999       6.73522266E-07
  -12.6099997       4.54246475E-07
  -12.6000004       1.98514485E-07
  -12.5900002      -6.88367621E-08
  -12.5799999      -3.28881555E-07
  -12.5699997      -5.73106149E-07
  -12.5600004      -8.05826573E-07
  -12.5500002      -1.04354251E-06
  -12.5400000      -1.31052536E-06
  -12.5299997      -1.63047480E-06
  -12.5200005      -2.01490298E-06
  -12.5100002      -2.44992543E-06
  -12.5000000      -2.88417164E-06
  -12.4899998      -3.22125607E-06
  -12.4799995      -3.32034369E-06
  -12.4700003      -3.00754618E-06
  -12.4600000      -2.09907785E-06
  -12.4499998      -4.34506774E-07
  -12.4399996       2.08450319E-06
  -12.4300003       5.45712555E-06
  -12.4200001       9.55655196E-06
  -12.4099998       1.41215896E-05
  -12.3999996       1.87723144E-05
  -12.3900003       2.30510195E-05
  -12.3800001       2.64841074E-05
  -12.3699999       2.86551149E-05
  -12.3599997       2.92750628E-05
  -12.3500004       2.82350684E-05
  -12.3400002       2.56284093E-05
  -12.3299999       2.17348534E-05
  -12.3199997       1.69681261E-05
  -12.3100004       1.17961390E-05
  -12.3000002       6.65082462E-06
  -12.2900000       1.84825910E-06
  -12.2799997      -2.46134641E-06
  -12.2700005      -6.30024351E-06
  -12.2600002      -9.82288748E-06
  -12.2500000      -1.32371270E-05
  -12.2399998      -1.67058279E-05
  -12.2299995      -2.02545052E-05
  -12.2200003      -2.37110999E-05
  -12.2100000      -2.66978514E-05
  -12.1999998      -2.86833983E-05
  -12.1899996      -2.90883072E-05
  -12.1800003      -2.74229515E-05
  -12.1700001      -2.34265390E-05
  -12.1599998      -1.71731590E-05
  -12.1499996      -9.11609368E-06
  -12.1400003      -5.43681367E-08
  -12.1300001       8.97706650E-06
  -12.1199999       1.68742190E-05
  -12.1099997       2.26547545E-05
  -12.1000004       2.56327385E-05
  -12.0900002       2.55403320E-05
  -12.0799999       2.25708191E-05
  -12.0699997       1.73347271E-05
  -12.0600004       1.07399956E-05
  -12.0500002       3.82341659E-06
  -12.0400000      -2.42998703E-06
  -12.0299997      -7.24233814E-06
  -12.0200005      -1.01439446E-05
  -12.0100002      -1.10052715E-05
  -12.0000000      -1.00019524E-05
  -11.9899998      -7.52974756E-06
  -11.9799995      -4.09557242E-06
  -11.9700003      -2.12460222E-07
  -11.9600000       3.67923963E-06
  -11.9499998       7.25272002E-06
  -11.9399996       1.02981749E-05
  -11.9300003       1.26996028E-05
  -11.9200001       1.44011128E-05
  -11.9099998       1.53783803E-05
  -11.8999996       1.56252627E-05
  -11.8900003       1.51571276E-05
  -11.8800001       1.40243956E-05
  -11.8699999       1.23249210E-05
  -11.8599997       1.02038957E-05
  -11.8500004       7.83496671E-06
  -11.8400002       5.38435233E-06
  -11.8299999       2.96805706E-06
  -11.8199997       6.17739545E-07
  -11.8100004      -1.72913030E-06
  -11.8000002      -4.20493052E-06
  -11.7900000      -6.95395738E-06
  -11.7799997      -1.00535453E-05
  -11.7700005      -1.34367347E-05
  -11.7600002      -1.68430252E-05
  -11.7500000      -1.98198850E-05
  -11.7399998      -2.17859670E-05
  -11.7299995      -2.21500686E-05
  -11.7200003      -2.04621047E-05
  -11.7100000      -1.65590482E-05
  -11.6999998      -1.06643629E-05
  -11.6899996      -3.40635575E-06
  -11.6800003       4.26158658E-06
  -11.6700001       1.12313110E-05
  -11.6599998       1.64678186E-05
  -11.6499996       1.92425614E-05
  -11.6400003       1.93127344E-05
  -11.6300001       1.69953819E-05
  -11.6199999       1.31079441E-05
  -11.6099997       8.77960065E-06
  -11.6000004       5.17222861E-06
  -11.5900002       3.17714921E-06
  -11.5799999       3.16569322E-06
  -11.5699997       4.86370618E-06
  -11.5600004       7.39276811E-06
  -11.5500002       9.47997705E-06
  -11.5400000       9.79349534E-06
  -11.5299997       7.32443323E-06
  -11.5200005       1.71739237E-06
  -11.5100002      -6.54170162E-06
  -11.5000000      -1.61410353E-05
  -11.4899998      -2.51734491E-05
  -11.4799995      -3.15392135E-05
  -11.4700003      -3.34314973E-05
  -11.4600000      -2.97890729E-05
  -11.4499998      -2.06034983E-05
  -11.4399996      -6.99939392E-06
  -11.4300003       8.94024561E-06
  -11.4200001       2.45702977E-05
  -11.4099998       3.72137038E-05
  -11.3999996       4.47052953E-05
  -11.3900003       4.58262948E-05
  -11.3800001       4.05342616E-05
  -11.3699999       2.99439653E-05
  -11.3599997       1.60743220E-05
  -11.3500004       1.42979832E-06
  -11.3400002      -1.14825152E-05
  -11.3299999      -2.05936540E-05
  -11.3199997      -2.45864594E-05
  -11.3100004      -2.30378246E-05
  -11.3000002      -1.63913755E-05
  -11.2900000      -5.80056349E-06
  -11.2799997       7.09779079E-06
  -11.2700005       2.04213320E-05
  -11.2600002       3.22529122E-05
  -11.2500000       4.08136257E-05
  -11.2399998       4.46115992E-05
  -11.2299995       4.25899307E-05
  -11.2200003       3.42889507E-05
  -11.2100000       2.00141221E-05
  -11.1999998       9.71461532E-07
  -11.1899996      -2.06901914E-05
  -11.1800003      -4.19940880E-05
  -11.1700001      -5.94497978E-05
  -11.1599998      -6.95635099E-05
  -11.1499996      -6.94831979E-05
  -11.1400003      -5.76627754E-05
  -11.1300001      -3.43964202E-05
  -11.1199999      -2.07544758E-06
  -11.1099997       3.49389120E-05
  -11.1000004       7.08598891E-05
  -11.0900002       9.93784124E-05
  -11.0799999       1.14780254E-04
  -11.0699997       1.13070906E-04
  -11.0600004       9.28830923E-05
  -11.0500002       5.59703258E-05
  -11.0400000       7.16166551E-06
  -11.0299997      -4.62482894E-05
  -11.0200005      -9.55936339E-05
  -11.0100002      -1.32243062E-04
  -11.0000000      -1.49084080E-04
  -10.9899998      -1.41832541E-04
  -10.9799995      -1.09937413E-04
  -10.9700003      -5.69109616E-05
  -10.9600000       9.99858821E-06
  -10.9499998       8.07742472E-05
  -10.9399996       1.44118021E-04
  -10.9300003       1.89250801E-04
  -10.9200001       2.07750476E-04
  -10.9099998       1.95125132E-04
  -10.8999996       1.51832341E-04
  -10.8900003       8.35205283E-05
  -10.8800001       3.80121207E-07
  -10.8699999      -8.43588496E-05
  -10.8599997      -1.56583948E-04
  -10.8500004      -2.03766584E-04
  -10.8400002      -2.17295703E-04
  -10.8299999      -1.94219581E-04
  -10.8199997      -1.38014104E-04
  -10.8100004      -5.81633358E-05
  -10.8000002       3.14317294E-05
  -10.7900000       1.14954091E-04
  -10.7799997       1.77611772E-04
  -10.7700005       2.08434285E-04
  -10.7600002       2.02348805E-04
  -10.7500000       1.61100092E-04
  -10.7399998       9.28204026E-05
  -10.7299995       1.03468601E-05
  -10.7200003      -7.13442278E-05
  -10.7100000      -1.38030329E-04
  -10.6999998      -1.78850023E-04
  -10.6899996      -1.88097707E-04
  -10.6800003      -1.65883132E-04
  -10.6700001      -1.17603209E-04
  -10.6599998      -5.24406641E-05
  -10.6499996       1.86976758E-05
  -10.6400003       8.53049423E-05
  -10.6300001       1.39004609E-04
  -10.6199999       1.74578687E-04
  -10.6099997       1.90192499E-04
  -10.6000004       1.86922218E-04
  -10.5900002       1.67844424E-04
  -10.5799999       1.37011986E-04
  -10.5699997       9.86081213E-05
  -10.5600004       5.64609618E-05
  -10.5500002       1.39536496E-05
  -10.5400000      -2.57760621E-05
  -10.5299997      -5.95456258E-05
  -10.5200005      -8.39681379E-05
  -10.5100002      -9.55936921E-05
  -10.5000000      -9.14141856E-05
  -10.4899998      -6.96617208E-05
  -10.4799995      -3.07091723E-05
  -10.4700003       2.21960308E-05
  -10.4600000       8.26452815E-05
  -10.4499998       1.41446246E-04
  -10.4399996       1.87751924E-04
  -10.4300003       2.10855709E-04
  -10.4200001       2.02383861E-04
  -10.4099998       1.58465438E-04
  -10.3999996       8.13790539E-05
  -10.3900003      -1.98002654E-05
  -10.3800001      -1.29891312E-04
  -10.3699999      -2.29724086E-04
  -10.3599997      -2.99460924E-04
  -10.3500004      -3.22580308E-04
  -10.3400002      -2.89740710E-04
  -10.3299999      -2.01646166E-04
  -10.3199997      -7.01382523E-05
  -10.3100004       8.29566416E-05
  -10.3000002       2.29237310E-04
  -10.2900000       3.38886952E-04
  -10.2799997       3.86618573E-04
  -10.2700005       3.57172190E-04
  -10.2600002       2.49131437E-04
  -10.2500000       7.61220654E-05
  -10.2399998      -1.35006194E-04
  -10.2299995      -3.48754664E-04
  -10.2200003      -5.27423574E-04
  -10.2100000      -6.38118770E-04
  -10.1999998      -6.58874051E-04
  -10.1899996      -5.82651061E-04
  -10.1800003      -4.18464944E-04
  -10.1700001      -1.89522791E-04
  -10.1599998       7.11099055E-05
  -10.1499996       3.26327805E-04
  -10.1400003       5.41097310E-04
  -10.1300001       6.87743304E-04
  -10.1199999       7.49601109E-04
  -10.1099997       7.22646306E-04
  -10.1000004       6.15139084E-04
  -10.0900002       4.45630954E-04
  -10.0799999       2.39842047E-04
  -10.0699997       2.69323500E-05
  -10.0600004      -1.64383484E-04
  -10.0500002      -3.09514318E-04
  -10.0400000      -3.91152076E-04
  -10.0299997      -4.01599274E-04
  -10.0200005      -3.43935535E-04
  -10.0100002      -2.31720391E-04
  -10.0000000      -8.70592485E-05
  -9.98999977       6.28862545E-05
  -9.97999954       1.90519946E-04
  -9.97000027       2.72797275E-04
  -9.96000004       2.95583188E-04
  -9.94999981       2.56386353E-04
  -9.93999958       1.64743993E-04
  -9.93000031       4.00400313E-05
  -9.92000008      -9.28343798E-05
  -9.90999985      -2.08995189E-04
  -9.89999962      -2.88927928E-04
  -9.89000034      -3.22376145E-04
  -9.88000011      -3.09806986E-04
  -9.86999989      -2.61153647E-04
  -9.85999966      -1.92278312E-04
  -9.85000038      -1.20215998E-04
  -9.84000015      -5.85690541E-05
  -9.82999992      -1.43269690E-05
  -9.81999969       1.30812123E-05
  -9.81000042       3.03872839E-05
  -9.80000019       4.73266045E-05
  -9.78999996       7.28105588E-05
  -9.77999973       1.11659851E-04
  -9.77000046       1.62886659E-04
  -9.76000023       2.19974463E-04
  -9.75000000       2.72950827E-04
  -9.73999977       3.11494223E-04
  -9.72999954       3.28033668E-04
  -9.72000027       3.19866929E-04
  -9.71000004       2.89699208E-04
  -9.69999981       2.44551076E-04
  -9.68999958       1.93509972E-04
  -9.68000031       1.45133905E-04
  -9.67000008       1.05355721E-04
  -9.65999985       7.64904835E-05
  -9.64999962       5.75159938E-05
  -9.64000034       4.53423527E-05
  -9.63000011       3.64696461E-05
  -9.61999989       2.83586160E-05
  -9.60999966       2.00210106E-05
  -9.60000038       1.16931424E-05
  -9.59000015       3.84860505E-06
  -9.57999992      -3.91779895E-06
  -9.56999969      -1.35457376E-05
  -9.56000042      -2.82992441E-05
  -9.55000019      -5.16417676E-05
  -9.53999996      -8.55415419E-05
  -9.52999973      -1.28836939E-04
  -9.52000046      -1.76351663E-04
  -9.51000023      -2.19254071E-04
  -9.50000000      -2.46760203E-04
  -9.48999977      -2.48817902E-04
  -9.47999954      -2.19036039E-04
  -9.47000027      -1.56974595E-04
  -9.46000004      -6.90439920E-05
  -9.44999981       3.23546810E-05
  -9.43999958       1.31302921E-04
  -9.43000031       2.11821971E-04
  -9.42000008       2.61387555E-04
  -9.40999985       2.73558748E-04
  -9.39999962       2.49046745E-04
  -9.39000034       1.95017463E-04
  -9.38000011       1.22936908E-04
  -9.36999989       4.56685666E-05
  -9.35999966      -2.53069338E-05
  -9.35000038      -8.17993350E-05
  -9.34000015      -1.19544507E-04
  -9.32999992      -1.37624986E-04
  -9.31999969      -1.37134673E-04
  -9.31000042      -1.19760087E-04
  -9.30000019      -8.69056530E-05
  -9.28999996      -3.97108925E-05
  -9.27999973       2.01010862E-05
  -9.27000046       8.89883668E-05
  -9.26000023       1.60627576E-04
  -9.25000000       2.25840122E-04
  -9.23999977       2.73728860E-04
  -9.22999954       2.93897348E-04
  -9.22000027       2.79177300E-04
  -9.21000004       2.28013858E-04
  -9.19999981       1.45664759E-04
  -9.18999958       4.36789414E-05
  -9.18000031      -6.23585875E-05
  -9.17000008      -1.56261463E-04
  -9.15999985      -2.24887539E-04
  -9.14999962      -2.60915374E-04
  -9.14000034      -2.63919006E-04
  -9.13000011      -2.39446425E-04
  -9.11999989      -1.96460431E-04
  -9.10999966      -1.44050122E-04
  -9.10000038      -8.85660411E-05
  -9.09000015      -3.21806110E-05
  -9.07999992       2.66371553E-05
  -9.06999969       9.09457012E-05
  -9.06000042       1.62313270E-04
  -9.05000019       2.38173874E-04
  -9.03999996       3.10694042E-04
  -9.02999973       3.67784058E-04
  -9.02000046       3.96120100E-04
  -9.01000023       3.85279127E-04
  -9.00000000       3.31603573E-04
  -8.98999977       2.40398964E-04
  -8.97999954       1.25554972E-04
  -8.97000027       6.51783557E-06
  -8.96000004      -9.65512372E-05
  -8.94999981      -1.67942999E-04
  -8.93999958      -2.00244336E-04
  -8.93000031      -1.95621702E-04
  -8.92000008      -1.64158700E-04
  -8.90999985      -1.19866178E-04
  -8.89999962      -7.57838570E-05
  -8.89000034      -3.98963202E-05
  -8.88000011      -1.32747446E-05
  -8.86999989       8.97067821E-06
  -8.85999966       3.43902393E-05
  -8.85000038       6.88958462E-05
  -8.84000015       1.13205402E-04
  -8.82999992       1.61510179E-04
  -8.81999969       2.03008574E-04
  -8.81000042       2.25838492E-04
  -8.80000019       2.21965383E-04
  -8.78999996       1.91121406E-04
  -8.77999973       1.42139339E-04
  -8.77000046       9.09237351E-05
  -8.76000023       5.55380284E-05
  -8.75000000       5.00138085E-05
  -8.73999977       7.90751146E-05
  -8.72999954       1.35772061E-04
  -8.72000027       2.03069416E-04
  -8.71000004       2.59052467E-04
  -8.69999981       2.84085545E-04
  -8.68999958       2.67477648E-04
  -8.68000031       2.11284059E-04
  -8.67000008       1.29807668E-04
  -8.65999985       4.48525861E-05
  -8.64999962      -2.16972130E-05
  -8.64000034      -5.53990540E-05
  -8.63000011      -5.41929949E-05
  -8.61999989      -2.89398504E-05
  -8.60999966       7.32037165E-07
  -8.60000038       1.38805699E-05
  -8.59000015      -3.60653894E-06
  -8.57999992      -5.31035002E-05
  -8.56999969      -1.21772871E-04
  -8.56000042      -1.86199642E-04
  -8.55000019      -2.20010203E-04
  -8.53999996      -2.02922733E-04
  -8.52999973      -1.28123502E-04
  -8.52000046      -5.39594521E-06
  -8.51000023       1.41132463E-04
  -8.50000000       2.79919070E-04
  -8.48999977       3.81306745E-04
  -8.47999954       4.26097686E-04
  -8.47000027       4.10589186E-04
  -8.46000004       3.46515561E-04
  -8.44999981       2.56116618E-04
  -8.43999958       1.64214172E-04
  -8.43000031       9.01446547E-05
  -8.42000008       4.23362908E-05
  -8.40999985       1.72784894E-05
  -8.39999962       2.99910243E-06
  -8.39000034      -1.44615988E-05
  -8.38000011      -4.41314405E-05
  -8.36999989      -8.53870006E-05
  -8.35999966      -1.27214618E-04
  -8.35000038      -1.51740605E-04
  -8.34000015      -1.40749093E-04
  -8.32999992      -8.28243574E-05
  -8.31999969       2.14647498E-05
  -8.31000042       1.58217139E-04
  -8.30000019       3.03213310E-04
  -8.28999996       4.28306754E-04
  -8.27999973       5.09080070E-04
  -8.27000046       5.31285768E-04
  -8.26000023       4.94083739E-04
  -8.25000000       4.09233646E-04
  -8.23999977       2.96769635E-04
  -8.22999954       1.78794988E-04
  -8.22000027       7.35177819E-05
  -8.21000004      -8.62236720E-06
  -8.19999981      -6.57616692E-05
  -8.18999958      -1.02511563E-04
  -8.18000031      -1.26081708E-04
  -8.17000008      -1.42246296E-04
  -8.15999985      -1.52645647E-04
  -8.14999962      -1.54273643E-04
  -8.14000034      -1.41120356E-04
  -8.13000011      -1.07156586E-04
  -8.11999989      -4.94301894E-05
  -8.10999966       2.98901250E-05
  -8.10000038       1.23217003E-04
  -8.09000015       2.19017093E-04
  -8.07999992       3.04474408E-04
  -8.06999969       3.68429814E-04
  -8.06000042       4.03699290E-04
  -8.05000019       4.08189779E-04
  -8.03999996       3.84686224E-04
  -8.02999973       3.39599123E-04
  -8.02000046       2.81197426E-04
  -8.01000023       2.17865803E-04
  -8.00000000       1.56764756E-04
  -7.98999977       1.03046215E-04
  -7.98000002       5.95907586E-05
  -7.96999979       2.71463250E-05
  -7.96000004       4.75556953E-06
  -7.94999981      -9.59531553E-06
  -7.94000006      -1.81577871E-05
  -7.92999983      -2.25340100E-05
  -7.92000008      -2.29198122E-05
  -7.90999985      -1.77512156E-05
  -7.90000010      -4.00545196E-06
  -7.88999987       2.17548040E-05
  -7.88000011       6.17805126E-05
  -7.86999989       1.15456380E-04
  -7.86000013       1.78192873E-04
  -7.84999990       2.41485031E-04
  -7.84000015       2.94416881E-04
  -7.82999992       3.26391833E-04
  -7.82000017       3.30357754E-04
  -7.80999994       3.05476249E-04
  -7.80000019       2.58216343E-04
  -7.78999996       2.01269781E-04
  -7.78000021       1.50381427E-04
  -7.76999998       1.19929726E-04
  -7.76000023       1.18607997E-04
  -7.75000000       1.46634469E-04
  -7.73999977       1.95494024E-04
  -7.73000002       2.50407145E-04
  -7.71999979       2.94800557E-04
  -7.71000004       3.15347948E-04
  -7.69999981       3.05922847E-04
  -7.69000006       2.69153796E-04
  -7.67999983       2.15093518E-04
  -7.67000008       1.57515795E-04
  -7.65999985       1.09181383E-04
  -7.65000010       7.77647365E-05
  -7.63999987       6.38727943E-05
  -7.63000011       6.18070480E-05
  -7.61999989       6.27047048E-05
  -7.61000013       5.88151888E-05
  -7.59999990       4.72498832E-05
  -7.59000015       3.17434824E-05
  -7.57999992       2.17107336E-05
  -7.57000017       2.88978208E-05
  -7.55999994       6.28390990E-05
  -7.55000019       1.26797531E-04
  -7.53999996       2.15715481E-04
  -7.53000021       3.16988415E-04
  -7.51999998       4.13855712E-04
  -7.51000023       4.90254839E-04
  -7.50000000       5.35453612E-04
  -7.48999977       5.46854513E-04
  -7.48000002       5.30021847E-04
  -7.46999979       4.95978282E-04
  -7.46000004       4.56789887E-04
  -7.44999981       4.21058678E-04
  -7.44000006       3.90955131E-04