  -16.0000000       0.00000000    
  -15.9899998       0.00000000    
  -15.9799995       0.00000000    
  -15.9700003       0.00000000    
  -15.9600000       0.00000000    
  -15.9499998       0.00000000    
  -15.9399996       0.00000000    
  -15.9300003       0.00000000    
  -15.9200001       0.00000000    
  -15.9099998       0.00000000    
  -15.8999996       1.99991916E-40
  -15.8900003       1.66884277E-39
  -15.8800001      -2.09850919E-38
  -15.8699999      -5.33470738E-37
  -15.8599997      -5.85212946E-36
  -15.8500004      -4.49272621E-35
  -15.8400002      -2.74540976E-34
  -15.8299999      -1.41117619E-33
  -15.8199997      -6.26850730E-33
  -15.8100004      -2.44132956E-32
  -15.8000002      -8.40851328E-32
  -15.7900000      -2.57580200E-31
  -15.7799997      -7.04371120E-31
  -15.7700005      -1.72223652E-30
  -15.7600002      -3.76094471E-30
  -15.7500000      -7.29493513E-30
  -15.7399998      -1.23975451E-29
  -15.7299995      -1.78775425E-29
  -15.7200003      -2.00244970E-29
  -15.7100000      -1.14233774E-29
  -15.6999998       1.91299131E-29
  -15.6899996       8.41132630E-29
  -15.6800003       1.90685000E-28
  -15.6700001       3.29338065E-28
  -15.6599998       4.58760702E-28
  -15.6499996       4.90303534E-28
  -15.6400003       2.79211164E-28
  -15.6300001      -3.63868906E-28
  -15.6199999      -1.61818810E-27
  -15.6099997      -3.52463938E-27
  -15.6000004      -5.76383300E-27
  -15.5900002      -7.37387038E-27
  -15.5799999      -6.55519223E-27
  -15.5699997      -8.56294646E-28
  -15.5600004       1.18981132E-26
  -15.5500002       3.17692036E-26
  -15.5400000       5.43881692E-26
  -15.5299997       6.94818886E-26
  -15.5200005       6.21636691E-26
  -15.5100002       1.82869729E-26
  -15.5000000      -6.73813308E-26
  -15.4899998      -1.85166559E-25
  -15.4799995      -3.13614414E-25
  -15.4700003      -4.34116073E-25
  -15.4600000      -5.45424889E-25
  -15.4499998      -6.48000127E-25
  -15.4399996      -6.62850286E-25
  -15.4300003      -2.84674830E-25
  -15.4200001       1.13695337E-24
  -15.4099998       4.46516098E-24
  -15.3999996       1.01001388E-23
  -15.3900003       1.66243332E-23
  -15.3800001       1.91645963E-23
  -15.3699999       8.74582318E-24
  -15.3599997      -2.52725901E-23
  -15.3500004      -8.76916841E-23
  -15.3400002      -1.64999763E-22
  -15.3299999      -2.12628710E-22
  -15.3199997      -1.52679005E-22
  -15.3100004       1.03183114E-22
  -15.3000002       5.94748263E-22
  -15.2900000       1.22429657E-21
  -15.2799997       1.67446973E-21
  -15.2700005       1.40446251E-21
  -15.2600002      -1.88320851E-22
  -15.2500000      -3.38856800E-21
  -15.2399998      -7.62144910E-21
  -15.2299995      -1.09799696E-20
  -15.2200003      -1.02287159E-20
  -15.2100000      -1.74468911E-21
  -15.1999998       1.63657733E-20
  -15.1899996       4.13264733E-20
  -15.1800003       6.31635180E-20
  -15.1700001       6.46581559E-20
  -15.1599998       2.60240795E-20
  -15.1499996      -6.46016103E-20
  -15.1400003      -1.96606640E-19
  -15.1300001      -3.24124364E-19
  -15.1199999      -3.64571299E-19
  -15.1099997      -2.18744811E-19
  -15.1000004       1.82404466E-19
  -15.0900002       8.11512468E-19
  -15.0799999       1.48367571E-18
  -15.0699997       1.84094815E-18
  -15.0600004       1.42656789E-18
  -15.0500002      -1.26756873E-19
  -15.0400000      -2.81863179E-18
  -15.0299997      -6.00635240E-18
  -15.0200005      -8.29243105E-18
  -15.0100002      -7.75331195E-18
  -15.0000000      -2.62212615E-18
  -14.9899998       7.63604172E-18
  -14.9799995       2.11756235E-17
  -14.9700003       3.31220687E-17
  -14.9600000       3.61057488E-17
  -14.9499998       2.24726394E-17
  -14.9399996      -1.19060655E-17
  -14.9300003      -6.31954606E-17
  -14.9200001      -1.16437953E-16
  -14.9099998      -1.46102768E-16
  -14.8999996      -1.22354068E-16
  -14.8900003      -2.33460197E-17
  -14.8800001       1.49014536E-16
  -14.8699999       3.55650076E-16
  -14.8599997       5.17271586E-16
  -14.8500004       5.29238097E-16
  -14.8400002       2.97327782E-16
  -14.8299999      -2.11075568E-16
  -14.8199997      -9.16393405E-16
  -14.8100004      -1.60137878E-15
  -14.8000002      -1.93659472E-15
  -14.7900000      -1.57237987E-15
  -14.7799997      -2.89788421E-16
  -14.7700005       1.82851416E-15
  -14.7600002       4.27587865E-15
  -14.7500000       6.12897879E-15
  -14.7399998       6.24764175E-15
  -14.7299995       3.67394739E-15
  -14.7200003      -1.84930692E-15
  -14.7100000      -9.41322537E-15
  -14.6999998      -1.67626008E-14
  -14.6899996      -2.06175866E-14
  -14.6800003      -1.75957085E-14
  -14.6700001      -5.61667886E-15
  -14.6599998       1.45909032E-14
  -14.6499996       3.84791381E-14
  -14.6400003       5.78220468E-14
  -14.6300001       6.24663759E-14
  -14.6199999       4.36729950E-14
  -14.6099997      -1.64409730E-15
  -14.6000004      -6.71440171E-14
  -14.5900002      -1.35498885E-13
  -14.5799999      -1.80620330E-13
  -14.5699997      -1.74355796E-13
  -14.5600004      -9.68119831E-14
  -14.5500002       5.23299360E-14
  -14.5400000       2.45585155E-13
  -14.5299997       4.26981828E-13
  -14.5200005       5.22153447E-13
  -14.5100002       4.59481032E-13
  -14.5000000       1.98398521E-13
  -14.4899998      -2.43213192E-13
  -14.4799995      -7.73233745E-13
  -14.4700003      -1.23129631E-12
  -14.4600000      -1.42223744E-12
  -14.4499998      -1.17448781E-12
  -14.4399996      -4.10842692E-13
  -14.4300003       7.89750101E-13
  -14.4200001       2.16468640E-12
  -14.4099998       3.29588310E-12
  -14.3999996       3.70223600E-12
  -14.3900003       2.98507725E-12
  -14.3800001       9.93288026E-13
  -14.3699999      -2.04248532E-12
  -14.3599997      -5.46199414E-12
  -14.3500004      -8.25689950E-12
  -14.3400002      -9.29391546E-12
  -14.3299999      -7.64833422E-12
  -14.3199997      -2.97128381E-12
  -14.3100004       4.21883795E-12
  -14.3000002       1.24365717E-11
  -14.2900000       1.94079492E-11
  -14.2799997       2.25498197E-11
  -14.2700005       1.96842265E-11
  -14.2600002       9.83178209E-12
  -14.2500000      -6.13762730E-12
  -14.2399998      -2.52333310E-11
  -14.2299995      -4.26358289E-11
  -14.2200003      -5.26166610E-11
  -14.2100000      -4.99823377E-11
  -14.1999998      -3.17587102E-11
  -14.1899996       1.31038464E-12
  -14.1800003       4.39326492E-11
  -14.1700001       8.65219146E-11
  -14.1599998       1.16755203E-10
  -14.1499996       1.22339416E-10
  -14.1400003       9.45306403E-11
  -14.1300001       3.16171152E-11
  -14.1199999      -5.86243901E-11
  -14.1099997      -1.58470459E-10
  -14.1000004      -2.42469378E-10
  -14.0900002      -2.82453561E-10
  -14.0799999      -2.54712723E-10
  -14.0699997      -1.47911738E-10
  -14.0600004       3.02702793E-11
  -14.0500002       2.50011151E-10
  -14.0400000       4.61593153E-10
  -14.0299997       6.03889161E-10
  -14.0200005       6.18412099E-10
  -14.0100002       4.66470307E-10
  -14.0000000       1.45393531E-10
  -13.9899998      -3.01056846E-10
  -13.9799995      -7.82641674E-10
  -13.9700003      -1.17575683E-09
  -13.9600000      -1.34943712E-09
  -13.9499998      -1.20018262E-09
  -13.9399996      -6.87911172E-10
  -13.9300003       1.36972489E-10
  -13.9200001       1.12536980E-09
  -13.9099998       2.04715245E-09
  -13.8999996       2.63593791E-09
  -13.8900003       2.65467559E-09
  -13.8800001       1.96823113E-09
  -13.8699999       6.03934180E-10
  -13.8599997      -1.21983090E-09
  -13.8500004      -3.11217629E-09
  -13.8400002      -4.58039873E-09
  -13.8299999      -5.14396037E-09
  -13.8199997      -4.46870674E-09
  -13.8100004      -2.48775800E-09
  -13.8000002       5.27452138E-10
  -13.7900000       3.97560163E-09
  -13.7799997       7.02626890E-09
  -13.7700005       8.80241213E-09
  -13.7600002       8.60898997E-09
  -13.7500000       6.15283069E-09
  -13.7399998       1.69161507E-09
  -13.7299995      -3.94125488E-09
  -13.7200003      -9.46370449E-09
  -13.7100000      -1.34144758E-08
  -13.6999998      -1.45147361E-08
  -13.6899996      -1.20382282E-08
  -13.6800003      -6.09082251E-09
  -13.6700001       2.29014274E-09
  -13.6599998       1.12710143E-08
  -13.6499996       1.85902191E-08
  -13.6400003       2.20954544E-08
  -13.6300001       2.03303347E-08
  -13.6199999       1.30207285E-08
  -13.6099997       1.31665701E-09
  -13.6000004      -1.23093669E-08
  -13.5900002      -2.45289904E-08
  -13.5799999      -3.19170823E-08
  -13.5699997      -3.18431255E-08
  -13.5600004      -2.32780053E-08
  -13.5500002      -7.29191907E-09
  -13.5400000       1.29303173E-08
  -13.5299997       3.26272271E-08
  -13.5200005       4.64875463E-08
  -13.5100002       4.99653119E-08
  -13.5000000       4.05801792E-08
  -13.4899998       1.88628224E-08
  -13.4799995      -1.13488490E-08
  -13.4700003      -4.34288587E-08
  -13.4600000      -6.92759272E-08
  -13.4499998      -8.11906773E-08
  -13.4399996      -7.39123251E-08
  -13.4300003      -4.63149341E-08
  -13.4200001      -2.28368702E-09
  -13.4099998       4.95617556E-08
  -13.3999996       9.73799033E-08
  -13.3900003       1.28635151E-07
  -13.3800001       1.33133938E-07
  -13.3699999       1.05870207E-07
  -13.3599997       4.89423648E-08
  -13.3500004      -2.80516002E-08
  -13.3400002      -1.09421961E-07
  -13.3299999      -1.76459579E-07
  -13.3199997      -2.11601716E-07
  -13.3100004      -2.02784506E-07
  -13.3000002      -1.46931256E-07
  -13.2900000      -5.16320497E-08
  -13.2799997       6.55764794E-08
  -13.2700005       1.80385584E-07
  -13.2600002       2.66797713E-07
  -13.2500000       3.03054748E-07
  -13.2399998       2.77050276E-07
  -13.2299995       1.89880311E-07
  -13.2200003       5.65391716E-08
  -13.2100000      -9.66111458E-08
  -13.1999998      -2.37210386E-07
  -13.1899996      -3.34005989E-07
  -13.1800003      -3.64104494E-07
  -13.1700001      -3.18648688E-07
  -13.1599998      -2.05484312E-07
  -13.1499996      -4.80292819E-08
  -13.1400003       1.19567972E-07
  -13.1300001       2.59999439E-07
  -13.1199999       3.41417177E-07
  -13.1099997       3.45093611E-07
  -13.1000004       2.70257942E-07
  -13.0900002       1.34837364E-07
  -13.0799999      -2.82458164E-08
  -13.0699997      -1.78528254E-07
  -13.0600004      -2.77594921E-07
  -13.0500002      -2.98609763E-07
  -13.0400000      -2.33503712E-07
  -13.0299997      -9.59802833E-08
  -13.0200005       8.06081388E-08
  -13.0100002       2.50303827E-07
  -13.0000000       3.65126994E-07
  -12.9899998       3.86907061E-07
  -12.9799995       2.97632937E-07
  -12.9700003       1.05758801E-07
  -12.9600000      -1.53329992E-07
  -12.9499998      -4.23255727E-07
  -12.9399996      -6.38109441E-07
  -12.9300003      -7.37201049E-07
  -12.9200001      -6.79933009E-07
  -12.9099998      -4.57350779E-07
  -12.8999996      -9.74246817E-08
  -12.8900003       3.37668922E-07
  -12.8800001       7.62287527E-07
  -12.8699999       1.08425536E-06
  -12.8599997       1.22460290E-06
  -12.8500004       1.13583849E-06
  -12.8400002       8.14530210E-07
  -12.8299999       3.05013231E-07
  -12.8199997      -3.07107541E-07
  -12.8100004      -9.10714050E-07
  -12.8000002      -1.39107078E-06
  -12.7900000      -1.65319238E-06
  -12.7799997      -1.64150970E-06
  -12.7700005      -1.35136668E-06
  -12.7600002      -8.29682392E-07
  -12.7500000      -1.64613326E-07
  -12.7399998       5.33356683E-07
  -12.7299995       1.15441048E-06
  -12.7200003       1.61101923E-06
  -12.7100000       1.85310148E-06
  -12.6999998       1.87331000E-06
  -12.6899996       1.70158614E-06
  -12.6800003       1.39093947E-06
  -12.6700001       9.98739097E-07
  -12.6599998       5.69026042E-07
  -12.6499996       1.21120365E-07
  -12.6400003      -3.51892368E-07
  -12.6300001      -8.73947783E-07
  -12.6199999      -1.46832303E-06
  -12.6099997      -2.13641670E-06
  -12.6000004      -2.83939858E-06
  -12.5900002      -3.48900562E-06
  -12.5799999      -3.95193365E-06
  -12.5699997      -4.06911568E-06
  -12.5600004      -3.68743781E-06
  -12.5500002      -2.69796465E-06
  -12.5400000      -1.07249878E-06
  -12.5299997       1.11020825E-06
  -12.5200005       3.65571645E-06
  -12.5100002       6.26647534E-06
  -12.5000000       8.57520445E-06
  -12.4899998       1.01941414E-05
  -12.4799995       1.07717406E-05
  -12.4700003       1.00466787E-05
  -12.4600000       7.88956731E-06
  -12.4499998       4.32529532E-06
  -12.4399996      -4.66936484E-07
  -12.4300003      -6.17433079E-06
  -12.4200001      -1.23864365E-05
  -12.4099998      -1.86385023E-05
  -12.3999996      -2.44542189E-05
  -12.3900003      -2.93816938E-05
  -12.3800001      -3.30199000E-05
  -12.3699999      -3.50365262E-05
  -12.3599997      -3.51810886E-05
  -12.3500004      -3.32983473E-05
  -12.3400002      -2.93458088E-05
  -12.3299999      -2.34160416E-05
  -12.3199997      -1.57600807E-05
  -12.3100004      -6.80428639E-06
  -12.3000002       2.84935527E-06
  -12.2900000       1.24488333E-05
  -12.2799997       2.11491169E-05
  -12.2700005       2.80994464E-05
  -12.2600002       3.25518740E-05
  -12.2500000       3.39748003E-05
  -12.2399998       3.21507214E-05
  -12.2299995       2.72373436E-05
  -12.2200003       1.97757581E-05
  -12.2100000       1.06384550E-05
  -12.1999998       9.21394303E-07
  -12.1899996      -8.20421519E-06
  -12.1800003      -1.56559981E-05
  -12.1700001      -2.05919259E-05
  -12.1599998      -2.25228050E-05
  -12.1499996      -2.13667263E-05
  -12.1400003      -1.74379584E-05
  -12.1300001      -1.13755668E-05
  -12.1199999      -4.02841852E-06
  -12.1099997       3.67943358E-06
  -12.1000004       1.08771237E-05
  -12.0900002       1.68470524E-05
  -12.0799999       2.10829639E-05
  -12.0699997       2.33029859E-05
  -12.0600004       2.34249837E-05
  -12.0500002       2.15191558E-05
  -12.0400000       1.77559996E-05
  -12.0299997       1.23659538E-05
  -12.0200005       5.62098603E-06
  -12.0100002      -2.16017861E-06
  -12.0000000      -1.05901745E-05
  -11.9899998      -1.91880263E-05
  -11.9799995      -2.73672940E-05
  -11.9700003      -3.44514738E-05
  -11.9600000      -3.97243311E-05
  -11.9499998      -4.25136932E-05
  -11.9399996      -4.22971716E-05
  -11.9300003      -3.88102999E-05
  -11.9200001      -3.21333719E-05
  -11.9099998      -2.27343789E-05
  -11.8999996      -1.14519471E-05
  -11.8900003       5.87019258E-07
  -11.8800001       1.21071835E-05
  -11.8699999       2.18618788E-05
  -11.8599997       2.88179344E-05
  -11.8500004       3.23149688E-05
  -11.8400002       3.21687330E-05
  -11.8299999       2.86972227E-05
  -11.8199997       2.26622360E-05
  -11.8100004       1.51350232E-05
  -11.8000002       7.30966531E-06
  -11.7900000       2.98409645E-07
  -11.7799997      -5.05251592E-06
  -11.7700005      -8.29157216E-06
  -11.7600002      -9.41063445E-06
  -11.7500000      -8.80511652E-06
  -11.7399998      -7.15474425E-06
  -11.7299995      -5.25078576E-06
  -11.7200003      -3.80694837E-06
  -11.7100000      -3.29510544E-06
  -11.6999998      -3.84216401E-06
  -11.6899996      -5.21152697E-06
  -11.6800003      -6.87401234E-06
  -11.6700001      -8.15272324E-06
  -11.6599998      -8.40855228E-06
  -11.6499996      -7.22207551E-06
  -11.6400003      -4.52646873E-06
  -11.6300001      -6.55698329E-07
  -11.6199999       3.70889688E-06
  -11.6099997       7.68632071E-06
  -11.6000004       1.04065002E-05
  -11.5900002       1.12342632E-05
  -11.5799999       9.95023038E-06
  -11.5699997       6.83878807E-06
  -11.5600004       2.65304220E-06
  -11.5500002      -1.54444274E-06
  -11.5400000      -4.63483548E-06
  -11.5299997      -5.73356192E-06
  -11.5200005      -4.44752095E-06
  -11.5100002      -1.03098432E-06
  -11.5000000       3.60800914E-06
  -11.4899998       8.06570370E-06
  -11.4799995       1.07408623E-05
  -11.4700003       1.02131307E-05
  -11.4600000       5.61793240E-06
  -11.4499998      -3.07052278E-06
  -11.4399996      -1.49207799E-05
  -11.4300003      -2.81294979E-05
  -11.4200001      -4.03060621E-05
  -11.4099998      -4.89075755E-05
  -11.3999996      -5.17405460E-05
  -11.3900003      -4.74282388E-05
  -11.3800001      -3.57466015E-05
  -11.3699999      -1.77560996E-05
  -11.3599997       4.30362525E-06
  -11.3500004       2.73432361E-05
  -11.3400002       4.79206319E-05
  -11.3299999       6.28165872E-05
  -11.3199997       6.95852941E-05
  -11.3100004       6.69806032E-05
  -11.3000002       5.51811900E-05
  -11.2900000       3.57740173E-05
  -11.2799997       1.14981940E-05
  -11.2700005      -1.42066601E-05
  -11.2600002      -3.77692922E-05
  -11.2500000      -5.60741100E-05
  -11.2399998      -6.69644651E-05
  -11.2299995      -6.95735434E-05
  -11.2200003      -6.44244210E-05
  -11.2100000      -5.32813538E-05
  -11.1999998      -3.87792352E-05
  -11.1899996      -2.38992397E-05
  -11.1800003      -1.13879587E-05
  -11.1700001      -3.22969163E-06
  -11.1599998      -2.73090791E-07
  -11.1499996      -2.08560073E-06
  -11.1400003      -7.06629680E-06
  -11.1300001      -1.27983085E-05
  -11.1199999      -1.65750189E-05
  -11.1099997      -1.59992760E-05
  -11.1000004      -9.53897961E-06
  -11.0900002       3.07150026E-06
  -11.0799999       2.06671721E-05
  -11.0699997       4.07654588E-05
  -11.0600004       5.99451923E-05
  -11.0500002       7.44308200E-05
  -11.0400000       8.07818506E-05
  -11.0299997       7.65654841E-05
  -11.0200005       6.08895207E-05
  -11.0100002       3.46926317E-05
  -11.0000000       7.27918007E-07
  -10.9899998      -3.67730499E-05
  -10.9799995      -7.27128936E-05
  -10.9700003      -1.01923499E-04
  -10.9600000      -1.20011893E-04
  -10.9499998      -1.24109269E-04
  -10.9399996      -1.13385679E-04
  -10.9300003      -8.92302414E-05
  -10.9200001      -5.50547265E-05
  -10.9099998      -1.57492668E-05
  -10.8999996       2.31134964E-05
  -10.8900003       5.61784618E-05
  -10.8800001       7.91436541E-05
  -10.8699999       8.93773467E-05
  -10.8599997       8.62114321E-05
  -10.8500004       7.08778753E-05
  -10.8400002       4.61334566E-05
  -10.8299999       1.56825499E-05
  -10.8199997      -1.64579287E-05
  -10.8100004      -4.65123849E-05
  -10.8000002      -7.13222471E-05
  -10.7900000      -8.85127083E-05
  -10.7799997      -9.64888604E-05
  -10.7700005      -9.43500563E-05
  -10.7600002      -8.18263507E-05
  -10.7500000      -5.93140830E-05
  -10.7399998      -2.80283421E-05
  -10.7299995       9.78306980E-06
  -10.7200003       5.06800316E-05
  -10.7100000       9.00644227E-05
  -10.6999998       1.22521247E-04
  -10.6899996       1.42503864E-04
  -10.6800003       1.45294238E-04
  -10.6700001       1.28062209E-04
  -10.6599998       9.07747453E-05
  -10.6499996       3.66932945E-05
  -10.6400003      -2.77415784E-05
  -10.6300001      -9.37144869E-05
  -10.6199999      -1.51442888E-04
  -10.6099997      -1.91944448E-04
  -10.6000004      -2.08808939E-04
  -10.5900002      -1.99585906E-04
  -10.5799999      -1.66458485E-04
  -10.5699997      -1.16014271E-04
  -10.5600004      -5.81157365E-05
  -10.5500002      -4.07045127E-06
  -10.5400000       3.55417542E-05
  -10.5299997       5.29469689E-05
  -10.5200005       4.47380589E-05
  -10.5100002       1.26007362E-05
  -10.5000000      -3.69420668E-05
  -10.4899998      -9.37169389E-05
  -10.4799995      -1.45785612E-04
  -10.4700003      -1.81667318E-04
  -10.4600000      -1.92480307E-04
  -10.4499998      -1.73610824E-04
  -10.4399996      -1.25614170E-04
  -10.4300003      -5.41970694E-05
  -10.4200001       3.07044356E-05
  -10.4099998       1.16582007E-04
  -10.3999996       1.90455787E-04
  -10.3900003       2.41057656E-04
  -10.3800001       2.60726461E-04
  -10.3699999       2.46695417E-04
  -10.3599997       2.01554984E-04
  -10.3500004       1.32814588E-04
  -10.3400002       5.16392538E-05
  -10.3299999      -2.90185399E-05
  -10.3199997      -9.65654690E-05
  -10.3100004      -1.40815959E-04
  -10.3000002      -1.55585687E-04
  -10.2900000      -1.39559357E-04
  -10.2799997      -9.63018465E-05
  -10.2700005      -3.34457363E-05
  -10.2600002       3.87559267E-05
  -10.2500000       1.09209876E-04
  -10.2399998       1.67748120E-04
  -10.2299995       2.06560115E-04
  -10.2200003       2.21069058E-04
  -10.2100000       2.10166705E-04
  -10.1999998       1.75864159E-04
  -10.1899996       1.22530502E-04
  -10.1800003       5.59499131E-05
  -10.1700001      -1.75768710E-05
  -10.1599998      -9.19238009E-05
  -10.1499996      -1.61555639E-04
  -10.1400003      -2.21698880E-04
  -10.1300001      -2.68368662E-04
  -10.1199999      -2.98377417E-04
  -10.1099997      -3.09426803E-04
  -10.1000004      -3.00322077E-04
  -10.0900002      -2.71272991E-04
  -10.0799999      -2.24180811E-04
  -10.0699997      -1.62781900E-04
  -10.0600004      -9.25328131E-05
  -10.0500002      -2.01760049E-05
  -10.0400000       4.69957704E-05
  -10.0299997       1.02078375E-04
  -10.0200005       1.39541065E-04
  -10.0100002       1.56075926E-04
  -10.0000000       1.51148095E-04
  -9.98999977       1.27134932E-04
  -9.97999954       8.90154988E-05
  -9.97000027       4.36496630E-05
  -9.96000004      -1.24636108E-06
  -9.94999981      -3.82739854E-05
  -9.93999958      -6.14995006E-05
  -9.93000031      -6.74004841E-05
  -9.92000008      -5.54613325E-05
  -9.90999985      -2.83113986E-05
  -9.89999962       8.64159119E-06
  -9.89000034       4.80579693E-05
  -9.88000011       8.18891567E-05
  -9.86999989       1.02799422E-04
  -9.85999966       1.05552288E-04
  -9.85000038       8.81053347E-05
  -9.84000015       5.21817492E-05
  -9.82999992       3.16331352E-06
  -9.81999969      -5.07302902E-05
  -9.81000042      -9.98676260E-05
  -9.80000019      -1.34992893E-04
  -9.78999996      -1.49035593E-04
  -9.77999973      -1.38576390E-04
  -9.77000046      -1.04656829E-04
  -9.76000023      -5.27477714E-05
  -9.75000000       8.13621773E-06
  -9.73999977       6.70086592E-05
  -9.72999954       1.12858681E-04
  -9.72000027       1.36590592E-04
  -9.71000004       1.32585381E-04
  -9.69999981       9.96074086E-05
  -9.68999958       4.09267159E-05
  -9.68000031      -3.63104882E-05
  -9.67000008      -1.22291414E-04
  -9.65999985      -2.06068886E-04
  -9.64999962      -2.77137035E-04
  -9.64000034      -3.26807756E-04
  -9.63000011      -3.49219190E-04
  -9.61999989      -3.41892854E-04
  -9.60999966      -3.05831636E-04
  -9.60000038      -2.45202595E-04
  -9.59000015      -1.66677797E-04
  -9.57999992      -7.85225930E-05
  -9.56999969       1.04678784E-05
  -9.56000042       9.20654129E-05
  -9.55000019       1.59602845E-04
  -9.53999996       2.08719852E-04
  -9.52999973       2.37729852E-04
  -9.52000046       2.47526797E-04
  -9.51000023       2.41033587E-04
  -9.50000000       2.22298186E-04
  -9.48999977       1.95437955E-04
  -9.47999954       1.63689299E-04
  -9.47000027       1.28811225E-04
  -9.46000004       9.10093513E-05
  -9.44999981       4.94092346E-05
  -9.43999958       2.94605252E-06
  -9.43000031      -4.85964920E-05
  -9.42000008      -1.03730257E-04
  -9.40999985      -1.58890180E-04
  -9.39999962      -2.08719561E-04
  -9.39000034      -2.46999960E-04
  -9.38000011      -2.68016563E-04
  -9.36999989      -2.68005329E-04
  -9.35999966      -2.46282347E-04
  -9.35000038      -2.05724049E-04
  -9.34000015      -1.52434979E-04
  -9.32999992      -9.46564323E-05
  -9.31999969      -4.11733890E-05
  -9.31000042       3.93188913E-07
  -9.30000019       2.50019348E-05
  -9.28999996       3.10004361E-05
  -9.27999973       2.01880703E-05
  -9.27000046      -2.80999234E-06
  -9.26000023      -3.16370606E-05
  -9.25000000      -5.94644844E-05
  -9.23999977      -8.01277565E-05
  -9.22999954      -8.89443036E-05
  -9.22000027      -8.31499055E-05
  -9.21000004      -6.20096325E-05
  -9.19999981      -2.67249798E-05
  -9.18999958       1.97450263E-05
  -9.18000031       7.28914092E-05
  -9.17000008       1.26915547E-04
  -9.15999985       1.75125038E-04
  -9.14999962       2.10551181E-04
  -9.14000034       2.26812350E-04
  -9.13000011       2.19141424E-04
  -9.11999989       1.85385448E-04
  -9.10999966       1.26722123E-04
  -9.10000038       4.78538168E-05
  -9.09000015      -4.34565954E-05
  -9.07999992      -1.37478142E-04
  -9.06999969      -2.24026400E-04
  -9.06000042      -2.94068042E-04
  -9.05000019      -3.41050501E-04
  -9.03999996      -3.61669750E-04
  -9.02999973      -3.55954631E-04
  -9.02000046      -3.26741749E-04
  -9.01000023      -2.78778753E-04
  -9.00000000      -2.17766399E-04
  -8.98999977      -1.49610569E-04
  -8.97999954      -8.00215130E-05
  -8.97000027      -1.44218302E-05
  -8.96000004       4.20214164E-05
  -8.94999981       8.44826282E-05
  -8.93999958       1.08865752E-04
  -8.93000031       1.12522845E-04
  -8.92000008       9.51372203E-05
  -8.90999985       5.94502599E-05
  -8.89999962       1.14667264E-05
  -8.89000034      -4.01285361E-05
  -8.88000011      -8.53863676E-05
  -8.86999989      -1.15105468E-04
  -8.85999966      -1.22963902E-04
  -8.85000038      -1.07181149E-04
  -8.84000015      -7.11924440E-05
  -8.82999992      -2.30627738E-05
  -8.81999969       2.62794583E-05
  -8.81000042       6.55580516E-05
  -8.80000019       8.57484483E-05
  -8.78999996       8.20584391E-05
  -8.77999973       5.47655327E-05
  -8.77000046       8.72781220E-06
  -8.76000023      -4.82189862E-05
  -8.75000000      -1.07441971E-04
  -8.73999977      -1.61587246E-04
  -8.72999954      -2.05946970E-04
  -8.72000027      -2.38783585E-04
  -8.71000004      -2.60647241E-04
  -8.69999981      -2.73064274E-04
  -8.68999958      -2.77168845E-04
  -8.68000031      -2.72834965E-04
  -8.67000008      -2.58648273E-04
  -8.65999985      -2.32719016E-04
  -8.64999962      -1.94000473E-04
  -8.64000034      -1.43566998E-04
  -8.63000011      -8.52969461E-05
  -8.61999989      -2.56063286E-05
  -8.60999966       2.77818926E-05
  -8.60000038       6.76901473E-05
  -8.59000015       8.93721372E-05
  -8.57999992       9.17995931E-05
  -8.56999969       7.78953472E-05
  -8.56000042       5.36012521E-05
  -8.55000019       2.60587294E-05
  -8.53999996       1.48020547E-06
  -8.52999973      -1.66037444E-05
  -8.52000046      -2.81621924E-05
  -8.51000023      -3.63024083E-05
  -8.50000000      -4.58806644E-05
  -8.48999977      -6.15762037E-05
  -8.47999954      -8.60856744E-05
  -8.47000027      -1.19034725E-04
  -8.46000004      -1.56940834E-04
  -8.44999981      -1.94193213E-04
  -8.43999958      -2.24672389E-04
  -8.43000031      -2.43435221E-04
  -8.42000008      -2.47904594E-04
  -8.40999985      -2.38214387E-04
  -8.39999962      -2.16688277E-04
  -8.39000034      -1.86746474E-04
  -8.38000011      -1.51725762E-04
  -8.36999989      -1.14092305E-04
  -8.35999966      -7.53321074E-05
  -8.35000038      -3.65001506E-05
  -8.34000015       8.84656060E-07
  -8.32999992       3.40772967E-05
  -8.31999969       5.89250958E-05
  -8.31000042       7.04931954E-05
  -8.30000019       6.43926833E-05
  -8.28999996       3.83927400E-05
  -8.27999973      -6.27502686E-06
  -8.27000046      -6.44688043E-05
  -8.26000023      -1.27838430E-04
  -8.25000000      -1.86584584E-04
  -8.23999977      -2.31803933E-04
  -8.22999954      -2.57715583E-04
  -8.22000027      -2.63066409E-04
  -8.21000004      -2.51257617E-04
  -8.19999981      -2.29147030E-04
  -8.18999958      -2.04913857E-04
  -8.18000031      -1.85679572E-04
  -8.17000008      -1.75646273E-04
  -8.15999985      -1.75320034E-04
  -8.14999962      -1.81998505E-04
  -8.14000034      -1.91257466E-04
  -8.13000011      -1.98830297E-04
  -8.11999989      -2.02158422E-04
  -8.10999966      -2.01042247E-04
  -8.10000038      -1.97182468E-04
  -8.09000015      -1.92839914E-04
  -8.07999992      -1.89193583E-04
  -8.06999969      -1.85109384E-04
  -8.06000042      -1.76894246E-04
  -8.05000019      -1.59246221E-04
  -8.03999996      -1.27154228E-04
  -8.02999973      -7.81163035E-05
  -8.02000046      -1.38787509E-05
  -8.01000023       5.89834453E-05
  -8.00000000       1.29956607E-04
  -7.98999977       1.86769801E-04
  -7.98000002       2.18246831E-04
  -7.96999979       2.16972141E-04
  -7.96000004       1.80968578E-04
  -7.94999981       1.13912334E-04
  -7.94000006       2.38933171E-05
  -7.92999983      -7.88019170E-05
  -7.92000008      -1.84116754E-04
  -7.90999985      -2.84079288E-04
  -7.90000010      -3.73565505E-04
  -7.88999987      -4.49885934E-04
  -7.88000011      -5.11554477E-04
  -7.86999989      -5.56888757E-04
  -7.86000013      -5.83122077E-04
  -7.84999990      -5.86472161E-04
  -7.84000015      -5.63202484E-04
  -7.82999992      -5.11288585E-04
  -7.82000017      -4.32023517E-04
  -7.80999994      -3.30875948E-04
  -7.80000019      -2.17158959E-04
  -7.78999996      -1.02492413E-04
  -7.78000021       1.51486643E-06
  -7.76999998       8.56376355E-05
  -7.76000023       1.44696678E-04
  -7.75000000       1.77986964E-04
  -7.73999977       1.88379621E-04
  -7.73000002       1.80475647E-04
  -7.71999979       1.58521114E-04
  -7.71000004       1.24867278E-04
  -7.69999981       7.95427695E-05
  -7.69000006       2.10812868E-05
  -7.67999983      -5.17345215E-05
  -7.67000008      -1.37910160E-04
  -7.65999985      -2.32860722E-04
  -7.65000010      -3.28231865E-04
  -7.63999987      -4.13116504E-04
  -7.63000011      -4.76369867E-04
  -7.61999989      -5.09328849E-04
  -7.61000013      -5.08082274E-04
  -7.59999990      -4.74575354E-04
  -7.59000015      -4.16209135E-04
  -7.57999992      -3.44078988E-04
  -7.57000017      -2.70415505E-04
  -7.55999994      -2.06004363E-04
  -7.55000019      -1.58303708E-04
  -7.53999996      -1.30686938E-04
  -7.53000021      -1.22828322E-04
  -7.51999998      -1.31876557E-04
  -7.51000023      -1.53855115E-04
  -7.50000000      -1.84752062E-04
  -7.48999977      -2.20988091E-04
  -7.48000002      -2.59272143E-04
  -7.46999979      -2.96139129E-04
  -7.46000004      -3.27598042E-04
  -7.44999981      -3.49249574E-04
  -7.44000006      -3.56999401E-04