  -16.0000000       0.00000000    
  -15.9899998       0.00000000    
  -15.9799995       0.00000000    
  -15.9700003       0.00000000    
  -15.9600000       0.00000000    
  -15.9499998       0.00000000    
  -15.9399996       0.00000000    
  -15.9300003       0.00000000    
  -15.9200001       0.00000000    
  -15.9099998       0.00000000    
  -15.8999996      -3.80466546E-40
  -15.8900003      -2.47909597E-39
  -15.8800001       3.70279196E-37
  -15.8699999       6.10125477E-36
  -15.8599997       4.77626428E-35
  -15.8500004       2.43199266E-34
  -15.8400002       9.81171727E-34
  -15.8299999       4.04707387E-33
  -15.8199997       1.99415138E-32
  -15.8100004       1.02395491E-31
  -15.8000002       4.65347086E-31
  -15.7900000       1.76532977E-30
  -15.7799997       5.52094451E-30
  -15.7700005       1.40804197E-29
  -15.7600002       2.81910824E-29
  -15.7500000       3.84112102E-29
  -15.7399998       6.84053678E-30
  -15.7299995      -1.56114798E-28
  -15.7200003      -5.91580294E-28
  -15.7100000      -1.40233671E-27
  -15.6999998      -2.38375623E-27
  -15.6899996      -2.55282053E-27
  -15.6800003       2.85808317E-28
  -15.6700001       9.20308937E-27
  -15.6599998       2.58037897E-26
  -15.6499996       4.48384440E-26
  -15.6400003       4.67429946E-26
  -15.6300001      -6.23611763E-27
  -15.6199999      -1.58365109E-25
  -15.6099997      -4.18255137E-25
  -15.6000004      -6.81147224E-25
  -15.5900002      -6.43689643E-25
  -15.5799999       2.03892835E-25
  -15.5699997       2.36802633E-24
  -15.5600004       5.79359013E-24
  -15.5500002       8.99047813E-24
  -15.5400000       8.25846175E-24
  -15.5299997      -2.04931193E-24
  -15.5200005      -2.69261577E-23
  -15.5100002      -6.48759208E-23
  -15.5000000      -9.97578733E-23
  -15.4899998      -9.46691525E-23
  -15.4799995       3.73009369E-24
  -15.4700003       2.40247526E-22
  -15.4600000       6.00245348E-22
  -15.4499998       9.43161391E-22
  -15.4399996       9.57099163E-22
  -15.4300003       1.98658034E-22
  -15.4200001      -1.71016098E-21
  -15.4099998      -4.69751589E-21
  -15.3999996      -7.75254107E-21
  -15.3900003      -8.59098071E-21
  -15.3800001      -3.90915945E-21
  -15.3699999       9.30401525E-21
  -15.3599997       3.12023998E-20
  -15.3500004       5.57804205E-20
  -15.3400002       6.84261380E-20
  -15.3299999       4.69716029E-20
  -15.3199997      -3.08639504E-20
  -15.3100004      -1.72243767E-19
  -15.3000002      -3.48730170E-19
  -15.2900000      -4.79103683E-19
  -15.2799997      -4.30108870E-19
  -15.2700005      -5.19225406E-20
  -15.2600002       7.41569901E-19
  -15.2500000       1.85689826E-18
  -15.2399998       2.90960408E-18
  -15.2299995       3.19065979E-18
  -15.2200003       1.80128091E-18
  -15.2100000      -1.97640518E-18
  -15.1999998      -8.08880813E-18
  -15.1899996      -1.50606809E-17
  -15.1800003      -1.96153789E-17
  -15.1700001      -1.70128817E-17
  -15.1599998      -2.50744996E-18
  -15.1499996       2.59836373E-17
  -15.1400003       6.45161438E-17
  -15.1300001       1.00369169E-16
  -15.1199999       1.11901814E-16
  -15.1099997       7.31233419E-17
  -15.1000004      -3.58537631E-17
  -15.0900002      -2.13566732E-16
  -15.0799999      -4.21590400E-16
  -15.0699997      -5.76425191E-16
  -15.0600004      -5.58562854E-16
  -15.0500002      -2.46522242E-16
  -15.0400000       4.23526532E-16
  -15.0299997       1.38437773E-15
  -15.0200005       2.37750078E-15
  -15.0100002       2.94455503E-15
  -15.0000000       2.51015567E-15
  -14.9899998       5.77351527E-16
  -14.9799995      -2.98280641E-15
  -14.9700003      -7.62322537E-15
  -14.9600000      -1.19272751E-14
  -14.9499998      -1.36938199E-14
  -14.9399996      -1.04384181E-14
  -14.9300003      -3.42125872E-16
  -14.9200001       1.65060006E-14
  -14.9099998       3.69532895E-14
  -14.8999996       5.42849084E-14
  -14.8900003       5.89980132E-14
  -14.8800001       4.12623799E-14
  -14.8699999      -5.01924916E-15
  -14.8599997      -7.73848284E-14
  -14.8500004      -1.60858712E-13
  -14.8400002      -2.27051966E-13
  -14.8299999      -2.38409336E-13
  -14.8199997      -1.58665886E-13
  -14.8100004       3.14531319E-14
  -14.8000002       3.16957235E-13
  -14.7900000       6.36002698E-13
  -14.7799997       8.79608832E-13
  -14.7700005       9.10221876E-13
  -14.7600002       6.01393338E-13
  -14.7500000      -1.06501342E-13
  -14.7399998      -1.14851043E-12
  -14.7299995      -2.29705165E-12
  -14.7200003      -3.16814695E-12
  -14.7100000      -3.29109808E-12
  -14.6999998      -2.24525737E-12
  -14.6899996       1.56580627E-13
  -14.6800003       3.68602978E-12
  -14.6700001       7.58760763E-12
  -14.6599998       1.06121327E-11
  -14.6499996       1.12482298E-11
  -14.6400003       8.15491424E-12
  -14.6300001       7.25025617E-13
  -14.6199999      -1.03692367E-11
  -14.6099997      -2.28544475E-11
  -14.6000004      -3.29691413E-11
  -14.5900002      -3.61544822E-11
  -14.5799999      -2.83163371E-11
  -14.5699997      -7.44659109E-12
  -14.5600004       2.48207913E-11
  -14.5500002       6.22885146E-11
  -14.5400000       9.44796325E-11
  -14.5299997       1.08497163E-10
  -14.5200005       9.24275378E-11
  -14.5100002       3.97135276E-11
  -14.5000000      -4.66211236E-11
  -14.4899998      -1.51371443E-10
  -14.4799995      -2.47635190E-10
  -14.4700003      -3.01326269E-10
  -14.4600000      -2.79651496E-10
  -14.4499998      -1.62149114E-10
  -14.4399996       4.84326017E-11
  -14.4300003       3.19000076E-10
  -14.4200001       5.86271587E-10
  -14.4099998       7.66573360E-10
  -14.3999996       7.75274900E-10
  -14.3900003       5.52779322E-10
  -14.3800001       9.09436970E-11
  -14.3699999      -5.48210644E-10
  -14.3599997      -1.22966781E-09
  -14.3500004      -1.76409631E-09
  -14.3400002      -1.94862526E-09
  -14.3299999      -1.62364366E-09
  -14.3199997      -7.32904792E-10
  -14.3100004       6.30321184E-10
  -14.3000002       2.20877516E-09
  -14.2900000       3.61131747E-09
  -14.2799997       4.39050574E-09
  -14.2700005       4.15707735E-09
  -14.2600002       2.70708789E-09
  -14.2500000       1.27674357E-10
  -14.2399998      -3.15464299E-09
  -14.2299995      -6.41102682E-09
  -14.2200003      -8.74233841E-09
  -14.2100000      -9.29035604E-09
  -14.1999998      -7.48599316E-09
  -14.1899996      -3.27232841E-09
  -14.1800003       2.76608692E-09
  -14.1700001       9.42406331E-09
  -14.1599998       1.50724002E-08
  -14.1499996       1.80115798E-08
  -14.1400003       1.69159513E-08
  -14.1300001       1.12635217E-08
  -14.1199999       1.63044067E-09
  -14.1099997      -1.02557260E-08
  -14.1000004      -2.17624958E-08
  -14.0900002      -2.98852285E-08
  -14.0799999      -3.19717017E-08
  -14.0699997      -2.64757016E-08
  -14.0600004      -1.35418103E-08
  -14.0500002       4.76237405E-09
  -14.0400000       2.46840415E-08
  -14.0299997       4.15014192E-08
  -14.0200005       5.05993789E-08
  -14.0100002       4.86712430E-08
  -14.0000000       3.47464564E-08
  -13.9899998       1.07485718E-08
  -13.9799995      -1.86266824E-08
  -13.9700003      -4.67699124E-08
  -13.9600000      -6.66206930E-08
  -13.9499998      -7.24239442E-08
  -13.9399996      -6.13528428E-08
  -13.9300003      -3.45544180E-08
  -13.9200001       2.72531708E-09
  -13.9099998       4.20749231E-08
  -13.8999996       7.37816066E-08
  -13.8900003       8.92344261E-08
  -13.8800001       8.32867642E-08
  -13.8699999       5.59440210E-08
  -13.8599997       1.28524036E-08
  -13.8500004      -3.56713485E-08
  -13.8400002      -7.69661099E-08
  -13.8299999      -9.92279752E-08
  -13.8199997      -9.48168903E-08
  -13.8100004      -6.27826182E-08
  -13.8000002      -9.83541781E-09
  -13.7900000       5.06803133E-08
  -13.7799997       1.01760207E-07
  -13.7700005       1.27077570E-07
  -13.7600002       1.15660285E-07
  -13.7500000       6.56675709E-08
  -13.7399998      -1.38795908E-08
  -13.7299995      -1.04145606E-07
  -13.7200003      -1.80374485E-07
  -13.7100000      -2.17938549E-07
  -13.6999998      -1.99179127E-07
  -13.6899996      -1.19289936E-07
  -13.6800003       1.04725331E-08
  -13.6700001       1.63469650E-07
  -13.6599998       3.02585818E-07
  -13.6499996       3.88606821E-07
  -13.6400003       3.90300158E-07
  -13.6300001       2.93748798E-07
  -13.6199999       1.08378622E-07
  -13.6099997      -1.32328736E-07
  -13.6000004      -3.76295219E-07
  -13.5900002      -5.63818276E-07
  -13.5799999      -6.41868724E-07
  -13.5699997      -5.78392360E-07
  -13.5600004      -3.72897773E-07
  -13.5500002      -6.01456094E-08
  -13.5400000       2.94810690E-07
  -13.5299997       6.09923632E-07
  -13.5200005       8.05263710E-07
  -13.5100002       8.23615096E-07
  -13.5000000       6.47350703E-07
  -13.4899998       3.06781345E-07
  -13.4799995      -1.23120671E-07
  -13.4700003      -5.38009715E-07
  -13.4600000      -8.28737882E-07
  -13.4499998      -9.09734467E-07
  -13.4399996      -7.44114573E-07
  -13.4300003      -3.58518832E-07
  -13.4200001       1.57378977E-07
  -13.4099998       6.68276641E-07
  -13.3999996       1.02485183E-06
  -13.3900003       1.10281474E-06
  -13.3800001       8.39914264E-07
  -13.3699999       2.60860901E-07
  -13.3599997      -5.17849230E-07
  -13.3500004      -1.30689102E-06
  -13.3400002      -1.88474610E-06
  -13.3299999      -2.05204310E-06
  -13.3199997      -1.68715746E-06
  -13.3100004      -7.88879788E-07
  -13.3000002       5.06344804E-07
  -13.2900000       1.94002178E-06
  -13.2799997       3.17996569E-06
  -13.2700005       3.89303750E-06
  -13.2600002       3.82686449E-06
  -13.2500000       2.88125648E-06
  -13.2399998       1.15059720E-06
  -13.2299995      -1.07622304E-06
  -13.2200003      -3.36264657E-06
  -13.2100000      -5.21129186E-06
  -13.1999998      -6.17362639E-06
  -13.1899996      -5.95815891E-06
  -13.1800003      -4.51107053E-06
  -13.1700001      -2.04766206E-06
  -13.1599998       9.76867113E-07
  -13.1499996       3.95501183E-06
  -13.1400003       6.25633356E-06
  -13.1300001       7.37064602E-06
  -13.1199999       7.03166415E-06
  -13.1099997       5.29015233E-06
  -13.1000004       2.51573010E-06
  -13.0900002      -6.77511707E-07
  -13.0799999      -3.56812325E-06
  -13.0699997      -5.49739934E-06
  -13.0600004      -6.03263152E-06
  -13.0500002      -5.08273570E-06
  -13.0400000      -2.93455878E-06
  -13.0299997      -1.95768251E-07
  -13.0200005       2.34742788E-06
  -13.0100002       3.92758420E-06
  -13.0000000       4.00223826E-06
  -12.9899998       2.41727821E-06
  -12.9799995      -5.17467186E-07
  -12.9700003      -4.06679601E-06
  -12.9600000      -7.22272262E-06
  -12.9499998      -8.94240384E-06
  -12.9399996      -8.41907513E-06
  -12.9300003      -5.32109743E-06
  -12.9200001       6.33616963E-08
  -12.9099998       6.82052632E-06
  -12.8999996       1.35583969E-05
  -12.8900003       1.86855741E-05
  -12.8800001       2.07662233E-05
  -12.8699999       1.88731847E-05
  -12.8599997       1.28554930E-05
  -12.8500004       3.45048988E-06
  -12.8400002      -7.79782567E-06
  -12.8299999      -1.88098820E-05
  -12.8199997      -2.73822097E-05
  -12.8100004      -3.16550213E-05
  -12.8000002      -3.05328940E-05
  -12.7900000      -2.39604396E-05
  -12.7799997      -1.29829423E-05
  -12.7700005       4.32354966E-07
  -12.7600002       1.37847564E-05
  -12.7500000       2.45593346E-05
  -12.7399998       3.07642658E-05
  -12.7299995       3.13650053E-05
  -12.7200003       2.65131657E-05
  -12.7100000       1.75118712E-05
  -12.6999998       6.51858682E-06
  -12.6899996      -3.95223606E-06
  -12.6800003      -1.16154633E-05
  -12.6700001      -1.49547313E-05
  -12.6599998      -1.35860291E-05
  -12.6499996      -8.35403534E-06
  -12.6400003      -1.13059355E-06
  -12.6300001       5.64497032E-06
  -12.6199999       9.58053170E-06
  -12.6099997       8.95661105E-06
  -12.6000004       3.21026323E-06
  -12.5900002      -6.84664747E-06
  -12.5799999      -1.91396648E-05
  -12.5699997      -3.07621995E-05
  -12.5600004      -3.86346401E-05
  -12.5500002      -4.02436235E-05
  -12.5400000      -3.42872081E-05
  -12.5299997      -2.10667913E-05
  -12.5200005      -2.52019618E-06
  -12.5100002       1.81285595E-05
  -12.5000000       3.70372763E-05
  -12.4899998       5.05879398E-05
  -12.4799995       5.62131645E-05
  -12.4700003       5.30131219E-05
  -12.4600000       4.20116376E-05
  -12.4499998       2.59794579E-05
  -12.4399996       8.85198551E-06
  -12.4300003      -5.13577652E-06
  -12.4200001      -1.24044864E-05
  -12.4099998      -1.08571139E-05
  -12.3999996      -3.82563087E-07
  -12.3900003       1.70873282E-05
  -12.3800001       3.79893427E-05
  -12.3699999       5.79216867E-05
  -12.3599997       7.26395447E-05
  -12.3500004       7.90238046E-05
  -12.3400002       7.57954404E-05
  -12.3299999       6.38036800E-05
  -12.3199997       4.58140748E-05
  -12.3100004       2.58394030E-05
  -12.3000002       8.16603642E-06
  -12.2900000      -3.69617669E-06
  -12.2799997      -7.88952457E-06
  -12.2700005      -4.69471161E-06
  -12.2600002       3.49901143E-06
  -12.2500000       1.27465664E-05
  -12.2399998       1.85047284E-05
  -12.2299995       1.67772305E-05
  -12.2200003       5.17913350E-06
  -12.2100000      -1.63364457E-05
  -12.1999998      -4.52742606E-05
  -12.1899996      -7.69834369E-05
  -12.1800003      -1.05566905E-04
  -12.1700001      -1.25122737E-04
  -12.1599998      -1.31044813E-04
  -12.1499996      -1.21089310E-04
  -12.1400003      -9.59599056E-05
  -12.1300001      -5.92680881E-05
  -12.1199999      -1.68632960E-05
  -12.1099997       2.43309714E-05
  -12.1000004       5.77259634E-05
  -12.0900002       7.84144431E-05
  -12.0799999       8.41590372E-05
  -12.0699997       7.58030365E-05
  -12.0600004       5.70118682E-05
  -12.0500002       3.34018114E-05
  -12.0400000       1.12493035E-05
  -12.0299997      -3.93189066E-06
  -12.0200005      -8.62861179E-06
  -12.0100002      -2.10525195E-06
  -12.0000000       1.34534930E-05
  -11.9899998       3.34656143E-05
  -11.9799995       5.20232788E-05
  -11.9700003       6.32729716E-05
  -11.9600000       6.27954068E-05
  -11.9499998       4.86762692E-05
  -11.9399996       2.20275833E-05
  -11.9300003      -1.31585193E-05
  -11.9200001      -5.07939221E-05
  -11.9099998      -8.39458517E-05
  -11.8999996      -1.06282387E-04
  -11.8900003      -1.13397342E-04
  -11.8800001      -1.03727791E-04
  -11.8699999      -7.88687103E-05
  -11.8599997      -4.32219495E-05
  -11.8500004      -3.06292100E-06
  -11.8400002       3.47668174E-05
  -11.8299999       6.42541127E-05
  -11.8199997       8.13952574E-05
  -11.8100004       8.49147909E-05
  -11.8000002       7.63787320E-05
  -11.7900000       5.96940299E-05
  -11.7799997       4.01197649E-05
  -11.7700005       2.30191581E-05
  -11.7600002       1.26324230E-05
  -11.7500000       1.11389954E-05
  -11.7399998       1.82078111E-05
  -11.7299995       3.11227668E-05
  -11.7200003       4.54431538E-05
  -11.7100000       5.60436856E-05
  -11.6999998       5.83006877E-05
  -11.6899996       4.91656974E-05
  -11.6800003       2.78989573E-05
  -11.6700001      -3.68595693E-06
  -11.6599998      -4.15074974E-05
  -11.6499996      -7.99604677E-05
  -11.6400003      -1.12956048E-04
  -11.6300001      -1.35040231E-04
  -11.6199999      -1.42367469E-04
  -11.6099997      -1.33346723E-04
  -11.6000004      -1.08853375E-04
  -11.5900002      -7.19926393E-05
  -11.5799999      -2.74898066E-05
  -11.5699997       1.91503532E-05
  -11.5600004       6.25404136E-05
  -11.5500002       9.81940684E-05
  -11.5400000       1.23067381E-04
  -11.5299997       1.35790004E-04
  -11.5200005       1.36587492E-04
  -11.5100002       1.26956307E-04
  -11.5000000       1.09193730E-04
  -11.4899998       8.58979911E-05
  -11.4799995       5.95417332E-05
  -11.4700003       3.21887892E-05
  -11.4600000       5.38120321E-06
  -11.4499998      -1.98193338E-05
  -11.4399996      -4.26841762E-05
  -11.4300003      -6.26298133E-05
  -11.4200001      -7.90538033E-05
  -11.4099998      -9.12434261E-05
  -11.3999996      -9.83811988E-05
  -11.3900003      -9.96438321E-05
  -11.3800001      -9.43681443E-05
  -11.3699999      -8.22423171E-05
  -11.3599997      -6.34765529E-05
  -11.3500004      -3.89121633E-05
  -11.3400002      -1.00411226E-05
  -11.3299999       2.10753078E-05
  -11.3199997       5.19827481E-05
  -11.3100004       8.00832931E-05
  -11.3000002       1.02925485E-04
  -11.2900000       1.18495467E-04
  -11.2799997       1.25468636E-04
  -11.2700005       1.23385500E-04
  -11.2600002       1.12724112E-04
  -11.2500000       9.48548623E-05
  -11.2399998       7.18791998E-05
  -11.2299995       4.63710458E-05
  -11.2200003       2.10548496E-05
  -11.2100000      -1.53428334E-06
  -11.1999998      -1.93589112E-05
  -11.1899996      -3.11102558E-05
  -11.1800003      -3.63281688E-05
  -11.1700001      -3.53948635E-05
  -11.1599998      -2.94085949E-05
  -11.1499996      -1.99636197E-05
  -11.1400003      -8.87745773E-06
  -11.1300001       2.08717324E-06
  -11.1199999       1.14614422E-05
  -11.1099997       1.82376443E-05
  -11.1000004       2.19483081E-05
  -11.0900002       2.26583179E-05
  -11.0799999       2.08859365E-05
  -11.0699997       1.74770612E-05
  -11.0600004       1.34587463E-05
  -11.0500002       9.89349701E-06
  -11.0400000       7.74811815E-06
  -11.0299997       7.78305730E-06
  -11.0200005       1.04630672E-05
  -11.0100002       1.58892381E-05
  -11.0000000       2.37556742E-05
  -10.9899998       3.33391035E-05
  -10.9799995       4.35337170E-05
  -10.9700003       5.29431964E-05
  -10.9600000       6.00358289E-05
  -10.9499998       6.33562886E-05
  -10.9399996       6.17720216E-05
  -10.9300003       5.47168274E-05
  -10.9200001       4.23840611E-05
  -10.9099998       2.58208911E-05
  -10.8999996       6.88559476E-06
  -10.8900003      -1.19487240E-05
  -10.8800001      -2.79314791E-05
  -10.8699999      -3.84698324E-05
  -10.8599997      -4.15925679E-05
  -10.8500004      -3.63589825E-05
  -10.8400002      -2.31302820E-05
  -10.8299999      -3.63861523E-06
  -10.8199997       1.91785966E-05
  -10.8100004       4.15700561E-05
  -10.8000002       5.95363890E-05
  -10.7900000       6.94834307E-05
  -10.7799997       6.88545406E-05
  -10.7700005       5.66307826E-05
  -10.7600002       3.36051417E-05
  -10.7500000       2.37136419E-06
  -10.7399998      -3.29849245E-05
  -10.7299995      -6.74546900E-05
  -10.7200003      -9.58493329E-05
  -10.7100000      -1.13602371E-04
  -10.6999998      -1.17497017E-04
  -10.6899996      -1.06195868E-04
  -10.6800003      -8.04786614E-05
  -10.6700001      -4.31412918E-05
  -10.6599998       1.43322131E-06
  -10.6499996       4.79633964E-05
  -10.6400003       9.11018724E-05
  -10.6300001       1.26268002E-04
  -10.6199999       1.50334818E-04
  -10.6099997       1.62049910E-04
  -10.6000004       1.62118566E-04
  -10.5900002       1.52941822E-04
  -10.5799999       1.38067495E-04
  -10.5699997       1.21467056E-04
  -10.5600004       1.06782747E-04
  -10.5500002       9.66902080E-05
  -10.5400000       9.24929700E-05
  -10.5299997       9.40116370E-05
  -10.5200005       9.97660682E-05
  -10.5100002       1.07387554E-04
  -10.5000000       1.14154842E-04
  -10.4899998       1.17531301E-04
  -10.4799995       1.15594710E-04
  -10.4700003       1.07288863E-04
  -10.4600000       9.24780034E-05
  -10.4499998       7.18349766E-05
  -10.4399996       4.66292295E-05
  -10.4300003       1.84930450E-05
  -10.4200001      -1.07688547E-05
  -10.4099998      -3.92927577E-05
  -10.3999996      -6.51988594E-05
  -10.3900003      -8.66036280E-05
  -10.3800001      -1.01658770E-04
  -10.3699999      -1.08667780E-04
  -10.3599997      -1.06303640E-04
  -10.3500004      -9.39100428E-05
  -10.3400002      -7.18270458E-05
  -10.3299999      -4.16522889E-05
  -10.3199997      -6.34241633E-06
  -10.3100004       2.99205367E-05
  -10.3000002       6.21290746E-05
  -10.2900000       8.50897995E-05
  -10.2799997       9.42172046E-05
  -10.2700005       8.63515525E-05
  -10.2600002       6.04508605E-05
  -10.2500000       1.80173938E-05
  -10.2399998      -3.68412875E-05
  -10.2299995      -9.77554955E-05
  -10.2200003      -1.56809372E-04
  -10.2100000      -2.05533070E-04
  -10.1999998      -2.36026448E-04
  -10.1899996      -2.42048016E-04
  -10.1800003      -2.19909678E-04
  -10.1700001      -1.69051767E-04
  -10.1599998      -9.22244435E-05
  -10.1499996       4.73883483E-06
  -10.1400003       1.13514681E-04
  -10.1300001       2.24165589E-04
  -10.1199999       3.26189067E-04
  -10.1099997       4.09623841E-04
  -10.1000004       4.66104131E-04
  -10.0900002       4.89767175E-04
  -10.0799999       4.77935857E-04
  -10.0699997       4.31510736E-04
  -10.0600004       3.55018448E-04
  -10.0500002       2.56276544E-04
  -10.0400000       1.45660379E-04
  -10.0299997       3.49963011E-05
  -10.0200005      -6.38387937E-05
  -10.0100002      -1.40465520E-04
  -10.0000000      -1.87489291E-04
  -9.98999977      -2.01680756E-04
  -9.97999954      -1.84606994E-04
  -9.97000027      -1.42529447E-04
  -9.96000004      -8.54980535E-05
  -9.94999981      -2.57223110E-05
  -9.93999958       2.45407737E-05
  -9.93000031       5.52122365E-05
  -9.92000008       6.02989057E-05
  -9.90999985       3.90816604E-05
  -9.89999962      -3.69314080E-06
  -9.89000034      -5.86979768E-05
  -9.88000011      -1.13833594E-04
  -9.86999989      -1.56605645E-04
  -9.85999966      -1.76578294E-04
  -9.85000038      -1.67391525E-04
  -9.84000015      -1.27924897E-04
  -9.82999992      -6.23835804E-05
  -9.81999969       2.06742207E-05
  -9.81000042       1.10115136E-04
  -9.80000019       1.94393360E-04
  -9.78999996       2.63616093E-04
  -9.77999973       3.11085430E-04
  -9.77000046       3.34044336E-04
  -9.76000023       3.33560456E-04
  -9.75000000       3.13687517E-04
  -9.73999977       2.80196255E-04
  -9.72999954       2.39229994E-04
  -9.72000027       1.96208741E-04
  -9.71000004       1.55193018E-04
  -9.69999981       1.18766897E-04
  -9.68999958       8.83482717E-05
  -9.68000031       6.47278794E-05
  -9.67000008       4.85989476E-05
  -9.65999985       4.08717278E-05
  -9.64999962       4.26558436E-05
  -9.64000034       5.49098768E-05
  -9.63000011       7.78672402E-05
  -9.61999989       1.10422872E-04
  -9.60999966       1.49688000E-04
  -9.60000038       1.90888430E-04
  -9.59000015       2.27704280E-04
  -9.57999992       2.53046775E-04
  -9.56999969       2.60164903E-04
  -9.56000042       2.43891176E-04
  -9.55000019       2.01791423E-04
  -9.53999996       1.34983784E-04
  -9.52999973       4.84382763E-05
  -9.52000046      -4.93467960E-05
  -9.51000023      -1.47287865E-04
  -9.50000000      -2.33162908E-04
  -9.48999977      -2.95349833E-04
  -9.47999954      -3.24580935E-04
  -9.47000027      -3.15421028E-04
  -9.46000004      -2.67213181E-04
  -9.44999981      -1.84318749E-04
  -9.43999958      -7.55956280E-05
  -9.43000031       4.68122125E-05
  -9.42000008       1.69181410E-04
  -9.40999985       2.78136547E-04
  -9.39999962       3.62487452E-04
  -9.39000034       4.14687791E-04
  -9.38000011       4.31697525E-04
  -9.36999989       4.15137329E-04
  -9.35999966       3.70744528E-04
  -9.35000038       3.07251088E-04
  -9.34000015       2.34890074E-04
  -9.32999992       1.63783086E-04
  -9.31999969       1.02464350E-04
  -9.31000042       5.67613461E-05
  -9.30000019       2.91829238E-05
  -9.28999996       1.88795293E-05
  -9.27999973       2.21469381E-05
  -9.27000046       3.33595999E-05
  -9.26000023       4.61544150E-05
  -9.25000000       5.46505798E-05
  -9.23999977       5.44922914E-05
  -9.22999954       4.35401016E-05
  -9.22000027       2.21077844E-05
  -9.21000004      -7.26766348E-06
  -9.19999981      -4.04422462E-05
  -9.18999958      -7.25127975E-05
  -9.18000031      -9.87038802E-05
  -9.17000008      -1.15108065E-04
  -9.15999985      -1.19146149E-04
  -9.14999962      -1.09697088E-04
  -9.14000034      -8.69378491E-05
  -9.13000011      -5.20080794E-05
  -9.11999989      -6.64857225E-06
  -9.10999966       4.70514460E-05
  -9.10000038       1.06722036E-04
  -9.09000015       1.69602688E-04
  -9.07999992       2.32345192E-04
  -9.06999969       2.90871540E-04
  -9.06000042       3.40431608E-04
  -9.05000019       3.75955744E-04
  -9.03999996       3.92705959E-04
  -9.02999973       3.87127133E-04
  -9.02000046       3.57714191E-04
  -9.01000023       3.05674243E-04
  -9.00000000       2.35186308E-04
  -8.98999977       1.53142581E-04
  -8.97999954       6.83732142E-05
  -8.97000027      -9.52215851E-06
  -8.96000004      -7.15197457E-05
  -8.94999981      -1.10438377E-04
  -8.93999958      -1.21896031E-04
  -8.93000031      -1.04801824E-04
  -8.92000008      -6.13358425E-05
  -8.90999985       3.52457778E-06
  -8.89999962       8.27947733E-05
  -8.89000034       1.68417435E-04
  -8.88000011       2.52182333E-04
  -8.86999989       3.26518319E-04
  -8.85999966       3.85104096E-04
  -8.85000038       4.23297257E-04
  -8.84000015       4.38408548E-04
  -8.82999992       4.29851876E-04
  -8.81999969       3.99180833E-04
  -8.81000042       3.49997892E-04
  -8.80000019       2.87706178E-04
  -8.78999996       2.19077920E-04
  -8.77999973       1.51640357E-04
  -8.77000046       9.29193629E-05
  -8.76000023       4.96228313E-05
  -8.75000000       2.68729164E-05
  -8.73999977       2.75991533E-05
  -8.72999954       5.21811635E-05
  -8.72000027       9.83871141E-05
  -8.71000004       1.61605378E-04
  -8.69999981       2.35323590E-04
  -8.68999958       3.11786134E-04
  -8.68000031       3.82755214E-04
  -8.67000008       4.40311036E-04
  -8.65999985       4.77640948E-04
  -8.64999962       4.89773927E-04
  -8.64000034       4.74212633E-04
  -8.63000011       4.31398832E-04
  -8.61999989       3.64931766E-04
  -8.60999966       2.81451998E-04
  -8.60000038       1.90127146E-04
  -8.59000015       1.01723548E-04
  -8.57999992       2.73256683E-05
  -8.56999969      -2.31498962E-05
  -8.56000042      -4.24278769E-05
  -8.55000019      -2.70809742E-05
  -8.53999996       2.17650831E-05
  -8.52999973       9.83925347E-05
  -8.52000046       1.93168540E-04
  -8.51000023       2.93856196E-04
  -8.50000000       3.87358072E-04
  -8.48999977       4.61609685E-04
  -8.47999954       5.07315795E-04
  -8.47000027       5.19255525E-04
  -8.46000004       4.96963738E-04
  -8.44999981       4.44704259E-04
  -8.43999958       3.70763330E-04
  -8.43000031       2.86187103E-04
  -8.42000008       2.03158910E-04
  -8.40999985       1.33246926E-04
  -8.39999962       8.57626583E-05
  -8.39000034       6.64532054E-05
  -8.38000011       7.67117235E-05
  -8.36999989       1.13429393E-04
  -8.35999966       1.69532184E-04
  -8.35000038       2.35148065E-04
  -8.34000015       2.99244217E-04
  -8.32999992       3.51480121E-04
  -8.31999969       3.83962557E-04
  -8.31000042       3.92578688E-04
  -8.30000019       3.77642893E-04
  -8.28999996       3.43718915E-04
  -8.27999973       2.98640225E-04
  -8.27000046       2.51924474E-04
  -8.26000023       2.12911022E-04
  -8.25000000       1.89012178E-04
  -8.23999977       1.84437566E-04
  -8.22999954       1.99635993E-04
  -8.22000027       2.31526807E-04
  -8.21000004       2.74409249E-04
  -8.19999981       3.21294909E-04
  -8.18999958       3.65336746E-04
  -8.18000031       4.01044323E-04
  -8.17000008       4.25065402E-04
  -8.15999985       4.36445174E-04
  -8.14999962       4.36407572E-04
  -8.14000034       4.27796913E-04
  -8.13000011       4.14355367E-04
  -8.11999989       3.99996992E-04
  -8.10999966       3.88183253E-04
  -8.10000038       3.81447753E-04
  -8.09000015       3.81074817E-04
  -8.07999992       3.86926869E-04
  -8.06999969       3.97427619E-04
  -8.06000042       4.09729895E-04
  -8.05000019       4.20102006E-04
  -8.03999996       4.24541038E-04
  -8.02999973       4.19564749E-04
  -8.02000046       4.03062295E-04
  -8.01000023       3.75026662E-04
  -8.00000000       3.37972888E-04
  -7.98999977       2.96885555E-04
  -7.98000002       2.58632790E-04
  -7.96999979       2.30911872E-04
  -7.96000004       2.20909380E-04
  -7.94999981       2.33940489E-04
  -7.94000006       2.72347272E-04
  -7.92999983       3.34877608E-04
  -7.92000008       4.16661002E-04
  -7.90999985       5.09769074E-04
  -7.90000010       6.04238652E-04
  -7.88999987       6.89368637E-04
  -7.88000011       7.55088753E-04
  -7.86999989       7.93219660E-04
  -7.86000013       7.98495254E-04
  -7.84999990       7.69260281E-04
  -7.84000015       7.07786065E-04
  -7.82999992       6.20160485E-04
  -7.82000017       5.15723019E-04
  -7.80999994       4.06049658E-04
  -7.80000019       3.03554261E-04
  -7.78999996       2.19857437E-04
  -7.78000021       1.64162702E-04
  -7.76999998       1.41932032E-04
  -7.76000023       1.54143214E-04
  -7.75000000       1.97317931E-04
  -7.73999977       2.64348404E-04
  -7.73000002       3.45959561E-04
  -7.71999979       4.32477013E-04
  -7.71000004       5.15488326E-04
  -7.69999981       5.89012692E-04
  -7.69000006       6.49931782E-04
  -7.67999983       6.97652169E-04
  -7.67000008       7.33192661E-04
  -7.65999985       7.58045644E-04
  -7.65000010       7.73210544E-04
  -7.63999987       7.78716174E-04
  -7.63000011       7.73762877E-04
  -7.61999989       7.57393893E-04
  -7.61000013       7.29423482E-04
  -7.59999990       6.91253401E-04
  -7.59000015       6.46249391E-04
  -7.57999992       5.99498046E-04
  -7.57000017       5.56972460E-04
  -7.55999994       5.24328905E-04
  -7.55000019       5.05680626E-04
  -7.53999996       5.02703595E-04
  -7.53000021       5.14326966E-04
  -7.51999998       5.37082786E-04
  -7.51000023       5.65999653E-04
  -7.50000000       5.95782767E-04
  -7.48999977       6.21962594E-04
  -7.48000002       6.41731487E-04
  -7.46999979       6.54300500E-04
  -7.46000004       6.60753925E-04
  -7.44999981       6.63503073E-04
  -7.44000006       6.65524800E-04