  -16.0000000       0.00000000    
  -15.9899998       0.00000000    
  -15.9799995       0.00000000    
  -15.9700003       0.00000000    
  -15.9600000       0.00000000    
  -15.9499998       0.00000000    
  -15.9399996       0.00000000    
  -15.9300003       0.00000000    
  -15.9200001       0.00000000    
  -15.9099998       0.00000000    
  -15.8999996      -4.61213736E-37
  -15.8900003       5.99892477E-35
  -15.8800001       9.26357599E-34
  -15.8699999       6.43931985E-33
  -15.8599997       2.67175466E-32
  -15.8500004       7.11836826E-32
  -15.8400002       1.28822179E-31
  -15.8299999       2.78874350E-31
  -15.8199997       1.49051969E-30
  -15.8100004       7.84376197E-30
  -15.8000002       2.83385334E-29
  -15.7900000       6.65175698E-29
  -15.7799997       6.81912511E-29
  -15.7700005      -2.08003925E-28
  -15.7600002      -1.36608821E-27
  -15.7500000      -4.34680270E-27
  -15.7399998      -9.61108607E-27
  -15.7299995      -1.48312260E-26
  -15.7200003      -1.13338913E-26
  -15.7100000       1.75535387E-26
  -15.6999998       8.86996250E-26
  -15.6899996       1.92525411E-25
  -15.6800003       2.47537773E-25
  -15.6700001       6.56815820E-26
  -15.6599998      -5.95631448E-25
  -15.6499996      -1.79114359E-24
  -15.6400003      -2.91666114E-24
  -15.6300001      -2.21268009E-24
  -15.6199999       3.13887379E-24
  -15.6099997       1.53496129E-23
  -15.6000004       3.20622859E-23
  -15.5900002       4.09094588E-23
  -15.5799999       1.65318551E-23
  -15.5699997      -7.24229342E-23
  -15.5600004      -2.38043461E-22
  -15.5500002      -4.28456788E-22
  -15.5400000      -4.81345203E-22
  -15.5299997      -1.21108413E-22
  -15.5200005       9.33807445E-22
  -15.5100002       2.70227830E-21
  -15.5000000       4.54472012E-21
  -15.4899998       4.83960314E-21
  -15.4799995       1.12599941E-21
  -15.4700003      -8.81013915E-21
  -15.4600000      -2.46627389E-20
  -15.4499998      -4.06304105E-20
  -15.4399996      -4.34028744E-20
  -15.4300003      -1.39332984E-20
  -15.4200001       6.40069256E-20
  -15.4099998       1.87535325E-19
  -15.3999996       3.14703656E-19
  -15.3900003       3.52241939E-19
  -15.3800001       1.68680945E-19
  -15.3699999      -3.49844175E-19
  -15.3599997      -1.19732915E-18
  -15.3500004      -2.12520422E-18
  -15.3400002      -2.56579080E-18
  -15.3299999      -1.70143814E-18
  -15.3199997       1.22581922E-18
  -15.3100004       6.34311169E-18
  -15.3000002       1.24490757E-17
  -15.2900000       1.65323229E-17
  -15.2799997       1.40171247E-17
  -15.2700005       2.33681418E-19
  -15.2600002      -2.67318619E-17
  -15.2500000      -6.23831361E-17
  -15.2399998      -9.29154181E-17
  -15.2299995      -9.54749862E-17
  -15.2200003      -4.40489095E-17
  -15.2100000       7.78899536E-17
  -15.1999998       2.59930112E-16
  -15.1899996       4.48728198E-16
  -15.1800003       5.43753859E-16
  -15.1700001       4.16232970E-16
  -15.1599998      -4.16403051E-17
  -15.1499996      -8.41679593E-16
  -15.1400003      -1.82071193E-15
  -15.1300001      -2.59729736E-15
  -15.1199999      -2.61283322E-15
  -15.1099997      -1.29500411E-15
  -15.1000004       1.65644376E-15
  -15.0900002       5.92504248E-15
  -15.0799999       1.03101240E-14
  -15.0699997       1.27231074E-14
  -15.0600004       1.06228545E-14
  -15.0500002       1.95934772E-15
  -15.0400000      -1.35116138E-14
  -15.0299997      -3.29463900E-14
  -15.0200005      -4.97999570E-14
  -15.0100002      -5.45819222E-14
  -15.0000000      -3.74532863E-14
  -14.9899998       7.45107101E-15
  -14.9799995       7.69576663E-14
  -14.9700003       1.54935242E-13
  -14.9600000       2.11951537E-13
  -14.9499998       2.10671636E-13
  -14.9399996       1.17780257E-13
  -14.9300003      -7.92630935E-14
  -14.9200001      -3.55353442E-13
  -14.9099998      -6.38001154E-13
  -14.8999996      -8.12641187E-13
  -14.8900003      -7.48502389E-13
  -14.8800001      -3.44586393E-13
  -14.8699999       4.13386475E-13
  -14.8599997       1.40325902E-12
  -14.8500004       2.34791049E-12
  -14.8400002       2.85045642E-12
  -14.8299999       2.49436192E-12
  -14.8199997       9.98596822E-13
  -14.8100004      -1.60858891E-12
  -14.8000002      -4.85737362E-12
  -14.7900000      -7.81580616E-12
  -14.7799997      -9.23801140E-12
  -14.7700005      -7.89709964E-12
  -14.7600002      -3.05431201E-12
  -14.7500000       5.05618854E-12
  -14.7399998       1.49025861E-11
  -14.7299995       2.36768764E-11
  -14.7200003       2.77930300E-11
  -14.7100000       2.38666448E-11
  -14.6999998       1.00057731E-11
  -14.6899996      -1.29349725E-11
  -14.6800003      -4.06005819E-11
  -14.6700001      -6.53346821E-11
  -14.6599998      -7.76065878E-11
  -14.6499996      -6.86037616E-11
  -14.6400003      -3.34961607E-11
  -14.6300001       2.55231374E-11
  -14.6199999       9.75385467E-11
  -14.6099997       1.63577277E-10
  -14.6000004       2.00186437E-10
  -14.5900002       1.85656129E-10
  -14.5799999       1.07651436E-10
  -14.5699997      -2.98315851E-11
  -14.5600004      -2.02669811E-10
  -14.5500002      -3.68150316E-10
  -14.5400000      -4.72898165E-10
  -14.5299997      -4.66477579E-10
  -14.5200005      -3.17926463E-10
  -14.5100002      -3.08032072E-11
  -14.5000000       3.48373108E-10
  -14.4899998       7.32654770E-10
  -14.4799995       1.01021169E-09
  -14.4700003       1.07139564E-09
  -14.4600000       8.41910430E-10
  -14.4499998       3.13516380E-10
  -14.4399996      -4.37540004E-10
  -14.4300003      -1.25270017E-09
  -14.4200001      -1.91785943E-09
  -14.4099998      -2.21224616E-09
  -14.3999996      -1.96986050E-09
  -14.3900003      -1.13825349E-09
  -14.3800001       1.82859672E-10
  -14.3699999       1.73824377E-09
  -14.3599997       3.15685811E-09
  -14.3500004       4.03156619E-09
  -14.3400002       4.02381106E-09
  -14.3299999       2.96848501E-09
  -14.3199997       9.49867851E-10
  -14.3100004      -1.67732628E-09
  -14.3000002      -4.33677005E-09
  -14.2900000      -6.34726360E-09
  -14.2799997      -7.08644654E-09
  -14.2700005      -6.16442053E-09
  -14.2600002      -3.56195118E-09
  -14.2500000       3.09175796E-10
  -14.2399998       4.65115857E-09
  -14.2299995       8.43356851E-09
  -14.2200003       1.06294662E-08
  -14.2100000       1.04828857E-08
  -14.1999998       7.74096609E-09
  -14.1899996       2.78444090E-09
  -14.1800003      -3.39150752E-09
  -14.1700001      -9.36057987E-09
  -14.1599998      -1.35855700E-08
  -14.1499996      -1.48081130E-08
  -14.1400003      -1.24131931E-08
  -14.1300001      -6.66789868E-09
  -14.1199999       1.24578825E-09
  -14.1099997       9.43974143E-09
  -14.1000004       1.57453321E-08
  -14.0900002       1.82693221E-08
  -14.0799999       1.59461671E-08
  -14.0699997       8.93520458E-09
  -14.0600004      -1.26772914E-09
  -14.0500002      -1.20749331E-08
  -14.0400000      -2.03904946E-08
  -14.0299997      -2.34193624E-08
  -14.0200005      -1.95088301E-08
  -14.0100002      -8.79141204E-09
  -14.0000000       6.58149357E-09
  -13.9899998       2.27434089E-08
  -13.9799995       3.49513094E-08
  -13.9700003       3.88055099E-08
  -13.9600000       3.15665289E-08
  -13.9499998       1.32129570E-08
  -13.9399996      -1.30981244E-08
  -13.9300003      -4.13911110E-08
  -13.9200001      -6.40791527E-08
  -13.9099998      -7.38120178E-08
  -13.8999996      -6.55471055E-08
  -13.8900003      -3.83011916E-08
  -13.8800001       3.95054522E-09
  -13.8699999       5.26014361E-08
  -13.8599997       9.60517923E-08
  -13.8500004       1.22392180E-07
  -13.8400002       1.22537941E-07
  -13.8299999       9.30163466E-08
  -13.8199997       3.75978821E-08
  -13.8100004      -3.28221716E-08
  -13.8000002      -1.02277788E-07
  -13.7900000      -1.53395874E-07
  -13.7799997      -1.71858801E-07
  -13.7700005      -1.50536025E-07
  -13.7600002      -9.21115912E-08
  -13.7500000      -9.31324884E-09
  -13.7399998       7.75912241E-08
  -13.7299995       1.45644250E-07
  -13.7200003       1.75312067E-07
  -13.7100000       1.56300842E-07
  -13.6999998       9.14154299E-08
  -13.6899996      -2.84880697E-09
  -13.6800003      -9.95338851E-08
  -13.6700001      -1.67821952E-07
  -13.6599998      -1.81573327E-07
  -13.6499996      -1.27645947E-07
  -13.6400003      -1.16358612E-08
  -13.6300001       1.40904945E-07
  -13.6199999       2.88716762E-07
  -13.6099997       3.84112525E-07
  -13.6000004       3.85428280E-07
  -13.5900002       2.69685387E-07
  -13.5799999       4.20706527E-08
  -13.5699997      -2.60738773E-07
  -13.5600004      -5.75117667E-07
  -13.5500002      -8.22753634E-07
  -13.5400000      -9.28439306E-07
  -13.5299997      -8.39509653E-07
  -13.5200005      -5.42161501E-07
  -13.5100002      -7.01503851E-08
  -13.5000000       4.97190683E-07
  -13.4899998       1.04828518E-06
  -13.4799995       1.46187983E-06
  -13.4700003       1.63419827E-06
  -13.4600000       1.50445669E-06
  -13.4499998       1.07237076E-06
  -13.4399996       4.02744377E-07
  -13.4300003      -3.84946730E-07
  -13.4200001      -1.14047737E-06
  -13.4099998      -1.71533100E-06
  -13.3999996      -1.99625106E-06
  -13.3900003      -1.93169785E-06
  -13.3800001      -1.54431598E-06
  -13.3699999      -9.25681377E-07
  -13.3599997      -2.13912145E-07
  -13.3500004       4.40804911E-07
  -13.3400002       9.14303314E-07
  -13.3299999       1.14023828E-06
  -13.3199997       1.12678595E-06
  -13.3100004       9.52926428E-07
  -13.3000002       7.44151009E-07
  -13.2900000       6.33024342E-07
  -13.2799997       7.14593625E-07
  -13.2700005       1.00890304E-06
  -13.2600002       1.44205637E-06
  -13.2500000       1.85333874E-06
  -13.2399998       2.02961974E-06
  -13.2299995       1.76105129E-06
  -13.2200003       9.05725187E-07
  -13.2100000      -5.52849087E-07
  -13.1999998      -2.47164235E-06
  -13.1899996      -4.54954215E-06
  -13.1800003      -6.36901859E-06
  -13.1700001      -7.47331524E-06
  -13.1599998      -7.46528121E-06
  -13.1499996      -6.10723419E-06
  -13.1400003      -3.39875419E-06
  -13.1300001       3.87940872E-07
  -13.1199999       4.72768079E-06
  -13.1099997       8.91841319E-06
  -13.1000004       1.22024267E-05
  -13.0900002       1.39104932E-05
  -13.0799999       1.35998989E-05
  -13.0699997       1.11565560E-05
  -13.0600004       6.83730423E-06
  -13.0500002       1.24012138E-06
  -13.0400000      -4.79494975E-06
  -13.0299997      -1.03360717E-05
  -13.0200005      -1.45310132E-05
  -13.0100002      -1.67638682E-05
  -13.0000000      -1.67634917E-05
  -12.9899998      -1.46400707E-05
  -12.9799995      -1.08421418E-05
  -12.9700003      -6.04459228E-06
  -12.9600000      -9.94529842E-07
  -12.9499998       3.64782204E-06
  -12.9399996       7.43450209E-06
  -12.9300003       1.01909563E-05
  -12.9200001       1.19986071E-05
  -12.9099998       1.31050547E-05
  -12.8999996       1.37879269E-05
  -12.8900003       1.42122726E-05
  -12.8800001       1.43252728E-05
  -12.8699999       1.38243504E-05
  -12.8599997       1.22165429E-05
  -12.8500004       8.96247002E-06
  -12.8400002       3.67334860E-06
  -12.8299999      -3.68916199E-06
  -12.8199997      -1.26674749E-05
  -12.8100004      -2.22666258E-05
  -12.8000002      -3.10452269E-05
  -12.7900000      -3.73364674E-05
  -12.7799997      -3.95636889E-05
  -12.7700005      -3.65877640E-05
  -12.7600002      -2.80093664E-05
  -12.7500000      -1.43524567E-05
  -12.7399998       2.92334016E-06
  -12.7299995       2.15986674E-05
  -12.7200003       3.90346977E-05
  -12.7100000       5.26157601E-05
  -12.6999998       6.02071304E-05
  -12.6899996       6.05344867E-05
  -12.6800003       5.34064820E-05
  -12.6700001       3.97349249E-05
  -12.6599998       2.13508520E-05
  -12.6499996       6.59211935E-07
  -12.6400003      -1.97907520E-05
  -12.6300001      -3.77260330E-05
  -12.6199999      -5.14737112E-05
  -12.6099997      -6.01268839E-05
  -12.6000004      -6.35318065E-05
  -12.5900002      -6.21196086E-05
  -12.5799999      -5.66431627E-05
  -12.5699997      -4.79003902E-05
  -12.5600004      -3.65242886E-05
  -12.5500002      -2.28977424E-05
  -12.5400000      -7.21335164E-06
  -12.5299997       1.03450247E-05
  -12.5200005       2.93601424E-05
  -12.5100002       4.89615850E-05
  -12.5000000       6.77110074E-05
  -12.4899998       8.36518375E-05
  -12.4799995       9.45419451E-05
  -12.4700003       9.82393685E-05
  -12.4600000       9.31662289E-05
  -12.4499998       7.87477620E-05
  -12.4399996       5.57178428E-05
  -12.4300003       2.62033900E-05
  -12.4200001      -6.45710588E-06
  -12.4099998      -3.81497593E-05
  -12.3999996      -6.46086919E-05
  -12.3900003      -8.21150388E-05
  -12.3800001      -8.81383967E-05
  -12.3699999      -8.17937107E-05
  -12.3599997      -6.40198632E-05
  -12.3500004      -3.74394695E-05
  -12.3400002      -5.92226706E-06
  -12.3299999       2.60670968E-05
  -12.3199997       5.42133566E-05
  -12.3100004       7.50458348E-05
  -12.3000002       8.64544345E-05
  -12.2900000       8.79332874E-05
  -12.2799997       8.05148957E-05
  -12.2700005       6.64206818E-05
  -12.2600002       4.85111632E-05
  -12.2500000       2.96587004E-05
  -12.2399998       1.21797020E-05
  -12.2299995      -2.55232453E-06
  -12.2200003      -1.42330791E-05
  -12.2100000      -2.34731397E-05
  -12.1999998      -3.14078316E-05
  -12.1899996      -3.91725043E-05
  -12.1800003      -4.73788168E-05
  -12.1700001      -5.57315689E-05
  -12.1599998      -6.28966081E-05
  -12.1499996      -6.66734850E-05
  -12.1400003      -6.44533720E-05
  -12.1300001      -5.38700951E-05
  -12.1199999      -3.34967663E-05
  -12.1099997      -3.41754139E-06
  -12.1000004       3.44792170E-05
  -12.0900002       7.65850054E-05
  -12.0799999       1.18048287E-04
  -12.0699997       1.53568355E-04
  -12.0600004       1.78350179E-04
  -12.0500002       1.89017519E-04
  -12.0400000       1.84280812E-04
  -12.0299997       1.65203281E-04
  -12.0200005       1.34995949E-04
  -12.0100002       9.83776772E-05
  -12.0000000       6.06384274E-05
  -11.9899998       2.66130155E-05
  -11.9799995      -2.04599743E-07
  -11.9700003      -1.82101376E-05
  -11.9600000      -2.77856980E-05
  -11.9499998      -3.09388597E-05
  -11.9399996      -3.05897120E-05
  -11.9300003      -2.96958588E-05
  -11.9200001      -3.04415407E-05
  -11.9099998      -3.36955491E-05
  -11.8999996      -3.88687804E-05
  -11.8900003      -4.41952943E-05
  -11.8800001      -4.73483997E-05
  -11.8699999      -4.62150347E-05
  -11.8599997      -3.96110336E-05
  -11.8500004      -2.77374111E-05
  -11.8400002      -1.22490092E-05
  -11.8299999       4.08755432E-06
  -11.8199997       1.80577717E-05
  -11.8100004       2.68081658E-05
  -11.8000002       2.85831666E-05
  -11.7900000       2.31911290E-05
  -11.7799997       1.20725181E-05
  -11.7700005      -2.05087895E-06
  -11.7600002      -1.58557050E-05
  -11.7500000      -2.62490958E-05
  -11.7399998      -3.11376789E-05
  -11.7299995      -2.99370367E-05
  -11.7200003      -2.36958895E-05
  -11.7100000      -1.48116942E-05
  -11.6999998      -6.42022451E-06
  -11.6899996      -1.62254616E-06
  -11.6800003      -2.74742638E-06
  -11.6700001      -1.08280292E-05
  -11.6599998      -2.54062797E-05
  -11.6499996      -4.46865633E-05
  -11.6400003      -6.59691868E-05
  -11.6300001      -8.62283123E-05
  -11.6199999      -1.02675971E-04
  -11.6099997      -1.13176422E-04
  -11.6000004      -1.16434450E-04
  -11.5900002      -1.11956397E-04
  -11.5799999      -9.98509131E-05
  -11.5699997      -8.05770542E-05
  -11.5600004      -5.47500058E-05
  -11.5500002      -2.30809928E-05
  -11.5400000       1.35296477E-05
  -11.5299997       5.37891538E-05
  -11.5200005       9.57879529E-05
  -11.5100002       1.36860079E-04
  -11.5000000       1.73617125E-04
  -11.4899998       2.02199109E-04
  -11.4799995       2.18727218E-04
  -11.4700003       2.19887675E-04
  -11.4600000       2.03540098E-04
  -11.4499998       1.69233273E-04
  -11.4399996       1.18528078E-04
  -11.4300003       5.50633195E-05
  -11.4200001      -1.56568203E-05
  -11.4099998      -8.67346680E-05
  -11.3999996      -1.50561289E-04
  -11.3900003      -1.99640737E-04
  -11.3800001      -2.27477081E-04
  -11.3699999      -2.29436147E-04
  -11.3599997      -2.03484786E-04
  -11.3500004      -1.50702894E-04
  -11.3400002      -7.54628272E-05
  -11.3299999       1.48105146E-05
  -11.3199997       1.10343506E-04
  -11.3100004       2.00154886E-04
  -11.3000002       2.73518410E-04
  -11.2900000       3.21542058E-04
  -11.2799997       3.38592916E-04
  -11.2700005       3.23280983E-04
  -11.2600002       2.78765772E-04
  -11.2500000       2.12262472E-04
  -11.2399998       1.33789144E-04
  -11.2299995       5.43690876E-05
  -11.2200003      -1.59549436E-05
  -11.2100000      -6.98690928E-05
  -11.1999998      -1.03905637E-04
  -11.1899996      -1.18668475E-04
  -11.1800003      -1.18114862E-04
  -11.1700001      -1.08076958E-04
  -11.1599998      -9.44070416E-05
  -11.1499996      -8.12401486E-05
  -11.1400003      -6.98511212E-05
  -11.1300001      -5.84355475E-05
  -11.1199999      -4.29000065E-05
  -11.1099997      -1.84661403E-05
  -11.1000004       1.83479951E-05
  -11.0900002       6.79385339E-05
  -11.0799999       1.26569023E-04
  -11.0699997       1.86443620E-04
  -11.0600004       2.36988606E-04
  -11.0500002       2.67100433E-04
  -11.0400000       2.67835247E-04
  -11.0299997       2.34859312E-04
  -11.0200005       1.69999272E-04
  -11.0100002       8.14309460E-05
  -11.0000000      -1.76241556E-05
  -10.9899998      -1.11446199E-04
  -10.9799995      -1.85033292E-04
  -10.9700003      -2.27226134E-04
  -10.9600000      -2.32988605E-04
  -10.9499998      -2.04295080E-04
  -10.9399996      -1.49422020E-04
  -10.9300003      -8.08409241E-05
  -10.9200001      -1.22560523E-05
  -10.9099998       4.44677316E-05
  -10.8999996       8.17363543E-05
  -10.8900003       9.74561044E-05
  -10.8800001       9.48298548E-05
  -10.8699999       8.08670593E-05
  -10.8599997       6.40786457E-05
  -10.8500004       5.20126378E-05
  -10.8400002       4.92868458E-05
  -10.8299999       5.65995360E-05
  -10.8199997       7.09049564E-05
  -10.8100004       8.66134651E-05
  -10.8000002       9.74087743E-05
  -10.7900000       9.81374542E-05
  -10.7799997       8.62491215E-05
  -10.7700005       6.24309250E-05
  -10.7600002       3.03313846E-05
  -10.7500000      -4.47163211E-06
  -10.7399998      -3.59114456E-05
  -10.7299995      -5.88569383E-05
  -10.7200003      -7.01473837E-05
  -10.7100000      -6.90165252E-05
  -10.6999998      -5.68831492E-05
  -10.6899996      -3.66663371E-05
  -10.6800003      -1.18939461E-05
  -10.6700001       1.41129258E-05
  -10.6599998       3.87723667E-05
  -10.6499996       6.04142260E-05
  -10.6400003       7.81520648E-05
  -10.6300001       9.16084391E-05
  -10.6199999       1.00671219E-04
  -10.6099997       1.05410181E-04
  -10.6000004       1.06185413E-04
  -10.5900002       1.03872793E-04
  -10.5799999       1.00057790E-04
  -10.5699997       9.70379551E-05
  -10.5600004       9.75316361E-05
  -10.5500002       1.04097453E-04
  -10.5400000       1.18388052E-04
  -10.5299997       1.40450473E-04
  -10.5200005       1.68308441E-04
  -10.5100002       1.98007474E-04
  -10.5000000       2.24184012E-04
  -10.4899998       2.41068323E-04
  -10.4799995       2.43697621E-04
  -10.4700003       2.29040423E-04
  -10.4600000       1.96743844E-04
  -10.4499998       1.49310785E-04
  -10.4399996       9.16666249E-05
  -10.4300003       3.02401822E-05
  -10.4200001      -2.81899393E-05
  -10.4099998      -7.75824592E-05
  -10.3999996      -1.13396047E-04
  -10.3900003      -1.32889429E-04
  -10.3800001      -1.34978065E-04
  -10.3699999      -1.19810291E-04
  -10.3599997      -8.83057364E-05
  -10.3500004      -4.18875097E-05
  -10.3400002       1.74608576E-05
  -10.3299999       8.68385614E-05
  -10.3199997       1.61953314E-04
  -10.3100004       2.36812208E-04
  -10.3000002       3.03859328E-04
  -10.2900000       3.54730175E-04
  -10.2799997       3.81595222E-04
  -10.2700005       3.78842029E-04
  -10.2600002       3.44669388E-04
  -10.2500000       2.82106455E-04
  -10.2399998       1.99058355E-04
  -10.2299995       1.07207372E-04
  -10.2200003       1.99099995E-05
  -10.2100000      -5.04641794E-05
  -10.1999998      -9.51022957E-05
  -10.1899996      -1.10546549E-04
  -10.1800003      -9.92089408E-05
  -10.1700001      -6.84212719E-05
  -10.1599998      -2.82453439E-05
  -10.1499996       1.13677152E-05
  -10.1400003       4.32712150E-05
  -10.1300001       6.48894202E-05
  -10.1199999       7.85274242E-05
  -10.1099997       9.01152889E-05
  -10.1000004       1.06748819E-04
  -10.0900002       1.33768903E-04
  -10.0799999       1.72292304E-04
  -10.0699997       2.18005865E-04
  -10.0600004       2.61682580E-04
  -10.0500002       2.91370205E-04
  -10.0400000       2.95685808E-04
  -10.0299997       2.67281779E-04
  -10.0200005       2.05447373E-04
  -10.0100002       1.17014431E-04
  -10.0000000       1.51990680E-05
  -9.98999977      -8.33986851E-05
  -9.97999954      -1.62865748E-04
  -9.97000027      -2.12004918E-04
  -9.96000004      -2.27180368E-04
  -9.94999981      -2.13140855E-04
  -9.93999958      -1.81536161E-04
  -9.93000031      -1.47491563E-04
  -9.92000008      -1.25165941E-04
  -9.90999985      -1.23527352E-04
  -9.89999962      -1.43543381E-04
  -9.89000034      -1.77607420E-04
  -9.88000011      -2.11409482E-04
  -9.86999989      -2.27783108E-04
  -9.85999966      -2.11505278E-04
  -9.85000038      -1.53752204E-04
  -9.84000015      -5.49953220E-05
  -9.82999992       7.44644713E-05
  -9.81999969       2.16494547E-04
  -9.81000042       3.49157635E-04
  -9.80000019       4.51732281E-04
  -9.78999996       5.09440724E-04
  -9.77999973       5.16695087E-04
  -9.77000046       4.78078087E-04
  -9.76000023       4.06878331E-04
  -9.75000000       3.21628351E-04
  -9.73999977       2.41586444E-04
  -9.72999954       1.82328527E-04
  -9.72000027       1.52530876E-04
  -9.71000004       1.52662571E-04
  -9.69999981       1.75779613E-04
  -9.68999958       2.10066617E-04
  -9.68000031       2.42352646E-04
  -9.67000008       2.61638197E-04
  -9.65999985       2.61742767E-04
  -9.64999962       2.42480193E-04
  -9.64000034       2.09197198E-04
  -9.63000011       1.70942920E-04
  -9.61999989       1.37861469E-04
  -9.60999966       1.18538614E-04
  -9.60000038       1.17969321E-04
  -9.59000015       1.36581832E-04
  -9.57999992       1.70437736E-04
  -9.56999969       2.12419094E-04
  -9.56000042       2.53995735E-04
  -9.55000019       2.87084549E-04
  -9.53999996       3.05570255E-04
  -9.52999973       3.06213595E-04
  -9.52000046       2.88874871E-04
  -9.51000023       2.56155763E-04
  -9.50000000       2.12668427E-04
  -9.48999977       1.64163852E-04
  -9.47999954       1.16699979E-04
  -9.47000027       7.59447285E-05
  -9.46000004       4.66261736E-05
  -9.44999981       3.20983418E-05
  -9.43999958       3.39940852E-05
  -9.43000031       5.19770801E-05
  -9.42000008       8.36554464E-05
  -9.40999985       1.24746482E-04
  -9.39999962       1.69564461E-04
  -9.39000034       2.11836217E-04
  -9.38000011       2.45749747E-04
  -9.36999989       2.67044205E-04
  -9.35999966       2.73891841E-04
  -9.35000038       2.67329713E-04
  -9.34000015       2.51084362E-04
  -9.32999992       2.30773599E-04
  -9.31999969       2.12634637E-04
  -9.31000042       2.02063151E-04
  -9.30000019       2.02317649E-04
  -9.28999996       2.13718697E-04
  -9.27999973       2.33556333E-04
  -9.27000046       2.56740750E-04
  -9.26000023       2.77037208E-04
  -9.25000000       2.88571260E-04
  -9.23999977       2.87218689E-04
  -9.22999954       2.71527300E-04
  -9.22000027       2.42945607E-04
  -9.21000004       2.05325137E-04
  -9.19999981       1.63862613E-04
  -9.18999958       1.23797465E-04
  -9.18000031       8.92399912E-05
  -9.17000008       6.24525055E-05
  -9.15999985       4.37607705E-05
  -9.14999962       3.20719519E-05
  -9.14000034       2.57836655E-05
  -9.13000011       2.37451895E-05
  -9.11999989       2.59144763E-05
  -9.10999966       3.34581564E-05
  -9.10000038       4.82336836E-05
  -9.09000015       7.18158190E-05
  -9.07999992       1.04410938E-04
  -9.06999969       1.44077741E-04
  -9.06000042       1.86609119E-04
  -9.05000019       2.26233271E-04
  -9.03999996       2.57021049E-04
  -9.02999973       2.74624734E-04
  -9.02000046       2.77808256E-04
  -9.01000023       2.69231445E-04
  -9.00000000       2.55133287E-04
  -8.98999977       2.43876828E-04
  -8.97999954       2.43685776E-04
  -8.97000027       2.60195433E-04
  -8.96000004       2.94560974E-04
  -8.94999981       3.42755171E-04
  -8.93999958       3.96366522E-04
  -8.93000031       4.44761914E-04
  -8.92000008       4.78044851E-04
  -8.90999985       4.89956350E-04
  -8.89999962       4.79836133E-04
  -8.89000034       4.53007582E-04
  -8.88000011       4.19409276E-04
  -8.86999989       3.90827103E-04
  -8.85999966       3.77522258E-04
  -8.85000038       3.85254039E-04
  -8.84000015       4.13593662E-04
  -8.82999992       4.56039968E-04
  -8.81999969       5.01899631E-04
  -8.81000042       5.39353932E-04
  -8.80000019       5.58777654E-04
  -8.78999996       5.55315055E-04
  -8.77999973       5.29969169E-04
  -8.77000046       4.88943770E-04
  -8.76000023       4.41529439E-04
  -8.75000000       3.97268857E-04
  -8.73999977       3.63324536E-04
  -8.72999954       3.42857442E-04
  -8.72000027       3.34849843E-04
  -8.71000004       3.35307617E-04
  -8.69999981       3.39322636E-04
  -8.68999958       3.43219552E-04
  -8.68000031       3.46029236E-04
  -8.67000008       3.49805050E-04
  -8.65999985       3.58723424E-04
  -8.64999962       3.77333636E-04
  -8.64000034       4.08600987E-04
  -8.63000011       4.52431734E-04
  -8.61999989       5.05176373E-04
  -8.60999966       5.60259679E-04
  -8.60000038       6.09709357E-04
  -8.59000015       6.46079716E-04
  -8.57999992       6.64176885E-04
  -8.56999969       6.62109116E-04
  -8.56000042       6.41438528E-04
  -8.55000019       6.06509624E-04
  -8.53999996       5.63261739E-04
  -8.52999973       5.17930835E-04
  -8.52000046       4.75991634E-04
  -8.51000023       4.41528187E-04
  -8.50000000       4.17039322E-04
  -8.48999977       4.03541664E-04
  -8.47999954       4.00794612E-04
  -8.47000027       4.07519226E-04
  -8.46000004       4.21584788E-04
  -8.44999981       4.40227654E-04
  -8.43999958       4.60390816E-04
  -8.43000031       4.79222217E-04
  -8.42000008       4.94664651E-04
  -8.40999985       5.05966600E-04
  -8.39999962       5.13906300E-04
  -8.39000034       5.20576199E-04
  -8.38000011       5.28717588E-04
  -8.36999989       5.40771813E-04
  -8.35999966       5.57950407E-04
  -8.35000038       5.79658023E-04
  -8.34000015       6.03502558E-04
  -8.32999992       6.25925371E-04
  -8.31999969       6.43253501E-04
  -8.31000042       6.52808812E-04
  -8.30000019       6.53677271E-04
  -8.28999996       6.46859116E-04
  -8.27999973       6.34758966E-04
  -8.27000046       6.20231032E-04
  -8.26000023       6.05578534E-04
  -8.25000000       5.91918593E-04
  -8.23999977       5.79180662E-04
  -8.22999954       5.66736853E-04
  -8.22000027       5.54386643E-04
  -8.21000004       5.43242670E-04
  -8.19999981       5.36073872E-04
  -8.18999958       5.36864158E-04
  -8.18000031       5.49660530E-04
  -8.17000008       5.77093102E-04
  -8.15999985       6.19124505E-04
  -8.14999962       6.72548718E-04
  -8.14000034       7.31502776E-04
  -8.13000011       7.88881793E-04
  -8.11999989       8.38192063E-04
  -8.10999966       8.75184662E-04
  -8.10000038       8.98677681E-04
  -8.09000015       9.10268631E-04
  -8.07999992       9.13070457E-04
  -8.06999969       9.09995346E-04
  -8.06000042       9.02309548E-04
  -8.05000019       8.89092218E-04
  -8.03999996       8.67883849E-04
  -8.02999973       8.36316380E-04
  -8.02000046       7.94085150E-04
  -8.01000023       7.44420744E-04
  -8.00000000       6.94342481E-04
  -7.98999977       6.53406198E-04
  -7.98000002       6.31225936E-04
  -7.96999979       6.34564494E-04
  -7.96000004       6.65023283E-04
  -7.94999981       7.18217052E-04
  -7.94000006       7.84830656E-04
  -7.92999983       8.53282167E-04
  -7.92000008       9.13121155E-04
  -7.90999985       9.57987097E-04
  -7.90000010       9.87076084E-04
  -7.88999987       1.00459042E-03
  -7.88000011       1.01737701E-03
  -7.86999989       1.03164965E-03
  -7.86000013       1.05005398E-03
  -7.84999990       1.07023295E-03
  -7.84000015       1.08550792E-03
  -7.82999992       1.08750141E-03
  -7.82000017       1.06976472E-03
  -7.80999994       1.03104790E-03
  -7.80000019       9.76912794E-04
  -7.78999996       9.18952108E-04
  -7.78000021       8.71731958E-04
  -7.76999998       8.48421478E-04
  -7.76000023       8.56590807E-04
  -7.75000000       8.95655830E-04
  -7.73999977       9.56911012E-04
  -7.73000002       1.02619338E-03
  -7.71999979       1.08830689E-03
  -7.71000004       1.13170582E-03
  -7.69999981       1.15184020E-03
  -7.69000006       1.15204614E-03
  -7.67999983       1.14172744E-03
  -7.67000008       1.13252166E-03
  -7.65999985       1.13384926E-03
  -7.65000010       1.14943716E-03
  -7.63999987       1.17602863E-03
  -7.63000011       1.20468822E-03
  -7.61999989       1.22418732E-03
  -7.61000013       1.22522493E-03
  -7.59999990       1.20397739E-03
  -7.59000015       1.16374355E-03
  -7.57999992       1.11416914E-03
  -7.57000017       1.06838578E-03
  -7.55999994       1.03910756E-03
  -7.55000019       1.03503664E-03
  -7.53999996       1.05873123E-03
  -7.53000021       1.10650097E-03
  -7.51999998       1.17015128E-03
  -7.51000023       1.23977370E-03
  -7.50000000       1.30651076E-03
  -7.48999977       1.36436685E-03
  -7.48000002       1.41062064E-03
  -7.46999979       1.44500099E-03
  -7.46000004       1.46826042E-03
  -7.44999981       1.48093968E-03
  -7.44000006       1.48293062E-03