  -16.0000000       0.00000000    
  -15.9899998       0.00000000    
  -15.9799995       0.00000000    
  -15.9700003       0.00000000    
  -15.9600000       0.00000000    
  -15.9499998       0.00000000    
  -15.9399996       0.00000000    
  -15.9300003       0.00000000    
  -15.9200001       0.00000000    
  -15.9099998       0.00000000    
  -15.8999996      -0.00000000    
  -15.8900003       2.36064141E-39
  -15.8800001       7.42501477E-38
  -15.8699999       1.15462617E-36
  -15.8599997       1.19210589E-35
  -15.8500004       9.22011047E-35
  -15.8400002       5.70215182E-34
  -15.8299999       2.93570861E-33
  -15.8199997       1.29243973E-32
  -15.8100004       4.95725834E-32
  -15.8000002       1.67861369E-31
  -15.7900000       5.06451585E-31
  -15.7799997       1.36948844E-30
  -15.7700005       3.32793397E-30
  -15.7600002       7.25981098E-30
  -15.7500000       1.41254157E-29
  -15.7399998       2.41184493E-29
  -15.7299995       3.47594996E-29
  -15.7200003       3.77308996E-29
  -15.7100000       1.50788684E-29
  -15.6999998      -6.30103731E-29
  -15.6899996      -2.34599741E-28
  -15.6800003      -5.30760870E-28
  -15.6700001      -9.43586554E-28
  -15.6599998      -1.37708199E-27
  -15.6499996      -1.59049920E-27
  -15.6400003      -1.15847219E-27
  -15.6300001       5.09825675E-28
  -15.6199999       4.03240350E-27
  -15.6099997       9.72521822E-27
  -15.6000004       1.70207079E-26
  -15.5900002       2.36427545E-26
  -15.5799999       2.47374639E-26
  -15.5699997       1.25279139E-26
  -15.5600004      -2.24256038E-26
  -15.5500002      -8.68840246E-26
  -15.5400000      -1.76359691E-25
  -15.5299997      -2.63077741E-25
  -15.5200005      -2.85316124E-25
  -15.5100002      -1.48625129E-25
  -15.5000000       2.46286344E-25
  -15.4899998       9.36860283E-25
  -15.4799995       1.79713164E-24
  -15.4700003       2.43754213E-24
  -15.4600000       2.18334216E-24
  -15.4499998       2.35343733E-25
  -15.4399996      -3.90755189E-24
  -15.4300003      -9.79416726E-24
  -15.4200001      -1.53632555E-23
  -15.4099998      -1.67359823E-23
  -15.3999996      -9.02844049E-24
  -15.3900003       1.14226712E-23
  -15.3800001       4.36305272E-23
  -15.3699999       7.85093242E-23
  -15.3599997       9.75853756E-23
  -15.3500004       7.64175744E-23
  -15.3400002      -5.69321270E-24
  -15.3299999      -1.50796088E-22
  -15.3199997      -3.27160964E-22
  -15.3100004      -4.62441572E-22
  -15.3000002      -4.54482786E-22
  -15.2900000      -2.05158929E-22
  -15.2799997       3.26569002E-22
  -15.2700005       1.06822015E-21
  -15.2600002       1.79955828E-21
  -15.2500000       2.16756217E-21
  -15.2399998       1.76720716E-21
  -15.2299995       2.84252560E-22
  -15.2200003      -2.32671790E-21
  -15.2100000      -5.67210630E-21
  -15.1999998      -8.80624558E-21
  -15.1899996      -1.02278952E-20
  -15.1800003      -8.05351688E-21
  -15.1700001      -4.66888273E-22
  -15.1599998       1.34326579E-20
  -15.1499996       3.23240470E-20
  -15.1400003       5.10934956E-20
  -15.1300001       5.96920413E-20
  -15.1199999       4.37527136E-20
  -15.1099997      -1.13060549E-20
  -15.1000004      -1.11450542E-19
  -15.0900002      -2.41251749E-19
  -15.0799999      -3.51632074E-19
  -15.0699997      -3.57032762E-19
  -15.0600004      -1.53549589E-19
  -15.0500002       3.33146940E-19
  -15.0400000       1.07268854E-18
  -15.0299997       1.85063960E-18
  -15.0200005       2.23175542E-18
  -15.0100002       1.62761775E-18
  -15.0000000      -4.81170187E-19
  -14.9899998      -4.17114551E-18
  -14.9799995      -8.64918660E-18
  -14.9700003      -1.19854674E-17
  -14.9600000      -1.12961778E-17
  -14.9499998      -3.63129270E-18
  -14.9399996       1.23897999E-17
  -14.9300003       3.45519959E-17
  -14.9200001       5.54799764E-17
  -14.9099998       6.27638576E-17
  -14.8999996       4.19609931E-17
  -14.8900003      -1.70746870E-17
  -14.8800001      -1.11586797E-16
  -14.8699999      -2.18059805E-16
  -14.8599997      -2.89830005E-16
  -14.8500004      -2.65193707E-16
  -14.8400002      -8.88947843E-17
  -14.8299999       2.55198030E-16
  -14.8199997       7.09629962E-16
  -14.8100004       1.12349847E-15
  -14.8000002       1.26657864E-15
  -14.7900000       8.91882177E-16
  -14.7799997      -1.54125427E-16
  -14.7700005      -1.79846101E-15
  -14.7600002      -3.63667455E-15
  -14.7500000      -4.92359415E-15
  -14.7399998      -4.72084538E-15
  -14.7299995      -2.22260217E-15
  -14.7200003       2.79127934E-15
  -14.7100000       9.51427047E-15
  -14.6999998       1.58959031E-14
  -14.6899996       1.88725548E-14
  -14.6800003       1.51863385E-14
  -14.6700001       2.73886685E-15
  -14.6599998      -1.78439603E-14
  -14.6499996      -4.20243945E-14
  -14.6400003      -6.12664081E-14
  -14.6300001      -6.46559154E-14
  -14.6199999      -4.23874125E-14
  -14.6099997       9.45876610E-15
  -14.6000004       8.42678724E-14
  -14.5900002       1.62424571E-13
  -14.5799999       2.13135865E-13
  -14.5699997       2.01827988E-13
  -14.5600004       1.02653570E-13
  -14.5500002      -8.67091094E-14
  -14.5400000      -3.33025328E-13
  -14.5299997      -5.64444433E-13
  -14.5200005      -6.81703337E-13
  -14.5100002      -5.85407916E-13
  -14.5000000      -2.15494072E-13
  -14.4899998       4.07598570E-13
  -14.4799995       1.15563462E-12
  -14.4700003       1.79580873E-12
  -14.4600000       2.03600439E-12
  -14.4499998       1.61188998E-12
  -14.4399996       3.99341476E-13
  -14.4300003      -1.48066184E-12
  -14.4200001      -3.60756390E-12
  -14.4099998      -5.29759006E-12
  -14.3999996      -5.75255772E-12
  -14.3900003      -4.30880982E-12
  -14.3800001      -7.32087730E-13
  -14.3699999       4.53280035E-12
  -14.3599997       1.02651932E-11
  -14.3500004       1.46153419E-11
  -14.3400002       1.55294024E-11
  -14.3299999       1.13995462E-11
  -14.3199997       1.78758787E-12
  -14.3100004      -1.20070264E-11
  -14.3000002      -2.67861098E-11
  -14.2900000      -3.78908953E-11
  -14.2799997      -4.02871521E-11
  -14.2700005      -3.01381316E-11
  -14.2600002      -6.48943703E-12
  -14.2500000       2.74652245E-11
  -14.2399998       6.40912323E-11
  -14.2299995       9.23909838E-11
  -14.2200003       1.00516338E-10
  -14.2100000       7.93278221E-11
  -14.1999998       2.61593750E-11
  -14.1899996      -5.23599705E-11
  -14.1800003      -1.39598846E-10
  -14.1700001      -2.11157772E-10
  -14.1599998      -2.40172243E-10
  -14.1499996      -2.04887801E-10
  -14.1400003      -9.67930458E-11
  -14.1300001       7.30297212E-11
  -14.1199999       2.71744544E-10
  -14.1099997       4.48555609E-10
  -14.1000004       5.44882306E-10
  -14.0900002       5.09551845E-10
  -14.0799999       3.15821230E-10
  -14.0699997      -2.42878530E-11
  -14.0600004      -4.53186488E-10
  -14.0500002      -8.72305339E-10
  -14.0400000      -1.15959697E-09
  -14.0299997      -1.19816868E-09
  -14.0200005      -9.10678588E-10
  -14.0100002      -2.91222491E-10
  -14.0000000       5.74843229E-10
  -13.9899998       1.51160762E-09
  -13.9799995       2.27863728E-09
  -13.9700003       2.62127342E-09
  -13.9600000       2.33719843E-09
  -13.9499998       1.34490952E-09
  -13.9399996      -2.64218508E-10
  -13.9300003      -2.20846297E-09
  -13.9200001      -4.04596356E-09
  -13.9099998      -5.25580157E-09
  -13.8999996      -5.36002087E-09
  -13.8900003      -4.06313605E-09
  -13.8800001      -1.37532052E-09
  -13.8699999       2.31809638E-09
  -13.8599997       6.27235330E-09
  -13.8500004       9.49986756E-09
  -13.8400002       1.09794387E-08
  -13.8299999       9.92248772E-09
  -13.8199997       6.03690742E-09
  -13.8100004      -2.83843754E-10
  -13.8000002      -7.91464227E-09
  -13.7900000      -1.51398503E-08
  -13.7799997      -1.99843040E-08
  -13.7700005      -2.06850572E-08
  -13.7600002      -1.62054103E-08
  -13.7500000      -6.66021505E-09
  -13.7399998       6.48171383E-09
  -13.7299995       2.05185451E-08
  -13.7200003       3.19915898E-08
  -13.7100000       3.74571592E-08
  -13.6999998       3.44015270E-08
  -13.6899996       2.20776357E-08
  -13.6800003       2.02192707E-09
  -13.6700001      -2.19473435E-08
  -13.6599998      -4.43425350E-08
  -13.6499996      -5.91710396E-08
  -13.6400003      -6.14311659E-08
  -13.6300001      -4.85905112E-08
  -13.6199999      -2.16441194E-08
  -13.6099997       1.46013113E-08
  -13.6000004       5.22162367E-08
  -13.5900002       8.17745871E-08
  -13.5799999       9.46206455E-08
  -13.5699997       8.52597708E-08
  -13.5600004       5.32457030E-08
  -13.5500002       3.98319955E-09
  -13.5400000      -5.19230987E-08
  -13.5299997      -1.00798438E-07
  -13.5200005      -1.29132445E-07
  -13.5100002      -1.27192621E-07
  -13.5000000      -9.20908008E-08
  -13.4899998      -2.94021589E-08
  -13.4799995       4.72881752E-08
  -13.4700003       1.19054434E-07
  -13.4600000       1.66075537E-07
  -13.4499998       1.72878842E-07
  -13.4399996       1.33063878E-07
  -13.4300003       5.21614858E-08
  -13.4200001      -5.23809511E-08
  -13.4099998      -1.54448287E-07
  -13.3999996      -2.25272657E-07
  -13.3900003      -2.40942285E-07
  -13.3800001      -1.89569633E-07
  -13.3699999      -7.61440120E-08
  -13.3599997       7.65360113E-08
  -13.3500004       2.31609874E-07
  -13.3400002       3.46190774E-07
  -13.3299999       3.82107885E-07
  -13.3199997       3.16853118E-07
  -13.3100004       1.51857108E-07
  -13.3000002      -8.44459933E-08
  -13.2900000      -3.40260215E-07
  -13.2799997      -5.50707796E-07
  -13.2700005      -6.52937899E-07
  -13.2600002      -6.02769433E-07
  -13.2500000      -3.88758707E-07
  -13.2399998      -3.97310274E-08
  -13.2299995       3.76995729E-07
  -13.2200003       7.67424410E-07
  -13.2100000       1.03097852E-06
  -13.1999998       1.08481572E-06
  -13.1899996       8.86722262E-07
  -13.1800003       4.50653005E-07
  -13.1700001      -1.49844766E-07
  -13.1599998      -7.92575918E-07
  -13.1499996      -1.33089486E-06
  -13.1400003      -1.62659296E-06
  -13.1300001      -1.58424723E-06
  -13.1199999      -1.17867739E-06
  -13.1099997      -4.68030890E-07
  -13.1000004       4.12151365E-07
  -13.0900002       1.27424505E-06
  -13.0799999       1.91880054E-06
  -13.0699997       2.18120408E-06
  -13.0600004       1.97384088E-06
  -13.0500002       1.31303443E-06
  -13.0400000       3.22910807E-07
  -13.0299997      -7.86591727E-07
  -13.0200005      -1.76416120E-06
  -13.0100002      -2.37477707E-06
  -13.0000000      -2.45741649E-06
  -12.9899998      -1.96864266E-06
  -12.9799995      -1.00040222E-06
  -12.9700003       2.34092298E-07
  -12.9600000       1.44505657E-06
  -12.9499998       2.33245032E-06
  -12.9399996       2.65905078E-06
  -12.9300003       2.31280319E-06
  -12.9200001       1.34248762E-06
  -12.9099998      -4.37375789E-08
  -12.8999996      -1.51894881E-06
  -12.8900003      -2.70985720E-06
  -12.8800001      -3.28547435E-06
  -12.8699999      -3.04163746E-06
  -12.8599997      -1.96073984E-06
  -12.8500004      -2.30687704E-07
  -12.8400002       1.78415894E-06
  -12.8299999       3.61635671E-06
  -12.8199997       4.79867231E-06
  -12.8100004       4.97501833E-06
  -12.8000002       3.99358851E-06
  -12.7900000       1.95931239E-06
  -12.7799997      -7.69274777E-07
  -12.7700005      -3.64177754E-06
  -12.7600002      -6.02614136E-06
  -12.7500000      -7.34546938E-06
  -12.7399998      -7.21220113E-06
  -12.7299995      -5.52918164E-06
  -12.7200003      -2.53271492E-06
  -12.7100000       1.23583777E-06
  -12.6999998       5.02811963E-06
  -12.6899996       8.03899457E-06
  -12.6800003       9.57865268E-06
  -12.6700001       9.22960589E-06
  -12.6599998       6.95277322E-06
  -12.6499996       3.11621170E-06
  -12.6400003      -1.56403632E-06
  -12.6300001      -6.16224406E-06
  -12.6199999      -9.73331953E-06
  -12.6099997      -1.15147623E-05
  -12.6000004      -1.10952205E-05
  -12.5900002      -8.51017285E-06
  -12.5799999      -4.24035443E-06
  -12.5699997       8.89818864E-07
  -12.5600004       5.89309730E-06
  -12.5500002       9.83915834E-06
  -12.5400000       1.20619507E-05
  -12.5299997       1.23043083E-05
  -12.5200005       1.07628694E-05
  -12.5100002       8.01950773E-06
  -12.5000000       4.87322131E-06
  -12.4899998       2.11205975E-06
  -12.4799995       2.81743496E-07
  -12.4700003      -4.88732383E-07
  -12.4600000      -5.55588144E-07
  -12.4499998      -6.98278654E-07
  -12.4399996      -1.93435085E-06
  -12.4300003      -5.25020960E-06
  -12.4200001      -1.13104952E-05
  -12.4099998      -2.02179635E-05
  -12.3999996      -3.13875134E-05
  -12.3900003      -4.35736438E-05
  -12.3800001      -5.50554141E-05
  -12.3699999      -6.39454956E-05
  -12.3599997      -6.85588675E-05
  -12.3500004      -6.77602729E-05
  -12.3400002      -6.12120639E-05
  -12.3299999      -4.94649794E-05
  -12.3199997      -3.38695500E-05
  -12.3100004      -1.63263412E-05
  -12.3000002       1.07007679E-06
  -12.2900000       1.64149060E-05
  -12.2799997       2.83207919E-05
  -12.2700005       3.61199527E-05
  -12.2600002       3.99017554E-05
  -12.2500000       4.03856684E-05
  -12.2399998       3.86675783E-05
  -12.2299995       3.59055739E-05
  -12.2200003       3.30230032E-05
  -12.2100000       3.04994192E-05
  -12.1999998       2.82963683E-05
  -12.1899996       2.59305998E-05
  -12.1800003       2.26709963E-05
  -12.1700001       1.78059163E-05
  -12.1599998       1.09114408E-05
  -12.1499996       2.05188621E-06
  -12.1400003      -8.13904717E-06
  -12.1300001      -1.85191493E-05
  -12.1199999      -2.76296614E-05
  -12.1099997      -3.39769031E-05
  -12.1000004      -3.63417093E-05
  -12.0900002      -3.40487750E-05
  -12.0799999      -2.71372355E-05
  -12.0699997      -1.63956211E-05
  -12.0600004      -3.25363385E-06
  -12.0500002       1.04470500E-05
  -12.0400000       2.27567907E-05
  -12.0299997       3.19374267E-05
  -12.0200005       3.67375760E-05
  -12.0100002       3.65761298E-05
  -12.0000000       3.16067744E-05
  -11.9899998       2.26606571E-05
  -11.9799995       1.10865685E-05
  -11.9700003      -1.47605522E-06
  -11.9600000      -1.33488802E-05
  -11.9499998      -2.30507521E-05
  -11.9399996      -2.94865458E-05
  -11.9300003      -3.20697000E-05
  -11.9200001      -3.07717128E-05
  -11.9099998      -2.61012665E-05
  -11.8999996      -1.90212359E-05
  -11.8900003      -1.08138602E-05
  -11.8800001      -2.90546859E-06
  -11.8699999       3.33592288E-06
  -11.8599997       6.81201254E-06
  -11.8500004       6.88948785E-06
  -11.8400002       3.54707618E-06
  -11.8299999      -2.56098747E-06
  -11.8199997      -1.01555725E-05
  -11.8100004      -1.75125970E-05
  -11.8000002      -2.27624187E-05
  -11.7900000      -2.42679198E-05
  -11.7799997      -2.10116359E-05
  -11.7700005      -1.29045748E-05
  -11.7600002      -9.30681892E-07
  -11.7500000       1.29343989E-05
  -11.7399998       2.60459165E-05
  -11.7299995       3.56114251E-05
  -11.7200003       3.93119226E-05
  -11.7100000       3.58843790E-05
  -11.6999998       2.55190116E-05
  -11.6899996       9.95332084E-06
  -11.6800003      -7.79172660E-06
  -11.6700001      -2.40039080E-05
  -11.6599998      -3.50854898E-05
  -11.6499996      -3.83942643E-05
  -11.6400003      -3.29187351E-05
  -11.6300001      -1.96132860E-05
  -11.6199999      -1.29228306E-06
  -11.6099997       1.79147246E-05
  -11.6000004       3.34369615E-05
  -11.5900002       4.12713780E-05
  -11.5799999       3.88941517E-05
  -11.5699997       2.58611035E-05
  -11.5600004       3.95583538E-06
  -11.5500002      -2.31483373E-05
  -11.5400000      -5.06310935E-05
  -11.5299997      -7.34979330E-05
  -11.5200005      -8.75607147E-05
  -11.5100002      -9.02118918E-05
  -11.5000000      -8.08386758E-05
  -11.4899998      -6.08170521E-05
  -11.4799995      -3.31267765E-05
  -11.4700003      -1.70961539E-06
  -11.4600000       2.92642617E-05
  -11.4499998       5.60608714E-05
  -11.4399996       7.58606766E-05
  -11.4300003       8.69993164E-05
  -11.4200001       8.89862058E-05
  -11.4099998       8.23638402E-05
  -11.3999996       6.84877305E-05
  -11.3900003       4.92935469E-05
  -11.3800001       2.70853325E-05
  -11.3699999       4.34199137E-06
  -11.3599997      -1.64839312E-05
  -11.3500004      -3.32015916E-05
  -11.3400002      -4.41550437E-05
  -11.3299999      -4.85013661E-05
  -11.3199997      -4.64267214E-05
  -11.3100004      -3.92181682E-05
  -11.3000002      -2.91233937E-05
  -11.2900000      -1.89757975E-05
  -11.2799997      -1.16271140E-05
  -11.2700005      -9.29571252E-06
  -11.2600002      -1.29836753E-05
  -11.2500000      -2.21224000E-05
  -11.2399998      -3.45673652E-05
  -11.2299995      -4.69846091E-05
  -11.2200003      -5.55724364E-05
  -11.2100000      -5.69687763E-05
  -11.1999998      -4.91334613E-05
  -11.1899996      -3.19846040E-05
  -11.1800003      -7.61506089E-06
  -11.1700001       1.99909264E-05
  -11.1599998       4.57021160E-05
  -11.1499996       6.42931045E-05
  -11.1400003       7.15735878E-05
  -11.1300001       6.53370007E-05
  -11.1199999       4.59083167E-05
  -11.1099997       1.61600801E-05
  -11.1000004      -1.90132505E-05
  -11.0900002      -5.36502157E-05
  -11.0799999      -8.18979606E-05
  -11.0699997      -9.91531488E-05
  -11.0600004      -1.02924590E-04
  -11.0500002      -9.32401017E-05
  -11.0400000      -7.25240316E-05
  -11.0299997      -4.49895160E-05
  -11.0200005      -1.56931401E-05
  -11.0100002       1.05318604E-05
  -11.0000000       3.00293868E-05
  -10.9899998       4.09600289E-05
  -10.9799995       4.35015172E-05
  -10.9700003       3.95866809E-05
  -10.9600000       3.22592750E-05
  -10.9499998       2.48116612E-05
  -10.9399996       1.99135666E-05
  -10.9300003       1.89389066E-05
  -10.9200001       2.16482695E-05
  -10.9099998       2.62993472E-05
  -10.8999996       3.01554464E-05
  -10.8900003       3.02659100E-05
  -10.8800001       2.43249051E-05
  -10.8699999       1.13924771E-05
  -10.8599997      -7.70932729E-06
  -10.8500004      -3.04368114E-05
  -10.8400002      -5.30081743E-05
  -10.8299999      -7.12269903E-05
  -10.8199997      -8.14545929E-05
  -10.8100004      -8.14971427E-05
  -10.8000002      -7.11872854E-05
  -10.7900000      -5.25093928E-05
  -10.7799997      -2.92263048E-05
  -10.7700005      -6.08611481E-06
  -10.7600002       1.22092342E-05
  -10.7500000       2.20339625E-05
  -10.7399998       2.16292210E-05
  -10.7299995       1.14773093E-05
  -10.7200003      -5.81520862E-06
  -10.7100000      -2.60831639E-05
  -10.6999998      -4.44746911E-05
  -10.6899996      -5.64289876E-05
  -10.6800003      -5.85552989E-05
  -10.6700001      -4.92542458E-05
  -10.6599998      -2.89995296E-05
  -10.6499996      -2.79343567E-07
  -10.6400003       3.27411944E-05
  -10.6300001       6.47483175E-05
  -10.6199999       8.99180668E-05
  -10.6099997       1.02612968E-04
  -10.6000004       9.81115736E-05
  -10.5900002       7.33509296E-05
  -10.5799999       2.76349547E-05
  -10.5699997      -3.67897446E-05
  -10.5600004      -1.14441791E-04
  -10.5500002      -1.96771143E-04
  -10.5400000      -2.72922829E-04
  -10.5299997      -3.31133720E-04
  -10.5200005      -3.60637583E-04
  -10.5100002      -3.53777752E-04
  -10.5000000      -3.07888520E-04
  -10.4899998      -2.26462886E-04
  -10.4799995      -1.19208737E-04
  -10.4700003      -8.09175276E-07
  -10.4600000       1.11497000E-04
  -10.4499998       2.01085117E-04
  -10.4399996       2.55198771E-04
  -10.4300003       2.67538649E-04
  -10.4200001       2.39546323E-04
  -10.4099998       1.80029834E-04
  -10.3999996       1.03176775E-04
  -10.3900003       2.54050174E-05
  -10.3800001      -3.82013532E-05
  -10.3699999      -7.70175830E-05
  -10.3599997      -8.68321658E-05
  -10.3500004      -7.02104517E-05
  -10.3400002      -3.52689967E-05
  -10.3299999       6.73303794E-06
  -10.3199997       4.43014142E-05
  -10.3100004       6.83543039E-05
  -10.3000002       7.39892930E-05
  -10.2900000       6.10480784E-05
  -10.2799997       3.35157565E-05
  -10.2700005      -1.90205628E-06
  -10.2600002      -3.75163545E-05
  -10.2500000      -6.62118910E-05
  -10.2399998      -8.24969466E-05
  -10.2299995      -8.29613418E-05
  -10.2200003      -6.62825332E-05
  -10.2100000      -3.30408184E-05
  -10.1999998       1.44142577E-05
  -10.1899996       7.19424279E-05
  -10.1800003       1.33521738E-04
  -10.1700001       1.91323386E-04
  -10.1599998       2.36221560E-04
  -10.1499996       2.58896820E-04
  -10.1400003       2.51466437E-04
  -10.1300001       2.09318780E-04
  -10.1199999       1.32646979E-04
  -10.1099997       2.71547106E-05
  -10.1000004      -9.64202191E-05
  -10.0900002      -2.23992713E-04
  -10.0799999      -3.40675469E-04
  -10.0699997      -4.33530309E-04
  -10.0600004      -4.93767904E-04
  -10.0500002      -5.17783454E-04
  -10.0400000      -5.06774464E-04
  -10.0299997      -4.65156190E-04
  -10.0200005      -3.98397620E-04
  -10.0100002      -3.11111391E-04
  -10.0000000      -2.06141383E-04
  -9.98999977      -8.50288343E-05
  -9.97999954       5.02941330E-05
  -9.97000027       1.95248533E-04
  -9.96000004       3.40763829E-04
  -9.94999981       4.72791755E-04
  -9.93999958       5.73745172E-04
  -9.93000031       6.25799177E-04
  -9.92000008       6.15312310E-04
  -9.90999985       5.37130574E-04
  -9.89999962       3.97407974E-04
  -9.89000034       2.13891646E-04
  -9.88000011       1.32958830E-05
  -9.86999989      -1.73760840E-04
  -9.85999966      -3.19033890E-04
  -9.85000038      -4.02515201E-04
  -9.84000015      -4.16326220E-04
  -9.82999992      -3.65635089E-04
  -9.81999969      -2.66446557E-04
  -9.81000042      -1.41008655E-04
  -9.80000019      -1.22341398E-05
  -9.78999996       1.01257821E-04
  -9.77999973       1.88169608E-04
  -9.77000046       2.45004194E-04
  -9.76000023       2.74228049E-04
  -9.75000000       2.81075132E-04
  -9.73999977       2.70311371E-04
  -9.72999954       2.44166702E-04
  -9.72000027       2.02114141E-04
  -9.71000004       1.42425401E-04
  -9.69999981       6.47379056E-05
  -9.68999958      -2.75289349E-05
  -9.68000031      -1.26024606E-04
  -9.67000008      -2.18236746E-04
  -9.65999985      -2.90112512E-04
  -9.64999962      -3.29755712E-04
  -9.64000034      -3.30979412E-04
  -9.63000011      -2.95476435E-04
  -9.61999989      -2.32794308E-04
  -9.60999966      -1.58020048E-04
  -9.60000038      -8.78443170E-05
  -9.59000015      -3.62181490E-05
  -9.57999992      -1.09495031E-05
  -9.56999969      -1.22655174E-05
  -9.56000042      -3.37038437E-05
  -9.55000019      -6.49245630E-05
  -9.53999996      -9.54194693E-05
  -9.52999973      -1.17846488E-04
  -9.52000046      -1.29910783E-04
  -9.51000023      -1.34269125E-04
  -9.50000000      -1.36647170E-04
  -9.48999977      -1.42974590E-04
  -9.47999954      -1.56646696E-04
  -9.47000027      -1.76918576E-04
  -9.46000004      -1.98979265E-04
  -9.44999981      -2.15618042E-04
  -9.43999958      -2.19818394E-04
  -9.43000031      -2.07303339E-04
  -9.42000008      -1.78113012E-04
  -9.40999985      -1.36682836E-04
  -9.39999962      -9.04549815E-05
  -9.39000034      -4.75799607E-05
  -9.38000011      -1.45563154E-05
  -9.36999989       5.38113272E-06
  -9.35999966       1.26510840E-05
  -9.35000038       1.05103090E-05
  -9.34000015       3.49647144E-06
  -9.32999992      -4.17700085E-06
  -9.31999969      -9.64694118E-06
  -9.31000042      -1.15420662E-05
  -9.30000019      -9.36661399E-06
  -9.28999996      -2.60416846E-06
  -9.27999973       9.86048781E-06
  -9.27000046       2.95726404E-05
  -9.26000023       5.75492522E-05
  -9.25000000       9.29242378E-05
  -9.23999977       1.31880966E-04
  -9.22999954       1.67552396E-04
  -9.22000027       1.91244588E-04
  -9.21000004       1.94801876E-04
  -9.19999981       1.73390450E-04
  -9.18999958       1.27665742E-04
  -9.18000031       6.43647872E-05
  -9.17000008      -5.15599504E-06
  -9.15999985      -6.81782039E-05
  -9.14999962      -1.14685070E-04
  -9.14000034      -1.40808334E-04
  -9.13000011      -1.50300664E-04
  -9.11999989      -1.53267218E-04
  -9.10999966      -1.62336495E-04
  -9.10000038      -1.87428610E-04
  -9.09000015      -2.30927413E-04
  -9.07999992      -2.85108981E-04
  -9.06999969      -3.33051168E-04
  -9.06000042      -3.53117997E-04
  -9.05000019      -3.25845613E-04
  -9.03999996      -2.41097267E-04
  -9.02999973      -1.03064667E-04
  -9.02000046       6.87750216E-05
  -9.01000023       2.43416842E-04
  -9.00000000       3.85944149E-04
  -8.98999977       4.66820551E-04
  -8.97999954       4.70015570E-04
  -8.97000027       3.97385447E-04
  -8.96000004       2.67859548E-04
  -8.94999981       1.11629284E-04
  -8.93999958      -3.88424960E-05
  -8.93000031      -1.58128634E-04
  -8.92000008      -2.34489504E-04
  -8.90999985      -2.71782686E-04
  -8.89999962      -2.86134135E-04
  -8.89000034      -2.98637635E-04
  -8.88000011      -3.26685520E-04
  -8.86999989      -3.76984361E-04
  -8.85999966      -4.42710327E-04
  -8.85000038      -5.05811186E-04
  -8.84000015      -5.43654838E-04
  -8.82999992      -5.37682616E-04
  -8.81999969      -4.80985269E-04
  -8.81000042      -3.82040482E-04
  -8.80000019      -2.63142661E-04
  -8.78999996      -1.53873392E-04
  -8.77999973      -8.16931351E-05
  -8.77000046      -6.27817062E-05
  -8.76000023      -9.62486374E-05
  -8.75000000      -1.63767574E-04
  -8.73999977      -2.34911102E-04
  -8.72999954      -2.76568666E-04
  -8.72000027      -2.63456343E-04
  -8.71000004      -1.86336198E-04
  -8.69999981      -5.52860220E-05
  -8.68999958       1.03040533E-04
  -8.68000031       2.53280043E-04
  -8.67000008       3.61826125E-04
  -8.65999985       4.06566949E-04
  -8.64999962       3.82850150E-04
  -8.64000034       3.03900510E-04
  -8.63000011       1.95736662E-04
  -8.61999989       8.83973262E-05
  -8.60999966       6.42105169E-06
  -8.60000038      -3.83321167E-05
  -8.59000015      -4.92936742E-05
  -8.57999992      -4.25775434E-05
  -8.56999969      -4.02250698E-05
  -8.56000042      -6.17104088E-05
  -8.55000019      -1.16612995E-04
  -8.53999996      -2.00892755E-04
  -8.52999973      -2.97946244E-04
  -8.52000046      -3.84009792E-04
  -8.51000023      -4.36048111E-04
  -8.50000000      -4.39483352E-04
  -8.48999977      -3.93218215E-04
  -8.47999954      -3.10329284E-04
  -8.47000027      -2.14232859E-04
  -8.46000004      -1.31581692E-04
  -8.44999981      -8.41671499E-05
  -8.43999958      -8.23700102E-05
  -8.43000031      -1.22163256E-04
  -8.42000008      -1.86516249E-04
  -8.40999985      -2.50670535E-04
  -8.39999962      -2.89590098E-04
  -8.39000034      -2.85286224E-04
  -8.38000011      -2.31843995E-04
  -8.36999989      -1.36762872E-04
  -8.35999966      -1.83906577E-05
  -8.35000038       9.95897281E-05
  -8.34000015       1.94837135E-04
  -8.32999992       2.52164871E-04
  -8.31999969       2.66842719E-04
  -8.31000042       2.44596944E-04
  -8.30000019       1.98557274E-04
  -8.28999996       1.44301899E-04
  -8.27999973       9.46497748E-05
  -8.27000046       5.58190877E-05
  -8.26000023       2.60543748E-05
  -8.25000000      -2.99501016E-06
  -8.23999977      -4.27177620E-05
  -8.22999954      -1.03012746E-04
  -8.22000027      -1.88235703E-04
  -8.21000004      -2.94859667E-04
  -8.19999981      -4.11527319E-04
  -8.18999958      -5.21440234E-04
  -8.18000031      -6.06356713E-04
  -8.17000008      -6.51041511E-04
  -8.15999985      -6.46939559E-04
  -8.14999962      -5.94127399E-04
  -8.14000034      -5.01126284E-04
  -8.13000011      -3.82763712E-04
  -8.11999989      -2.56779109E-04
  -8.10999966      -1.40141230E-04
  -8.10000038      -4.60205229E-05
  -8.09000015       1.79217313E-05
  -8.07999992       4.97024666E-05
  -8.06999969       5.18713423E-05
  -8.06000042       2.96128364E-05
  -8.05000019      -1.12122525E-05
  -8.03999996      -6.54831019E-05
  -8.02999973      -1.29353750E-04
  -8.02000046      -1.99907692E-04
  -8.01000023      -2.74235528E-04
  -8.00000000      -3.48417816E-04
  -7.98999977      -4.16903757E-04
  -7.98000002      -4.72620013E-04
  -7.96999979      -5.07887395E-04
  -7.96000004      -5.15945721E-04
  -7.94999981      -4.92674415E-04
  -7.94000006      -4.38013463E-04
  -7.92999983      -3.56650504E-04
  -7.92000008      -2.57721549E-04
  -7.90999985      -1.53526125E-04
  -7.90000010      -5.75049708E-05
  -7.88999987       1.80879251E-05
  -7.88000011       6.43169333E-05
  -7.86999989       7.70470360E-05
  -7.86000013       5.74747173E-05
  -7.84999990       1.16191295E-05
  -7.84000015      -5.10922582E-05
  -7.82999992      -1.19823111E-04
  -7.82000017      -1.84481425E-04
  -7.80999994      -2.37579734E-04
  -7.80000019      -2.75429251E-04
  -7.78999996      -2.98442814E-04
  -7.78000021      -3.10510921E-04
  -7.76999998      -3.17610480E-04
  -7.76000023      -3.25968489E-04
  -7.75000000      -3.40201135E-04
  -7.73999977      -3.61855025E-04
  -7.73000002      -3.88700748E-04
  -7.71999979      -4.14970476E-04
  -7.71000004      -4.32524190E-04
  -7.69999981      -4.32717177E-04
  -7.69000006      -4.08571592E-04
  -7.67999983      -3.56763077E-04
  -7.67000008      -2.78950232E-04
  -7.65999985      -1.82098564E-04
  -7.65000010      -7.76580200E-05
  -7.63999987       2.02944866E-05
  -7.63000011       9.75985022E-05
  -7.61999989       1.42720484E-04
  -7.61000013       1.49050640E-04
  -7.59999990       1.16278803E-04
  -7.59000015       5.05236130E-05
  -7.57999992      -3.68425463E-05
  -7.57000017      -1.31441950E-04
  -7.55999994      -2.18737259E-04
  -7.55000019      -2.86855822E-04
  -7.53999996      -3.28772556E-04
  -7.53000021      -3.43373977E-04
  -7.51999998      -3.35190300E-04
  -7.51000023      -3.12896620E-04
  -7.50000000      -2.86984839E-04
  -7.48999977      -2.67204508E-04
  -7.48000002      -2.60420842E-04
  -7.46999979      -2.69411306E-04
  -7.46000004      -2.92851240E-04
  -7.44999981      -3.26404290E-04
  -7.44000006      -3.64517036E-04