  -16.0000000       0.00000000    
  -15.9899998       0.00000000    
  -15.9799995       0.00000000    
  -15.9700003       0.00000000    
  -15.9600000       0.00000000    
  -15.9499998       0.00000000    
  -15.9399996       0.00000000    
  -15.9300003       0.00000000    
  -15.9200001       0.00000000    
  -15.9099998       0.00000000    
  -15.8999996       0.00000000    
  -15.8900003      -5.92543260E-40
  -15.8800001      -7.15608205E-38
  -15.8699999      -1.55068056E-36
  -15.8599997      -1.81110576E-35
  -15.8500004      -1.43750699E-34
  -15.8400002      -8.55525340E-34
  -15.8299999      -4.01147549E-33
  -15.8199997      -1.51608502E-32
  -15.8100004      -4.61694332E-32
  -15.8000002      -1.09075802E-31
  -15.7900000      -1.69660451E-31
  -15.7799997       1.05116995E-32
  -15.7700005       1.24385969E-30
  -15.7600002       5.51425303E-30
  -15.7500000       1.64173551E-29
  -15.7399998       3.81301930E-29
  -15.7299995       7.02569494E-29
  -15.7200003       9.52000713E-29
  -15.7100000       5.71606438E-29
  -15.6999998      -1.59003789E-28
  -15.6899996      -7.23130890E-28
  -15.6800003      -1.78195397E-27
  -15.6700001      -3.25296000E-27
  -15.6599998      -4.47108488E-27
  -15.6499996      -3.78275868E-27
  -15.6400003       1.61972422E-27
  -15.6300001       1.50988255E-26
  -15.6199999       3.85558294E-26
  -15.6099997       6.85439946E-26
  -15.6000004       9.08334875E-26
  -15.5900002       7.53259736E-26
  -15.5799999      -2.43402169E-26
  -15.5699997      -2.59154169E-25
  -15.5600004      -6.51413035E-25
  -15.5500002      -1.13160046E-24
  -15.5400000      -1.44877461E-24
  -15.5299997      -1.08734132E-24
  -15.5200005       7.24223713E-25
  -15.5100002       4.76251658E-24
  -15.5000000       1.11356513E-23
  -15.4899998       1.81042189E-23
  -15.4799995       2.06622046E-23
  -15.4700003       9.81009199E-24
  -15.4600000      -2.57085493E-23
  -15.4499998      -9.29715302E-23
  -15.4399996      -1.82434535E-22
  -15.4300003      -2.51677224E-22
  -15.4200001      -2.14113940E-22
  -15.4099998       5.05318958E-23
  -15.3999996       6.42838839E-22
  -15.3900003       1.53421223E-21
  -15.3800001       2.41769020E-21
  -15.3699999       2.58915347E-21
  -15.3599997       9.92903502E-22
  -15.3500004      -3.39988357E-21
  -15.3400002      -1.07684319E-20
  -15.3299999      -1.92750176E-20
  -15.3199997      -2.40311445E-20
  -15.3100004      -1.71220926E-20
  -15.3000002       1.01291780E-20
  -15.2900000       6.18071745E-20
  -15.2799997       1.29404962E-19
  -15.2700005       1.83978513E-19
  -15.2600002       1.74075417E-19
  -15.2500000       3.68673494E-20
  -15.2399998      -2.71542819E-19
  -15.2299995      -7.27600785E-19
  -15.2200003      -1.18755901E-18
  -15.2100000      -1.36080103E-18
  -15.1999998      -8.51482248E-19
  -15.1899996       6.93318698E-19
  -15.1800003       3.32274916E-18
  -15.1700001       6.46716645E-18
  -15.1599998       8.71340477E-18
  -15.1499996       7.88742853E-18
  -15.1400003       1.66530720E-18
  -15.1300001      -1.11917173E-17
  -15.1199999      -2.91691545E-17
  -15.1099997      -4.65014702E-17
  -15.1000004      -5.28466867E-17
  -15.0900002      -3.52807553E-17
  -15.0799999       1.66311263E-17
  -15.0699997       1.03050147E-16
  -15.0600004       2.05515088E-16
  -15.0500002       2.82141487E-16
  -15.0400000       2.71683594E-16
  -15.0299997       1.11002450E-16
  -15.0200005      -2.33277215E-16
  -15.0100002      -7.25035215E-16
  -15.0000000      -1.22558288E-15
  -14.9899998      -1.48903469E-15
  -14.9799995      -1.20867758E-15
  -14.9700003      -1.26698606E-16
  -14.9600000       1.80370753E-15
  -14.9499998       4.24831831E-15
  -14.9399996       6.39203037E-15
  -14.9300003       7.00447458E-15
  -14.9200001       4.74835024E-15
  -14.9099998      -1.25909891E-15
  -14.8999996      -1.07349000E-14
  -14.8900003      -2.16084170E-14
  -14.8800001      -2.98339539E-14
  -14.8699999      -2.99929352E-14
  -14.8599997      -1.68920647E-14
  -14.8500004       1.19672203E-14
  -14.8400002       5.36403570E-14
  -14.8299999       9.77748495E-14
  -14.8199997       1.26753683E-13
  -14.8100004       1.19093158E-13
  -14.8000002       5.64590489E-14
  -14.7900000      -6.67061960E-14
  -14.7799997      -2.33628465E-13
  -14.7700005      -3.99822130E-13
  -14.7600002      -4.96404946E-13
  -14.7500000      -4.45346939E-13
  -14.7399998      -1.86589906E-13
  -14.7299995       2.87982447E-13
  -14.7200003       9.04111692E-13
  -14.7100000       1.49241513E-12
  -14.6999998       1.80729346E-12
  -14.6899996       1.58554832E-12
  -14.6800003       6.40775952E-13
  -14.6700001      -1.02646158E-12
  -14.6599998      -3.13829952E-12
  -14.6499996      -5.11344699E-12
  -14.6400003      -6.14504194E-12
  -14.6300001      -5.40015905E-12
  -14.6199999      -2.31994090E-12
  -14.6099997       3.04814789E-12
  -14.6000004       9.79632608E-12
  -14.5900002       1.61091383E-11
  -14.5799999       1.95284726E-11
  -14.5699997       1.75653537E-11
  -14.5600004       8.57981394E-12
  -14.5500002      -7.27957278E-12
  -14.5400000      -2.73898595E-11
  -14.5299997      -4.65674478E-11
  -14.5200005      -5.78475878E-11
  -14.5100002      -5.41908809E-11
  -14.5000000      -3.08744801E-11
  -14.4899998       1.20044755E-11
  -14.4799995       6.77345957E-11
  -14.4700003       1.22779217E-10
  -14.4600000       1.58790481E-10
  -14.4499998       1.56957336E-10
  -14.4399996       1.04043267E-10
  -14.4300003      -1.31853090E-12
  -14.4200001      -1.44070950E-10
  -14.4099998      -2.91999036E-10
  -14.3999996      -4.00309980E-10
  -14.3900003      -4.21753993E-10
  -14.3800001      -3.20779903E-10
  -14.3699999      -8.84460838E-11
  -14.3599997       2.46431903E-10
  -14.3500004       6.14561069E-10
  -14.3400002       9.15233278E-10
  -14.3299999       1.03777176E-09
  -14.3199997       8.92246166E-10
  -14.3100004       4.42583276E-10
  -14.3000002      -2.67417838E-10
  -14.2900000      -1.10501353E-09
  -14.2799997      -1.86363192E-09
  -14.2700005      -2.30392372E-09
  -14.2600002      -2.21509389E-09
  -14.2500000      -1.48334867E-09
  -14.2399998      -1.48985282E-10
  -14.2299995       1.56736357E-09
  -14.2200003       3.28422689E-09
  -14.2100000       4.52937199E-09
  -14.1999998       4.85159957E-09
  -14.1899996       3.95134103E-09
  -14.1800003       1.79685977E-09
  -14.1700001      -1.30989797E-09
  -14.1599998      -4.74661599E-09
  -14.1499996      -7.67509789E-09
  -14.1400003      -9.22544263E-09
  -14.1300001      -8.72386430E-09
  -14.1199999      -5.90931570E-09
  -14.1099997      -1.07744980E-09
  -14.1000004       4.89996443E-09
  -14.0900002       1.07064242E-08
  -14.0799999       1.48519019E-08
  -14.0699997       1.60329421E-08
  -14.0600004       1.34986378E-08
  -14.0500002       7.32553174E-09
  -14.0400000      -1.48479995E-09
  -14.0299997      -1.11359579E-08
  -14.0200005      -1.93906793E-08
  -14.0100002      -2.40839260E-08
  -14.0000000      -2.36797089E-08
  -13.9899998      -1.77303257E-08
  -13.9799995      -7.10611259E-09
  -13.9700003       6.09023143E-09
  -13.9600000       1.89359852E-08
  -13.9499998       2.83527619E-08
  -13.9399996       3.18730109E-08
  -13.9300003       2.83160713E-08
  -13.9200001       1.81861708E-08
  -13.9099998       3.66099417E-09
  -13.8999996      -1.18628707E-08
  -13.8900003      -2.45845602E-08
  -13.8800001      -3.12846637E-08
  -13.8699999      -3.02282182E-08
  -13.8599997      -2.17291447E-08
  -13.8500004      -8.18859203E-09
  -13.8400002       6.45321174E-09
  -13.8299999       1.77544717E-08
  -13.8199997       2.20538201E-08
  -13.8100004       1.76556423E-08
  -13.8000002       5.56535262E-09
  -13.7900000      -1.04938342E-08
  -13.7799997      -2.48805367E-08
  -13.7700005      -3.15296091E-08
  -13.7600002      -2.58053863E-08
  -13.7500000      -6.22843954E-09
  -13.7399998       2.44443008E-08
  -13.7299995       5.92015539E-08
  -13.7200003       8.80025866E-08
  -13.7100000       1.00106945E-07
  -13.6999998       8.70426078E-08
  -13.6899996       4.54964706E-08
  -13.6800003      -2.06822968E-08
  -13.6700001      -1.00064135E-07
  -13.6599998      -1.75188248E-07
  -13.6499996      -2.25996132E-07
  -13.6400003      -2.34553610E-07
  -13.6300001      -1.90033560E-07
  -13.6199999      -9.27074950E-08
  -13.6099997       4.42370158E-08
  -13.6000004       1.95847136E-07
  -13.5900002       3.29670343E-07
  -13.5799999       4.12505216E-07
  -13.5699997       4.18289943E-07
  -13.5600004       3.35311086E-07
  -13.5500002       1.70851479E-07
  -13.5400000      -4.81988494E-08
  -13.5299997      -2.79411950E-07
  -13.5200005      -4.73119457E-07
  -13.5100002      -5.83375368E-07
  -13.5000000      -5.79176572E-07
  -13.4899998      -4.53204706E-07
  -13.4799995      -2.25677439E-07
  -13.4700003       5.81338924E-08
  -13.4600000       3.36726231E-07
  -13.4499998       5.45946989E-07
  -13.4399996       6.34407627E-07
  -13.4300003       5.77056369E-07
  -13.4200001       3.83348038E-07
  -13.4099998       9.74692895E-08
  -13.3999996      -2.10162355E-07
  -13.3900003      -4.58780335E-07
  -13.3800001      -5.77201547E-07
  -13.3699999      -5.23145388E-07
  -13.3599997      -2.96991885E-07
  -13.3500004       5.40343628E-08
  -13.3400002       4.43241504E-07
  -13.3299999       7.62686625E-07
  -13.3199997       9.08733114E-07
  -13.3100004       8.09297035E-07
  -13.3000002       4.46178831E-07
  -13.2900000      -1.33527010E-07
  -13.2799997      -8.20831701E-07
  -13.2700005      -1.46369825E-06
  -13.2600002      -1.89829359E-06
  -13.2500000      -1.98635962E-06
  -13.2399998      -1.65042286E-06
  -13.2299995      -8.98398469E-07
  -13.2200003       1.69035985E-07
  -13.2100000       1.37138863E-06
  -13.1999998       2.48022229E-06
  -13.1899996       3.26408417E-06
  -13.1800003       3.53726409E-06
  -13.1700001       3.20173240E-06
  -13.1599998       2.27259466E-06
  -13.1499996       8.80658604E-07
  -13.1400003      -7.49381513E-07
  -13.1300001      -2.34117965E-06
  -13.1199999      -3.62068181E-06
  -13.1099997      -4.37016979E-06
  -13.1000004      -4.47051207E-06
  -13.0900002      -3.92223046E-06
  -13.0799999      -2.84074622E-06
  -13.0699997      -1.42715101E-06
  -13.0600004       7.83869538E-08
  -13.0500002       1.44931516E-06
  -13.0400000       2.51873939E-06
  -13.0299997       3.20771164E-06
  -13.0200005       3.52913185E-06
  -13.0100002       3.56687542E-06
  -13.0000000       3.43630563E-06
  -12.9899998       3.23743325E-06
  -12.9799995       3.01438808E-06
  -12.9700003       2.73367527E-06
  -12.9600000       2.28913450E-06
  -12.9499998       1.53451742E-06
  -12.9399996       3.36850036E-07
  -12.9300003      -1.36278572E-06
  -12.9200001      -3.49794391E-06
  -12.9099998      -5.85124462E-06
  -12.8999996      -8.06585558E-06
  -12.8900003      -9.69695429E-06
  -12.8800001      -1.02961822E-05
  -12.8699999      -9.51287166E-06
  -12.8599997      -7.18984529E-06
  -12.8500004      -3.43041847E-06
  -12.8400002       1.38240955E-06
  -12.8299999       6.62421598E-06
  -12.8199997       1.15221528E-05
  -12.8100004       1.52872763E-05
  -12.8000002       1.72607324E-05
  -12.7900000       1.70435269E-05
  -12.7799997       1.45813756E-05
  -12.7700005       1.01846008E-05
  -12.7600002       4.47646789E-06
  -12.7500000      -1.72108503E-06
  -12.7399998      -7.54116991E-06
  -12.7299995      -1.22325737E-05
  -12.7200003      -1.52924404E-05
  -12.7100000      -1.65418915E-05
  -12.6999998      -1.61281478E-05
  -12.6899996      -1.44535325E-05
  -12.6800003      -1.20490622E-05
  -12.6700001      -9.42388851E-06
  -12.6599998      -6.92835238E-06
  -12.6499996      -4.66601114E-06
  -12.6400003      -2.47889716E-06
  -12.6300001      -1.27706681E-08
  -12.6199999       3.15090824E-06
  -12.6099997       7.32723765E-06
  -12.6000004       1.25666675E-05
  -12.5900002       1.85441240E-05
  -12.5799999       2.45334413E-05
  -12.5699997       2.94842121E-05
  -12.5600004       3.21950465E-05
  -12.5500002       3.15539182E-05
  -12.5400000       2.67981577E-05
  -12.5299997       1.77380334E-05
  -12.5200005       4.89142167E-06
  -12.5100002      -1.05077670E-05
  -12.5000000      -2.66404440E-05
  -12.4899998      -4.13572161E-05
  -12.4799995      -5.25156902E-05
  -12.4700003      -5.83398178E-05
  -12.4600000      -5.77340834E-05
  -12.4499998      -5.04919299E-05
  -12.4399996      -3.73570547E-05
  -12.4300003      -1.99238984E-05
  -12.4200001      -3.94230909E-07
  -12.4099998       1.87656024E-05
  -12.3999996       3.52041316E-05
  -12.3900003       4.70323976E-05
  -12.3800001       5.30789766E-05
  -12.3699999       5.30114739E-05
  -12.3599997       4.73107102E-05
  -12.3500004       3.71127171E-05
  -12.3400002       2.39583314E-05
  -12.3299999       9.50572212E-06
  -12.3199997      -4.73542559E-06
  -12.3100004      -1.75982968E-05
  -12.3000002      -2.83509598E-05
  -12.2900000      -3.66794848E-05
  -12.2799997      -4.25801809E-05
  -12.2700005      -4.61984673E-05
  -12.2600002      -4.76617752E-05
  -12.2500000      -4.69532824E-05
  -12.2399998      -4.38613679E-05
  -12.2299995      -3.80204001E-05
  -12.2200003      -2.90354892E-05
  -12.2100000      -1.66624741E-05
  -12.1999998      -9.99450322E-07
  -12.1899996       1.73593380E-05
  -12.1800003       3.72511640E-05
  -12.1700001       5.69828007E-05
  -12.1599998       7.44857171E-05
  -12.1499996       8.75713158E-05
  -12.1400003       9.42473489E-05
  -12.1300001       9.30423193E-05
  -12.1199999       8.32797450E-05
  -12.1099997       6.52508097E-05
  -12.1000004       4.02502883E-05
  -12.0900002       1.04633800E-05
  -12.0799999      -2.12829927E-05
  -12.0699997      -5.18674969E-05
  -12.0600004      -7.82671850E-05
  -12.0500002      -9.79347751E-05
  -12.0400000      -1.09103465E-04
  -12.0299997      -1.10975256E-04
  -12.0200005      -1.03769373E-04
  -12.0100002      -8.86307098E-05
  -12.0000000      -6.74207622E-05
  -11.9899998      -4.24309437E-05
  -11.9799995      -1.60676009E-05
  -11.9700003       9.44120347E-06
  -11.9600000       3.22751730E-05
  -11.9499998       5.11599355E-05
  -11.9399996       6.54042160E-05
  -11.9300003       7.48443344E-05
  -11.9200001       7.97193425E-05
  -11.9099998       8.05095478E-05
  -11.8999996       7.77742680E-05
  -11.8900003       7.20207099E-05
  -11.8800001       6.36271434E-05
  -11.8699999       5.28303281E-05
  -11.8599997       3.97739495E-05
  -11.8500004       2.46018626E-05
  -11.8400002       7.57109638E-06
  -11.8299999      -1.08447102E-05
  -11.8199997      -2.98891682E-05
  -11.8100004      -4.85152777E-05
  -11.8000002      -6.54455798E-05
  -11.7900000      -7.92965438E-05
  -11.7799997      -8.87498536E-05
  -11.7700005      -9.27424553E-05
  -11.7600002      -9.06409987E-05
  -11.7500000      -8.23666778E-05
  -11.7399998      -6.84438128E-05
  -11.7299995      -4.99583584E-05
  -11.7200003      -2.84290927E-05
  -11.7100000      -5.61134084E-06
  -11.6999998       1.67330782E-05
  -11.6899996       3.70583766E-05
  -11.6800003       5.42092675E-05
  -11.6700001       6.75159026E-05
  -11.6599998       7.67941310E-05
  -11.6499996       8.22559086E-05
  -11.6400003       8.43537200E-05
  -11.6300001       8.35974570E-05
  -11.6199999       8.03880466E-05
  -11.6099997       7.49078608E-05
  -11.6000004       6.70944573E-05
  -11.5900002       5.67041934E-05
  -11.5799999       4.34500944E-05
  -11.5699997       2.71796380E-05
  -11.5600004       8.04694901E-06
  -11.5500002      -1.33662916E-05
  -11.5400000      -3.60165359E-05
  -11.5299997      -5.84661793E-05
  -11.5200005      -7.90452686E-05
  -11.5100002      -9.60763937E-05
  -11.5000000      -1.08116197E-04
  -11.4899998      -1.14161972E-04
  -11.4799995      -1.13779039E-04
  -11.4700003      -1.07123007E-04
  -11.4600000      -9.48556626E-05
  -11.4499998      -7.79783441E-05
  -11.4399996      -5.76271523E-05
  -11.4300003      -3.48827198E-05
  -11.4200001      -1.06433763E-05
  -11.4099998       1.44066789E-05
  -11.3999996       3.97282711E-05
  -11.3900003       6.47799679E-05
  -11.3800001       8.88391078E-05
  -11.3699999       1.10850662E-04
  -11.3599997       1.29361564E-04
  -11.3500004       1.42580902E-04
  -11.3400002       1.48577339E-04
  -11.3299999       1.45590326E-04
  -11.3199997       1.32399728E-04
  -11.3100004       1.08676802E-04
  -11.3000002       7.52346386E-05
  -11.2900000       3.41091618E-05
  -11.2799997      -1.15674484E-05
  -11.2700005      -5.78989639E-05
  -11.2600002      -1.00716752E-04
  -11.2500000      -1.36149887E-04
  -11.2399998      -1.61171352E-04
  -11.2299995      -1.74018191E-04
  -11.2200003      -1.74404384E-04
  -11.2100000      -1.63483506E-04
  -11.1999998      -1.43567260E-04
  -11.1899996      -1.17653741E-04
  -11.1800003      -8.88585200E-05
  -11.1700001      -5.98617371E-05
  -11.1599998      -3.24821121E-05
  -11.1499996      -7.46395926E-06
  -11.1400003       1.54805584E-05
  -11.1300001       3.73844086E-05
  -11.1199999       5.95567763E-05
  -11.1099997       8.30356512E-05
  -11.1000004       1.08085442E-04
  -11.0900002       1.33858252E-04
  -11.0799999       1.58307186E-04
  -11.0699997       1.78390226E-04
  -11.0600004       1.90542734E-04
  -11.0500002       1.91338346E-04
  -11.0400000       1.78213260E-04
  -11.0299997       1.50108142E-04
  -11.0200005       1.07890039E-04
  -11.0100002       5.44540453E-05
  -11.0000000      -5.53698510E-06
  -10.9899998      -6.62457242E-05
  -10.9799995      -1.21491197E-04
  -10.9700003      -1.65671576E-04
  -10.9600000      -1.94611392E-04
  -10.9499998      -2.06176250E-04
  -10.9399996      -2.00541108E-04
  -10.9300003      -1.80063493E-04
  -10.9200001      -1.48789506E-04
  -10.9099998      -1.11690839E-04
  -10.8999996      -7.37820592E-05
  -10.8900003      -3.92881957E-05
  -10.8800001      -1.10183737E-05
  -10.8699999       9.94361289E-06
  -10.8599997       2.41873295E-05
  -10.8500004       3.35923723E-05
  -10.8400002       4.07094012E-05
  -10.8299999       4.80458875E-05
  -10.8199997       5.74111182E-05
  -10.8100004       6.94569171E-05
  -10.8000002       8.35045939E-05
  -10.7900000       9.76859010E-05
  -10.7799997       1.09359047E-04
  -10.7700005       1.15704774E-04
  -10.7600002       1.14372982E-04
  -10.7500000       1.04043553E-04
  -10.7399998       8.47864430E-05
  -10.7299995       5.81498243E-05
  -10.7200003       2.69613047E-05
  -10.7100000      -5.11595545E-06
  -10.6999998      -3.41841805E-05
  -10.6899996      -5.67540264E-05
  -10.6800003      -7.03111218E-05
  -10.6700001      -7.37063747E-05
  -10.6599998      -6.73065661E-05
  -10.6499996      -5.28876299E-05
  -10.6400003      -3.32994423E-05
  -10.6300001      -1.19694196E-05
  -10.6199999       7.66322592E-06
  -10.6099997       2.26834745E-05
  -10.6000004       3.11177682E-05
  -10.5900002       3.21681109E-05
  -10.5799999       2.62330996E-05
  -10.5699997       1.47239716E-05
  -10.5600004      -2.80439565E-07
  -10.5500002      -1.64687135E-05
  -10.5400000      -3.17359845E-05
  -10.5299997      -4.45421647E-05
  -10.5200005      -5.41206718E-05
  -10.5100002      -6.04990346E-05
  -10.5000000      -6.43309395E-05
  -10.4899998      -6.65795815E-05
  -10.4799995      -6.81255406E-05
  -10.4700003      -6.93925758E-05
  -10.4600000      -7.00851524E-05
  -10.4499998      -6.91115492E-05
  -10.4399996      -6.47281049E-05
  -10.4300003      -5.48908283E-05
  -10.4200001      -3.77512843E-05
  -10.4099998      -1.21946941E-05
  -10.3999996       2.16995704E-05
  -10.3900003       6.23868182E-05
  -10.3800001       1.06852807E-04
  -10.3699999       1.50900727E-04
  -10.3599997       1.89692495E-04
  -10.3500004       2.18452406E-04
  -10.3400002       2.33204599E-04
  -10.3299999       2.31406870E-04
  -10.3199997       2.12362938E-04
  -10.3100004       1.77340451E-04
  -10.3000002       1.29380292E-04
  -10.2900000       7.28422019E-05
  -10.2799997       1.27779504E-05
  -10.2700005      -4.57512288E-05
  -10.2600002      -9.82975325E-05
  -10.2500000      -1.41497731E-04
  -10.2399998      -1.73339198E-04
  -10.2299995      -1.93210333E-04
  -10.2200003      -2.01762989E-04
  -10.2100000      -2.00638387E-04
  -10.1999998      -1.92117848E-04
  -10.1899996      -1.78754039E-04
  -10.1800003      -1.63025485E-04
  -10.1700001      -1.47041545E-04
  -10.1599998      -1.32312925E-04
  -10.1499996      -1.19596865E-04
  -10.1400003      -1.08825850E-04
  -10.1300001      -9.91307024E-05
  -10.1199999      -8.89679723E-05
  -10.1099997      -7.63550634E-05
  -10.1000004      -5.92016549E-05
  -10.0900002      -3.57056961E-05
  -10.0799999      -4.76089599E-06
  -10.0699997       3.36928897E-05
  -10.0600004       7.84483636E-05
  -10.0500002       1.26998071E-04
  -10.0400000       1.75721623E-04
  -10.0299997       2.20284666E-04
  -10.0200005       2.56199390E-04
  -10.0100002       2.79459782E-04
  -10.0000000       2.87145725E-04
  -9.98999977       2.77889398E-04
  -9.97999954       2.52120866E-04
  -9.97000027       2.12048806E-04
  -9.96000004       1.61379867E-04
  -9.94999981       1.04827406E-04
  -9.93999958       4.74933477E-05
  -9.93000031      -5.77586979E-06
  -9.92000008      -5.09630445E-05
  -9.90999985      -8.53083329E-05
  -9.89999962      -1.07548003E-04
  -9.89000034      -1.17953794E-04
  -9.88000011      -1.18191230E-04
  -9.86999989      -1.11033580E-04
  -9.85999966      -9.99756230E-05
  -9.85000038      -8.87911810E-05
  -9.84000015      -8.10741330E-05
  -9.82999992      -7.97991888E-05
  -9.81999969      -8.69389260E-05
  -9.81000042      -1.03175895E-04
  -9.80000019      -1.27750172E-04
  -9.78999996      -1.58478651E-04
  -9.77999973      -1.91968080E-04
  -9.77000046      -2.24018906E-04
  -9.76000023      -2.50183453E-04
  -9.75000000      -2.66407384E-04
  -9.73999977      -2.69657117E-04
  -9.72999954      -2.58425134E-04
  -9.72000027      -2.33018349E-04
  -9.71000004      -1.95567249E-04
  -9.69999981      -1.49745552E-04
  -9.68999958      -1.00243415E-04
  -9.68000031      -5.20859103E-05
  -9.67000008      -9.91598790E-06
  -9.65999985       2.26354878E-05
  -9.64999962       4.33932000E-05
  -9.64000034       5.18361121E-05
  -9.63000011       4.90431958E-05
  -9.61999989       3.74231204E-05
  -9.60999966       2.02964184E-05
  -9.60000038       1.41095825E-06
  -9.59000015      -1.55342041E-05
  -9.57999992      -2.73005135E-05
  -9.56999969      -3.14246354E-05
  -9.56000042      -2.64248793E-05
  -9.55000019      -1.19014112E-05
  -9.53999996       1.14621807E-05
  -9.52999973       4.19887183E-05
  -9.52000046       7.71824270E-05
  -9.51000023       1.13980968E-04
  -9.50000000       1.49069194E-04
  -9.48999977       1.79227820E-04
  -9.47999954       2.01678980E-04
  -9.47000027       2.14383879E-04
  -9.46000004       2.16249580E-04
  -9.44999981       2.07214223E-04
  -9.43999958       1.88199672E-04
  -9.43000031       1.60944342E-04
  -9.42000008       1.27749794E-04
  -9.40999985       9.11870302E-05
  -9.39999962       5.38114691E-05
  -9.39000034       1.79263880E-05
  -9.38000011      -1.45803760E-05
  -9.36999989      -4.23201673E-05
  -9.35999966      -6.44170577E-05
  -9.35000038      -8.04709125E-05
  -9.34000015      -9.04930057E-05
  -9.32999992      -9.48344750E-05
  -9.31999969      -9.41212493E-05
  -9.31000042      -8.92009484E-05
  -9.30000019      -8.10996207E-05
  -9.28999996      -7.09802844E-05
  -9.27999973      -6.00916865E-05
  -9.27000046      -4.96955727E-05
  -9.26000023      -4.09637869E-05
  -9.25000000      -3.48442045E-05
  -9.23999977      -3.19058745E-05
  -9.22999954      -3.21872794E-05
  -9.22000027      -3.50844093E-05
  -9.21000004      -3.93217524E-05
  -9.19999981      -4.30450600E-05
  -9.18999958      -4.40566291E-05
  -9.18000031      -4.01831603E-05
  -9.17000008      -2.97286497E-05
  -9.15999985      -1.19296546E-05
  -9.14999962       1.26903597E-05
  -9.14000034       4.21676014E-05
  -9.13000011       7.32145490E-05
  -9.11999989       1.01620848E-04
  -9.10999966       1.22886326E-04
  -9.10000038       1.32973422E-04
  -9.09000015       1.29028922E-04
  -9.07999992       1.09923429E-04
  -9.06999969       7.64947690E-05
  -9.06000042       3.14484714E-05
  -9.05000019      -2.10516646E-05
  -9.03999996      -7.60015173E-05
  -9.02999973      -1.28242100E-04
  -9.02000046      -1.73073233E-04
  -9.01000023      -2.06695564E-04
  -9.00000000      -2.26444274E-04
  -8.98999977      -2.30843245E-04
  -8.97999954      -2.19553098E-04
  -8.97000027      -1.93296699E-04
  -8.96000004      -1.53819012E-04
  -8.94999981      -1.03886254E-04
  -8.93999958      -4.72736283E-05
  -8.93000031       1.13449350E-05
  -8.92000008       6.66905544E-05
  -8.90999985       1.13399146E-04
  -8.89999962       1.46735969E-04
  -8.89000034       1.63392353E-04
  -8.88000011       1.62191413E-04
  -8.86999989       1.44512538E-04
  -8.85999966       1.14283299E-04
  -8.85000038       7.74757864E-05
  -8.84000015       4.11596775E-05
  -8.82999992       1.22766778E-05
  -8.81999969      -3.62299534E-06
  -8.81000042      -3.42185717E-06
  -8.80000019       1.29625005E-05
  -8.78999996       4.25359212E-05
  -8.77999973       7.97488319E-05
  -8.77000046       1.17466589E-04
  -8.76000023       1.48193416E-04
  -8.75000000       1.65320438E-04
  -8.73999977       1.64184821E-04
  -8.72999954       1.42783174E-04
  -8.72000027       1.02056460E-04
  -8.71000004       4.57396127E-05
  -8.69999981      -2.01714283E-05
  -8.68999958      -8.82432651E-05
  -8.68000031      -1.50606182E-04
  -8.67000008      -2.00011695E-04
  -8.65999985      -2.30822479E-04
  -8.64999962      -2.39812405E-04
  -8.64000034      -2.26663265E-04
  -8.63000011      -1.94068125E-04
  -8.61999989      -1.47394094E-04
  -8.60999966      -9.39205929E-05
  -8.60000038      -4.17454357E-05
  -8.59000015       1.47762296E-06
  -8.57999992       2.97564802E-05
  -8.56999969       3.97114054E-05
  -8.56000042       3.10757569E-05
  -8.55000019       6.64685695E-06
  -8.53999996      -2.83034260E-05
  -8.52999973      -6.70386653E-05
  -8.52000046      -1.02585152E-04
  -8.51000023      -1.28935833E-04
  -8.50000000      -1.42007455E-04
  -8.48999977      -1.40191871E-04
  -8.47999954      -1.24434766E-04
  -8.47000027      -9.78723183E-05
  -8.46000004      -6.51340306E-05
  -8.44999981      -3.14651261E-05
  -8.43999958      -1.83080851E-06
  -8.43000031       1.98570560E-05
  -8.42000008       3.12889460E-05
  -8.40999985       3.20243053E-05
  -8.39999962       2.34586132E-05
  -8.39000034       8.50810738E-06
  -8.38000011      -8.94013556E-06
  -8.36999989      -2.47357402E-05
  -8.35999966      -3.52256757E-05
  -8.35000038      -3.79428202E-05
  -8.34000015      -3.20927684E-05
  -8.32999992      -1.87304922E-05
  -8.31999969      -5.69011092E-07
  -8.31000042       1.85627941E-05
  -8.30000019       3.45124245E-05
  -8.28999996       4.36763985E-05
  -8.27999973       4.37525123E-05
  -8.27000046       3.41917548E-05
  -8.26000023       1.62426913E-05
  -8.25000000      -7.41193071E-06
  -8.23999977      -3.33159041E-05
  -8.22999954      -5.80071537E-05
  -8.22000027      -7.86793753E-05
  -8.21000004      -9.35686185E-05
  -8.19999981      -1.01993159E-04
  -8.18999958      -1.04093779E-04
  -8.18000031      -1.00421217E-04
  -8.17000008      -9.15632772E-05
  -8.15999985      -7.79771071E-05
  -8.14999962      -6.01011889E-05
  -8.14000034      -3.86978463E-05
  -8.13000011      -1.52650100E-05
  -8.11999989       7.70039514E-06
  -8.10999966       2.67809264E-05
  -8.10000038       3.81491809E-05
  -8.09000015       3.84484083E-05
  -8.07999992       2.58311138E-05
  -8.06999969       8.47710680E-07
  -8.06000042      -3.31260235E-05
  -8.05000019      -7.01352983E-05
  -8.03999996      -1.02603219E-04
  -8.02999973      -1.22831858E-04
  -8.02000046      -1.24712344E-04
  -8.01000023      -1.05227431E-04
  -8.00000000      -6.53617462E-05
  -7.98999977      -1.01738133E-05
  -7.98000002       5.20109643E-05
  -7.96999979       1.11112531E-04
  -7.96000004       1.57175571E-04
  -7.94999981       1.82204953E-04
  -7.94000006       1.81578420E-04
  -7.92999983       1.54777081E-04
  -7.92000008       1.05341045E-04
  -7.90999985       4.01242869E-05
  -7.90000010      -3.19509600E-05
  -7.88999987      -1.01376863E-04
  -7.88000011      -1.59516640E-04
  -7.86999989      -1.99818998E-04
  -7.86000013      -2.18644025E-04
  -7.84999990      -2.15624168E-04
  -7.84000015      -1.93544663E-04
  -7.82999992      -1.57777147E-04
  -7.82000017      -1.15345545E-04
  -7.80999994      -7.37495284E-05
  -7.80000019      -3.97167678E-05
  -7.78999996      -1.80882726E-05
  -7.78000021      -1.10455367E-05
  -7.76999998      -1.78473165E-05
  -7.76000023      -3.51534436E-05
  -7.75000000      -5.78876607E-05
  -7.73999977      -8.04586962E-05
  -7.73000002      -9.80579862E-05
  -7.71999979      -1.07717897E-04
  -7.71000004      -1.08864348E-04
  -7.69999981      -1.03224804E-04
  -7.69000006      -9.41250619E-05
  -7.67999983      -8.53765159E-05
  -7.67000008      -8.00699781E-05
  -7.65999985      -7.96167005E-05
  -7.65000010      -8.33052909E-05
  -7.63999987      -8.84945621E-05
  -7.63000011      -9.13827316E-05
  -7.61999989      -8.81358210E-05
  -7.61000013      -7.60666371E-05
  -7.59999990      -5.45530747E-05
  -7.59000015      -2.54649694E-05
  -7.57999992       6.99797147E-06
  -7.57000017       3.70090202E-05
  -7.55999994       5.81921158E-05
  -7.55000019       6.48440910E-05
  -7.53999996       5.30653597E-05
  -7.53000021       2.16033022E-05
  -7.51999998      -2.77218533E-05
  -7.51000023      -9.00691011E-05
  -7.50000000      -1.58104100E-04
  -7.48999977      -2.22944858E-04
  -7.48000002      -2.75417755E-04
  -7.46999979      -3.07464914E-04
  -7.46000004      -3.13496363E-04
  -7.44999981      -2.91451608E-04
  -7.44000006      -2.43342467E-04