  -16.0000000       0.00000000    
  -15.9899998       0.00000000    
  -15.9799995       0.00000000    
  -15.9700003       0.00000000    
  -15.9600000       0.00000000    
  -15.9499998       0.00000000    
  -15.9399996       0.00000000    
  -15.9300003       0.00000000    
  -15.9200001       0.00000000    
  -15.9099998       0.00000000    
  -15.8999996       1.92752808E-40
  -15.8900003       1.40670187E-39
  -15.8800001      -1.17261034E-38
  -15.8699999      -2.65528010E-37
  -15.8599997      -2.37435868E-36
  -15.8500004      -1.42260545E-35
  -15.8400002      -6.49092254E-35
  -15.8299999      -2.36527991E-34
  -15.8199997      -6.89100686E-34
  -15.8100004      -1.49098041E-33
  -15.8000002      -1.49607912E-33
  -15.7900000       5.99833168E-33
  -15.7799997       4.60628717E-32
  -15.7700005       1.92414072E-31
  -15.7600002       6.23725954E-31
  -15.7500000       1.69686202E-30
  -15.7399998       3.97206500E-30
  -15.7299995       8.01741465E-30
  -15.7200003       1.36942511E-29
  -15.7100000       1.86215909E-29
  -15.6999998       1.59046124E-29
  -15.6899996      -7.72853493E-30
  -15.6800003      -7.05666871E-29
  -15.6700001      -1.87168107E-28
  -15.6599998      -3.49139273E-28
  -15.6499996      -4.98438999E-28
  -15.6400003      -5.07996330E-28
  -15.6300001      -1.97157894E-28
  -15.6199999       5.89256370E-28
  -15.6099997       1.83592642E-27
  -15.6000004       3.20428809E-27
  -15.5900002       4.00197804E-27
  -15.5799999       3.42242759E-27
  -15.5699997       1.08252651E-27
  -15.5600004      -2.40431303E-27
  -15.5500002      -5.42011267E-27
  -15.5400000      -6.55012241E-27
  -15.5299997      -6.99170656E-27
  -15.5200005      -1.26196228E-26
  -15.5100002      -3.24280226E-26
  -15.5000000      -6.98828333E-26
  -15.4899998      -1.07354182E-25
  -15.4799995      -9.22063644E-26
  -15.4700003       5.67628685E-26
  -15.4600000       4.00783322E-25
  -15.4499998       8.84935486E-25
  -15.4399996       1.23150545E-24
  -15.4300003       9.18239912E-25
  -15.4200001      -6.28962645E-25
  -15.4099998      -3.55137961E-24
  -15.3999996      -6.89164585E-24
  -15.3900003      -8.15980208E-24
  -15.3800001      -3.80548986E-24
  -15.3699999       8.79624007E-24
  -15.3599997       2.79328862E-23
  -15.3500004       4.41826320E-23
  -15.3400002       4.01194462E-23
  -15.3299999      -3.28287700E-24
  -15.3199997      -9.18660268E-23
  -15.3100004      -1.98858632E-22
  -15.3000002      -2.52411710E-22
  -15.2900000      -1.47928017E-22
  -15.2799997       1.99208937E-22
  -15.2700005       7.62132682E-22
  -15.2600002       1.30691609E-21
  -15.2500000       1.36555544E-21
  -15.2399998       3.67797852E-22
  -15.2299995      -2.01350261E-21
  -15.2200003      -5.36032101E-21
  -15.2100000      -8.08086150E-21
  -15.1999998      -7.44696650E-21
  -15.1899996      -5.11846024E-22
  -15.1800003       1.39379368E-20
  -15.1700001       3.28464503E-20
  -15.1599998       4.70375286E-20
  -15.1499996       4.19630340E-20
  -15.1400003       2.84073149E-21
  -15.1300001      -7.54778786E-20
  -15.1199999      -1.76465736E-19
  -15.1099997      -2.53850615E-19
  -15.1000004      -2.36144297E-19
  -15.0900002      -5.12689646E-20
  -15.0799999       3.28057815E-19
  -15.0699997       8.30135508E-19
  -15.0600004       1.24812011E-18
  -15.0500002       1.25830405E-18
  -15.0400000       5.23714412E-19
  -15.0299997      -1.11448474E-18
  -15.0200005      -3.40598607E-18
  -15.0100002      -5.52767249E-18
  -15.0000000      -6.13206359E-18
  -14.9899998      -3.73286055E-18
  -14.9799995       2.55295007E-18
  -14.9700003       1.20761562E-17
  -14.9600000       2.19308857E-17
  -14.9499998       2.69770713E-17
  -14.9399996       2.11024792E-17
  -14.9300003      -1.35957021E-19
  -14.9200001      -3.60084492E-17
  -14.9099998      -7.75600012E-17
  -14.8999996      -1.06919056E-16
  -14.8900003      -1.00831973E-16
  -14.8800001      -3.92362503E-17
  -14.8699999       8.24293488E-17
  -14.8599997       2.41191123E-16
  -14.8500004       3.81063738E-16
  -14.8400002       4.20818488E-16
  -14.8299999       2.78965245E-16
  -14.8199997      -8.63396168E-17
  -14.8100004      -6.33414203E-16
  -14.8000002      -1.20829133E-15
  -14.7900000      -1.55351624E-15
  -14.7799997      -1.37129711E-15
  -14.7700005      -4.41079199E-16
  -14.7600002       1.23406242E-15
  -14.7500000       3.30496840E-15
  -14.7399998       5.04734524E-15
  -14.7299995       5.48873835E-15
  -14.7200003       3.71516189E-15
  -14.7100000      -6.88339736E-16
  -14.6999998      -7.19199328E-15
  -14.6899996      -1.40655216E-14
  -14.6800003      -1.85192268E-14
  -14.6700001      -1.73755562E-14
  -14.6599998      -8.23862192E-15
  -14.6499996       9.10020689E-15
  -14.6400003       3.15054548E-14
  -14.6300001       5.21926828E-14
  -14.6199999       6.17968404E-14
  -14.6099997       5.09995387E-14
  -14.6000004       1.43423058E-14
  -14.5900002      -4.57939181E-14
  -14.5799999      -1.16571046E-13
  -14.5699997      -1.75073538E-13
  -14.5600004      -1.92821846E-13
  -14.5500002      -1.44405470E-13
  -14.5400000      -1.86106098E-14
  -14.5299997       1.71202584E-13
  -14.5200005       3.81731322E-13
  -14.5100002       5.43416982E-13
  -14.5000000       5.75417210E-13
  -14.4899998       4.10763979E-13
  -14.4799995       2.64428270E-14
  -14.4700003      -5.30647574E-13
  -14.4600000      -1.13276760E-12
  -14.4499998      -1.58499461E-12
  -14.4399996      -1.66779101E-12
  -14.4300003      -1.20422335E-12
  -14.4200001      -1.37503995E-13
  -14.4099998       1.40407998E-12
  -14.3999996       3.08149361E-12
  -14.3900003       4.38115690E-12
  -14.3800001       4.72271180E-12
  -14.3699999       3.62760668E-12
  -14.3599997       9.14124896E-13
  -14.3500004      -3.13576552E-12
  -14.3400002      -7.70156248E-12
  -14.3299999      -1.14970576E-11
  -14.3199997      -1.30179704E-11
  -14.3100004      -1.09451883E-11
  -14.3000002      -4.62895607E-12
  -14.2900000       5.47079309E-12
  -14.2799997       1.75407276E-11
  -14.2700005       2.85095472E-11
  -14.2600002       3.45676647E-11
  -14.2500000       3.20936923E-11
  -14.2399998       1.88392513E-11
  -14.2299995      -4.90550222E-12
  -14.2200003      -3.55302940E-11
  -14.2100000      -6.60761237E-11
  -14.1999998      -8.72217298E-11
  -14.1899996      -8.93239024E-11
  -14.1800003      -6.52411597E-11
  -14.1700001      -1.33398622E-11
  -14.1599998       6.01728667E-11
  -14.1499996       1.40522802E-10
  -14.1400003       2.05997788E-10
  -14.1300001       2.32206171E-10
  -14.1199999       1.98524419E-10
  -14.1099997       9.54833018E-11
  -14.1000004      -6.88437085E-11
  -14.0900002      -2.65695632E-10
  -14.0799999      -4.47685750E-10
  -14.0699997      -5.57061064E-10
  -14.0600004      -5.39576439E-10
  -14.0500002      -3.61526059E-10
  -14.0400000      -2.57886334E-11
  -14.0299997       4.18183405E-10
  -14.0200005       8.75158113E-10
  -14.0100002       1.21856025E-09
  -14.0000000       1.31815336E-09
  -13.9899998       1.07652454E-09
  -13.9799995       4.66115646E-10
  -13.9700003      -4.43849651E-10
  -13.9600000      -1.48103962E-09
  -13.9499998      -2.39151277E-09
  -13.9399996      -2.89001600E-09
  -13.9300003      -2.73196887E-09
  -13.9200001      -1.79201076E-09
  -13.9099998      -1.28437178E-10
  -13.8999996       1.98805306E-09
  -13.8900003       4.09779677E-09
  -13.8800001       5.63333469E-09
  -13.8699999       6.04887918E-09
  -13.8599997       4.97307662E-09
  -13.8500004       2.34813635E-09
  -13.8400002      -1.48567258E-09
  -13.8299999      -5.79471182E-09
  -13.8199997      -9.56306057E-09
  -13.8100004      -1.17017382E-08
  -13.8000002      -1.13195693E-08
  -13.7900000      -7.99559086E-09
  -13.7799997      -1.98103356E-09
  -13.7700005       5.73570214E-09
  -13.7600002       1.35435041E-08
  -13.7500000       1.95051424E-08
  -13.7399998       2.17913634E-08
  -13.7299995       1.91641547E-08
  -13.7200003       1.13930483E-08
  -13.7100000      -5.13741438E-10
  -13.6999998      -1.43531800E-08
  -13.6899996      -2.70799276E-08
  -13.6800003      -3.54274263E-08
  -13.6700001      -3.66825113E-08
  -13.6599998      -2.94416900E-08
  -13.6499996      -1.41557113E-08
  -13.6400003       6.70617517E-09
  -13.6300001       2.89694917E-08
  -13.6199999       4.75358526E-08
  -13.6099997       5.75031400E-08
  -13.6000004       5.53913679E-08
  -13.5900002       4.01816962E-08
  -13.5799999       1.38826568E-08
  -13.5699997      -1.85815274E-08
  -13.5600004      -5.02217041E-08
  -13.5500002      -7.34550767E-08
  -13.5400000      -8.19049149E-08
  -13.5299997      -7.21143181E-08
  -13.5200005      -4.47281003E-08
  -13.5100002      -4.77600270E-09
  -13.5000000       3.91245827E-08
  -13.4899998       7.65716308E-08
  -13.4799995       9.78417987E-08
  -13.4700003       9.64528510E-08
  -13.4600000       7.11677828E-08
  -13.4499998       2.68480509E-08
  -13.4399996      -2.62068696E-08
  -13.4300003      -7.44400310E-08
  -13.4200001      -1.04340280E-07
  -13.4099998      -1.06120460E-07
  -13.3999996      -7.68268578E-08
  -13.3900003      -2.19678480E-08
  -13.3800001       4.49701041E-08
  -13.3699999       1.05264540E-07
  -13.3599997       1.39513034E-07
  -13.3500004       1.33011426E-07
  -13.3400002       8.06076415E-08
  -13.3299999      -1.03576747E-08
  -13.3199997      -1.20090434E-07
  -13.3100004      -2.19781938E-07
  -13.3000002      -2.78023492E-07
  -13.2900000      -2.68930137E-07
  -13.2799997      -1.80083845E-07
  -13.2700005      -1.81933562E-08
  -13.2600002       1.89332297E-07
  -13.2500000       3.97899754E-07
  -13.2399998       5.54182350E-07
  -13.2299995       6.08089351E-07
  -13.2200003       5.25770133E-07
  -13.2100000       3.00588027E-07
  -13.1999998      -4.09017460E-08
  -13.1899996      -4.40097608E-07
  -13.1800003      -8.15299700E-07
  -13.1700001      -1.07735775E-06
  -13.1599998      -1.14919226E-06
  -13.1499996      -9.85113729E-07
  -13.1400003      -5.85433497E-07
  -13.1300001      -2.43589460E-09
  -13.1199999       6.64669017E-07
  -13.1099997       1.28592285E-06
  -13.1000004       1.72550654E-06
  -13.0900002       1.87067656E-06
  -13.0799999       1.65868221E-06
  -13.0699997       1.09544214E-06
  -13.0600004       2.60991982E-07
  -13.0500002      -7.00775615E-07
  -13.0400000      -1.60724937E-06
  -13.0299997      -2.27285182E-06
  -13.0200005      -2.54835527E-06
  -13.0100002      -2.35528546E-06
  -13.0000000      -1.70732517E-06
  -12.9899998      -7.12926521E-07
  -12.9799995       4.42834391E-07
  -12.9700003       1.53450128E-06
  -12.9600000       2.34353615E-06
  -12.9499998       2.70653004E-06
  -12.9399996       2.55323107E-06
  -12.9300003       1.92489824E-06
  -12.9200001       9.67508527E-07
  -12.9099998      -1.00023080E-07
  -12.8999996      -1.03639150E-06
  -12.8900003      -1.63599714E-06
  -12.8800001      -1.78072196E-06
  -12.8699999      -1.47209335E-06
  -12.8599997      -8.34463890E-07
  -12.8500004      -8.64166836E-08
  -12.8400002       5.14574424E-07
  -12.8299999       7.41990789E-07
  -12.8199997       4.67651006E-07
  -12.8100004      -2.91196102E-07
  -12.8000002      -1.35931100E-06
  -12.7900000      -2.43217869E-06
  -12.7799997      -3.14285580E-06
  -12.7700005      -3.15379521E-06
  -12.7600002      -2.25287681E-06
  -12.7500000      -4.29710326E-07
  -12.7399998       2.08919300E-06
  -12.7299995       4.85974761E-06
  -12.7200003       7.29541671E-06
  -12.7100000       8.78595256E-06
  -12.6999998       8.83586745E-06
  -12.6899996       7.19181298E-06
  -12.6800003       3.92793709E-06
  -12.6700001      -5.34439664E-07
  -12.6599998      -5.48298794E-06
  -12.6499996      -1.00396210E-05
  -12.6400003      -1.33315280E-05
  -12.6300001      -1.46725006E-05
  -12.6199999      -1.37143970E-05
  -12.6099997      -1.05331383E-05
  -12.6000004      -5.62678224E-06
  -12.5900002       1.77588433E-07
  -12.5799999       5.89039610E-06
  -12.5699997       1.05639219E-05
  -12.5600004       1.34886304E-05
  -12.5500002       1.43358429E-05
  -12.5400000       1.32123641E-05
  -12.5299997       1.06126809E-05
  -12.5200005       7.27876704E-06
  -12.5100002       4.00051022E-06
  -12.5000000       1.40561292E-06
  -12.4899998      -2.07746012E-07
  -12.4799995      -9.50908827E-07
  -12.4700003      -1.31311788E-06
  -12.4600000      -2.02144452E-06
  -12.4499998      -3.82351027E-06
  -12.4399996      -7.24595884E-06
  -12.4300003      -1.23911504E-05
  -12.4200001      -1.88288504E-05
  -12.4099998      -2.56193434E-05
  -12.3999996      -3.14736681E-05
  -12.3900003      -3.50226474E-05
  -12.3800001      -3.51373128E-05
  -12.3699999      -3.12266311E-05
  -12.3599997      -2.34388426E-05
  -12.3500004      -1.27110716E-05
  -12.3400002      -6.44415081E-07
  -12.3299999       1.07785681E-05
  -12.3199997       1.95793982E-05
  -12.3100004       2.41912112E-05
  -12.3000002       2.37985187E-05
  -12.2900000       1.85312638E-05
  -12.2799997       9.46526870E-06
  -12.2700005      -1.57668921E-06
  -12.2600002      -1.23845330E-05
  -12.2500000      -2.08059246E-05
  -12.2399998      -2.51809488E-05
  -12.2299995      -2.46718319E-05
  -12.2200003      -1.94155600E-05
  -12.2100000      -1.04665605E-05
  -12.1999998       4.56312250E-07
  -12.1899996       1.13598126E-05
  -12.1800003       2.04134358E-05
  -12.1700001       2.63328584E-05
  -12.1599998       2.86213854E-05
  -12.1499996       2.76144692E-05
  -12.1400003       2.43191353E-05
  -12.1300001       2.00897848E-05
  -12.1199999       1.62225115E-05
  -12.1099997       1.35720220E-05
  -12.1000004       1.22924466E-05
  -12.0900002       1.17754316E-05
  -12.0799999       1.08117683E-05
  -12.0699997       7.94652078E-06
  -12.0600004       1.94577592E-06
  -12.0500002      -7.74171076E-06
  -12.0400000      -2.06527402E-05
  -12.0299997      -3.52101415E-05
  -12.0200005      -4.89083504E-05
  -12.0100002      -5.87702816E-05
  -12.0000000      -6.19930215E-05
  -11.9899998      -5.66452472E-05
  -11.9799995      -4.22535923E-05
  -11.9700003      -2.01259027E-05
  -11.9600000       6.69208657E-06
  -11.9499998       3.38538048E-05
  -11.9399996       5.64805669E-05
  -11.9300003       7.01186364E-05
  -11.9200001       7.16873255E-05
  -11.9099998       6.02085674E-05
  -11.8999996       3.71434217E-05
  -11.8900003       6.23784308E-06
  -11.8800001      -2.71164245E-05
  -11.8699999      -5.68924188E-05
  -11.8599997      -7.76093075E-05
  -11.8500004      -8.54378231E-05
  -11.8400002      -7.89907790E-05
  -11.8299999      -5.96208192E-05
  -11.8199997      -3.11511976E-05
  -11.8100004       9.12011330E-07
  -11.8000002       3.05224676E-05
  -11.7900000       5.23462477E-05
  -11.7799997       6.28524795E-05
  -11.7700005       6.10032330E-05
  -11.7600002       4.83918266E-05
  -11.7500000       2.88018946E-05
  -11.7399998       7.28994655E-06
  -11.7299995      -1.09977209E-05
  -11.7200003      -2.20026450E-05
  -11.7100000      -2.36571232E-05
  -11.6999998      -1.63074019E-05
  -11.6899996      -2.56396538E-06
  -11.6800003       1.33804861E-05
  -11.6700001       2.68005479E-05
  -11.6599998       3.36047669E-05
  -11.6499996       3.13427590E-05
  -11.6400003       1.98151247E-05
  -11.6300001       1.14365423E-06
  -11.6199999      -2.07121211E-05
  -11.6099997      -4.08749038E-05
  -11.6000004      -5.46867523E-05
  -11.5900002      -5.87948562E-05
  -11.5799999      -5.19328496E-05
  -11.5699997      -3.52197749E-05
  -11.5600004      -1.19150291E-05
  -11.5500002       1.33039321E-05
  -11.5400000       3.53652576E-05
  -11.5299997       4.98874506E-05
  -11.5200005       5.40798173E-05
  -11.5100002       4.72663414E-05
  -11.5000000       3.09367351E-05
  -11.4899998       8.34207549E-06
  -11.4799995      -1.62450269E-05
  -11.4700003      -3.84187842E-05
  -11.4600000      -5.44729592E-05
  -11.4499998      -6.20067804E-05
  -11.4399996      -6.02039072E-05
  -11.4300003      -4.97720284E-05
  -11.4200001      -3.26109184E-05
  -11.4099998      -1.13295309E-05
  -11.3999996       1.12531616E-05
  -11.3900003       3.25124784E-05
  -11.3800001       5.02668809E-05
  -11.3699999       6.28696653E-05
  -11.3599997       6.91909954E-05
  -11.3500004       6.85621853E-05
  -11.3400002       6.07489164E-05
  -11.3299999       4.59892726E-05
  -11.3199997       2.50883513E-05
  -11.3100004      -4.79456162E-07
  -11.3000002      -2.85320257E-05
  -11.2900000      -5.62719943E-05
  -11.2799997      -8.05459495E-05
  -11.2700005      -9.82566125E-05
  -11.2600002      -1.06861975E-04
  -11.2500000      -1.04856983E-04
  -11.2399998      -9.21213577E-05
  -11.2299995      -7.00378660E-05
  -11.2200003      -4.13338821E-05
  -11.2100000      -9.66363223E-06
  -11.1999998       2.09887548E-05
  -11.1899996       4.69615843E-05
  -11.1800003       6.54868272E-05
  -11.1700001       7.50657127E-05
  -11.1599998       7.55841902E-05
  -11.1499996       6.81677557E-05
  -11.1400003       5.48351818E-05
  -11.1300001       3.80503116E-05
  -11.1199999       2.02807951E-05
  -11.1099997       3.65198480E-06
  -11.1000004      -1.02579243E-05
  -11.0900002      -2.04838288E-05
  -11.0799999      -2.66411444E-05
  -11.0699997      -2.88510601E-05
  -11.0600004      -2.76698029E-05
  -11.0500002      -2.40382069E-05
  -11.0400000      -1.92322259E-05
  -11.0299997      -1.47702694E-05
  -11.0200005      -1.22327301E-05
  -11.0100002      -1.29769605E-05
  -11.0000000      -1.77802158E-05
  -10.9899998      -2.64959035E-05
  -10.9799995      -3.78428304E-05
  -10.9700003      -4.94438791E-05
  -10.9600000      -5.81816348E-05
  -10.9499998      -6.08513365E-05
  -10.9399996      -5.49895012E-05
  -10.9300003      -3.96727046E-05
  -10.9200001      -1.60470972E-05
  -10.9099998       1.26133000E-05
  -10.8999996       4.14135648E-05
  -10.8900003       6.48493879E-05
  -10.8800001       7.81036579E-05
  -10.8699999       7.82961433E-05
  -10.8599997       6.53288735E-05
  -10.8500004       4.20508368E-05
  -10.8400002       1.36385006E-05
  -10.8299999      -1.36896033E-05
  -10.8199997      -3.43001630E-05
  -10.8100004      -4.46647209E-05
  -10.8000002      -4.43229474E-05
  -10.7900000      -3.59774640E-05
  -10.7799997      -2.46490199E-05
  -10.7700005      -1.60995278E-05
  -10.7600002      -1.49636408E-05
  -10.7500000      -2.31434587E-05
  -10.7399998      -3.89731649E-05
  -10.7299995      -5.74567093E-05
  -10.7200003      -7.15747519E-05
  -10.7100000      -7.43355558E-05
  -10.6999998      -6.10035931E-05
  -10.6899996      -3.08551207E-05
  -10.6800003       1.20862351E-05
  -10.6700001       5.96131795E-05
  -10.6599998       1.01118145E-04
  -10.6499996       1.26168612E-04
  -10.6400003       1.27209511E-04
  -10.6300001       1.01670339E-04
  -10.6199999       5.28961718E-05
  -10.6099997      -1.03774501E-05
  -10.6000004      -7.59078248E-05
  -10.5900002      -1.30736749E-04
  -10.5799999      -1.64208832E-04
  -10.5699997      -1.70480198E-04
  -10.5600004      -1.49913089E-04
  -10.5500002      -1.09029206E-04
  -10.5400000      -5.90406162E-05
  -10.5299997      -1.33052990E-05
  -10.5200005       1.57130253E-05
  -10.5100002       1.93095821E-05
  -10.5000000      -5.38471431E-06
  -10.4899998      -5.45441399E-05
  -10.4799995      -1.18178192E-04
  -10.4700003      -1.81946409E-04
  -10.4600000      -2.29912068E-04
  -10.4499998      -2.47719581E-04
  -10.4399996      -2.25605909E-04
  -10.4300003      -1.60680385E-04
  -10.4200001      -5.80253727E-05
  -10.4099998       6.96363422E-05
  -10.3999996       2.03718533E-04
  -10.3900003       3.22745094E-04
  -10.3800001       4.06040112E-04
  -10.3699999       4.37492708E-04
  -10.3599997       4.08701831E-04
  -10.3500004       3.20882798E-04
  -10.3400002       1.85122626E-04
  -10.3299999       2.08717192E-05
  -10.3199997      -1.47103594E-04
  -10.3100004      -2.92778161E-04
  -10.3000002      -3.93203227E-04
  -10.2900000      -4.32332366E-04
  -10.2799997      -4.03656391E-04
  -10.2700005      -3.11202457E-04
  -10.2600002      -1.68769227E-04
  -10.2500000       2.40844884E-06
  -10.2399998       1.77109105E-04
  -10.2299995       3.30074079E-04
  -10.2200003       4.39806347E-04
  -10.2100000       4.91640531E-04
  -10.1999998       4.79657989E-04
  -10.1899996       4.07214597E-04
  -10.1800003       2.86055874E-04
  -10.1700001       1.34189264E-04
  -10.1599998      -2.71437202E-05
  -10.1499996      -1.76915928E-04
  -10.1400003      -2.97621969E-04
  -10.1300001      -3.77874880E-04
  -10.1199999      -4.13813395E-04
  -10.1099997      -4.09036875E-04
  -10.1000004      -3.73070448E-04
  -10.0900002      -3.18685721E-04
  -10.0799999      -2.58688320E-04
  -10.0699997      -2.02947369E-04
  -10.0600004      -1.56416005E-04
  -10.0500002      -1.18660340E-04
  -10.0400000      -8.50145370E-05
  -10.0299997      -4.90162674E-05
  -10.0200005      -5.38347604E-06
  -10.0100002       4.74025364E-05
  -10.0000000       1.05761275E-04
  -9.98999977       1.61424003E-04
  -9.97999954       2.03557123E-04
  -9.97000027       2.22009112E-04
  -9.96000004       2.10693892E-04
  -9.94999981       1.70021332E-04
  -9.93999958       1.07527325E-04
  -9.93000031       3.63843064E-05
  -9.92000008      -2.78720236E-05
  -9.90999985      -7.14872658E-05
  -9.89999962      -8.62821471E-05
  -9.89000034      -7.19414165E-05
  -9.88000011      -3.60763479E-05
  -9.86999989       7.99219379E-06
  -9.85999966       4.50894840E-05
  -9.85000038       6.25415851E-05
  -9.84000015       5.37443120E-05
  -9.82999992       1.99159967E-05
  -9.81999969      -3.04279492E-05
  -9.81000042      -8.40445064E-05
  -9.80000019      -1.26741244E-04
  -9.78999996      -1.47211074E-04
  -9.77999973      -1.39827302E-04
  -9.77000046      -1.05695464E-04
  -9.76000023      -5.18427296E-05
  -9.75000000       1.10018491E-05
  -9.73999977       7.12092224E-05
  -9.72999954       1.18742020E-04
  -9.72000027       1.46683204E-04
  -9.71000004       1.51583328E-04
  -9.69999981       1.32864865E-04
  -9.68999958       9.18313162E-05
  -9.68000031       3.08843046E-05
  -9.67000008      -4.66512574E-05
  -9.65999985      -1.36061499E-04
  -9.64999962      -2.30481732E-04
  -9.64000034      -3.20411462E-04
  -9.63000011      -3.94059869E-04
  -9.61999989      -4.38805815E-04
  -9.60999966      -4.43629426E-04
  -9.60000038      -4.01943136E-04
  -9.59000015      -3.13986180E-04
  -9.57999992      -1.87951984E-04
  -9.56999969      -3.93142109E-05
  -9.56000042       1.11685244E-04
  -9.55000019       2.43876144E-04
  -9.53999996       3.39401944E-04
  -9.52999973       3.87286505E-04
  -9.52000046       3.85412684E-04
  -9.51000023       3.40430823E-04
  -9.50000000       2.65679177E-04
  -9.48999977       1.77726877E-04
  -9.47999954       9.24879860E-05
  -9.47000027       2.19123376E-05
  -9.46000004      -2.79640080E-05
  -9.44999981      -5.72519129E-05
  -9.43999958      -7.08597145E-05
  -9.43000031      -7.61095653E-05
  -9.42000008      -8.00944690E-05
  -9.40999985      -8.75429323E-05
  -9.39999962      -9.97382522E-05
  -9.39000034      -1.14687173E-04
  -9.38000011      -1.28355925E-04
  -9.36999989      -1.36497445E-04
  -9.35999966      -1.36452989E-04
  -9.35000038      -1.28353378E-04
  -9.34000015      -1.15345778E-04
  -9.32999992      -1.02769896E-04
  -9.31999969      -9.65191066E-05
  -9.31000042      -1.01065751E-04
  -9.30000019      -1.17740150E-04
  -9.28999996      -1.43800673E-04
  -9.27999973      -1.72628541E-04
  -9.27000046      -1.95075874E-04
  -9.26000023      -2.01668445E-04
  -9.25000000      -1.85105077E-04
  -9.23999977      -1.42381003E-04
  -9.22999954      -7.59328468E-05
  -9.22000027       6.54989299E-06
  -9.21000004       9.36403085E-05
  -9.19999981       1.72636632E-04
  -9.18999958       2.32316219E-04
  -9.18000031       2.65238778E-04
  -9.17000008       2.68991513E-04
  -9.15999985       2.46090203E-04
  -9.14999962       2.02659910E-04
  -9.14000034       1.46386155E-04
  -9.13000011       8.44291135E-05
  -9.11999989       2.19611120E-05
  -9.10999966      -3.82681428E-05
  -9.10000038      -9.53250710E-05
  -9.09000015      -1.48816747E-04
  -9.07999992      -1.97558955E-04
  -9.06999969      -2.38804947E-04
  -9.06000042      -2.68416159E-04
  -9.05000019      -2.81966990E-04
  -9.03999996      -2.76379404E-04
  -9.02999973      -2.51435675E-04
  -9.02000046      -2.10520055E-04
  -9.01000023      -1.60202137E-04
  -9.00000000      -1.08704844E-04
  -8.98999977      -6.37351186E-05
  -8.97999954      -3.04266268E-05
  -8.97000027      -1.01369642E-05
  -8.96000004      -5.47523200E-07
  -8.94999981       2.96543658E-06
  -8.93999958       5.20440926E-06
  -8.93000031       9.08567836E-06
  -8.92000008       1.44445276E-05
  -8.90999985       1.81932264E-05
  -8.89999962       1.57878239E-05
  -8.89000034       3.43161855E-06
  -8.88000011      -1.98764901E-05
  -8.86999989      -5.13154628E-05
  -8.85999966      -8.47296906E-05
  -8.85000038      -1.12532442E-04
  -8.84000015      -1.28345971E-04
  -8.82999992      -1.29360837E-04
  -8.81999969      -1.17448835E-04
  -8.81000042      -9.85075239E-05
  -8.80000019      -8.01926944E-05
  -8.78999996      -6.88533983E-05
  -8.77999973      -6.68575667E-05
  -8.77000046      -7.14214257E-05
  -8.76000023      -7.55336077E-05
  -8.75000000      -7.07739164E-05
  -8.73999977      -5.10594000E-05
  -8.72999954      -1.59079846E-05
  -8.72000027       2.81180291E-05
  -8.71000004       6.85343111E-05
  -8.69999981       9.04547996E-05
  -8.68999958       8.14337836E-05
  -8.68000031       3.59931728E-05
  -8.67000008      -4.17870651E-05
  -8.65999985      -1.38629694E-04
  -8.64999962      -2.35386047E-04
  -8.64000034      -3.12303047E-04
  -8.63000011      -3.54512158E-04
  -8.61999989      -3.55929311E-04
  -8.60999966      -3.20309337E-04
  -8.60000038      -2.59206543E-04
  -8.59000015      -1.87682264E-04
  -8.57999992      -1.19373770E-04
  -8.56999969      -6.27073459E-05
  -8.56000042      -1.95402627E-05
  -8.55000019       1.34553020E-05
  -8.53999996       4.14292772E-05
  -8.52999973       6.75378178E-05
  -8.52000046       9.03558976E-05
  -8.51000023       1.03682156E-04
  -8.50000000       9.89061664E-05
  -8.48999977       6.90261950E-05
  -8.47999954       1.26627001E-05
  -8.47000027      -6.36829864E-05
  -8.46000004      -1.46266859E-04
  -8.44999981      -2.17680368E-04
  -8.43999958      -2.62237591E-04
  -8.43000031      -2.71250639E-04
  -8.42000008      -2.46190903E-04
  -8.40999985      -1.98423280E-04
  -8.39999962      -1.45428145E-04
  -8.39000034      -1.04743471E-04
  -8.38000011      -8.77661514E-05
  -8.36999989      -9.56900112E-05
  -8.35999966      -1.19146403E-04
  -8.35000038      -1.41790879E-04
  -8.34000015      -1.46621998E-04
  -8.32999992      -1.22767393E-04
  -8.31999969      -7.02293619E-05
  -8.31000042      -7.62021330E-07
  -8.30000019       6.55764379E-05
  -8.28999996       1.07078704E-04
  -8.27999973       1.07931424E-04
  -8.27000046       6.39485152E-05
  -8.26000023      -1.56068854E-05
  -8.25000000      -1.10843794E-04
  -8.23999977      -1.97784888E-04
  -8.22999954      -2.56362982E-04
  -8.22000027      -2.77066836E-04
  -8.21000004      -2.63891445E-04
  -8.19999981      -2.32549617E-04
  -8.18999958      -2.04574986E-04
  -8.18000031      -1.99392889E-04
  -8.17000008      -2.27138895E-04
  -8.15999985      -2.84719106E-04
  -8.14999962      -3.56447446E-04
  -8.14000034      -4.18987387E-04
  -8.13000011      -4.48849838E-04
  -8.11999989      -4.29873035E-04
  -8.10999966      -3.58209218E-04
  -8.10000038      -2.43297967E-04
  -8.09000015      -1.04745624E-04
  -8.07999992       3.35830227E-05
  -8.06999969       1.50110587E-04
  -8.06000042       2.30554273E-04
  -8.05000019       2.69969867E-04
  -8.03999996       2.71608209E-04
  -8.02999973       2.43533475E-04
  -8.02000046       1.94656983E-04
  -8.01000023       1.31836205E-04
  -8.00000000       5.90273594E-05
  -7.98999977      -2.15325872E-05
  -7.98000002      -1.07067644E-04
  -7.96999979      -1.92339256E-04
  -7.96000004      -2.69275188E-04
  -7.94999981      -3.28615541E-04
  -7.94000006      -3.63051746E-04
  -7.92999983      -3.70539172E-04
  -7.92000008      -3.56213248E-04
  -7.90999985      -3.31766321E-04
  -7.90000010      -3.12103133E-04
  -7.88999987      -3.10218107E-04
  -7.88000011      -3.32070980E-04
  -7.86999989      -3.73429211E-04
  -7.86000013      -4.20075929E-04
  -7.84999990      -4.51633823E-04
  -7.84000015      -4.47941973E-04
  -7.82999992      -3.95931536E-04
  -7.82000017      -2.94664234E-04
  -7.80999994      -1.56749404E-04
  -7.80000019      -5.56082068E-06
  -7.78999996       1.30899658E-04
  -7.78000021       2.27509154E-04
  -7.76999998       2.68485077E-04
  -7.76000023       2.50802812E-04
  -7.75000000       1.83677723E-04
  -7.73999977       8.45966279E-05
  -7.73000002      -2.64745595E-05
  -7.71999979      -1.32587404E-04
  -7.71000004      -2.23200972E-04
  -7.69999981      -2.94616300E-04
  -7.69000006      -3.47822701E-04
  -7.67999983      -3.85112333E-04
  -7.67000008      -4.07196756E-04
  -7.65999985      -4.12195397E-04
  -7.65000010      -3.96927120E-04
  -7.63999987      -3.59824509E-04
  -7.63000011      -3.03973909E-04
  -7.61999989      -2.38616572E-04
  -7.61000013      -1.78015180E-04
  -7.59999990      -1.37684314E-04
  -7.59000015      -1.29163673E-04
  -7.57999992      -1.55291971E-04
  -7.57000017      -2.07969075E-04
  -7.55999994      -2.69615412E-04
  -7.55000019      -3.18211038E-04
  -7.53999996      -3.34412529E-04
  -7.53000021      -3.08343093E-04
  -7.51999998      -2.43602874E-04
  -7.51000023      -1.56914044E-04
  -7.50000000      -7.33146371E-05
  -7.48999977      -1.84057153E-05
  -7.48000002      -1.02533022E-05
  -7.46999979      -5.37245978E-05
  -7.46000004      -1.39213211E-04
  -7.44999981      -2.46160955E-04
  -7.44000006      -3.50076094E-04