  -16.0000000       0.00000000    
  -15.9899998       0.00000000    
  -15.9799995       0.00000000    
  -15.9700003       0.00000000    
  -15.9600000       0.00000000    
  -15.9499998       0.00000000    
  -15.9399996       0.00000000    
  -15.9300003       0.00000000    
  -15.9200001       0.00000000    
  -15.9099998       0.00000000    
  -15.8999996      -2.12296717E-42
  -15.8900003       5.15899240E-40
  -15.8800001       1.91362425E-38
  -15.8699999       3.08884028E-37
  -15.8599997       3.17614570E-36
  -15.8500004       2.40498123E-35
  -15.8400002       1.44430890E-34
  -15.8299999       7.18396806E-34
  -15.8199997       3.04095429E-33
  -15.8100004       1.11479902E-32
  -15.8000002       3.57839406E-32
  -15.7900000       1.01146775E-31
  -15.7799997       2.51809204E-31
  -15.7700005       5.48036108E-31
  -15.7600002       1.02021747E-30
  -15.7500000       1.53156193E-30
  -15.7399998       1.49288582E-30
  -15.7299995      -5.71103445E-31
  -15.7200003      -7.42521225E-30
  -15.7100000      -2.29722938E-29
  -15.6999998      -5.05744569E-29
  -15.6899996      -8.86174955E-29
  -15.6800003      -1.22636406E-28
  -15.6700001      -1.15524199E-28
  -15.6599998      -1.84140569E-30
  -15.6499996       3.01554359E-28
  -15.6400003       8.51646799E-28
  -15.6300001       1.58901816E-27
  -15.6199999       2.21005680E-27
  -15.6099997       2.05804469E-27
  -15.6000004       1.56856835E-28
  -15.5900002      -4.43557074E-27
  -15.5799999      -1.18069967E-26
  -15.5699997      -1.99614735E-26
  -15.5600004      -2.36732982E-26
  -15.5500002      -1.45024482E-26
  -15.5400000       1.65353350E-26
  -15.5299997       7.24891681E-26
  -15.5200005       1.40773646E-25
  -15.5100002       1.84218940E-25
  -15.5000000       1.40966251E-25
  -15.4899998      -5.63683949E-26
  -15.4799995      -4.35251736E-25
  -15.4700003      -9.17274642E-25
  -15.4600000      -1.25962736E-24
  -15.4499998      -1.05630911E-24
  -15.4399996       1.38433429E-25
  -15.4300003       2.52779492E-24
  -15.4200001       5.67303206E-24
  -15.4099998       8.14400198E-24
  -15.3999996       7.51410286E-24
  -15.3900003       1.03762652E-24
  -15.3800001      -1.27984336E-23
  -15.3699999      -3.20624721E-23
  -15.3599997      -4.93490714E-23
  -15.3500004      -5.14143377E-23
  -15.3400002      -2.22151861E-23
  -15.3299999       4.95086485E-23
  -15.3199997       1.58777770E-22
  -15.3100004       2.72643026E-22
  -15.3000002       3.25054263E-22
  -15.2900000       2.27195879E-22
  -15.2799997      -9.93238799E-23
  -15.2700005      -6.66073506E-22
  -15.2600002      -1.35112592E-21
  -15.2500000      -1.85241706E-21
  -15.2399998      -1.70645745E-21
  -15.2299995      -4.19556064E-22
  -15.2200003       2.26567294E-21
  -15.2100000       6.00590236E-21
  -15.1999998       9.52493709E-21
  -15.1899996       1.05430373E-20
  -15.1800003       6.24700087E-21
  -15.1700001      -5.49582596E-21
  -15.1599998      -2.42491034E-20
  -15.1499996      -4.49939078E-20
  -15.1400003      -5.71138422E-20
  -15.1300001      -4.58937123E-20
  -15.1199999       2.16133590E-21
  -15.1099997       9.00942182E-20
  -15.1000004       1.99607703E-19
  -15.0900002       2.83769479E-19
  -15.0799999       2.70874793E-19
  -15.0699997       8.66255914E-20
  -15.0600004      -3.03398139E-19
  -15.0500002      -8.39755309E-19
  -15.0400000      -1.32672781E-18
  -15.0299997      -1.43650388E-18
  -15.0200005      -7.95396766E-19
  -15.0100002       8.33109223E-19
  -15.0000000       3.29958107E-18
  -14.9899998       5.84860285E-18
  -14.9799995       7.07862952E-18
  -14.9700003       5.24426801E-18
  -14.9600000      -1.01121196E-18
  -14.9499998      -1.15869260E-17
  -14.9399996      -2.38749835E-17
  -14.9300003      -3.23380040E-17
  -14.9200001      -2.94105092E-17
  -14.9099998      -8.18347234E-18
  -14.8999996       3.33308887E-17
  -14.8900003       8.75700910E-17
  -14.8800001       1.34691116E-16
  -14.8699999       1.44532316E-16
  -14.8599997       8.54399884E-17
  -14.8500004      -6.00700678E-17
  -14.8400002      -2.76487171E-16
  -14.8299999      -5.01071975E-16
  -14.8199997      -6.24627983E-16
  -14.8100004      -5.16629429E-16
  -14.8000002      -7.74956134E-17
  -14.7900000       6.91289105E-16
  -14.7799997       1.62334457E-15
  -14.7700005       2.36569187E-15
  -14.7600002       2.43583615E-15
  -14.7500000       1.37736144E-15
  -14.7399998      -1.00291041E-15
  -14.7299995      -4.38292752E-15
  -14.7200003      -7.77136466E-15
  -14.7100000      -9.58215339E-15
  -14.6999998      -8.03347308E-15
  -14.6899996      -1.86724178E-15
  -14.6800003       8.76791756E-15
  -14.6700001       2.15901736E-14
  -14.6599998       3.20359550E-14
  -14.6499996       3.40714734E-14
  -14.6400003       2.21103585E-14
  -14.6300001      -6.24251339E-15
  -14.6199999      -4.74197572E-14
  -14.6099997      -9.03150777E-14
  -14.6000004      -1.17214059E-13
  -14.5900002      -1.08095763E-13
  -14.5799999      -4.81175599E-14
  -14.5699997       6.33869788E-14
  -14.5600004       2.05535377E-13
  -14.5500002       3.34097442E-13
  -14.5400000       3.88711226E-13
  -14.5299997       3.10341271E-13
  -14.5200005       6.64499990E-14
  -14.5100002      -3.23044461E-13
  -14.5000000      -7.69425702E-13
  -14.4899998      -1.11954163E-12
  -14.4799995      -1.18836364E-12
  -14.4700003      -8.18991739E-13
  -14.4600000       4.21180018E-14
  -14.4499998       1.27830895E-12
  -14.4399996       2.57449639E-12
  -14.4300003       3.45505157E-12
  -14.4200001       3.40047868E-12
  -14.4099998       2.02974616E-12
  -14.3999996      -6.95813795E-13
  -14.3900003      -4.31707925E-12
  -14.3800001      -7.84904607E-12
  -14.3699999      -9.94078257E-12
  -14.3599997      -9.23574411E-12
  -14.3500004      -4.87363231E-12
  -14.3400002       3.00026779E-12
  -14.3299999       1.29046470E-11
  -14.3199997       2.20583690E-11
  -14.3100004       2.69033650E-11
  -14.3000002       2.40983934E-11
  -14.2900000       1.17908435E-11
  -14.2799997      -9.19347237E-12
  -14.2700005      -3.46955381E-11
  -14.2600002      -5.75175706E-11
  -14.2500000      -6.88809773E-11
  -14.2399998      -6.09218578E-11
  -14.2299995      -2.96944379E-11
  -14.2200003       2.21920468E-11
  -14.2100000       8.43239159E-11
  -14.1999998       1.39479359E-10
  -14.1899996       1.67223679E-10
  -14.1800003       1.49681073E-10
  -14.1700001       7.82049772E-11
  -14.1599998      -4.10015390E-11
  -14.1499996      -1.84469634E-10
  -14.1400003      -3.13954585E-10
  -14.1300001      -3.84397514E-10
  -14.1199999      -3.56299462E-10
  -14.1099997      -2.09743264E-10
  -14.1000004       4.39536463E-11
  -14.0900002       3.57253754E-10
  -14.0799999       6.51362575E-10
  -14.0699997       8.32121816E-10
  -14.0600004       8.14653511E-10
  -14.0500002       5.51354296E-10
  -14.0400000       5.55388478E-11
  -14.0299997      -5.87428384E-10
  -14.0200005      -1.22775734E-09
  -14.0100002      -1.67963954E-09
  -14.0000000      -1.76674253E-09
  -13.9899998      -1.37527467E-09
  -13.9799995      -5.00876840E-10
  -13.9700003       7.25463023E-10
  -13.9600000       2.04426942E-09
  -13.9499998       3.11205217E-09
  -13.9399996       3.57855390E-09
  -13.9300003       3.18182192E-09
  -13.9200001       1.83835991E-09
  -13.9099998      -2.97302322E-10
  -13.8999996      -2.82568191E-09
  -13.8900003      -5.15989473E-09
  -13.8800001      -6.64433264E-09
  -13.8699999      -6.71421452E-09
  -13.8599997      -5.06138464E-09
  -13.8500004      -1.76403181E-09
  -13.8400002       2.65994871E-09
  -13.8299999       7.30338501E-09
  -13.8199997       1.10294787E-08
  -13.8100004       1.27190498E-08
  -13.8000002       1.15577334E-08
  -13.7900000       7.29721084E-09
  -13.7799997       4.19897117E-10
  -13.7700005      -7.85118814E-09
  -13.7600002      -1.57266449E-08
  -13.7500000      -2.11969855E-08
  -13.7399998      -2.24937828E-08
  -13.7299995      -1.85697999E-08
  -13.7200003      -9.48119805E-09
  -13.7100000       3.44044859E-09
  -13.6999998       1.77046839E-08
  -13.6899996       3.00861238E-08
  -13.6800003       3.73002642E-08
  -13.6700001       3.68025468E-08
  -13.6599998       2.75296230E-08
  -13.6499996       1.03870379E-08
  -13.6400003      -1.16793339E-08
  -13.6300001      -3.41099238E-08
  -13.6199999      -5.16231111E-08
  -13.6099997      -5.94140772E-08
  -13.6000004      -5.44004592E-08
  -13.5900002      -3.62039607E-08
  -13.5799999      -7.58166863E-09
  -13.5699997       2.58762061E-08
  -13.5600004       5.67985872E-08
  -13.5500002       7.76583562E-08
  -13.5400000       8.26194366E-08
  -13.5299997       6.91541402E-08
  -13.5200005       3.89854478E-08
  -13.5100002      -1.96374050E-09
  -13.5000000      -4.47036577E-08
  -13.4899998      -7.92030335E-08
  -13.4799995      -9.68573417E-08
  -13.4700003      -9.27852710E-08
  -13.4600000      -6.73244003E-08
  -13.4499998      -2.62543072E-08
  -13.4399996       2.04211847E-08
  -13.4300003       6.09198239E-08
  -13.4200001       8.47824921E-08
  -13.4099998       8.58232738E-08
  -13.3999996       6.40892850E-08
  -13.3900003       2.61934012E-08
  -13.3800001      -1.62160791E-08
  -13.3699999      -4.95772028E-08
  -13.3599997      -6.23750509E-08
  -13.3500004      -4.88737726E-08
  -13.3400002      -1.15072938E-08
  -13.3299999       3.89171255E-08
  -13.3199997       8.55140030E-08
  -13.3100004       1.09745301E-07
  -13.3000002       9.69576703E-08
  -13.2900000       4.15752837E-08
  -13.2799997      -4.95891257E-08
  -13.2700005      -1.57107337E-07
  -13.2600002      -2.52291784E-07
  -13.2500000      -3.03711658E-07
  -13.2399998      -2.85531939E-07
  -13.2299995      -1.85674153E-07
  -13.2200003      -1.15858638E-08
  -13.2100000       2.08248210E-07
  -13.1999998       4.28051180E-07
  -13.1899996       5.93524419E-07
  -13.1800003       6.54098585E-07
  -13.1700001       5.76052912E-07
  -13.1599998       3.53345797E-07
  -13.1499996       1.31879947E-08
  -13.1400003      -3.85673843E-07
  -13.1300001      -7.62456978E-07
  -13.1199999      -1.03028697E-06
  -13.1099997      -1.11554402E-06
  -13.1000004      -9.76413617E-07
  -13.0900002      -6.16169245E-07
  -13.0799999      -8.74859438E-08
  -13.0699997       5.14181806E-07
  -13.0600004       1.06774507E-06
  -13.0500002       1.45120930E-06
  -13.0400000       1.56896988E-06
  -13.0299997       1.37556219E-06
  -13.0200005       8.90016850E-07
  -13.0100002       1.96639988E-07
  -13.0000000      -5.69123358E-07
  -12.9899998      -1.24767701E-06
  -12.9799995      -1.68981853E-06
  -12.9700003      -1.79130825E-06
  -12.9600000      -1.51931249E-06
  -12.9499998      -9.23874097E-07
  -12.9399996      -1.30632131E-07
  -12.9300003       6.84750262E-07
  -12.9200001       1.33552874E-06
  -12.9099998       1.66767245E-06
  -12.8999996       1.59821536E-06
  -12.8900003       1.13850035E-06
  -12.8800001       3.95717024E-07
  -12.8699999      -4.48942416E-07
  -12.8599997      -1.18151627E-06
  -12.8500004      -1.60683783E-06
  -12.8400002      -1.59824901E-06
  -12.8299999      -1.13299870E-06
  -12.8199997      -3.03688410E-07
  -12.8100004       6.98446684E-07
  -12.8000002       1.62583603E-06
  -12.7900000       2.23331153E-06
  -12.7799997       2.33952051E-06
  -12.7700005       1.87583112E-06
  -12.7600002       9.09872483E-07
  -12.7500000      -3.63482286E-07
  -12.7399998      -1.66311656E-06
  -12.7299995      -2.68606186E-06
  -12.7200003      -3.18048569E-06
  -12.7100000      -3.00963075E-06
  -12.6999998      -2.19052640E-06
  -12.6899996      -8.96819756E-07
  -12.6800003       5.76548700E-07
  -12.6700001       1.87981721E-06
  -12.6599998       2.69115867E-06
  -12.6499996       2.79635560E-06
  -12.6400003       2.14611350E-06
  -12.6300001       8.76500451E-07
  -12.6199999      -7.13624900E-07
  -12.6099997      -2.22428685E-06
  -12.6000004      -3.24197299E-06
  -12.5900002      -3.43363558E-06
  -12.5799999      -2.62586036E-06
  -12.5699997      -8.51173695E-07
  -12.5600004       1.64908522E-06
  -12.5500002       4.46601052E-06
  -12.5400000       7.09916503E-06
  -12.5299997       9.05035722E-06
  -12.5200005       9.91445722E-06
  -12.5100002       9.44780368E-06
  -12.5000000       7.60050762E-06
  -12.4899998       4.50784319E-06
  -12.4799995       4.45690233E-07
  -12.4700003      -4.23665188E-06
  -12.4600000      -9.18803198E-06
  -12.4499998      -1.41128385E-05
  -12.4399996      -1.87999740E-05
  -12.4300003      -2.31171598E-05
  -12.4200001      -2.69738721E-05
  -12.4099998      -3.02652679E-05
  -12.3999996      -3.28154456E-05
  -12.3900003      -3.43399588E-05
  -12.3800001      -3.44439504E-05
  -12.3699999      -3.26642112E-05
  -12.3599997      -2.85526330E-05
  -12.3500004      -2.17871839E-05
  -12.3400002      -1.22875299E-05
  -12.3299999      -3.08029257E-07
  -12.3199997       1.35177452E-05
  -12.3100004       2.81991652E-05
  -12.3000002       4.24830869E-05
  -12.2900000       5.50114783E-05
  -12.2799997       6.45185064E-05
  -12.2700005       7.00329474E-05
  -12.2600002       7.10473614E-05
  -12.2500000       6.76193595E-05
  -12.2399998       6.03808876E-05
  -12.2299995       5.04481286E-05
  -12.2200003       3.92435795E-05
  -12.2100000       2.82596138E-05
  -12.1999998       1.88054091E-05
  -12.1899996       1.17841491E-05
  -12.1800003       7.54330995E-06
  -12.1700001       5.82817984E-06
  -12.1599998       5.84999862E-06
  -12.1499996       6.45821319E-06
  -12.1400003       6.38615938E-06
  -12.1300001       4.52436279E-06
  -12.1199999       1.68885052E-07
  -12.1099997      -6.80474159E-06
  -12.1000004      -1.58788062E-05
  -12.0900002      -2.59585340E-05
  -12.0799999      -3.55575139E-05
  -12.0699997      -4.30721739E-05
  -12.0600004      -4.70952546E-05
  -12.0500002      -4.67083992E-05
  -12.0400000      -4.16951225E-05
  -12.0299997      -3.26285808E-05
  -12.0200005      -2.08112306E-05
  -12.0100002      -8.07220113E-06
  -12.0000000       3.54301869E-06
  -11.9899998       1.21324983E-05
  -11.9799995       1.62771648E-05
  -11.9700003       1.52912671E-05
  -11.9600000       9.33249430E-06
  -11.9499998      -6.51080370E-07
  -11.9399996      -1.31256284E-05
  -11.9300003      -2.62831618E-05
  -11.9200001      -3.83919905E-05
  -11.9099998      -4.81095740E-05
  -11.8999996      -5.46908523E-05
  -11.8900003      -5.80501619E-05
  -11.8800001      -5.86704446E-05
  -11.8699999      -5.73900761E-05
  -11.8599997      -5.51264675E-05
  -11.8500004      -5.26095646E-05
  -11.8400002      -5.01930226E-05
  -11.8299999      -4.77885842E-05
  -11.8199997      -4.49350482E-05
  -11.8100004      -4.09770219E-05
  -11.8000002      -3.53001014E-05
  -11.7900000      -2.75553284E-05
  -11.7799997      -1.78109804E-05
  -11.7700005      -6.59162015E-06
  -11.7600002       5.20336926E-06
  -11.7500000       1.64764660E-05
  -11.7399998       2.61537243E-05
  -11.7299995       3.33920325E-05
  -11.7200003       3.77202778E-05
  -11.7100000       3.90850910E-05
  -11.6999998       3.78011318E-05
  -11.6899996       3.44330474E-05
  -11.6800003       2.96526796E-05
  -11.6700001       2.41165726E-05
  -11.6599998       1.83951652E-05
  -11.6499996       1.29617274E-05
  -11.6400003       8.22443690E-06
  -11.6300001       4.56788393E-06
  -11.6199999       2.36736673E-06
  -11.6099997       1.95192160E-06
  -11.6000004       3.51638300E-06
  -11.5900002       7.01039744E-06
  -11.5799999       1.20527784E-05
  -11.5699997       1.79239778E-05
  -11.5600004       2.36734741E-05
  -11.5500002       2.83448844E-05
  -11.5400000       3.12784541E-05
  -11.5299997       3.24117646E-05
  -11.5200005       3.24787616E-05
  -11.5100002       3.30147886E-05
  -11.5000000       3.61142593E-05
  -11.4899998       4.39508040E-05
  -11.4799995       5.81425738E-05
  -11.4700003       7.91075727E-05
  -11.4600000       1.05585728E-04
  -11.4499998       1.34491434E-04
  -11.4399996       1.61201111E-04
  -11.4300003       1.80282557E-04
  -11.4200001       1.86560050E-04
  -11.4099998       1.76308225E-04
  -11.3999996       1.48306863E-04
  -11.3900003       1.04488674E-04
  -11.3800001       4.99784801E-05
  -11.3699999      -7.55551855E-06
  -11.3599997      -5.91641037E-05
  -11.3500004      -9.62709819E-05
  -11.3400002      -1.12389011E-04
  -11.3299999      -1.04531937E-04
  -11.3199997      -7.40002215E-05
  -11.3100004      -2.63396705E-05
  -11.3000002       2.95573354E-05
  -11.2900000       8.30546851E-05
  -11.2799997       1.23771795E-04
  -11.2700005       1.43581085E-04
  -11.2600002       1.38199946E-04
  -11.2500000       1.08053740E-04
  -11.2399998       5.82341818E-05
  -11.2299995      -2.43975046E-06
  -11.2200003      -6.30727372E-05
  -11.2100000      -1.12733018E-04
  -11.1999998      -1.42488861E-04
  -11.1899996      -1.47058119E-04
  -11.1800003      -1.25769307E-04
  -11.1700001      -8.26676842E-05
  -11.1599998      -2.57605316E-05
  -11.1499996       3.44498585E-05
  -11.1400003       8.68739007E-05
  -11.1300001       1.21841113E-04
  -11.1199999       1.32852205E-04
  -11.1099997       1.17772506E-04
  -11.1000004       7.92594001E-05
  -11.0900002       2.43460127E-05
  -11.0799999      -3.67553403E-05
  -11.0699997      -9.24345732E-05
  -11.0600004      -1.31753419E-04
  -11.0500002      -1.46450300E-04
  -11.0400000      -1.32528410E-04
  -11.0299997      -9.11334864E-05
  -11.0200005      -2.85390815E-05
  -11.0100002       4.47962084E-05
  -11.0000000       1.15973453E-04
  -10.9899998       1.71925436E-04
  -10.9799995       2.01831892E-04
  -10.9700003       1.99245129E-04
  -10.9600000       1.63518605E-04
  -10.9499998       1.00232108E-04
  -10.9399996       2.04712360E-05
  -10.9300003      -6.09774943E-05
  -10.9200001      -1.28245156E-04
  -10.9099998      -1.67365855E-04
  -10.8999996      -1.69075312E-04
  -10.8900003      -1.30860586E-04
  -10.8800001      -5.78003965E-05
  -10.8699999       3.80592901E-05
  -10.8599997       1.39770913E-04
  -10.8500004       2.28666948E-04
  -10.8400002       2.88069074E-04
  -10.8299999       3.06773989E-04
  -10.8199997       2.81553686E-04
  -10.8100004       2.18065295E-04
  -10.8000002       1.29876775E-04
  -10.7900000       3.57211502E-05
  -10.7799997      -4.44935904E-05
  -10.7700005      -9.40675964E-05
  -10.7600002      -1.03290113E-04
  -10.7500000      -7.17095827E-05
  -10.7399998      -8.29866985E-06
  -10.7299995       7.05990678E-05
  -10.7200003       1.45117243E-04
  -10.7100000       1.96627094E-04
  -10.6999998       2.12269078E-04
  -10.6899996       1.88133112E-04
  -10.6800003       1.30270855E-04
  -10.6700001       5.32476224E-05
  -10.6599998      -2.34436102E-05
  -10.6499996      -8.02350696E-05
  -10.6400003      -1.02398051E-04
  -10.6300001      -8.37805273E-05
  -10.6199999      -2.84184989E-05
  -10.6099997       5.03953779E-05
  -10.6000004       1.33360038E-04
  -10.5900002       1.99920774E-04
  -10.5799999       2.33345680E-04
  -10.5699997       2.24867152E-04
  -10.5600004       1.75878944E-04
  -10.5500002       9.76728406E-05
  -10.5400000       8.80949938E-06
  -10.5299997      -6.92133181E-05
  -10.5200005      -1.16944582E-04
  -10.5100002      -1.21445672E-04
  -10.5000000      -7.92311184E-05
  -10.4899998       2.93203652E-06
  -10.4799995       1.09474327E-04
  -10.4700003       2.19330614E-04
  -10.4600000       3.10331699E-04
  -10.4499998       3.63725441E-04
  -10.4399996       3.67904140E-04
  -10.4300003       3.20632418E-04
  -10.4200001       2.29410041E-04
  -10.4099998       1.09980392E-04
  -10.3999996      -1.66620503E-05
  -10.3900003      -1.28164756E-04
  -10.3800001      -2.04886135E-04
  -10.3699999      -2.33421524E-04
  -10.3599997      -2.08987360E-04
  -10.3500004      -1.36272181E-04
  -10.3400002      -2.86232989E-05
  -10.3299999       9.42854458E-05
  -10.3199997       2.09906109E-04
  -10.3100004       2.96796701E-04
  -10.3000002       3.38434766E-04
  -10.2900000       3.26183013E-04
  -10.2799997       2.60859146E-04
  -10.2700005       1.52602137E-04
  -10.2600002       1.90345017E-05
  -10.2500000      -1.17956137E-04
  -10.2399998      -2.36220876E-04
  -10.2299995      -3.17378028E-04
  -10.2200003      -3.50088929E-04
  -10.2100000      -3.31946154E-04
  -10.1999998      -2.69615150E-04
  -10.1899996      -1.77226219E-04
  -10.1800003      -7.33746856E-05
  -10.1700001       2.26282464E-05
  -10.1599998       9.44653439E-05
  -10.1499996       1.31723209E-04
  -10.1400003       1.31438661E-04
  -10.1300001       9.80385375E-05
  -10.1199999       4.17975389E-05
  -10.1099997      -2.37332060E-05
  -10.1000004      -8.46688854E-05
  -10.0900002      -1.29411797E-04
  -10.0799999      -1.50399239E-04
  -10.0699997      -1.44704958E-04
  -10.0600004      -1.13552247E-04
  -10.0500002      -6.10881907E-05
  -10.0400000       7.06858555E-06
  -10.0299997       8.50047436E-05
  -10.0200005       1.67091319E-04
  -10.0100002       2.47928139E-04
  -10.0000000       3.21905769E-04
  -9.98999977       3.82827508E-04
  -9.97999954       4.24043275E-04
  -9.97000027       4.39360301E-04
  -9.96000004       4.24666388E-04
  -9.94999981       3.79839505E-04
  -9.93999958       3.10261647E-04
  -9.93000031       2.27217766E-04
  -9.92000008       1.46691236E-04
  -9.90999985       8.65224138E-05
  -9.89999962       6.24439199E-05
  -9.89000034       8.39701024E-05
  -9.88000011       1.51323518E-04
  -9.86999989       2.54425366E-04
  -9.85999966       3.74473544E-04
  -9.85000038       4.87906596E-04
  -9.84000015       5.71822398E-04
  -9.82999992       6.09427225E-04
  -9.81999969       5.94004814E-04
  -9.81000042       5.30272664E-04
  -9.80000019       4.32741537E-04
  -9.78999996       3.21581145E-04
  -9.77999973       2.17247216E-04
  -9.77000046       1.35487964E-04
  -9.76000023       8.41982037E-05
  -9.75000000       6.29649803E-05
  -9.73999977       6.52502640E-05
  -9.72999954       8.22824222E-05
  -9.72000027       1.07174928E-04
  -9.71000004       1.37748124E-04
  -9.69999981       1.77017879E-04
  -9.68999958       2.31169877E-04
  -9.68000031       3.05765425E-04
  -9.67000008       4.01601632E-04
  -9.65999985       5.11834049E-04
  -9.64999962       6.21589716E-04
  -9.64000034       7.10476248E-04
  -9.63000011       7.57406175E-04
  -9.61999989       7.46337231E-04
  -9.60999966       6.71167683E-04
  -9.60000038       5.38239430E-04
  -9.59000015       3.65621498E-04
  -9.57999992       1.79330542E-04
  -9.56999969       7.56102645E-06
  -9.56000042      -1.25446852E-04
  -9.55000019      -2.04250755E-04
  -9.53999996      -2.24597665E-04
  -9.52999973      -1.93007698E-04
  -9.52000046      -1.24030994E-04
  -9.51000023      -3.62478931E-05
  -9.50000000       5.17471053E-05
  -9.48999977       1.24394384E-04
  -9.47999954       1.70803192E-04
  -9.47000027       1.85100726E-04
  -9.46000004       1.66017344E-04
  -9.44999981       1.16303054E-04
  -9.43999958       4.23394304E-05
  -9.43000031      -4.60793781E-05
  -9.42000008      -1.36161747E-04
  -9.40999985      -2.13204039E-04
  -9.39999962      -2.62623216E-04
  -9.39000034      -2.72776204E-04
  -9.38000011      -2.37920540E-04
  -9.36999989      -1.60361567E-04
  -9.35999966      -5.08739067E-05
  -9.35000038       7.30878892E-05
  -9.34000015       1.91178304E-04
  -9.32999992       2.85021320E-04
  -9.31999969       3.42753832E-04
  -9.31000042       3.61854589E-04
  -9.30000019       3.49345442E-04
  -9.28999996       3.19282030E-04
  -9.27999973       2.88340903E-04
  -9.27000046       2.70940916E-04
  -9.26000023       2.75472557E-04
  -9.25000000       3.02791217E-04
  -9.23999977       3.47306370E-04
  -9.22999954       4.00068471E-04
  -9.22000027       4.52564098E-04
  -9.21000004       4.99735004E-04
  -9.19999981       5.41106740E-04
  -9.18999958       5.79706626E-04
  -9.18000031       6.19358208E-04
  -9.17000008       6.61607250E-04
  -9.15999985       7.03697617E-04
  -9.14999962       7.38600269E-04
  -9.14000034       7.57263391E-04
  -9.13000011       7.52315915E-04
  -9.11999989       7.21791759E-04
  -9.10999966       6.71321410E-04
  -9.10000038       6.13725337E-04
  -9.09000015       5.65876428E-04
  -9.07999992       5.43734350E-04
  -9.06999969       5.57188469E-04
  -9.06000042       6.06506190E-04
  -9.05000019       6.81681733E-04
  -9.03999996       7.64993427E-04
  -9.02999973       8.35969578E-04
  -9.02000046       8.77135375E-04
  -9.01000023       8.78670835E-04
  -9.00000000       8.40547378E-04
  -8.98999977       7.71637948E-04
  -8.97999954       6.86376356E-04
  -8.97000027       6.00349857E-04
  -8.96000004       5.26454882E-04
  -8.94999981       4.72848536E-04
  -8.93999958       4.43070603E-04
  -8.93000031       4.37753362E-04
  -8.92000008       4.56677517E-04
  -8.90999985       4.99853806E-04
  -8.89999962       5.66847797E-04
  -8.89000034       6.54498930E-04
  -8.88000011       7.54123321E-04
  -8.86999989       8.49805248E-04
  -8.85999966       9.19217709E-04
  -8.85000038       9.37570527E-04
  -8.84000015       8.84040317E-04
  -8.82999992       7.48874096E-04
  -8.81999969       5.38743916E-04
  -8.81000042       2.78172811E-04
  -8.80000019       5.93685627E-06
  -8.78999996      -2.33050567E-04
  -8.77999973      -3.98303993E-04
  -8.77000046      -4.63747652E-04
  -8.76000023      -4.24097641E-04
  -8.75000000      -2.95666920E-04
  -8.73999977      -1.11347748E-04
  -8.72999954       8.86324342E-05
  -8.72000027       2.67268857E-04
  -8.71000004       3.99400044E-04
  -8.69999981       4.75905545E-04
  -8.68999958       5.02578681E-04
  -8.68000031       4.94606851E-04
  -8.67000008       4.69029328E-04
  -8.65999985       4.38071467E-04
  -8.64999962       4.05718078E-04
  -8.64000034       3.68505949E-04
  -8.63000011       3.19826504E-04
  -8.61999989       2.55672698E-04
  -8.60999966       1.79244162E-04
  -8.60000038       1.02333346E-04
  -8.59000015       4.27390150E-05
  -8.57999992       1.85733552E-05
  -8.56999969       4.16243493E-05
  -8.56000042       1.12389964E-04
  -8.55000019       2.18838672E-04
  -8.53999996       3.39570921E-04
  -8.52999973       4.50388499E-04
  -8.52000046       5.31958882E-04
  -8.51000023       5.75797691E-04
  -8.50000000       5.86379960E-04
  -8.48999977       5.78612788E-04
  -8.47999954       5.71633165E-04
  -8.47000027       5.81276778E-04
  -8.46000004       6.14063698E-04
  -8.44999981       6.64969848E-04
  -8.43999958       7.19808741E-04
  -8.43000031       7.61274248E-04
  -8.42000008       7.76274595E-04
  -8.40999985       7.61665287E-04
  -8.39999962       7.26082537E-04
  -8.39000034       6.87062857E-04
  -8.38000011       6.64478343E-04
  -8.36999989       6.72784401E-04
  -8.35999966       7.15118658E-04
  -8.35000038       7.81660900E-04
  -8.34000015       8.53077159E-04
  -8.32999992       9.07918205E-04
  -8.31999969       9.31251387E-04
  -8.31000042       9.21207014E-04
  -8.30000019       8.90764291E-04
  -8.28999996       8.63802969E-04
  -8.27999973       8.66581919E-04
  -8.27000046       9.17594531E-04
  -8.26000023       1.01950869E-03
  -8.25000000       1.15630997E-03
  -8.23999977       1.29700627E-03
  -8.22999954       1.40492234E-03
  -8.22000027       1.44955993E-03
  -8.21000004       1.41697284E-03
  -8.19999981       1.31500338E-03
  -8.18999958       1.17142918E-03
  -8.18000031       1.02550583E-03
  -8.17000008       9.15680372E-04
  -8.15999985       8.67592986E-04
  -8.14999962       8.86396389E-04
  -8.14000034       9.55918222E-04
  -8.13000011       1.04482414E-03
  -8.11999989       1.11753074E-03
  -8.10999966       1.14604342E-03
  -8.10000038       1.11867732E-03
  -8.09000015       1.04283530E-03
  -8.07999992       9.41195467E-04
  -8.06999969       8.43000889E-04
  -8.06000042       7.73802574E-04
  -8.05000019       7.47396902E-04
  -8.03999996       7.62705982E-04
  -8.02999973       8.06386292E-04
  -8.02000046       8.59760388E-04
  -8.01000023       9.07075242E-04
  -8.00000000       9.41690989E-04
  -7.98999977       9.67735425E-04
  -7.98000002       9.96630639E-04
  -7.96999979       1.04000606E-03
  -7.96000004       1.10202003E-03
  -7.94999981       1.17444061E-03
  -7.94000006       1.23684981E-03
  -7.92999983       1.26237224E-03
  -7.92000008       1.22715102E-03
  -7.90999985       1.12021656E-03
  -7.90000010       9.50023124E-04
  -7.88999987       7.44953402E-04
  -7.88000011       5.47151081E-04
  -7.86999989       4.01401834E-04
  -7.86000013       3.42577696E-04
  -7.84999990       3.85738706E-04
  -7.84000015       5.22133545E-04
  -7.82999992       7.22334313E-04
  -7.82000017       9.45335720E-04
  -7.80999994       1.15047558E-03
  -7.80000019       1.30820624E-03
  -7.78999996       1.40632864E-03
  -7.78000021       1.45005388E-03
  -7.76999998       1.45650399E-03
  -7.76000023       1.44618307E-03
  -7.75000000       1.43484212E-03
  -7.73999977       1.42872962E-03
  -7.73000002       1.42469991E-03
  -7.71999979       1.41462812E-03
  -7.71000004       1.39187288E-03
  -7.69999981       1.35677902E-03
  -7.69000006       1.31870667E-03
  -7.67999983       1.29358168E-03
  -7.67000008       1.29787915E-03
  -7.65999985       1.34151056E-03
  -7.65000010       1.42264517E-03
  -7.63999987       1.52683409E-03
  -7.63000011       1.63114071E-03
  -7.61999989       1.71198510E-03
  -7.61000013       1.75384711E-03
  -7.59999990       1.75548252E-03
  -7.59000015       1.73110981E-03
  -7.57999992       1.70585420E-03
  -7.57000017       1.70690508E-03
  -7.55999994       1.75352138E-03
  -7.55000019       1.84956926E-03
  -7.53999996       1.98143534E-03
  -7.53000021       2.12222291E-03
  -7.51999998       2.24083639E-03
  -7.51000023       2.31271586E-03
  -7.50000000       2.32832995E-03
  -7.48999977       2.29632063E-03
  -7.48000002       2.24014744E-03
  -7.46999979       2.18946557E-03
  -7.46000004       2.16943375E-03
  -7.44999981       2.19189306E-03
  -7.44000006       2.25166325E-03