  -16.0000000       0.00000000    
  -15.9899998       0.00000000    
  -15.9799995       0.00000000    
  -15.9700003       0.00000000    
  -15.9600000       0.00000000    
  -15.9499998       0.00000000    
  -15.9399996       0.00000000    
  -15.9300003       0.00000000    
  -15.9200001       0.00000000    
  -15.9099998       0.00000000    
  -15.8999996       0.00000000    
  -15.8900003       1.57766589E-40
  -15.8800001       5.47822220E-39
  -15.8699999       1.09835814E-37
  -15.8599997       1.47338440E-36
  -15.8500004       1.43801975E-35
  -15.8400002       1.08947342E-34
  -15.8299999       6.71903296E-34
  -15.8199997       3.49112271E-33
  -15.8100004       1.56702419E-32
  -15.8000002       6.18962016E-32
  -15.7900000       2.18117914E-31
  -15.7799997       6.92750277E-31
  -15.7700005       1.99771522E-30
  -15.7600002       5.25742576E-30
  -15.7500000       1.26647633E-29
  -15.7399998       2.79497002E-29
  -15.7299995       5.64130580E-29
  -15.7200003       1.03589825E-28
  -15.7100000       1.71119104E-28
  -15.6999998       2.48401991E-28
  -15.6899996       2.99947074E-28
  -15.6800003       2.51794588E-28
  -15.6700001      -1.37974855E-29
  -15.6599998      -6.39824454E-28
  -15.6499996      -1.73391762E-27
  -15.6400003      -3.25487938E-27
  -15.6300001      -4.85884122E-27
  -15.6199999      -5.75624908E-27
  -15.6099997      -4.67432365E-27
  -15.6000004      -4.62301157E-29
  -15.5900002       9.46694870E-27
  -15.5799999       2.40867153E-26
  -15.5699997       4.17478133E-26
  -15.5600004       5.68930861E-26
  -15.5500002       5.96676146E-26
  -15.5400000       3.62163145E-26
  -15.5299997      -2.88122170E-26
  -15.5200005      -1.46022258E-25
  -15.5100002      -3.09790164E-25
  -15.5000000      -4.81617924E-25
  -15.4899998      -5.72830064E-25
  -15.4799995      -4.38896816E-25
  -15.4700003       9.35655347E-26
  -15.4600000       1.14324720E-24
  -15.4499998       2.62445937E-24
  -15.4399996       4.06343948E-24
  -15.4300003       4.48087746E-24
  -15.4200001       2.50989823E-24
  -15.4099998      -3.06777968E-24
  -15.3999996      -1.23014662E-23
  -15.3900003      -2.27983231E-23
  -15.3800001      -2.88671026E-23
  -15.3699999      -2.21347696E-23
  -15.3599997       5.32118511E-24
  -15.3500004       5.50807928E-23
  -15.3400002       1.15237016E-22
  -15.3299999       1.55826610E-22
  -15.3199997       1.32403298E-22
  -15.3100004       2.70679456E-24
  -15.3000002      -2.43238482E-22
  -15.2900000      -5.48148671E-22
  -15.2799997      -7.66848379E-22
  -15.2700005      -6.85845465E-22
  -15.2600002      -1.03810700E-22
  -15.2500000       1.02943900E-21
  -15.2399998       2.45784562E-21
  -15.2299995       3.53421924E-21
  -15.2200003       3.31425503E-21
  -15.2100000       9.08355889E-22
  -15.1999998      -3.93176717E-21
  -15.1899996      -1.01774243E-20
  -15.1800003      -1.51897212E-20
  -15.1700001      -1.51089450E-20
  -15.1599998      -6.24831192E-21
  -15.1499996       1.26302474E-20
  -15.1400003       3.78872728E-20
  -15.1300001       5.97356428E-20
  -15.1199999       6.36390564E-20
  -15.1099997       3.53370168E-20
  -15.1000004      -3.10064969E-20
  -15.0900002      -1.24131763E-19
  -15.0799999      -2.11019060E-19
  -15.0699997      -2.41318131E-19
  -15.0600004      -1.63996673E-19
  -15.0500002       4.55509138E-20
  -15.0400000       3.56500187E-19
  -15.0299997       6.66342994E-19
  -15.0200005       8.13603477E-19
  -15.0100002       6.29381049E-19
  -15.0000000       2.22554479E-20
  -14.9899998      -9.29910551E-19
  -14.9799995      -1.92623502E-18
  -14.9700003      -2.47683022E-18
  -14.9600000      -2.05513292E-18
  -14.9499998      -3.53411624E-19
  -14.9399996       2.43620303E-18
  -14.9300003       5.44831237E-18
  -14.9200001       7.22745669E-18
  -14.9099998       6.16396753E-18
  -14.8999996       1.24792582E-18
  -14.8900003      -7.07512890E-18
  -14.8800001      -1.63303899E-17
  -14.8699999      -2.21663079E-17
  -14.8599997      -1.95472109E-17
  -14.8500004      -4.94475790E-18
  -14.8400002       2.10308437E-17
  -14.8299999       5.16286268E-17
  -14.8199997       7.39026122E-17
  -14.8100004       7.16658430E-17
  -14.8000002       3.16169209E-17
  -14.7900000      -4.86208856E-17
  -14.7799997      -1.53351649E-16
  -14.7700005      -2.46360697E-16
  -14.7600002      -2.76730587E-16
  -14.7500000      -1.94483291E-16
  -14.7399998       2.60564606E-17
  -14.7299995       3.61779816E-16
  -14.7200003       7.25522683E-16
  -14.7100000       9.71295222E-16
  -14.6999998       9.27810668E-16
  -14.6899996       4.59633164E-16
  -14.6800003      -4.56864690E-16
  -14.6700001      -1.66782217E-15
  -14.6599998      -2.81893666E-15
  -14.6499996      -3.40484947E-15
  -14.6400003      -2.90413272E-15
  -14.6300001      -9.84036291E-16
  -14.6199999       2.27637775E-15
  -14.6099997       6.22641892E-15
  -14.6000004       9.63962796E-15
  -14.5900002       1.09359086E-14
  -14.5799999       8.64131578E-15
  -14.5699997       2.00791257E-15
  -14.5600004      -8.37981977E-15
  -14.5500002      -2.02534438E-14
  -14.5400000      -2.98069607E-14
  -14.5299997      -3.24917163E-14
  -14.5200005      -2.44217539E-14
  -14.5100002      -4.10153428E-15
  -14.5000000       2.60507964E-14
  -14.4899998       5.90416455E-14
  -14.4799995       8.40878474E-14
  -14.4700003       8.91136665E-14
  -14.4600000       6.46758580E-14
  -14.4499998       8.38898720E-15
  -14.4399996      -7.16089040E-14
  -14.4300003      -1.55784348E-13
  -14.4200001      -2.16182785E-13
  -14.4099998      -2.23510622E-13
  -14.3999996      -1.57147380E-13
  -14.3900003      -1.54151746E-14
  -14.3800001       1.77568626E-13
  -14.3699999       3.72088319E-13
  -14.3599997       5.02289454E-13
  -14.3500004       5.04402564E-13
  -14.3400002       3.39834064E-13
  -14.3299999       1.62151092E-14
  -14.3199997      -4.01864794E-13
  -14.3100004      -7.99392887E-13
  -14.3000002      -1.03736941E-12
  -14.2900000      -9.95180501E-13
  -14.2799997      -6.17908394E-13
  -14.2700005       4.73618371E-14
  -14.2600002       8.42517191E-13
  -14.2500000       1.52725499E-12
  -14.2399998       1.84508355E-12
  -14.2299995       1.61166534E-12
  -14.2200003       7.98352270E-13
  -14.2100000      -4.21565235E-13
  -14.1999998      -1.69072796E-12
  -14.1899996      -2.55910701E-12
  -14.1800003      -2.63267966E-12
  -14.1700001      -1.73691595E-12
  -14.1599998      -3.58511980E-14
  -14.1499996       1.95081494E-12
  -14.1400003       3.46574093E-12
  -14.1300001       3.75654716E-12
  -14.1199999       2.38122239E-12
  -14.1099997      -5.26441087E-13
  -14.1000004      -4.14637725E-12
  -14.0900002      -7.10297706E-12
  -14.0799999      -7.85369252E-12
  -14.0699997      -5.25779073E-12
  -14.0600004       8.42428720E-13
  -14.0500002       9.24609434E-12
  -14.0400000       1.74240448E-11
  -14.0299997       2.20581487E-11
  -14.0200005       2.00331470E-11
  -14.0100002       9.64505038E-12
  -14.0000000      -8.34870888E-12
  -13.9899998      -3.02511488E-11
  -13.9799995      -4.98358819E-11
  -13.9700003      -5.97315461E-11
  -13.9600000      -5.35550666E-11
  -13.9499998      -2.82659417E-11
  -13.9399996       1.39755317E-11
  -13.9300003       6.51532231E-11
  -13.9200001       1.12408742E-10
  -13.9099998       1.40754200E-10
  -13.8999996       1.36995346E-10
  -13.8900003       9.39256728E-11
  -13.8800001       1.36200539E-11
  -13.8699999      -9.12548231E-11
  -13.8599997      -1.98780437E-10
  -13.8500004      -2.81790757E-10
  -13.8400002      -3.13839538E-10
  -13.8299999      -2.75851342E-10
  -13.8199997      -1.61907765E-10
  -13.8100004       1.72637894E-11
  -13.8000002       2.34065711E-10
  -13.7900000       4.47358123E-10
  -13.7799997       6.08925133E-10
  -13.7700005       6.72104761E-10
  -13.7600002       6.01282746E-10
  -13.7500000       3.80848436E-10
  -13.7399998       2.22373023E-11
  -13.7299995      -4.32256980E-10
  -13.7200003      -9.10173492E-10
  -13.7100000      -1.31523858E-09
  -13.6999998      -1.54016488E-09
  -13.6899996      -1.48581092E-09
  -13.6800003      -1.08512566E-09
  -13.6700001      -3.28308020E-10
  -13.6599998       7.16449455E-10
  -13.6499996       1.89364258E-09
  -13.6400003       2.96942115E-09
  -13.6300001       3.66332342E-09
  -13.6199999       3.70251363E-09
  -13.6099997       2.89173863E-09
  -13.6000004       1.18536525E-09
  -13.5900002      -1.25726496E-09
  -13.5799999      -4.05318090E-09
  -13.5699997      -6.62965416E-09
  -13.5600004      -8.31640978E-09
  -13.5500002      -8.48756354E-09
  -13.5400000      -6.72877754E-09
  -13.5299997      -2.99209657E-09
  -13.5200005       2.30497754E-09
  -13.5100002       8.27490876E-09
  -13.5000000       1.36725449E-08
  -13.4899998       1.71211720E-08
  -13.4799995       1.74184578E-08
  -13.4700003       1.38609986E-08
  -13.4600000       6.50948007E-09
  -13.4499998      -3.68305919E-09
  -13.4399996      -1.49364414E-08
  -13.4300003      -2.49194514E-08
  -13.4200001      -3.12038999E-08
  -13.4099998      -3.18135704E-08
  -13.3999996      -2.57483492E-08
  -13.3900003      -1.33522295E-08
  -13.3800001       3.58558472E-09
  -13.3699999       2.20556782E-08
  -13.3599997       3.83648064E-08
  -13.3500004       4.88894010E-08
  -13.3400002       5.08870741E-08
  -13.3299999       4.31758345E-08
  -13.3199997       2.65057825E-08
  -13.3100004       3.51089424E-09
  -13.3000002      -2.17733280E-08
  -13.2900000      -4.47295818E-08
  -13.2799997      -6.11259736E-08
  -13.2700005      -6.79931915E-08
  -13.2600002      -6.41903526E-08
  -13.2500000      -5.05188282E-08
  -13.2399998      -2.93704829E-08
  -13.2299995      -4.03358325E-09
  -13.2200003       2.21147491E-08
  -13.2100000       4.62653205E-08
  -13.1999998       6.64712019E-08
  -13.1899996       8.15009642E-08
  -13.1800003       9.03470365E-08
  -13.1700001       9.16448499E-08
  -13.1599998       8.33404030E-08
  -13.1499996       6.29032897E-08
  -13.1400003       2.82122770E-08
  -13.1300001      -2.10238920E-08
  -13.1199999      -8.17248491E-08
  -13.1099997      -1.46383087E-07
  -13.1000004      -2.03115590E-07
  -13.0900002      -2.37235213E-07
  -13.0799999      -2.34340675E-07
  -13.0699997      -1.84404655E-07
  -13.0600004      -8.58635048E-08
  -13.0500002       5.15482164E-08
  -13.0400000       2.06392286E-07
  -13.0299997       3.48249557E-07
  -13.0200005       4.43483657E-07
  -13.0100002       4.63043591E-07
  -13.0000000       3.90526310E-07
  -12.9899998       2.28336688E-07
  -12.9799995      -2.54445336E-11
  -12.9700003      -2.52728881E-07
  -12.9600000      -4.77366029E-07
  -12.9499998      -6.22266100E-07
  -12.9399996      -6.48812090E-07
  -12.9300003      -5.41694760E-07
  -12.9200001      -3.14331913E-07
  -12.9099998      -7.77432518E-09
  -12.8999996       3.16963138E-07
  -12.8900003       5.91496246E-07
  -12.8800001       7.54639302E-07
  -12.8699999       7.65487869E-07
  -12.8599997       6.12013537E-07
  -12.8500004       3.13452006E-07
  -12.8400002      -8.35299119E-08
  -12.8299999      -5.13323300E-07
  -12.8199997      -9.02015472E-07
  -12.8100004      -1.17766535E-06
  -12.8000002      -1.27858527E-06
  -12.7900000      -1.15937814E-06
  -12.7799997      -7.95753010E-07
  -12.7700005      -1.89678801E-07
  -12.7600002       6.24125619E-07
  -12.7500000       1.57097281E-06
  -12.7399998       2.53098710E-06
  -12.7299995       3.34033348E-06
  -12.7200003       3.80371148E-06
  -12.7100000       3.72128284E-06
  -12.6999998       2.92945697E-06
  -12.6899996       1.34990216E-06
  -12.6800003      -9.63826778E-07
  -12.6700001      -3.79575158E-06
  -12.6599998      -6.76638729E-06
  -12.6499996      -9.36990000E-06
  -12.6400003      -1.10498986E-05
  -12.6300001      -1.13038022E-05
  -12.6199999      -9.79588822E-06
  -12.6099997      -6.45303135E-06
  -12.6000004      -1.51721724E-06
  -12.5900002       4.46383547E-06
  -12.5799999       1.07131009E-05
  -12.5699997       1.63561308E-05
  -12.5600004       2.05811102E-05
  -12.5500002       2.27898199E-05
  -12.5400000       2.27015080E-05
  -12.5299997       2.03814507E-05
  -12.5200005       1.61845910E-05
  -12.5100002       1.06277694E-05
  -12.5000000       4.22525818E-06
  -12.4899998      -2.66451048E-06
  -12.4799995      -9.93286267E-06
  -12.4700003      -1.77210804E-05
  -12.4600000      -2.63179027E-05
  -12.4499998      -3.59759179E-05
  -12.4399996      -4.66957608E-05
  -12.4300003      -5.80429005E-05
  -12.4200001      -6.90601591E-05
  -12.4099998      -7.83191499E-05
  -12.3999996      -8.41190413E-05
  -12.3900003      -8.48002892E-05
  -12.3800001      -7.91052007E-05
  -12.3699999      -6.64971667E-05
  -12.3599997      -4.73525870E-05
  -12.3500004      -2.29659581E-05
  -12.3400002       4.64705272E-06
  -12.3299999       3.31116789E-05
  -12.3199997       6.01390748E-05
  -12.3100004       8.39459899E-05
  -12.3000002       1.03542523E-04
  -12.2900000       1.18811753E-04
  -12.2799997       1.30357788E-04
  -12.2700005       1.39160227E-04
  -12.2600002       1.46126797E-04
  -12.2500000       1.51667831E-04
  -12.2399998       1.55415153E-04
  -12.2299995       1.56174749E-04
  -12.2200003       1.52143228E-04
  -12.2100000       1.41349010E-04
  -12.1999998       1.22216938E-04
  -12.1899996       9.41181206E-05
  -12.1800003       5.77637038E-05
  -12.1700001       1.53342589E-05
  -12.1599998      -2.97024471E-05
  -12.1499996      -7.30596148E-05
  -12.1400003      -1.10293164E-04
  -12.1300001      -1.37520765E-04
  -12.1199999      -1.52051580E-04
  -12.1099997      -1.52804205E-04
  -12.1000004      -1.40441465E-04
  -12.0900002      -1.17214528E-04
  -12.0799999      -8.65683760E-05
  -12.0699997      -5.26025324E-05
  -12.0600004      -1.94956829E-05
  -12.0500002       9.00856412E-06
  -12.0400000       2.99886196E-05
  -12.0299997       4.15770810E-05
  -12.0200005       4.30449436E-05
  -12.0100002       3.47655587E-05
  -12.0000000       1.80907064E-05
  -11.9899998      -4.83733038E-06
  -11.9799995      -3.13263517E-05
  -11.9700003      -5.84248555E-05
  -11.9600000      -8.32572550E-05
  -11.9499998      -1.03383267E-04
  -11.9399996      -1.17138545E-04
  -11.9300003      -1.23893551E-04
  -11.9200001      -1.24161626E-04
  -11.9099998      -1.19501332E-04
  -11.8999996      -1.12197260E-04
  -11.8900003      -1.04756211E-04
  -11.8800001      -9.93123831E-05
  -11.8699999      -9.70751134E-05
  -11.8599997      -9.79623655E-05
  -11.8500004      -1.00533558E-04
  -11.8400002      -1.02270220E-04
  -11.8299999      -1.00165686E-04
  -11.8199997      -9.14990887E-05
  -11.8100004      -7.46084916E-05
  -11.8000002      -4.94626147E-05
  -11.7900000      -1.78689079E-05
  -11.7799997       1.67594699E-05
  -11.7700005       5.00439201E-05
  -11.7600002       7.75461813E-05
  -11.7500000       9.57228476E-05
  -11.7399998       1.02692626E-04
  -11.7299995       9.86234372E-05
  -11.7200003       8.56426414E-05
  -11.7100000       6.72967726E-05
  -11.6999998       4.77043977E-05
  -11.6899996       3.06239053E-05
  -11.6800003       1.86759025E-05
  -11.6700001       1.29122091E-05
  -11.6599998       1.28244474E-05
  -11.6499996       1.67627459E-05
  -11.6400003       2.26242591E-05
  -11.6300001       2.86028499E-05
  -11.6199999       3.37834281E-05
  -11.6099997       3.84173254E-05
  -11.6000004       4.38117531E-05
  -11.5900002       5.18773486E-05
  -11.5799999       6.44713800E-05
  -11.5699997       8.27247204E-05
  -11.5600004       1.06536951E-04
  -11.5500002       1.34370959E-04
  -11.5400000       1.63394900E-04
  -11.5299997       1.89931190E-04
  -11.5200005       2.10104161E-04
  -11.5100002       2.20544840E-04
  -11.5000000       2.19016511E-04
  -11.4899998       2.04858472E-04
  -11.4799995       1.79191600E-04
  -11.4700003       1.44871767E-04
  -11.4600000       1.06205640E-04
  -11.4499998       6.84576589E-05
  -11.4399996       3.71838651E-05
  -11.4300003       1.74409597E-05
  -11.4200001       1.29433256E-05
  -11.4099998       2.52774407E-05
  -11.3999996       5.33195307E-05
  -11.3900003       9.30192909E-05
  -11.3800001       1.37689407E-04
  -11.3699999       1.78866205E-04
  -11.3599997       2.07686448E-04
  -11.3500004       2.16582484E-04
  -11.3400002       2.00972063E-04
  -11.3299999       1.60553667E-04
  -11.3199997       9.98453543E-05
  -11.3100004       2.77363906E-05
  -11.3000002      -4.39654723E-05
  -11.2900000      -1.02759455E-04
  -11.2799997      -1.38001487E-04
  -11.2700005      -1.43208803E-04
  -11.2600002      -1.17567732E-04
  -11.2500000      -6.62571329E-05
  -11.2399998       5.26237500E-07
  -11.2299995       6.96382631E-05
  -11.2200003       1.27679756E-04
  -11.2100000       1.63683784E-04
  -11.1999998       1.71181993E-04
  -11.1899996       1.49206040E-04
  -11.1800003       1.02064798E-04
  -11.1700001       3.80524216E-05
  -11.1599998      -3.25012879E-05
  -11.1499996      -9.93022113E-05
  -11.1400003      -1.53783199E-04
  -11.1300001      -1.90089457E-04
  -11.1199999      -2.05284494E-04
  -11.1099997      -1.98948299E-04
  -11.1000004      -1.72496657E-04
  -11.0900002      -1.28573549E-04
  -11.0799999      -7.07570434E-05
  -11.0699997      -3.62004994E-06
  -11.0600004       6.70206791E-05
  -11.0500002       1.33969821E-04
  -11.0400000       1.88943552E-04
  -11.0299997       2.23464900E-04
  -11.0200005       2.30317324E-04
  -11.0100002       2.05263321E-04
  -11.0000000       1.48561187E-04
  -10.9899998       6.57802084E-05
  -10.9799995      -3.24509274E-05
  -10.9700003      -1.31859342E-04
  -10.9600000      -2.16880188E-04
  -10.9499998      -2.73442245E-04
  -10.9399996      -2.91544216E-04
  -10.9300003      -2.67023686E-04
  -10.9200001      -2.02139709E-04
  -10.9099998      -1.04910221E-04
  -10.8999996       1.25301631E-05
  -10.8900003       1.36065995E-04
  -10.8800001       2.51689402E-04
  -10.8699999       3.47119581E-04
  -10.8599997       4.12772089E-04
  -10.8500004       4.42159915E-04
  -10.8400002       4.31994034E-04
  -10.8299999       3.82286729E-04
  -10.8199997       2.96635233E-04
  -10.8100004       1.82630785E-04
  -10.8000002       5.20984322E-05
  -10.7900000      -7.92596911E-05
  -10.7799997      -1.93193380E-04
  -10.7700005      -2.71331257E-04
  -10.7600002      -2.98448664E-04
  -10.7500000      -2.65929149E-04
  -10.7399998      -1.74522342E-04
  -10.7299995      -3.55025149E-05
  -10.7200003       1.30370900E-04
  -10.7100000       2.96158687E-04
  -10.6999998       4.33757814E-04
  -10.6899996       5.19544061E-04
  -10.6800003       5.39296365E-04
  -10.6700001       4.91163228E-04
  -10.6599998       3.85891850E-04
  -10.6499996       2.44238909E-04
  -10.6400003       9.22141480E-05
  -10.6300001      -4.46311933E-05
  -10.6199999      -1.46440041E-04
  -10.6099997      -2.02555253E-04
  -10.6000004      -2.12558807E-04
  -10.5900002      -1.84802950E-04
  -10.5799999      -1.33057038E-04
  -10.5699997      -7.23385092E-05
  -10.5600004      -1.51065124E-05
  -10.5500002       3.12335360E-05
  -10.5400000       6.50386210E-05
  -10.5299997       8.94272453E-05
  -10.5200005       1.10107343E-04
  -10.5100002       1.32816902E-04
  -10.5000000       1.61149146E-04
  -10.4899998       1.95306828E-04
  -10.4799995       2.31990634E-04
  -10.4700003       2.65296578E-04
  -10.4600000       2.88269104E-04
  -10.4499998       2.94669822E-04
  -10.4399996       2.80559121E-04
  -10.4300003       2.45394942E-04
  -10.4200001       1.92473395E-04
  -10.4099998       1.28630680E-04
  -10.3999996       6.32054580E-05
  -10.3900003       6.34462413E-06
  -10.3800001      -3.31402116E-05
  -10.3699999      -4.99963571E-05
  -10.3599997      -4.43108875E-05
  -10.3500004      -2.22561994E-05
  -10.3400002       4.69129145E-06
  -10.3299999       2.22370873E-05
  -10.3199997       1.71462943E-05
  -10.3100004      -1.83426582E-05
  -10.3000002      -8.28311677E-05
  -10.2900000      -1.64146331E-04
  -10.2799997      -2.40788984E-04
  -10.2700005      -2.86657945E-04
  -10.2600002      -2.78249179E-04
  -10.2500000      -2.02573225E-04
  -10.2399998      -6.34747630E-05
  -10.2299995       1.15871306E-04
  -10.2200003       2.95695907E-04
  -10.2100000       4.27629915E-04
  -10.1999998       4.66403377E-04
  -10.1899996       3.82395054E-04
  -10.1800003       1.71598032E-04
  -10.1700001      -1.40044489E-04
  -10.1599998      -4.99651593E-04
  -10.1499996      -8.37554631E-04
  -10.1400003      -1.08238228E-03
  -10.1300001      -1.17741269E-03
  -10.1199999      -1.09404698E-03
  -10.1099997      -8.38924898E-04
  -10.1000004      -4.52852575E-04
  -10.0900002      -1.86276054E-06
  -10.0799999       4.37242677E-04
  -10.0699997       7.93184910E-04
  -10.0600004       1.01437094E-03
  -10.0500002       1.07776525E-03
  -10.0400000       9.90891946E-04
  -10.0299997       7.87250465E-04
  -10.0200005       5.16996719E-04
  -10.0100002       2.35622720E-04
  -10.0000000      -6.62211960E-06
  -9.98999977      -1.72535729E-04
  -9.97999954      -2.42065202E-04
  -9.97000027      -2.12853527E-04
  -9.96000004      -9.80954646E-05
  -9.94999981       7.72177809E-05
  -9.93999958       2.80793174E-04
  -9.93000031       4.77793743E-04
  -9.92000008       6.35690754E-04
  -9.90999985       7.29074469E-04
  -9.89999962       7.44031684E-04
  -9.89000034       6.81319390E-04
  -9.88000011       5.57319378E-04
  -9.86999989       4.01896337E-04
  -9.85999966       2.52889702E-04
  -9.85000038       1.47928615E-04
  -9.84000015       1.15270333E-04
  -9.82999992       1.66021957E-04
  -9.81999969       2.90098629E-04
  -9.81000042       4.57480870E-04
  -9.80000019       6.24920591E-04
  -9.78999996       7.46621517E-04
  -9.77999973       7.86113436E-04
  -9.77000046       7.26014434E-04
  -9.76000023       5.72857622E-04
  -9.75000000       3.55546101E-04
  -9.73999977       1.17872201E-04
  -9.72999954      -9.26972571E-05
  -9.72000027      -2.36688211E-04
  -9.71000004      -2.91415548E-04
  -9.69999981      -2.54589570E-04
  -9.68999958      -1.42121280E-04
  -9.68000031       1.86540437E-05
  -9.67000008       1.97771777E-04
  -9.65999985       3.70464259E-04
  -9.64999962       5.21636335E-04
  -9.64000034       6.45986525E-04
  -9.63000011       7.44410907E-04
  -9.61999989       8.18637200E-04
  -9.60999966       8.66563118E-04
  -9.60000038       8.80354142E-04
  -9.59000015       8.48178868E-04
  -9.57999992       7.58974114E-04
  -9.56999969       6.08393748E-04
  -9.56000042       4.03554674E-04
  -9.55000019       1.64545112E-04
  -9.53999996      -7.82372372E-05
  -9.52999973      -2.90391297E-04
  -9.52000046      -4.41649347E-04
  -9.51000023      -5.13361825E-04
  -9.50000000      -5.03019488E-04
  -9.48999977      -4.24440688E-04
  -9.47999954      -3.03617242E-04
  -9.47000027      -1.71543259E-04
  -9.46000004      -5.62007590E-05
  -9.44999981       2.39940036E-05
  -9.43999958       6.35716715E-05
  -9.43000031       6.95722920E-05
  -9.42000008       5.78079053E-05
  -9.40999985       4.72266256E-05
  -9.39999962       5.41412228E-05
  -9.39000034       8.78810679E-05
  -9.38000011       1.48799503E-04
  -9.36999989       2.28783334E-04
  -9.35999966       3.13738215E-04
  -9.35000038       3.87143024E-04
  -9.34000015       4.33724286E-04
  -9.32999992       4.42520366E-04
  -9.31999969       4.08926804E-04
  -9.31000042       3.35597782E-04
  -9.30000019       2.32244827E-04
  -9.28999996       1.14426999E-04
  -9.27999973       1.43667762E-06
  -9.27000046      -8.65603797E-05
  -9.26000023      -1.31835113E-04
  -9.25000000      -1.22366691E-04
  -9.23999977      -5.44314462E-05
  -9.22999954       6.61517042E-05
  -9.22000027       2.24584859E-04
  -9.21000004       3.99534823E-04
  -9.19999981       5.67038776E-04
  -9.18999958       7.05025624E-04
  -9.18000031       7.97398854E-04
  -9.17000008       8.36722436E-04
  -9.15999985       8.24932475E-04
  -9.14999962       7.72041327E-04
  -9.14000034       6.93323382E-04
  -9.13000011       6.05809211E-04
  -9.11999989       5.24970121E-04
  -9.10999966       4.62264143E-04
  -9.10000038       4.23855003E-04
  -9.09000015       4.10459237E-04
  -9.07999992       4.18053096E-04
  -9.06999969       4.39133786E-04
  -9.06000042       4.64327633E-04
  -9.05000019       4.84260003E-04
  -9.03999996       4.91624174E-04
  -9.02999973       4.83263982E-04
  -9.02000046       4.61850053E-04
  -9.01000023       4.36528964E-04
  -9.00000000       4.21916979E-04
  -8.98999977       4.35109920E-04
  -8.97999954       4.90973936E-04
  -8.97000027       5.96705999E-04
  -8.96000004       7.47228740E-04
  -8.94999981       9.23139160E-04
  -8.93999958       1.09248981E-03
  -8.93000031       1.21668132E-03
  -8.92000008       1.25944521E-03
  -8.90999985       1.19671586E-03
  -8.89999962       1.02457276E-03
  -8.89000034       7.62669079E-04
  -8.88000011       4.51677333E-04
  -8.86999989       1.44980804E-04
  -8.85999966      -1.03389473E-04
  -8.85000038      -2.51328864E-04
  -8.84000015      -2.78225954E-04
  -8.82999992      -1.88838370E-04
  -8.81999969      -1.04983665E-05
  -8.81000042       2.15298962E-04
  -8.80000019       4.44188539E-04
  -8.78999996       6.39603881E-04
  -8.77999973       7.79715483E-04
  -8.77000046       8.58956948E-04
  -8.76000023       8.84385139E-04
  -8.75000000       8.68872099E-04
  -8.73999977       8.24078161E-04
  -8.72999954       7.55981833E-04
  -8.72000027       6.64533174E-04
  -8.71000004       5.47225529E-04
  -8.69999981       4.04730526E-04
  -8.68999958       2.45849194E-04
  -8.68000031       8.92426760E-05
  -8.67000008      -3.93362025E-05
  -8.65999985      -1.13765127E-04
  -8.64999962      -1.15991825E-04
  -8.64000034      -4.30544387E-05
  -8.63000011       9.01712338E-05
  -8.61999989       2.53955426E-04
  -8.60999966       4.11852758E-04
  -8.60000038       5.31490718E-04
  -8.59000015       5.94407204E-04
  -8.57999992       6.01508946E-04
  -8.56999969       5.72145858E-04
  -8.56000042       5.36990410E-04
  -8.55000019       5.27097378E-04
  -8.53999996       5.62906964E-04
  -8.52999973       6.47021050E-04
  -8.52000046       7.63286254E-04
  -8.51000023       8.82495777E-04
  -8.50000000       9.72672191E-04
  -8.48999977       1.01025472E-03
  -8.47999954       9.88197047E-04
  -8.47000027       9.18099657E-04
  -8.46000004       8.25669966E-04
  -8.44999981       7.41241907E-04
  -8.43999958       6.88897038E-04
  -8.43000031       6.78255863E-04
  -8.42000008       7.02029618E-04
  -8.40999985       7.40283518E-04
  -8.39999962       7.69832288E-04
  -8.39000034       7.75187335E-04
  -8.38000011       7.56769150E-04
  -8.36999989       7.32961809E-04
  -8.35999966       7.34761823E-04
  -8.35000038       7.94502557E-04
  -8.34000015       9.32439696E-04
  -8.32999992       1.14601001E-03
  -8.31999969       1.40592142E-03
  -8.31000042       1.66106713E-03
  -8.30000019       1.85129244E-03
  -8.28999996       1.92431058E-03
  -8.27999973       1.85149675E-03
  -8.27000046       1.63747906E-03
  -8.26000023       1.32033718E-03
  -8.25000000       9.62204591E-04
  -8.23999977       6.33136719E-04
  -8.22999954       3.93224298E-04
  -8.22000027       2.78385123E-04
  -8.21000004       2.93920108E-04
  -8.19999981       4.17260919E-04
  -8.18999958       6.08297007E-04
  -8.18000031       8.23293813E-04
  -8.17000008       1.02751108E-03
  -8.15999985       1.20246294E-03
  -8.14999962       1.34597672E-03
  -8.14000034       1.46597193E-03
  -8.13000011       1.57116971E-03
  -8.11999989       1.66292768E-03
  -8.10999966       1.73173379E-03
  -8.10000038       1.75987813E-03
  -8.09000015       1.72921363E-03
  -8.07999992       1.63074292E-03
  -8.06999969       1.47186860E-03
  -8.06000042       1.27789297E-03
  -8.05000019       1.08649803E-03
  -8.03999996       9.36681987E-04
  -8.02999973       8.55944585E-04
  -8.02000046       8.50467477E-04
  -8.01000023       9.02228232E-04
  -8.00000000       9.74623603E-04
  -7.98999977       1.02509430E-03
  -7.98000002       1.02056109E-03
  -7.96999979       9.50216607E-04
  -7.96000004       8.30902834E-04
  -7.94999981       7.02765072E-04
  -7.94000006       6.16275938E-04
  -7.92999983       6.14856661E-04
  -7.92000008       7.19052507E-04
  -7.90999985       9.17866360E-04
  -7.90000010       1.17049122E-03
  -7.88999987       1.41810952E-03
  -7.88000011       1.60191266E-03
  -7.86999989       1.68128754E-03
  -7.86000013       1.64601870E-03
  -7.84999990       1.51843345E-03
  -7.84000015       1.34494214E-03
  -7.82999992       1.18011702E-03
  -7.82000017       1.06899999E-03
  -7.80999994       1.03382173E-03
  -7.80000019       1.06956263E-03
  -7.78999996       1.14946754E-03
  -7.78000021       1.23796915E-03
  -7.76999998       1.30581774E-03
  -7.76000023       1.34154444E-03
  -7.75000000       1.35493593E-03
  -7.73999977       1.37136457E-03
  -7.73000002       1.41939777E-03
  -7.71999979       1.51673541E-03
  -7.71000004       1.66020531E-03
  -7.69999981       1.82400935E-03
  -7.69000006       1.96723780E-03
  -7.67999983       2.04807147E-03
  -7.67000008       2.03942973E-03
  -7.65999985       1.94014062E-03
  -7.65000010       1.77727023E-03
  -7.63999987       1.59847864E-03
  -7.63000011       1.45697861E-03
  -7.61999989       1.39441935E-03
  -7.61000013       1.42780272E-03
  -7.59999990       1.54504541E-03
  -7.59000015       1.71058800E-03
  -7.57999992       1.87876285E-03
  -7.57000017       2.00984487E-03
  -7.55999994       2.08287127E-03
  -7.55000019       2.10072706E-03
  -7.53999996       2.08605779E-03
  -7.53000021       2.07011634E-03
  -7.51999998       2.07927078E-03
  -7.51000023       2.12461082E-03
  -7.50000000       2.19864119E-03
  -7.48999977       2.28005159E-03
  -7.48000002       2.34421948E-03
  -7.46999979       2.37478875E-03
  -7.46000004       2.37128488E-03
  -7.44999981       2.34944234E-03
  -7.44000006       2.33403337E-03