  -16.0000000       0.00000000    
  -15.9899998       0.00000000    
  -15.9799995       0.00000000    
  -15.9700003       0.00000000    
  -15.9600000       0.00000000    
  -15.9499998       0.00000000    
  -15.9399996       0.00000000    
  -15.9300003       0.00000000    
  -15.9200001       0.00000000    
  -15.9099998       0.00000000    
  -15.8999996      -6.48940955E-35
  -15.8900003      -1.26912009E-33
  -15.8800001      -1.27054115E-32
  -15.8699999      -8.66828930E-32
  -15.8599997      -4.52559024E-31
  -15.8500004      -1.92429685E-30
  -15.8400002      -6.92295831E-30
  -15.8299999      -2.16050310E-29
  -15.8199997      -5.94619796E-29
  -15.8100004      -1.45830633E-28
  -15.8000002      -3.20270522E-28
  -15.7900000      -6.29037609E-28
  -15.7799997      -1.09298758E-27
  -15.7700005      -1.62901953E-27
  -15.7600002      -1.90019644E-27
  -15.7500000      -1.07843381E-27
  -15.7399998       2.46700744E-27
  -15.7299995       1.14857347E-26
  -15.7200003       3.00167799E-26
  -15.7100000       6.31751367E-26
  -15.6999998       1.16257057E-25
  -15.6899996       1.92889372E-25
  -15.6800003       2.92105653E-25
  -15.6700001       4.04556518E-25
  -15.6599998       5.08532379E-25
  -15.6499996       5.66997326E-25
  -15.6400003       5.27223797E-25
  -15.6300001       3.24645376E-25
  -15.6199999      -1.08005375E-25
  -15.6099997      -8.26448747E-25
  -15.6000004      -1.85750021E-24
  -15.5900002      -3.18264670E-24
  -15.5799999      -4.72821809E-24
  -15.5699997      -6.36827372E-24
  -15.5600004      -7.94492583E-24
  -15.5500002      -9.30732964E-24
  -15.5400000      -1.03652797E-23
  -15.5299997      -1.11474061E-23
  -15.5200005      -1.18489992E-23
  -15.5100002      -1.28524563E-23
  -15.5000000      -1.47058614E-23
  -15.4899998      -1.80527726E-23
  -15.4799995      -2.35180988E-23
  -15.4700003      -3.15685063E-23
  -15.4600000      -4.23774437E-23
  -15.4499998      -5.57307510E-23
  -15.4399996      -7.10057992E-23
  -15.4300003      -8.72444820E-23
  -15.4200001      -1.03319719E-22
  -15.4099998      -1.18171149E-22
  -15.3999996      -1.31064797E-22
  -15.3900003      -1.41819823E-22
  -15.3800001      -1.50947764E-22
  -15.3699999      -1.59666394E-22
  -15.3599997      -1.69778594E-22
  -15.3500004      -1.83438585E-22
  -15.3400002      -2.02854963E-22
  -15.3299999      -2.29993747E-22
  -15.3199997      -2.66341025E-22
  -15.3100004      -3.12763356E-22
  -15.3000002      -3.69473140E-22
  -15.2900000      -4.36074432E-22
  -15.2799997      -5.11643521E-22
  -15.2700005      -5.94797185E-22
  -15.2600002      -6.83720009E-22
  -15.2500000      -7.76157140E-22
  -15.2399998      -8.69414787E-22
  -15.2299995      -9.60439692E-22
  -15.2200003      -1.04604854E-21
  -15.2100000      -1.12335308E-21
  -15.1999998      -1.19036854E-21
  -15.1899996      -1.24672809E-21
  -15.1800003      -1.29436105E-21
  -15.1700001      -1.33795676E-21
  -15.1599998      -1.38504426E-21
  -15.1499996      -1.44557254E-21
  -15.1400003      -1.53096864E-21
  -15.1300001      -1.65276513E-21
  -15.1199999      -1.82099005E-21
  -15.1099997      -2.04258399E-21
  -15.1000004      -2.32011702E-21
  -15.0900002      -2.65103167E-21
  -15.0799999      -3.02754041E-21
  -15.0699997      -3.43718061E-21
  -15.0600004      -3.86391695E-21
  -15.0500002      -4.28959548E-21
  -15.0400000      -4.69554043E-21
  -15.0299997      -5.06410674E-21
  -15.0200005      -5.38009216E-21
  -15.0100002      -5.63199814E-21
  -15.0000000      -5.81319230E-21
  -14.9899998      -5.92303283E-21
  -14.9799995      -5.96796958E-21
  -14.9700003      -5.96249759E-21
  -14.9600000      -5.92971046E-21
  -14.9499998      -5.90107822E-21
  -14.9399996      -5.91506072E-21
  -14.9300003      -6.01425292E-21
  -14.9200001      -6.24102077E-21
  -14.9099998      -6.63193389E-21
  -14.8999996      -7.21169097E-21
  -14.8900003      -7.98756538E-21
  -14.8800001      -8.94553019E-21
  -14.8699999      -1.00491353E-20
  -14.8599997      -1.12417828E-20
  -14.8500004      -1.24524561E-20
  -14.8400002      -1.36042001E-20
  -14.8299999      -1.46239813E-20
  -14.8199997      -1.54521345E-20
  -14.8100004      -1.60495722E-20
  -14.8000002      -1.64013226E-20
  -14.7900000      -1.65157450E-20
  -14.7799997      -1.64197371E-20
  -14.7700005      -1.61512572E-20
  -14.7600002      -1.57510278E-20
  -14.7500000      -1.52555386E-20
  -14.7399998      -1.46930364E-20
  -14.7299995      -1.40832944E-20
  -14.7200003      -1.34409240E-20
  -14.7100000      -1.27808258E-20
  -14.6999998      -1.21238004E-20
  -14.6899996      -1.15001668E-20
  -14.6800003      -1.09497662E-20
  -14.6700001      -1.05177776E-20
  -14.6599998      -1.02469551E-20
  -14.6499996      -1.01680111E-20
  -14.6400003      -1.02904814E-20
  -14.6300001      -1.05963614E-20
  -14.6199999      -1.10381283E-20
  -14.6099997      -1.15416075E-20
  -14.6000004      -1.20128920E-20
  -14.5900002      -1.23475536E-20
  -14.5799999      -1.24399014E-20
  -14.5699997      -1.21903174E-20
  -14.5600004      -1.15095114E-20
  -14.5500002      -1.03196638E-20
  -14.5400000      -8.55352332E-21
  -14.5299997      -6.15317686E-21
  -14.5200005      -3.07026381E-21
  -14.5100002       7.31224228E-22
  -14.5000000       5.26946604E-21
  -14.4899998       1.05377624E-20
  -14.4799995       1.64979299E-20
  -14.4700003       2.30764860E-20
  -14.4600000       3.01655903E-20
  -14.4499998       3.76297256E-20
  -14.4399996       4.53177587E-20
  -14.4300003       5.30786354E-20
  -14.4200001       6.07782006E-20
  -14.4099998       6.83142166E-20
  -14.3999996       7.56272558E-20
  -14.3900003       8.27061576E-20
  -14.3800001       8.95879966E-20
  -14.3699999       9.63538881E-20
  -14.3599997       1.03122513E-19
  -14.3500004       1.10043676E-19
  -14.3400002       1.17293552E-19
  -14.3299999       1.25072397E-19
  -14.3199997       1.33604494E-19
  -14.3100004       1.43138952E-19
  -14.3000002       1.53949621E-19
  -14.2900000       1.66332528E-19
  -14.2799997       1.80599403E-19
  -14.2700005       1.97067406E-19
  -14.2600002       2.16045902E-19
  -14.2500000       2.37822129E-19
  -14.2399998       2.62648172E-19
  -14.2299995       2.90731651E-19
  -14.2200003       3.22231568E-19
  -14.2100000       3.57260625E-19
  -14.1999998       3.95892700E-19
  -14.1899996       4.38174838E-19
  -14.1800003       4.84141781E-19
  -14.1700001       5.33829280E-19
  -14.1599998       5.87286344E-19
  -14.1499996       6.44583387E-19
  -14.1400003       7.05816880E-19
  -14.1300001       7.71110175E-19
  -14.1199999       8.40612526E-19
  -14.1099997       9.14496040E-19
  -14.1000004       9.92952881E-19
  -14.0900002       1.07619207E-18
  -14.0799999       1.16443755E-18
  -14.0699997       1.25792571E-18
  -14.0600004       1.35690294E-18
  -14.0500002       1.46162432E-18
  -14.0400000       1.57235382E-18
  -14.0299997       1.68936451E-18
  -14.0200005       1.81294250E-18
  -14.0100002       1.94339116E-18
  -14.0000000       2.08103815E-18
  -13.9899998       2.22623813E-18
  -13.9799995       2.37937324E-18
  -13.9700003       2.54084469E-18
  -13.9600000       2.71105447E-18
  -13.9499998       2.89037648E-18
  -13.9399996       3.07912110E-18
  -13.9300003       3.27749638E-18
  -13.9200001       3.48556994E-18
  -13.9099998       3.70324418E-18
  -13.8999996       3.93024115E-18
  -13.8900003       4.16611129E-18
  -13.8800001       4.41025654E-18
  -13.8699999       4.66196718E-18
  -13.8599997       4.92046898E-18
  -13.8500004       5.18496578E-18
  -13.8400002       5.45467959E-18
  -13.8299999       5.72887136E-18
  -13.8199997       6.00685326E-18
  -13.8100004       6.28798217E-18
  -13.8000002       6.57164846E-18
  -13.7900000       6.85725449E-18
  -13.7799997       7.14420013E-18
  -13.7700005       7.43186708E-18
  -13.7600002       7.71960765E-18
  -13.7500000       8.00674768E-18
  -13.7399998       8.29257829E-18
  -13.7299995       8.57635666E-18
  -13.7200003       8.85730111E-18
  -13.7100000       9.13458694E-18
  -13.6999998       9.40733155E-18
  -13.6899996       9.67459029E-18
  -13.6800003       9.93534657E-18
  -13.6700001       1.01885126E-17
  -13.6599998       1.04329321E-17
  -13.6499996       1.06673956E-17
  -13.6400003       1.08906566E-17
  -13.6300001       1.11014537E-17
  -13.6199999       1.12985344E-17
  -13.6099997       1.14806804E-17
  -13.6000004       1.16467287E-17
  -13.5900002       1.17955889E-17
  -13.5799999       1.19262636E-17
  -13.5699997       1.20378552E-17
  -13.5600004       1.21295788E-17
  -13.5500002       1.22007569E-17
  -13.5400000       1.22508170E-17
  -13.5299997       1.22792820E-17
  -13.5200005       1.22857439E-17
  -13.5100002       1.22698430E-17
  -13.5000000       1.22312376E-17
  -13.4899998       1.21695746E-17
  -13.4799995       1.20844594E-17
  -13.4700003       1.19754403E-17
  -13.4600000       1.18419995E-17
  -13.4499998       1.16835465E-17
  -13.4399996       1.14994425E-17
  -13.4300003       1.12890103E-17
  -13.4200001       1.10515747E-17
  -13.4099998       1.07864914E-17
  -13.3999996       1.04931839E-17
  -13.3900003       1.01711758E-17
  -13.3800001       9.82011452E-18
  -13.3699999       9.43979094E-18
  -13.3599997       9.03015042E-18
  -13.3500004       8.59129802E-18
  -13.3400002       8.12349347E-18
  -13.3299999       7.62713961E-18
  -13.3199997       7.10277989E-18
  -13.3100004       6.55108310E-18
  -13.3000002       5.97281560E-18
  -13.2900000       5.36882859E-18
  -13.2799997       4.74004352E-18
  -13.2700005       4.08742945E-18
  -13.2600002       3.41198230E-18
  -13.2500000       2.71472633E-18
  -13.2399998       1.99670895E-18
  -13.2299995       1.25899505E-18
  -13.2200003       5.02681329E-19
  -13.2100000      -2.71090144E-19
  -13.1999998      -1.06111566E-18
  -13.1899996      -1.86611636E-18
  -13.1800003      -2.68472966E-18
  -13.1700001      -3.51551140E-18
  -13.1599998      -4.35694020E-18
  -13.1499996      -5.20743117E-18
  -13.1400003      -6.06535892E-18
  -13.1300001      -6.92908685E-18
  -13.1199999      -7.79697881E-18
  -13.1099997      -8.66744413E-18
  -13.1000004      -9.53895087E-18
  -13.0900002      -1.04100407E-17
  -13.0799999      -1.12793571E-17
  -13.0699997      -1.21456633E-17
  -13.0600004      -1.30078668E-17
  -13.0500002      -1.38650451E-17
  -13.0400000      -1.47164811E-17
  -13.0299997      -1.55616943E-17
  -13.0200005      -1.64004604E-17
  -13.0100002      -1.72328291E-17
  -13.0000000      -1.80591593E-17
  -12.9899998      -1.88801146E-17
  -12.9799995      -1.96966643E-17
  -12.9700003      -2.05100872E-17
  -12.9600000      -2.13219749E-17
  -12.9499998      -2.21342166E-17
  -12.9399996      -2.29490309E-17
  -12.9300003      -2.37689555E-17
  -12.9200001      -2.45968624E-17
  -12.9099998      -2.54359875E-17
  -12.8999996      -2.62899323E-17
  -12.8900003      -2.71627055E-17
  -12.8800001      -2.80587042E-17
  -12.8699999      -2.89827212E-17
  -12.8599997      -2.99399809E-17
  -12.8500004      -3.09360917E-17
  -12.8400002      -3.19770588E-17
  -12.8299999      -3.30692681E-17
  -12.8199997      -3.42194991E-17
  -12.8100004      -3.54348855E-17
  -12.8000002      -3.67229480E-17
  -12.7900000      -3.80915878E-17
  -12.7799997      -3.95490668E-17
  -12.7700005      -4.11040307E-17
  -12.7600002      -4.27655057E-17
  -12.7500000      -4.45428885E-17
  -12.7399998      -4.64459565E-17
  -12.7299995      -4.84848310E-17
  -12.7200003      -5.06699642E-17
  -12.7100000      -5.30121393E-17
  -12.6999998      -5.55224274E-17
  -12.6899996      -5.82121474E-17
  -12.6800003      -6.10928270E-17
  -12.6700001      -6.41761792E-17
  -12.6599998      -6.74740556E-17
  -12.6499996      -7.09983678E-17
  -12.6400003      -7.47610536E-17
  -12.6300001      -7.87739979E-17
  -12.6199999      -8.30490261E-17
  -12.6099997      -8.75978644E-17
  -12.6000004      -9.24320799E-17
  -12.5900002      -9.75630680E-17
  -12.5799999      -1.03002025E-16
  -12.5699997      -1.08759917E-16
  -12.5600004      -1.14847397E-16
  -12.5500002      -1.21274816E-16
  -12.5400000      -1.28052165E-16
  -12.5299997      -1.35188999E-16
  -12.5200005      -1.42694347E-16
  -12.5100002      -1.50576663E-16
  -12.5000000      -1.58843877E-16
  -12.4899998      -1.67503267E-16
  -12.4799995      -1.76561424E-16
  -12.4700003      -1.86024264E-16
  -12.4600000      -1.95897002E-16
  -12.4499998      -2.06184125E-16
  -12.4399996      -2.16889271E-16
  -12.4300003      -2.28015261E-16
  -12.4200001      -2.39563999E-16
  -12.4099998      -2.51536466E-16
  -12.3999996      -2.63932687E-16
  -12.3900003      -2.76751578E-16
  -12.3800001      -2.89990941E-16
  -12.3699999      -3.03647415E-16
  -12.3599997      -3.17716447E-16
  -12.3500004      -3.32192134E-16
  -12.3400002      -3.47067356E-16
  -12.3299999      -3.62333537E-16
  -12.3199997      -3.77980644E-16
  -12.3100004      -3.93997164E-16
  -12.3000002      -4.10370072E-16
  -12.2900000      -4.27084653E-16
  -12.2799997      -4.44124626E-16
  -12.2700005      -4.61471967E-16
  -12.2600002      -4.79106769E-16
  -12.2500000      -4.97007593E-16
  -12.2399998      -5.15150933E-16
  -12.2299995      -5.33511484E-16
  -12.2200003      -5.52061876E-16
  -12.2100000      -5.70772781E-16
  -12.1999998      -5.89612752E-16
  -12.1899996      -6.08547909E-16
  -12.1800003      -6.27542358E-16
  -12.1700001      -6.46557930E-16
  -12.1599998      -6.65554127E-16
  -12.1499996      -6.84487960E-16
  -12.1400003      -7.03314061E-16
  -12.1300001      -7.21984573E-16
  -12.1199999      -7.40449256E-16
  -12.1099997      -7.58655224E-16
  -12.1000004      -7.76547259E-16
  -12.0900002      -7.94067289E-16
  -12.0799999      -8.11154802E-16
  -12.0699997      -8.27746589E-16
  -12.0600004      -8.43776688E-16
  -12.0500002      -8.59176329E-16
  -12.0400000      -8.73874098E-16
  -12.0299997      -8.87795455E-16
  -12.0200005      -9.00863267E-16
  -12.0100002      -9.12997120E-16
  -12.0000000      -9.24113687E-16
  -11.9899998      -9.34126357E-16
  -11.9799995      -9.42945347E-16
  -11.9700003      -9.50477375E-16
  -11.9600000      -9.56625882E-16
  -11.9499998      -9.61290704E-16
  -11.9399996      -9.64367975E-16
  -11.9300003      -9.65750544E-16
  -11.9200001      -9.65327345E-16
  -11.9099998      -9.62983499E-16
  -11.8999996      -9.58600739E-16
  -11.8900003      -9.52056880E-16
  -11.8800001      -9.43226032E-16
  -11.8699999      -9.31978493E-16
  -11.8599997      -9.18180750E-16
  -11.8500004      -9.01695689E-16
  -11.8400002      -8.82382173E-16
  -11.8299999      -8.60095519E-16
  -11.8199997      -8.34686966E-16
  -11.8100004      -8.06004207E-16
  -11.8000002      -7.73891176E-16
  -11.7900000      -7.38188102E-16
  -11.7799997      -6.98731295E-16
  -11.7700005      -6.55353574E-16
  -11.7600002      -6.07883888E-16
  -11.7500000      -5.56147645E-16
  -11.7399998      -4.99966438E-16
  -11.7299995      -4.39158181E-16
  -11.7200003      -3.73537348E-16
  -11.7100000      -3.02914652E-16
  -11.6999998      -2.27097606E-16
  -11.6899996      -1.45890149E-16
  -11.6800003      -5.90929690E-17
  -11.6700001       3.34964043E-17
  -11.6599998       1.32083393E-16
  -11.6499996       2.36876496E-16
  -11.6400003       3.48087184E-16
  -11.6300001       4.65929372E-16
  -11.6199999       5.90619769E-16
  -11.6099997       7.22377120E-16
  -11.6000004       8.61422555E-16
  -11.5900002       1.00797895E-15
  -11.5799999       1.16227098E-15
  -11.5699997       1.32452469E-15
  -11.5600004       1.49496720E-15
  -11.5500002       1.67382625E-15
  -11.5400000       1.86133055E-15
  -11.5299997       2.05770900E-15
  -11.5200005       2.26319051E-15
  -11.5100002       2.47800378E-15
  -11.5000000       2.70237646E-15
  -11.4899998       2.93653575E-15
  -11.4799995       3.18070697E-15
  -11.4700003       3.43511417E-15
  -11.4600000       3.69997925E-15
  -11.4499998       3.97552161E-15
  -11.4399996       4.26195724E-15
  -11.4300003       4.55949831E-15
  -11.4200001       4.86835490E-15
  -11.4099998       5.18873113E-15
  -11.3999996       5.52082777E-15
  -11.3900003       5.86483919E-15
  -11.3800001       6.22095555E-15
  -11.3699999       6.58935813E-15
  -11.3599997       6.97022311E-15
  -11.3500004       7.36371904E-15
  -11.3400002       7.77000687E-15
  -11.3299999       8.18923735E-15
  -11.3199997       8.62155281E-15
  -11.3100004       9.06708705E-15
  -11.3000002       9.52596122E-15
  -11.2900000       9.99828458E-15
  -11.2799997       1.04841554E-14
  -11.2700005       1.09836609E-14
  -11.2600002       1.14968748E-14
  -11.2500000       1.20238538E-14
  -11.2399998       1.25646453E-14
  -11.2299995       1.31192766E-14
  -11.2200003       1.36877594E-14
  -11.2100000       1.42700894E-14
  -11.1999998       1.48662482E-14
  -11.1899996       1.54761932E-14
  -11.1800003       1.60998669E-14
  -11.1700001       1.67371898E-14
  -11.1599998       1.73880651E-14
  -11.1499996       1.80523677E-14
  -11.1400003       1.87299551E-14
  -11.1300001       1.94206630E-14
  -11.1199999       2.01243017E-14
  -11.1099997       2.08406511E-14
  -11.1000004       2.15694738E-14
  -11.0900002       2.23105022E-14
  -11.0799999       2.30634383E-14
  -11.0699997       2.38279635E-14
  -11.0600004       2.46037254E-14
  -11.0500002       2.53903394E-14
  -11.0400000       2.61873975E-14
  -11.0299997       2.69944555E-14
  -11.0200005       2.78110393E-14
  -11.0100002       2.86366390E-14
  -11.0000000       2.94707191E-14
  -10.9899998       3.03126969E-14
  -10.9799995       3.11619694E-14
  -10.9700003       3.20178895E-14
  -10.9600000       3.28797726E-14
  -10.9499998       3.37469039E-14
  -10.9399996       3.46185212E-14
  -10.9300003       3.54938348E-14
  -10.9200001       3.63720081E-14
  -10.9099998       3.72521668E-14
  -10.8999996       3.81333928E-14
  -10.8900003       3.90147374E-14
  -10.8800001       3.98951976E-14
  -10.8699999       4.07737402E-14
  -10.8599997       4.16492775E-14
  -10.8500004       4.25206914E-14
  -10.8400002       4.33868063E-14
  -10.8299999       4.42464160E-14
  -10.8199997       4.50982601E-14
  -10.8100004       4.59410410E-14
  -10.8000002       4.67734135E-14
  -10.7900000       4.75939783E-14
  -10.7799997       4.84013091E-14
  -10.7700005       4.91939219E-14
  -10.7600002       4.99702818E-14
  -10.7500000       5.07288202E-14
  -10.7399998       5.14679174E-14
  -10.7299995       5.21859032E-14
  -10.7200003       5.28810665E-14
  -10.7100000       5.35516591E-14
  -10.6999998       5.41958751E-14
  -10.6899996       5.48118612E-14
  -10.6800003       5.53977267E-14
  -10.6700001       5.59515474E-14
  -10.6599998       5.64713275E-14
  -10.6499996       5.69550443E-14
  -10.6400003       5.74006310E-14
  -10.6300001       5.78059803E-14
  -10.6199999       5.81689306E-14
  -10.6099997       5.84872997E-14
  -10.6000004       5.87588450E-14
  -10.5900002       5.89812894E-14
  -10.5799999       5.91523290E-14
  -10.5699997       5.92696058E-14
  -10.5600004       5.93307413E-14
  -10.5500002       5.93333095E-14
  -10.5400000       5.92748507E-14
  -10.5299997       5.91528847E-14
  -10.5200005       5.89648976E-14
  -10.5100002       5.87083279E-14
  -10.5000000       5.83806075E-14
  -10.4899998       5.79791342E-14
  -10.4799995       5.75012856E-14
  -10.4700003       5.69444055E-14
  -10.4600000       5.63058240E-14
  -10.4499998       5.55828577E-14
  -10.4399996       5.47728028E-14
  -10.4300003       5.38729421E-14
  -10.4200001       5.28805481E-14
  -10.4099998       5.17928765E-14
  -10.3999996       5.06071930E-14
  -10.3900003       4.93207397E-14
  -10.3800001       4.79307654E-14
  -10.3699999       4.64345224E-14
  -10.3599997       4.48292696E-14
  -10.3500004       4.31122694E-14
  -10.3400002       4.12807978E-14
  -10.3299999       3.93321375E-14
  -10.3199997       3.72636018E-14
  -10.3100004       3.50725105E-14
  -10.3000002       3.27562176E-14
  -10.2900000       3.03120972E-14
  -10.2799997       2.77375626E-14
  -10.2700005       2.50300625E-14
  -10.2600002       2.21870794E-14
  -10.2500000       1.92061417E-14
  -10.2399998       1.60848253E-14
  -10.2299995       1.28207618E-14
  -10.2200003       9.41162787E-15
  -10.2100000       5.85517031E-15
  -10.1999998       2.14919343E-15
  -10.1899996      -1.70842819E-15
  -10.1800003      -5.71973905E-15
  -10.1700001      -9.88671001E-15
  -10.1599998      -1.42112308E-14
  -10.1499996      -1.86951081E-14
  -10.1400003      -2.33400386E-14
  -10.1300001      -2.81476384E-14
  -10.1199999      -3.31194151E-14
  -10.1099997      -3.82567648E-14
  -10.1000004      -4.35609766E-14
  -10.0900002      -4.90332194E-14
  -10.0799999      -5.46745470E-14
  -10.0699997      -6.04858706E-14
  -10.0600004      -6.64679629E-14
  -10.0500002      -7.26214675E-14
  -10.0400000      -7.89468995E-14
  -10.0299997      -8.54445841E-14
  -10.0200005      -9.21147314E-14
  -10.0100002      -9.89573752E-14
  -10.0000000      -1.05972367E-13
  -9.98999977      -1.13159387E-13
  -9.97999954      -1.20517962E-13
  -9.97000027      -1.28047434E-13
  -9.96000004      -1.35746910E-13
  -9.94999981      -1.43615371E-13
  -9.93999958      -1.51651546E-13
  -9.93000031      -1.59853969E-13
  -9.92000008      -1.68220987E-13
  -9.90999985      -1.76750704E-13
  -9.89999962      -1.85441018E-13
  -9.89000034      -1.94289585E-13
  -9.88000011      -2.03293857E-13
  -9.86999989      -2.12451001E-13
  -9.85999966      -2.21757969E-13
  -9.85000038      -2.31211453E-13
  -9.84000015      -2.40807943E-13
  -9.82999992      -2.50543591E-13
  -9.81999969      -2.60414330E-13
  -9.81000042      -2.70415851E-13
  -9.80000019      -2.80543492E-13
  -9.78999996      -2.90792374E-13
  -9.77999973      -3.01157347E-13
  -9.77000046      -3.11632908E-13
  -9.76000023      -3.22213366E-13
  -9.75000000      -3.32892649E-13
  -9.73999977      -3.43664387E-13
  -9.72999954      -3.54521967E-13
  -9.72000027      -3.65458396E-13
  -9.71000004      -3.76466409E-13
  -9.69999981      -3.87538444E-13
  -9.68999958      -3.98666614E-13
  -9.68000031      -4.09842706E-13
  -9.67000008      -4.21058154E-13
  -9.65999985      -4.32304122E-13
  -9.64999962      -4.43571422E-13
  -9.64000034      -4.54850567E-13
  -9.63000011      -4.66131691E-13
  -9.61999989      -4.77404574E-13
  -9.60999966      -4.88658755E-13
  -9.60000038      -4.99883392E-13
  -9.59000015      -5.11067263E-13
  -9.57999992      -5.22198875E-13
  -9.56999969      -5.33266356E-13
  -9.56000042      -5.44257564E-13
  -9.55000019      -5.55159868E-13
  -9.53999996      -5.65960581E-13
  -9.52999973      -5.76646370E-13
  -9.52000046      -5.87203788E-13
  -9.51000023      -5.97618851E-13
  -9.50000000      -6.07877464E-13
  -9.48999977      -6.17965043E-13
  -9.47999954      -6.27866845E-13
  -9.47000027      -6.37567635E-13
  -9.46000004      -6.47051857E-13
  -9.44999981      -6.56303733E-13
  -9.43999958      -6.65307219E-13
  -9.43000031      -6.74045780E-13
  -9.42000008      -6.82502774E-13
  -9.40999985      -6.90661124E-13
  -9.39999962      -6.98503484E-13
  -9.39000034      -7.06012234E-13
  -9.38000011      -7.13169541E-13
  -9.36999989      -7.19957243E-13
  -9.35999966      -7.26356854E-13
  -9.35000038      -7.32349728E-13
  -9.34000015      -7.37916835E-13
  -9.32999992      -7.43039148E-13
  -9.31999969      -7.47697152E-13
  -9.31000042      -7.51871222E-13
  -9.30000019      -7.55541517E-13
  -9.28999996      -7.58687980E-13
  -9.27999973      -7.61290336E-13
  -9.27000046      -7.63328149E-13
  -9.26000023      -7.64780763E-13
  -9.25000000      -7.65627416E-13
  -9.23999977      -7.65847292E-13
  -9.22999954      -7.65419195E-13
  -9.22000027      -7.64322037E-13
  -9.21000004      -7.62534567E-13
  -9.19999981      -7.60035372E-13
  -9.18999958      -7.56802986E-13
  -9.18000031      -7.52815887E-13
  -9.17000008      -7.48052553E-13
  -9.15999985      -7.42491355E-13
  -9.14999962      -7.36110717E-13
  -9.14000034      -7.28888954E-13
  -9.13000011      -7.20804438E-13
  -9.11999989      -7.11835755E-13
  -9.10999966      -7.01961330E-13
  -9.10000038      -6.91159749E-13
  -9.09000015      -6.79409654E-13
  -9.07999992      -6.66689848E-13
  -9.06999969      -6.52979136E-13
  -9.06000042      -6.38256700E-13
  -9.05000019      -6.22501670E-13
  -9.03999996      -6.05693555E-13
  -9.02999973      -5.87812026E-13
  -9.02000046      -5.68836916E-13
  -9.01000023      -5.48748330E-13
  -9.00000000      -5.27526699E-13
  -8.98999977      -5.05152777E-13
  -8.97999954      -4.81607647E-13
  -8.97000027      -4.56872712E-13
  -8.96000004      -4.30929679E-13
  -8.94999981      -4.03760819E-13
  -8.93999958      -3.75348732E-13
  -8.93000031      -3.45676531E-13
  -8.92000008      -3.14727628E-13
  -8.90999985      -2.82486247E-13
  -8.89999962      -2.48936885E-13
  -8.89000034      -2.14064619E-13
  -8.88000011      -1.77855194E-13
  -8.86999989      -1.40294962E-13
  -8.85999966      -1.01370843E-13
  -8.85000038      -6.10703843E-14
  -8.84000015      -1.93819519E-14
  -8.82999992       2.37054656E-14
  -8.81999969       6.82020968E-14
  -8.81000042       1.14117429E-13
  -8.80000019       1.61460174E-13
  -8.78999996       2.10238172E-13
  -8.77999973       2.60458403E-13
  -8.77000046       3.12127060E-13
  -8.76000023       3.65249362E-13
  -8.75000000       4.19829563E-13
  -8.73999977       4.75871024E-13
  -8.72999954       5.33376078E-13
  -8.72000027       5.92345996E-13
  -8.71000004       6.52781106E-13
  -8.69999981       7.14680593E-13
  -8.68999958       7.78042561E-13
  -8.68000031       8.42864027E-13
  -8.67000008       9.09140872E-13
  -8.65999985       9.76867567E-13
  -8.64999962       1.04603771E-12
  -8.64000034       1.11664345E-12
  -8.63000011       1.18867568E-12
  -8.61999989       1.26212419E-12
  -8.60999966       1.33697740E-12
  -8.60000038       1.41322230E-12
  -8.59000015       1.49084456E-12
  -8.57999992       1.56982847E-12
  -8.56999969       1.65015701E-12
  -8.56000042       1.73181153E-12
  -8.55000019       1.81477207E-12
  -8.53999996       1.89901740E-12
  -8.52999973       1.98452431E-12
  -8.52000046       2.07126829E-12
  -8.51000023       2.15922375E-12
  -8.50000000       2.24836295E-12
  -8.48999977       2.33865683E-12
  -8.47999954       2.43007480E-12
  -8.47000027       2.52258457E-12
  -8.46000004       2.61615165E-12
  -8.44999981       2.71074135E-12
  -8.43999958       2.80631594E-12
  -8.43000031       2.90283683E-12
  -8.42000008       3.00026323E-12
  -8.40999985       3.09855331E-12
  -8.39999962       3.19766262E-12
  -8.39000034       3.29754583E-12
  -8.38000011       3.39815545E-12
  -8.36999989       3.49944249E-12
  -8.35999966       3.60135598E-12
  -8.35000038       3.70384366E-12
  -8.34000015       3.80685067E-12
  -8.32999992       3.91032129E-12
  -8.31999969       4.01419783E-12
  -8.31000042       4.11842001E-12
  -8.30000019       4.22292756E-12
  -8.28999996       4.32765716E-12
  -8.27999973       4.43254287E-12
  -8.27000046       4.53751967E-12
  -8.26000023       4.64251771E-12
  -8.25000000       4.74746761E-12
  -8.23999977       4.85229782E-12
  -8.22999954       4.95693417E-12
  -8.22000027       5.06130207E-12
  -8.21000004       5.16532433E-12
  -8.19999981       5.26892202E-12
  -8.18999958       5.37201490E-12
  -8.18000031       5.47452101E-12
  -8.17000008       5.57635708E-12
  -8.15999985       5.67743812E-12
  -8.14999962       5.77767695E-12
  -8.14000034       5.87698466E-12
  -8.13000011       5.97527193E-12
  -8.11999989       6.07244723E-12
  -8.10999966       6.16841734E-12
  -8.10000038       6.26308814E-12
  -8.09000015       6.35636422E-12
  -8.07999992       6.44814757E-12
  -8.06999969       6.53833975E-12
  -8.06000042       6.62684057E-12
  -8.05000019       6.71354985E-12
  -8.03999996       6.79836396E-12
  -8.02999973       6.88117965E-12
  -8.02000046       6.96189157E-12
  -8.01000023       7.04039431E-12
  -8.00000000       7.11658033E-12
  -7.98999977       7.19034164E-12
  -7.98000002       7.26156895E-12
  -7.96999979       7.33015211E-12
  -7.96000004       7.39598053E-12
  -7.94999981       7.45894232E-12
  -7.94000006       7.51892559E-12
  -7.92999983       7.57581584E-12
  -7.92000008       7.62949946E-12
  -7.90999985       7.67986282E-12
  -7.90000010       7.72678969E-12
  -7.88999987       7.77016559E-12
  -7.88000011       7.80987428E-12
  -7.86999989       7.84580040E-12
  -7.86000013       7.87782600E-12
  -7.84999990       7.90583571E-12
  -7.84000015       7.92971244E-12
  -7.82999992       7.94933997E-12
  -7.82000017       7.96460033E-12
  -7.80999994       7.97537817E-12
  -7.80000019       7.98155726E-12
  -7.78999996       7.98302136E-12
  -7.78000021       7.97965426E-12
  -7.76999998       7.97134060E-12
  -7.76000023       7.95796675E-12
  -7.75000000       7.93941735E-12
  -7.73999977       7.91558052E-12
  -7.73000002       7.88634262E-12
  -7.71999979       7.85159351E-12
  -7.71000004       7.81122129E-12
  -7.69999981       7.76511754E-12
  -7.69000006       7.71317385E-12
  -7.67999983       7.65528266E-12
  -7.67000008       7.59133902E-12
  -7.65999985       7.52123797E-12
  -7.65000010       7.44487718E-12
  -7.63999987       7.36215689E-12
  -7.63000011       7.27297693E-12
  -7.61999989       7.17724101E-12
  -7.61000013       7.07485372E-12
  -7.59999990       6.96572314E-12
  -7.59000015       6.84975731E-12
  -7.57999992       6.72686776E-12
  -7.57000017       6.59696906E-12
  -7.55999994       6.45997795E-12
  -7.55000019       6.31581376E-12
  -7.53999996       6.16439755E-12
  -7.53000021       6.00565517E-12
  -7.51999998       5.83951420E-12
  -7.51000023       5.66590568E-12
  -7.50000000       5.48476368E-12
  -7.48999977       5.29602620E-12
  -7.48000002       5.09963426E-12
  -7.46999979       4.89553146E-12
  -7.46000004       4.68366665E-12
  -7.44999981       4.46399211E-12
  -7.44000006       4.23646361E-12