  -16.0000000       0.00000000    
  -15.9899998       0.00000000    
  -15.9799995       0.00000000    
  -15.9700003       0.00000000    
  -15.9600000       0.00000000    
  -15.9499998       0.00000000    
  -15.9399996       0.00000000    
  -15.9300003       0.00000000    
  -15.9200001       0.00000000    
  -15.9099998       0.00000000    
  -15.8999996       0.00000000    
  -15.8900003       0.00000000    
  -15.8800001       0.00000000    
  -15.8699999       0.00000000    
  -15.8599997       0.00000000    
  -15.8500004       0.00000000    
  -15.8400002       0.00000000    
  -15.8299999       0.00000000    
  -15.8199997      -0.00000000    
  -15.8100004      -0.00000000    
  -15.8000002      -0.00000000    
  -15.7900000      -1.40129846E-45
  -15.7799997      -1.40129846E-45
  -15.7700005      -7.00649232E-45
  -15.7600002      -1.68155816E-44
  -15.7500000      -4.20389539E-44
  -15.7399998      -1.06498683E-43
  -15.7299995      -2.43825933E-43
  -15.7200003      -5.32493416E-43
  -15.7100000      -1.12804526E-42
  -15.6999998      -2.32055026E-42
  -15.6899996      -4.59345637E-42
  -15.6800003      -8.75671410E-42
  -15.6700001      -1.61065245E-41
  -15.6599998      -2.85991004E-41
  -15.6499996      -4.91281229E-41
  -15.6400003      -8.18582511E-41
  -15.6300001      -1.32659524E-40
  -15.6199999      -2.09892089E-40
  -15.6099997      -3.25654757E-40
  -15.6000004      -4.97732807E-40
  -15.5900002      -7.52493071E-40
  -15.5799999      -1.12872770E-39
  -15.5699997      -1.68187485E-39
  -15.5600004      -2.48770134E-39
  -15.5500002      -3.64379219E-39
  -15.5400000      -5.26703111E-39
  -15.5299997      -7.48594799E-39
  -15.5200005      -1.04288023E-38
  -15.5100002      -1.42117434E-38
  -15.5000000      -1.89358597E-38
  -15.4899998      -2.47056879E-38
  -15.4799995      -3.16822625E-38
  -15.4700003      -4.01786237E-38
  -15.4600000      -5.07917836E-38
  -15.4499998      -6.45438913E-38
  -15.4399996      -8.29797607E-38
  -15.4300003      -1.08147720E-37
  -15.4200001      -1.42389939E-37
  -15.4099998      -1.87898329E-37
  -15.3999996      -2.46065073E-37
  -15.3900003      -3.16763608E-37
  -15.3800001      -3.97819666E-37
  -15.3699999      -4.85024958E-37
  -15.3599997      -5.73053227E-37
  -15.3500004      -6.57502871E-37
  -15.3400002      -7.37990002E-37
  -15.3299999      -8.21754602E-37
  -15.3199997      -9.26742125E-37
  -15.3100004      -1.08272256E-36
  -15.3000002      -1.32893900E-36
  -15.2900000      -1.70722582E-36
  -15.2799997      -2.25060856E-36
  -15.2700005      -2.96901504E-36
  -15.2600002      -3.83556689E-36
  -15.2500000      -4.77845485E-36
  -15.2399998      -5.68390836E-36
  -15.2299995      -6.41467210E-36
  -15.2200003      -6.84527152E-36
  -15.2100000      -6.91038863E-36
  -15.1999998      -6.65682221E-36
  -15.1899996      -6.28410355E-36
  -15.1800003      -6.15611572E-36
  -15.1700001      -6.76770568E-36
  -15.1599998      -8.65755177E-36
  -15.1499996      -1.22716043E-35
  -15.1400003      -1.77978182E-35
  -15.1300001      -2.50096697E-35
  -15.1199999      -3.31674283E-35
  -15.1099997      -4.10280302E-35
  -15.1000004      -4.70013840E-35
  -15.0900002      -4.94636199E-35
  -15.0799999      -4.71976278E-35
  -15.0699997      -3.98860214E-35
  -15.0600004      -2.85421852E-35
  -15.0500002      -1.57438011E-35
  -15.0400000      -5.54118165E-36
  -15.0299997      -2.95621458E-36
  -15.0200005      -1.30660746E-35
  -15.0100002      -3.97684117E-35
  -15.0000000      -8.44321202E-35
  -14.9899998      -1.44725257E-34
  -14.9799995      -2.13952002E-34
  -14.9700003      -2.81204537E-34
  -14.9600000      -3.32527515E-34
  -14.9499998      -3.53117240E-34
  -14.9399996      -3.30350486E-34
  -14.9300003      -2.57202136E-34
  -14.9200001      -1.35420646E-34
  -14.9099998       2.22730753E-35
  -14.8999996       1.91662907E-34
  -14.8900003       3.38707424E-34
  -14.8800001       4.23589206E-34
  -14.8699999       4.06901869E-34
  -14.8599997       2.57267155E-34
  -14.8500004      -4.07459087E-35
  -14.8400002      -4.79798774E-34
  -14.8299999      -1.02552827E-33
  -14.8199997      -1.61613704E-33
  -14.8100004      -2.16666200E-33
  -14.8000002      -2.57809127E-33
  -14.7900000      -2.75070858E-33
  -14.7799997      -2.60025871E-33
  -14.7700005      -2.07484506E-33
  -14.7600002      -1.17003556E-33
  -14.7500000       6.04213796E-35
  -14.7399998       1.50062084E-33
  -14.7299995       2.97692071E-33
  -14.7200003       4.27147574E-33
  -14.7100000       5.14442246E-33
  -14.6999998       5.36303098E-33
  -14.6899996       4.73497390E-33
  -14.6800003       3.14199281E-33
  -14.6700001       5.69665455E-34
  -14.6599998      -2.87110271E-33
  -14.6499996      -6.93484288E-33
  -14.6400003      -1.12475906E-32
  -14.6300001      -1.53299745E-32
  -14.6199999      -1.86372161E-32
  -14.6099997      -2.06140038E-32
  -14.6000004      -2.07601603E-32
  -14.5900002      -1.87011556E-32
  -14.5799999      -1.42559444E-32
  -14.5699997      -7.49386318E-33
  -14.5600004       1.22774948E-33
  -14.5500002       1.12526739E-32
  -14.5400000       2.16470400E-32
  -14.5299997       3.12554426E-32
  -14.5200005       3.87908228E-32
  -14.5100002       4.29532659E-32
  -14.5000000       4.25688381E-32
  -14.4899998       3.67361527E-32
  -14.4799995       2.49660395E-32
  -14.4700003       7.29843724E-33
  -14.4600000      -1.56185157E-32
  -14.4499998      -4.25001099E-32
  -14.4399996      -7.14560446E-32
  -14.4300003      -1.00084587E-31
  -14.4200001      -1.25627103E-31
  -14.4099998      -1.45174587E-31
  -14.3999996      -1.55911141E-31
  -14.3900003      -1.55376420E-31
  -14.3800001      -1.41725275E-31
  -14.3699999      -1.13963272E-31
  -14.3599997      -7.21391362E-32
  -14.3500004      -1.74797670E-32
  -14.3400002       4.75393896E-32
  -14.3299999       1.19189391E-31
  -14.3199997       1.92539862E-31
  -14.3100004       2.61554475E-31
  -14.3000002       3.19211157E-31
  -14.2900000       3.57631978E-31
  -14.2799997       3.68209805E-31
  -14.2700005       3.41731795E-31
  -14.2600002       2.68516505E-31
  -14.2500000       1.38604467E-31
  -14.2399998      -5.79365489E-32
  -14.2299995      -3.30498442E-31
  -14.2200003      -6.87101133E-31
  -14.2100000      -1.13310979E-30
  -14.1999998      -1.66935978E-30
  -14.1899996      -2.28955323E-30
  -14.1800003      -2.97681851E-30
  -14.1700001      -3.69935859E-30
  -14.1599998      -4.40517166E-30
  -14.1499996      -5.01592091E-30
  -14.1400003      -5.42012019E-30
  -14.1300001      -5.46591143E-30
  -14.1199999      -4.95380817E-30
  -14.1099997      -3.62991000E-30
  -14.1000004      -1.18012589E-30
  -14.0900002       2.77398047E-30
  -14.0799999       8.67721116E-30
  -14.0699997       1.70401692E-29
  -14.0600004       2.84359554E-29
  -14.0500002       4.34943713E-29
  -14.0400000       6.28945405E-29
  -14.0299997       8.73576906E-29
  -14.0200005       1.17642590E-28
  -14.0100002       1.54548355E-28
  -14.0000000       1.98930484E-28
  -13.9899998       2.51737942E-28
  -13.9799995       3.14083111E-28
  -13.9700003       3.87357571E-28
  -13.9600000       4.73412406E-28
  -13.9499998       5.74824510E-28
  -13.9399996       6.95276069E-28
  -13.9300003       8.40079953E-28
  -13.9200001       1.01689063E-27
  -13.9099998       1.23664328E-27
  -13.8999996       1.51478165E-27
  -13.8900003       1.87282878E-27
  -13.8800001       2.34037755E-27
  -13.8699999       2.95758147E-27
  -13.8599997       3.77823621E-27
  -13.8500004       4.87356187E-27
  -13.8400002       6.33678984E-27
  -13.8299999       8.28868787E-27
  -13.8199997       1.08841766E-26
  -13.8100004       1.43201627E-26
  -13.8000002       1.88447962E-26
  -13.7900000       2.47682695E-26
  -13.7799997       3.24754128E-26
  -13.7700005       4.24403192E-26
  -13.7600002       5.52430602E-26
  -13.7500000       7.15889238E-26
  -13.7399998       9.23302648E-26
  -13.7299995       1.18491308E-25
  -13.7200003       1.51296101E-25
  -13.7100000       1.92199981E-25
  -13.6999998       2.42924539E-25
  -13.6899996       3.05496912E-25
  -13.6800003       3.82293014E-25
  -13.6700001       4.76085198E-25
  -13.6599998       5.90095074E-25
  -13.6499996       7.28051414E-25
  -13.6400003       8.94252525E-25
  -13.6300001       1.09363446E-24
  -13.6199999       1.33184590E-24
  -13.6099997       1.61532711E-24
  -13.6000004       1.95139654E-24
  -13.5900002       2.34834110E-24
  -13.5799999       2.81551616E-24
  -13.5699997       3.36344889E-24
  -13.5600004       4.00394675E-24
  -13.5500002       4.75021469E-24
  -13.5400000       5.61697837E-24
  -13.5299997       6.62060902E-24
  -13.5200005       7.77925636E-24
  -13.5100002       9.11298744E-24
  -13.5000000       1.06439282E-23
  -13.4899998       1.23964024E-23
  -13.4799995       1.43970886E-23
  -13.4700003       1.66751627E-23
  -13.4600000       1.92624640E-23
  -13.4499998       2.21936250E-23
  -13.4399996       2.55062254E-23
  -13.4300003       2.92409785E-23
  -13.4200001       3.34418175E-23
  -13.4099998       3.81560944E-23
  -13.3999996       4.34346436E-23
  -13.3900003       4.93320005E-23
  -13.3800001       5.59064272E-23
  -13.3699999       6.32200892E-23
  -13.3599997       7.13390898E-23
  -13.3500004       8.03335556E-23
  -13.3400002       9.02777406E-23
  -13.3299999       1.01249975E-22
  -13.3199997       1.13332806E-22
  -13.3100004       1.26612806E-22
  -13.3000002       1.41180682E-22
  -13.2900000       1.57131134E-22
  -13.2799997       1.74562764E-22
  -13.2700005       1.93577984E-22
  -13.2600002       2.14282718E-22
  -13.2500000       2.36786307E-22
  -13.2399998       2.61201161E-22
  -13.2299995       2.87642390E-22
  -13.2200003       3.16227654E-22
  -13.2100000       3.47076508E-22
  -13.1999998       3.80310196E-22
  -13.1899996       4.16050719E-22
  -13.1800003       4.54420838E-22
  -13.1700001       4.95542882E-22
  -13.1599998       5.39538400E-22
  -13.1499996       5.86527196E-22
  -13.1400003       6.36626553E-22
  -13.1300001       6.89950622E-22
  -13.1199999       7.46608808E-22
  -13.1099997       8.06705469E-22
  -13.1000004       8.70338498E-22
  -13.0900002       9.37597915E-22
  -13.0799999       1.00856521E-21
  -13.0699997       1.08331196E-21
  -13.0600004       1.16189775E-21
  -13.0500002       1.24436984E-21
  -13.0400000       1.33076144E-21
  -13.0299997       1.42108953E-21
  -13.0200005       1.51535368E-21
  -13.0100002       1.61353524E-21
  -13.0000000       1.71559521E-21
  -12.9899998       1.82147130E-21
  -12.9799995       1.93107899E-21
  -12.9700003       2.04430802E-21
  -12.9600000       2.16101925E-21
  -12.9499998       2.28104727E-21
  -12.9399996       2.40419459E-21
  -12.9300003       2.53023159E-21
  -12.9200001       2.65889554E-21
  -12.9099998       2.78988775E-21
  -12.8999996       2.92287379E-21
  -12.8900003       3.05747846E-21
  -12.8800001       3.19328855E-21
  -12.8699999       3.32984827E-21
  -12.8599997       3.46666184E-21
  -12.8500004       3.60318623E-21
  -12.8400002       3.73883617E-21
  -12.8299999       3.87298080E-21
  -12.8199997       4.00494155E-21
  -12.8100004       4.13399505E-21
  -12.8000002       4.25936744E-21
  -12.7900000       4.38024002E-21
  -12.7799997       4.49574561E-21
  -12.7700005       4.60496738E-21
  -12.7600002       4.70694324E-21
  -12.7500000       4.80066426E-21
  -12.7399998       4.88507545E-21
  -12.7299995       4.95907581E-21
  -12.7200003       5.02151987E-21
  -12.7100000       5.07122098E-21
  -12.6999998       5.10695211E-21
  -12.6899996       5.12744584E-21
  -12.6800003       5.13139837E-21
  -12.6700001       5.11747282E-21
  -12.6599998       5.08429875E-21
  -12.6499996       5.03047708E-21
  -12.6400003       4.95458286E-21
  -12.6300001       4.85517013E-21
  -12.6199999       4.73077073E-21
  -12.6099997       4.57990235E-21
  -12.6000004       4.40107019E-21
  -12.5900002       4.19276971E-21
  -12.5799999       3.95349399E-21
  -12.5699997       3.68173284E-21
  -12.5600004       3.37597995E-21
  -12.5500002       3.03473584E-21
  -12.5400000       2.65651093E-21
  -12.5299997       2.23982900E-21
  -12.5200005       1.78323015E-21
  -12.5100002       1.28527590E-21
  -12.5000000       7.44548329E-22
  -12.4899998       1.59654504E-22
  -12.4799995      -4.70772700E-22
  -12.4700003      -1.14807388E-21
  -12.4600000      -1.87356308E-21
  -12.4499998      -2.64852791E-21
  -12.4399996      -3.47423208E-21
  -12.4300003      -4.35191635E-21
  -12.4200001      -5.28280473E-21
  -12.4099998      -6.26810973E-21
  -12.3999996      -7.30903494E-21
  -12.3900003      -8.40679005E-21
  -12.3800001      -9.56259401E-21
  -12.3699999      -1.07776924E-20
  -12.3599997      -1.20533713E-20
  -12.3500004      -1.33909684E-20
  -12.3400002      -1.47918941E-20
  -12.3299999      -1.62576582E-20
  -12.3199997      -1.77898923E-20
  -12.3100004      -1.93903689E-20
  -12.3000002      -2.10610411E-20
  -12.2900000      -2.28040754E-20
  -12.2799997      -2.46218904E-20
  -12.2700005      -2.65171842E-20
  -12.2600002      -2.84930085E-20
  -12.2500000      -3.05527948E-20
  -12.2399998      -3.27004142E-20
  -12.2299995      -3.49402545E-20
  -12.2200003      -3.72772497E-20
  -12.2100000      -3.97169899E-20
  -12.1999998      -4.22657724E-20
  -12.1899996      -4.49306899E-20
  -12.1800003      -4.77197232E-20
  -12.1700001      -5.06418292E-20
  -12.1599998      -5.37070503E-20
  -12.1499996      -5.69265956E-20
  -12.1400003      -6.03130149E-20
  -12.1300001      -6.38802507E-20
  -12.1199999      -6.76438255E-20
  -12.1099997      -7.16209551E-20
  -12.1000004      -7.58306711E-20
  -12.0900002      -8.02940343E-20
  -12.0799999      -8.50342768E-20
  -12.0699997      -9.00769573E-20
  -12.0600004      -9.54501351E-20
  -12.0500002      -1.01184539E-19
  -12.0400000      -1.07313934E-19
  -12.0299997      -1.13875086E-19
  -12.0200005      -1.20908202E-19
  -12.0100002      -1.28456962E-19
  -12.0000000      -1.36568928E-19
  -11.9899998      -1.45295722E-19
  -11.9799995      -1.54693295E-19
  -11.9700003      -1.64822186E-19
  -11.9600000      -1.75747769E-19
  -11.9499998      -1.87540754E-19
  -11.9399996      -2.00277177E-19
  -11.9300003      -2.14038942E-19
  -11.9200001      -2.28914040E-19
  -11.9099998      -2.44996990E-19
  -11.8999996      -2.62389032E-19
  -11.8900003      -2.81198653E-19
  -11.8800001      -3.01541894E-19
  -11.8699999      -3.23542494E-19
  -11.8599997      -3.47332751E-19
  -11.8500004      -3.73053622E-19
  -11.8400002      -4.00855008E-19
  -11.8299999      -4.30896398E-19
  -11.8199997      -4.63347236E-19
  -11.8100004      -4.98387331E-19
  -11.8000002      -5.36207321E-19
  -11.7900000      -5.77009194E-19
  -11.7799997      -6.21006517E-19
  -11.7700005      -6.68424697E-19
  -11.7600002      -7.19502687E-19
  -11.7500000      -7.74491586E-19
  -11.7399998      -8.33656558E-19
  -11.7299995      -8.97276932E-19
  -11.7200003      -9.65645891E-19
  -11.7100000      -1.03907244E-18
  -11.6999998      -1.11788042E-18
  -11.6899996      -1.20241011E-18
  -11.6800003      -1.29301792E-18
  -11.6700001      -1.39007692E-18
  -11.6599998      -1.49397835E-18
  -11.6499996      -1.60513064E-18
  -11.6400003      -1.72396072E-18
  -11.6300001      -1.85091402E-18
  -11.6199999      -1.98645563E-18
  -11.6099997      -2.13106955E-18
  -11.6000004      -2.28526056E-18
  -11.5900002      -2.44955290E-18
  -11.5799999      -2.62449230E-18
  -11.5699997      -2.81064516E-18
  -11.5600004      -3.00860002E-18
  -11.5500002      -3.21896632E-18
  -11.5400000      -3.44237581E-18
  -11.5299997      -3.67948383E-18
  -11.5200005      -3.93096658E-18
  -11.5100002      -4.19752306E-18
  -11.5000000      -4.47987702E-18
  -11.4899998      -4.77877377E-18
  -11.4799995      -5.09498135E-18
  -11.4700003      -5.42929177E-18
  -11.4600000      -5.78252022E-18
  -11.4499998      -6.15550506E-18
  -11.4399996      -6.54910779E-18
  -11.4300003      -6.96421308E-18
  -11.4200001      -7.40172875E-18
  -11.4099998      -7.86258085E-18
  -11.3999996      -8.34772642E-18
  -11.3900003      -8.85813573E-18
  -11.3800001      -9.39480141E-18
  -11.3699999      -9.95874172E-18
  -11.3599997      -1.05509923E-17
  -11.3500004      -1.11726094E-17
  -11.3400002      -1.18246651E-17
  -11.3299999      -1.25082505E-17
  -11.3199997      -1.32244764E-17
  -11.3100004      -1.39744670E-17
  -11.3000002      -1.47593638E-17
  -11.2900000      -1.55803174E-17
  -11.2799997      -1.64384908E-17
  -11.2700005      -1.73350686E-17
  -11.2600002      -1.82712286E-17
  -11.2500000      -1.92481653E-17
  -11.2399998      -2.02670798E-17
  -11.2299995      -2.13291747E-17
  -11.2200003      -2.24356595E-17
  -11.2100000      -2.35877318E-17
  -11.1999998      -2.47865944E-17
  -11.1899996      -2.60334451E-17
  -11.1800003      -2.73294833E-17
  -11.1700001      -2.86758736E-17
  -11.1599998      -3.00737989E-17
  -11.1499996      -3.15243991E-17
  -11.1400003      -3.30288090E-17
  -11.1300001      -3.45881305E-17
  -11.1199999      -3.62034554E-17
  -11.1099997      -3.78758392E-17
  -11.1000004      -3.96062945E-17
  -11.0900002      -4.13958104E-17
  -11.0799999      -4.32453201E-17
  -11.0699997      -4.51557301E-17
  -11.0600004      -4.71278709E-17
  -11.0500002      -4.91625433E-17
  -11.0400000      -5.12604818E-17
  -11.0299997      -5.34223415E-17
  -11.0200005      -5.56487081E-17
  -11.0100002      -5.79401307E-17
  -11.0000000      -6.02970131E-17
  -10.9899998      -6.27197391E-17
  -10.9799995      -6.52085270E-17
  -10.9700003      -6.77635688E-17
  -10.9600000      -7.03849108E-17
  -10.9499998      -7.30724868E-17
  -10.9399996      -7.58260983E-17
  -10.9300003      -7.86454805E-17
  -10.9200001      -8.15301770E-17
  -10.9099998      -8.44795986E-17
  -10.8999996      -8.74930308E-17
  -10.8900003      -9.05695736E-17
  -10.8800001      -9.37082145E-17
  -10.8699999      -9.69077094E-17
  -10.8599997      -1.00166675E-16
  -10.8500004      -1.03483531E-16
  -10.8400002      -1.06856475E-16
  -10.8299999      -1.10283491E-16
  -10.8199997      -1.13762428E-16
  -10.8100004      -1.17290809E-16
  -10.8000002      -1.20866003E-16
  -10.7900000      -1.24485110E-16
  -10.7799997      -1.28144941E-16
  -10.7700005      -1.31842108E-16
  -10.7600002      -1.35572877E-16
  -10.7500000      -1.39333307E-16
  -10.7399998      -1.43119120E-16
  -10.7299995      -1.46925739E-16
  -10.7200003      -1.50748293E-16
  -10.7100000      -1.54581594E-16
  -10.6999998      -1.58420109E-16
  -10.6899996      -1.62257923E-16
  -10.6800003      -1.66088841E-16
  -10.6700001      -1.69906233E-16
  -10.6599998      -1.73703138E-16
  -10.6499996      -1.77472209E-16
  -10.6400003      -1.81205692E-16
  -10.6300001      -1.84895447E-16
  -10.6199999      -1.88532858E-16
  -10.6099997      -1.92108991E-16
  -10.6000004      -1.95614345E-16
  -10.5900002      -1.99039058E-16
  -10.5799999      -2.02372821E-16
  -10.5699997      -2.05604820E-16
  -10.5600004      -2.08723781E-16
  -10.5500002      -2.11717950E-16
  -10.5400000      -2.14575045E-16
  -10.5299997      -2.17282427E-16
  -10.5200005      -2.19826609E-16
  -10.5100002      -2.22194000E-16
  -10.5000000      -2.24370213E-16
  -10.4899998      -2.26340438E-16
  -10.4799995      -2.28089270E-16
  -10.4700003      -2.29600774E-16
  -10.4600000      -2.30858539E-16
  -10.4499998      -2.31845411E-16
  -10.4399996      -2.32543869E-16
  -10.4300003      -2.32935702E-16
  -10.4200001      -2.33002220E-16
  -10.4099998      -2.32724076E-16
  -10.3999996      -2.32081442E-16
  -10.3900003      -2.31053700E-16
  -10.3800001      -2.29619938E-16
  -10.3699999      -2.27758477E-16
  -10.3599997      -2.25447110E-16
  -10.3500004      -2.22663071E-16
  -10.3400002      -2.19382989E-16
  -10.3299999      -2.15582895E-16
  -10.3199997      -2.11238317E-16
  -10.3100004      -2.06324216E-16
  -10.3000002      -2.00814942E-16
  -10.2900000      -1.94684316E-16
  -10.2799997      -1.87905723E-16
  -10.2700005      -1.80451833E-16
  -10.2600002      -1.72294945E-16
  -10.2500000      -1.63406790E-16
  -10.2399998      -1.53758622E-16
  -10.2299995      -1.43321204E-16
  -10.2200003      -1.32064877E-16
  -10.2100000      -1.19959532E-16
  -10.1999998      -1.06974590E-16
  -10.1899996      -9.30791403E-17
  -10.1800003      -7.82418296E-17
  -10.1700001      -6.24309737E-17
  -10.1599998      -4.56145804E-17
  -10.1499996      -2.77603468E-17
  -10.1400003      -8.83570177E-18
  -10.1300001       1.11921598E-17
  -10.1199999       3.23562582E-17
  -10.1099997       5.46897774E-17
  -10.1000004       7.82260338E-17
  -10.0900002       1.02998445E-16
  -10.0799999       1.29040467E-16
  -10.0699997       1.56385602E-16
  -10.0600004       1.85067249E-16
  -10.0500002       2.15118774E-16
  -10.0400000       2.46573435E-16
  -10.0299997       2.79464227E-16
  -10.0200005       3.13823933E-16
  -10.0100002       3.49685191E-16
  -10.0000000       3.87080001E-16
  -9.98999977       4.26040155E-16
  -9.97999954       4.66596993E-16
  -9.97000027       5.08781086E-16
  -9.96000004       5.52622665E-16
  -9.94999981       5.98151162E-16
  -9.93999958       6.45395325E-16
  -9.93000031       6.94383052E-16
  -9.92000008       7.45141078E-16
  -9.90999985       7.97695660E-16
  -9.89999962       8.52071523E-16
  -9.89000034       9.08292488E-16
  -9.88000011       9.66381160E-16
  -9.86999989       1.02635893E-15
  -9.85999966       1.08824527E-15
  -9.85000038       1.15205893E-15
  -9.84000015       1.21781633E-15
  -9.82999992       1.28553280E-15
  -9.81999969       1.35522116E-15
  -9.81000042       1.42689296E-15
  -9.80000019       1.50055751E-15
  -9.78999996       1.57622191E-15
  -9.77999973       1.65389123E-15
  -9.77000046       1.73356844E-15
  -9.76000023       1.81525344E-15
  -9.75000000       1.89894411E-15
  -9.73999977       1.98463546E-15
  -9.72999954       2.07231968E-15
  -9.72000027       2.16198595E-15
  -9.71000004       2.25362094E-15
  -9.69999981       2.34720749E-15
  -9.68999958       2.44272549E-15
  -9.68000031       2.54015144E-15
  -9.67000008       2.63945864E-15
  -9.65999985       2.74061597E-15
  -9.64999962       2.84358913E-15
  -9.64000034       2.94833979E-15
  -9.63000011       3.05482559E-15
  -9.61999989       3.16299996E-15
  -9.60999966       3.27281101E-15
  -9.60000038       3.38420494E-15
  -9.59000015       3.49712121E-15
  -9.57999992       3.61149522E-15
  -9.56999969       3.72725752E-15
  -9.56000042       3.84433357E-15
  -9.55000019       3.96264501E-15
  -9.53999996       4.08210588E-15
  -9.52999973       4.20262681E-15
  -9.52000046       4.32411167E-15
  -9.51000023       4.44646007E-15
  -9.50000000       4.56956445E-15
  -9.48999977       4.69331300E-15
  -9.47999954       4.81758586E-15
  -9.47000027       4.94226064E-15
  -9.46000004       5.06720393E-15
  -9.44999981       5.19227978E-15
  -9.43999958       5.31734462E-15
  -9.43000031       5.44224683E-15
  -9.42000008       5.56683097E-15
  -9.40999985       5.69093316E-15
  -9.39999962       5.81438186E-15
  -9.39000034       5.93700046E-15
  -9.38000011       6.05860390E-15
  -9.36999989       6.17900244E-15
  -9.35999966       6.29799574E-15
  -9.35000038       6.41537926E-15
  -9.34000015       6.53093658E-15
  -9.32999992       6.64444958E-15
  -9.31999969       6.75568872E-15
  -9.31000042       6.86442023E-15
  -9.30000019       6.97039845E-15
  -9.28999996       7.07337436E-15
  -9.27999973       7.17308920E-15
  -9.27000046       7.26927487E-15
  -9.26000023       7.36165991E-15
  -9.25000000       7.44996224E-15
  -9.23999977       7.53389304E-15
  -9.22999954       7.61315585E-15
  -9.22000027       7.68744741E-15
  -9.21000004       7.75645265E-15
  -9.19999981       7.81985476E-15
  -9.18999958       7.87732679E-15
  -9.18000031       7.92853332E-15
  -9.17000008       7.97313299E-15
  -9.15999985       8.01077768E-15
  -9.14999962       8.04110993E-15
  -9.14000034       8.06376721E-15
  -9.13000011       8.07838107E-15
  -9.11999989       8.08457457E-15
  -9.10999966       8.08196317E-15
  -9.10000038       8.07015638E-15
  -9.09000015       8.04876033E-15
  -9.07999992       8.01736844E-15
  -9.06999969       7.97557922E-15
  -9.06000042       7.92297170E-15
  -9.05000019       7.85913167E-15
  -9.03999996       7.78363224E-15
  -9.02999973       7.69604480E-15
  -9.02000046       7.59593228E-15
  -9.01000023       7.48286016E-15
  -9.00000000       7.35638459E-15
  -8.98999977       7.21605748E-15
  -8.97999954       7.06143162E-15
  -8.97000027       6.89205298E-15
  -8.96000004       6.70746756E-15
  -8.94999981       6.50721457E-15
  -8.93999958       6.29083789E-15
  -8.93000031       6.05787545E-15
  -8.92000008       5.80786521E-15
  -8.90999985       5.54034637E-15
  -8.89999962       5.25485476E-15
  -8.89000034       4.95093002E-15
  -8.88000011       4.62811179E-15
  -8.86999989       4.28593970E-15
  -8.85999966       3.92395806E-15
  -8.85000038       3.54171178E-15
  -8.84000015       3.13875068E-15
  -8.82999992       2.71462731E-15
  -8.81999969       2.26889951E-15
  -8.81000042       1.80113086E-15
  -8.80000019       1.31088979E-15
  -8.78999996       7.97751670E-16
  -8.77999973       2.61299817E-16
  -8.77000046      -2.98875364E-16
  -8.76000023      -8.83173990E-16
  -8.75000000      -1.49198713E-15
  -8.73999977      -2.12569504E-15
  -8.72999954      -2.78466698E-15
  -8.72000027      -3.46925997E-15
  -8.71000004      -4.17981960E-15
  -8.69999981      -4.91667559E-15
  -8.68999958      -5.68014365E-15
  -8.68000031      -6.47052577E-15
  -8.67000008      -7.28810780E-15
  -8.65999985      -8.13315276E-15
  -8.64999962      -9.00591349E-15
  -8.64000034      -9.90661698E-15
  -8.63000011      -1.08354759E-14
  -8.61999989      -1.17926781E-14
  -8.60999966      -1.27783890E-14
  -8.60000038      -1.37927508E-14
  -8.59000015      -1.48358888E-14
  -8.57999992      -1.59078920E-14
  -8.56999969      -1.70088299E-14
  -8.56000042      -1.81387447E-14
  -8.55000019      -1.92976467E-14
  -8.53999996      -2.04855189E-14
  -8.52999973      -2.17023173E-14
  -8.52000046      -2.29479623E-14
  -8.51000023      -2.42223420E-14
  -8.50000000      -2.55253125E-14
  -8.48999977      -2.68566873E-14
  -8.47999954      -2.82162633E-14
  -8.47000027      -2.96037812E-14
  -8.46000004      -3.10189462E-14
  -8.44999981      -3.24614366E-14
  -8.43999958      -3.39308761E-14
  -8.43000031      -3.54268583E-14
  -8.42000008      -3.69489290E-14
  -8.40999985      -3.84965836E-14
  -8.39999962      -4.00692866E-14
  -8.39000034      -4.16664485E-14
  -8.38000011      -4.32874392E-14
  -8.36999989      -4.49315674E-14
  -8.35999966      -4.65980980E-14
  -8.35000038      -4.82862753E-14
  -8.34000015      -4.99952354E-14
  -8.32999992      -5.17241076E-14
  -8.31999969      -5.34719635E-14
  -8.31000042      -5.52378001E-14
  -8.30000019      -5.70205707E-14
  -8.28999996      -5.88191876E-14
  -8.27999973      -6.06324683E-14
  -8.27000046      -6.24592134E-14
  -8.26000023      -6.42981355E-14
  -8.25000000      -6.61479199E-14
  -8.23999977      -6.80071640E-14
  -8.22999954      -6.98744177E-14
  -8.22000027      -7.17481426E-14
  -8.21000004      -7.36267804E-14
  -8.19999981      -7.55086843E-14
  -8.18999958      -7.73921603E-14
  -8.18000031      -7.92754263E-14
  -8.17000008      -8.11566390E-14
  -8.15999985      -8.30339283E-14
  -8.14999962      -8.49053087E-14
  -8.14000034      -8.67687473E-14
  -8.13000011      -8.86221503E-14
  -8.11999989      -9.04633559E-14
  -8.10999966      -9.22901688E-14
  -8.10000038      -9.41002376E-14
  -8.09000015      -9.58912312E-14
  -8.07999992      -9.76607169E-14
  -8.06999969      -9.94061943E-14
  -8.06000042      -1.01125102E-13
  -8.05000019      -1.02814797E-13
  -8.03999996      -1.04472576E-13
  -8.02999973      -1.06095688E-13
  -8.02000046      -1.07681300E-13
  -8.01000023      -1.09226511E-13
  -8.00000000      -1.10728362E-13
  -7.98999977      -1.12183835E-13
  -7.98000002      -1.13589836E-13
  -7.96999979      -1.14943211E-13
  -7.96000004      -1.16240744E-13
  -7.94999981      -1.17479174E-13
  -7.94000006      -1.18655140E-13
  -7.92999983      -1.19765255E-13
  -7.92000008      -1.20806089E-13
  -7.90999985      -1.21774105E-13
  -7.90000010      -1.22665739E-13
  -7.88999987      -1.23477373E-13
  -7.88000011      -1.24205361E-13
  -7.86999989      -1.24845907E-13
  -7.86000013      -1.25395313E-13
  -7.84999990      -1.25849716E-13
  -7.84000015      -1.26205294E-13
  -7.82999992      -1.26458129E-13
  -7.82000017      -1.26604212E-13
  -7.80999994      -1.26639638E-13
  -7.80000019      -1.26560370E-13
  -7.78999996      -1.26362313E-13
  -7.78000021      -1.26041416E-13
  -7.76999998      -1.25593546E-13
  -7.76000023      -1.25014541E-13
  -7.75000000      -1.24300283E-13
  -7.73999977      -1.23446568E-13
  -7.73000002      -1.22449183E-13
  -7.71999979      -1.21303968E-13
  -7.71000004      -1.20006625E-13
  -7.69999981      -1.18552981E-13
  -7.69000006      -1.16938767E-13
  -7.67999983      -1.15159794E-13
  -7.67000008      -1.13211828E-13
  -7.65999985      -1.11090668E-13
  -7.65000010      -1.08792071E-13
  -7.63999987      -1.06311871E-13
  -7.63000011      -1.03645947E-13
  -7.61999989      -1.00790077E-13
  -7.61000013      -9.77402431E-14
  -7.59999990      -9.44923664E-14
  -7.59000015      -9.10423944E-14
  -7.57999992      -8.73863360E-14
  -7.57000017      -8.35202811E-14
  -7.55999994      -7.94403538E-14
  -7.55000019      -7.51427322E-14
  -7.53999996      -7.06236691E-14
  -7.53000021      -6.58794783E-14
  -7.51999998      -6.09065953E-14
  -7.51000023      -5.57014694E-14
  -7.50000000      -5.02606684E-14
  -7.48999977      -4.45808822E-14
  -7.48000002      -3.86588615E-14
  -7.46999979      -3.24914927E-14
  -7.46000004      -2.60757467E-14
  -7.44999981      -1.94087402E-14
  -7.44000006      -1.24876907E-14