  -16.0000000       0.00000000    
  -15.9899998       0.00000000    
  -15.9799995       0.00000000    
  -15.9700003       0.00000000    
  -15.9600000       0.00000000    
  -15.9499998       0.00000000    
  -15.9399996       0.00000000    
  -15.9300003       0.00000000    
  -15.9200001       0.00000000    
  -15.9099998       0.00000000    
  -15.8999996       0.00000000    
  -15.8900003       0.00000000    
  -15.8800001       0.00000000    
  -15.8699999       0.00000000    
  -15.8599997       0.00000000    
  -15.8500004       0.00000000    
  -15.8400002       0.00000000    
  -15.8299999       0.00000000    
  -15.8199997       0.00000000    
  -15.8100004       0.00000000    
  -15.8000002       0.00000000    
  -15.7900000       0.00000000    
  -15.7799997      -0.00000000    
  -15.7700005      -0.00000000    
  -15.7600002      -0.00000000    
  -15.7500000      -0.00000000    
  -15.7399998      -1.40129846E-45
  -15.7299995      -4.20389539E-45
  -15.7200003      -1.12103877E-44
  -15.7100000      -2.94272678E-44
  -15.6999998      -7.00649232E-44
  -15.6899996      -1.61149323E-43
  -15.6800003      -3.53127213E-43
  -15.6700001      -7.39885589E-43
  -15.6599998      -1.46996209E-42
  -15.6499996      -2.76195927E-42
  -15.6400003      -4.88352515E-42
  -15.6300001      -8.08829474E-42
  -15.6199999      -1.24855693E-41
  -15.6099997      -1.78679567E-41
  -15.6000004      -2.35684389E-41
  -15.5900002      -2.85024108E-41
  -15.5799999      -3.15908726E-41
  -15.5699997      -3.26404451E-41
  -15.5600004      -3.34840268E-41
  -15.5500002      -3.87304883E-41
  -15.5400000      -5.48229998E-41
  -15.5299997      -8.60677517E-41
  -15.5200005      -1.26981463E-40
  -15.5100002      -1.52546752E-40
  -15.5000000      -1.11544759E-40
  -15.4899998       6.84015819E-41
  -15.4799995       4.54411665E-40
  -15.4700003       1.05593865E-39
  -15.4600000       1.75528467E-39
  -15.4499998       2.25079642E-39
  -15.4399996       2.06326485E-39
  -15.4300003       6.62839397E-40
  -15.4200001      -2.25093375E-39
  -15.4099998      -6.35080936E-39
  -15.3999996      -1.03043348E-38
  -15.3900003      -1.16620234E-38
  -15.3800001      -7.29967759E-39
  -15.3699999       5.39164018E-39
  -15.3599997       2.66582039E-38
  -15.3500004       5.24164883E-38
  -15.3400002       7.31748866E-38
  -15.3299999       7.50922608E-38
  -15.3199997       4.41288869E-38
  -15.3100004      -2.67823505E-38
  -15.3000002      -1.29306766E-37
  -15.2900000      -2.33644322E-37
  -15.2799997      -2.89584538E-37
  -15.2700005      -2.38749712E-37
  -15.2600002      -3.88190952E-38
  -15.2500000       3.05220249E-37
  -15.2399998       7.14475093E-37
  -15.2299995       1.03067255E-36
  -15.2200003       1.04753073E-36
  -15.2100000       5.85489224E-37
  -15.1999998      -4.01657430E-37
  -15.1899996      -1.72257078E-36
  -15.1800003      -2.90032604E-36
  -15.1700001      -3.23859814E-36
  -15.1599998      -2.03887788E-36
  -15.1499996       1.04592630E-36
  -15.1400003       5.61082093E-36
  -15.1300001       1.02168884E-35
  -15.1199999       1.24387822E-35
  -15.1099997       9.42632895E-36
  -15.1000004      -9.60198944E-37
  -15.0900002      -1.86090499E-35
  -15.0799999      -3.96687415E-35
  -15.0699997      -5.58373707E-35
  -15.0600004      -5.52667738E-35
  -15.0500002      -2.57355805E-35
  -15.0400000       3.98405169E-35
  -15.0299997       1.36486454E-34
  -15.0200005       2.40997533E-34
  -15.0100002       3.09798184E-34
  -15.0000000       2.84527214E-34
  -14.9899998       1.08130454E-34
  -14.9799995      -2.48520835E-34
  -14.9700003      -7.54109013E-34
  -14.9600000      -1.28882716E-33
  -14.9499998      -1.63626003E-33
  -14.9399996      -1.51228588E-33
  -14.9300003      -6.43263064E-34
  -14.9200001       1.10775732E-33
  -14.9099998       3.59004754E-33
  -14.8999996       6.23894288E-33
  -14.8900003       8.04537060E-33
  -14.8800001       7.69646698E-33
  -14.8699999       3.93639961E-33
  -14.8599997      -3.86775588E-33
  -14.8500004      -1.50682698E-32
  -14.8400002      -2.72099289E-32
  -14.8299999      -3.59372250E-32
  -14.8199997      -3.56372624E-32
  -14.8100004      -2.09885633E-32
  -14.8000002       1.06951979E-32
  -14.7900000       5.68349462E-32
  -14.7799997       1.07589001E-31
  -14.7700005       1.45666813E-31
  -14.7600002       1.49044185E-31
  -14.7500000       9.70830146E-32
  -14.7399998      -2.05540859E-32
  -14.7299995      -1.94264547E-31
  -14.7200003      -3.87602688E-31
  -14.7100000      -5.37289739E-31
  -14.6999998      -5.63721152E-31
  -14.6899996      -3.93223831E-31
  -14.6800003       1.06830888E-32
  -14.6700001       6.14669946E-31
  -14.6599998       1.29356251E-30
  -14.6499996       1.83253513E-30
  -14.6400003       1.96438441E-30
  -14.6300001       1.44442479E-30
  -14.6199999       1.52379920E-31
  -14.6099997      -1.80455254E-30
  -14.6000004      -4.02556109E-30
  -14.5900002      -5.82851702E-30
  -14.5799999      -6.37149460E-30
  -14.5699997      -4.88732973E-30
  -14.5600004      -9.94895254E-31
  -14.5500002       4.99323255E-30
  -14.5400000       1.18801199E-29
  -14.5299997       1.76297190E-29
  -14.5200005       1.97312817E-29
  -14.5100002       1.58857623E-29
  -14.5000000       4.90284663E-30
  -14.4899998      -1.24229546E-29
  -14.4799995      -3.27739892E-29
  -14.4700003      -5.04322962E-29
  -14.4600000      -5.82818239E-29
  -14.4499998      -4.96863504E-29
  -14.4399996      -2.09345350E-29
  -14.4300003       2.63682890E-29
  -14.4200001       8.37955147E-29
  -14.4099998       1.36321029E-28
  -14.3999996       1.64827910E-28
  -14.3900003       1.50896094E-28
  -14.3800001       8.30957882E-29
  -14.3699999      -3.67591656E-29
  -14.3599997      -1.89464935E-28
  -14.3500004      -3.38468875E-28
  -14.3400002      -4.35509720E-28
  -14.3299999      -4.31917909E-28
  -14.3199997      -2.93826878E-28
  -14.3100004      -1.77248449E-29
  -14.3000002       3.58470018E-28
  -14.2900000       7.53718076E-28
  -14.2799997       1.05500988E-27
  -14.2700005       1.14184140E-27
  -14.2600002       9.20474046E-28
  -14.2500000       3.60357478E-28
  -14.2399998      -4.77796690E-28
  -14.2299995      -1.43323855E-27
  -14.2200003      -2.26383859E-27
  -14.2100000      -2.69422962E-27
  -14.1999998      -2.48711762E-27
  -14.1899996      -1.52278398E-27
  -14.1800003       1.34600499E-28
  -14.1700001       2.20683241E-27
  -14.1599998       4.22580114E-27
  -14.1499996       5.61849886E-27
  -14.1400003       5.84323601E-27
  -14.1300001       4.55008923E-27
  -14.1199999       1.72514905E-27
  -14.1099997      -2.22659207E-27
  -14.1000004      -6.49743590E-27
  -14.0900002      -1.00099477E-26
  -14.0799999      -1.16547928E-26
  -14.0699997      -1.05890363E-26
  -14.0600004      -6.52380265E-27
  -14.0500002       8.15561095E-29
  -14.0400000       7.99217632E-27
  -14.0299997       1.53784135E-26
  -14.0200005       2.01954108E-26
  -14.0100002       2.06947813E-26
  -14.0000000       1.59521711E-26
  -13.9899998       6.26823367E-27
  -13.9799995      -6.69043565E-27
  -13.9700003      -2.00959897E-26
  -13.9600000      -3.05148500E-26
  -13.9499998      -3.47235647E-26
  -13.9399996      -3.06073070E-26
  -13.9300003      -1.79107171E-26
  -13.9200001       1.38727084E-27
  -13.9099998       2.32375943E-26
  -13.8999996       4.22669362E-26
  -13.8900003       5.29966494E-26
  -13.8800001       5.12813576E-26
  -13.8699999       3.56150916E-26
  -13.8599997       7.93551392E-27
  -13.8500004      -2.63638578E-26
  -13.8400002      -5.93337724E-26
  -13.8299999      -8.21764910E-26
  -13.8199997      -8.74245484E-26
  -13.8100004      -7.10839049E-26
  -13.8000002      -3.41739413E-26
  -13.7900000       1.68205991E-26
  -13.7799997       7.08492188E-26
  -13.7700005       1.14490428E-25
  -13.7600002       1.35040390E-25
  -13.7500000       1.23811312E-25
  -13.7399998       7.88189942E-26
  -13.7299995       6.09912893E-27
  -13.7200003      -8.08412699E-26
  -13.7100000      -1.63506485E-25
  -13.6999998      -2.22408732E-25
  -13.6899996      -2.41725643E-25
  -13.6800003      -2.13509321E-25
  -13.6700001      -1.40342497E-25
  -13.6599998      -3.56294544E-26
  -13.6499996       7.87594599E-26
  -13.6400003       1.77115174E-25
  -13.6300001       2.35797353E-25
  -13.6199999       2.39013440E-25
  -13.6099997       1.82979541E-25
  -13.6000004       7.72743244E-26
  -13.5900002      -5.71587350E-26
  -13.5799999      -1.93059606E-25
  -13.5699997      -3.03809760E-25
  -13.5600004      -3.70550302E-25
  -13.5500002      -3.87520278E-25
  -13.5400000      -3.63995040E-25
  -13.5299997      -3.21998674E-25
  -13.5200005      -2.90065141E-25
  -13.5100002      -2.94462572E-25
  -13.5000000      -3.50163893E-25
  -13.4899998      -4.54183708E-25
  -13.4799995      -5.83552213E-25
  -13.4700003      -6.99179648E-25
  -13.4600000      -7.55383423E-25
  -13.4499998      -7.13249426E-25
  -13.4399996      -5.54694497E-25
  -13.4300003      -2.93475559E-25
  -13.4200001       2.03140481E-26
  -13.4099998       3.04474967E-25
  -13.3999996       4.57913442E-25
  -13.3900003       3.80832142E-25
  -13.3800001      -2.07599648E-27
  -13.3699999      -7.20595545E-25
  -13.3599997      -1.74528888E-24
  -13.3500004      -2.98502600E-24
  -13.3400002      -4.29732609E-24
  -13.3299999      -5.51020486E-24
  -13.3199997      -6.45151511E-24
  -13.3100004      -6.97986417E-24
  -13.3000002      -7.01069127E-24
  -13.2900000      -6.53210119E-24
  -13.2799997      -5.60748285E-24
  -13.2700005      -4.36505256E-24
  -13.2600002      -2.97759651E-24
  -13.2500000      -1.63786752E-24
  -13.2399998      -5.35724217E-25
  -13.2299995       1.58043611E-25
  -13.2200003       2.98947444E-25
  -13.2100000      -2.31737653E-25
  -13.1999998      -1.53089730E-24
  -13.1899996      -3.67473616E-24
  -13.1800003      -6.71126176E-24
  -13.1700001      -1.06409108E-23
  -13.1599998      -1.53866925E-23
  -13.1499996      -2.07605219E-23
  -13.1400003      -2.64369961E-23
  -13.1300001      -3.19479674E-23
  -13.1199999      -3.67097968E-23
  -13.1099997      -4.00897250E-23
  -13.1000004      -4.15090404E-23
  -13.0900002      -4.05701603E-23
  -13.0799999      -3.71851834E-23
  -13.0699997      -3.16771388E-23
  -13.0600004      -2.48247238E-23
  -13.0500002      -1.78273903E-23
  -13.0400000      -1.21807539E-23
  -13.0299997      -9.46951944E-24
  -13.0200005      -1.11039864E-23
  -13.0100002      -1.80420693E-23
  -13.0000000      -3.05480453E-23
  -12.9899998      -4.80387829E-23
  -12.9799995      -6.90572749E-23
  -12.9700003      -9.13928428E-23
  -12.9600000      -1.12341038E-22
  -12.9499998      -1.29068941E-22
  -12.9399996      -1.39029376E-22
  -12.9300003      -1.40354561E-22
  -12.9200001      -1.32160695E-22
  -12.9099998      -1.14708756E-22
  -12.8999996      -8.93926765E-23
  -12.8900003      -5.85573659E-23
  -12.8800001      -2.51813284E-23
  -12.8699999       7.51734587E-24
  -12.8599997       3.64799038E-23
  -12.8500004       5.91419055E-23
  -12.8400002       7.36522130E-23
  -12.8299999       7.89512567E-23
  -12.8199997       7.47150800E-23
  -12.8100004       6.11991727E-23
  -12.8000002       3.90333267E-23
  -12.7900000       9.02210120E-24
  -12.7799997      -2.80069003E-23
  -12.7700005      -7.12881041E-23
  -12.7600002      -1.20145737E-22
  -12.7500000      -1.73998532E-22
  -12.7399998      -2.32389234E-22
  -12.7299995      -2.95082471E-22
  -12.7200003      -3.62253662E-22
  -12.7100000      -4.34756315E-22
  -12.6999998      -5.14412334E-22
  -12.6899996      -6.04235293E-22
  -12.6800003      -7.08475802E-22
  -12.6700001      -8.32384671E-22
  -12.6599998      -9.81623270E-22
  -12.6499996      -1.16131251E-21
  -12.6400003      -1.37478811E-21
  -12.6300001      -1.62220912E-21
  -12.6199999      -1.89923233E-21
  -12.6099997      -2.19599630E-21
  -12.6000004      -2.49665646E-21
  -12.5900002      -2.77965947E-21
  -12.5799999      -3.01885663E-21
  -12.5699997      -3.18544851E-21
  -12.5600004      -3.25062977E-21
  -12.5500002      -3.18870694E-21
  -12.5400000      -2.98039294E-21
  -12.5299997      -2.61595748E-21
  -12.5200005      -2.09793804E-21
  -12.5100002      -1.44318692E-21
  -12.5000000      -6.84106387E-22
  -12.4899998       1.30952210E-22
  -12.4799995       9.38088852E-22
  -12.4700003       1.65893182E-21
  -12.4600000       2.20225711E-21
  -12.4499998       2.46600029E-21
  -12.4399996       2.33954082E-21
  -12.4300003       1.70618805E-21
  -12.4200001       4.45795420E-22
  -12.4099998      -1.56254266E-21
  -12.3999996      -4.43776583E-21
  -12.3900003      -8.29417070E-21
  -12.3800001      -1.32389441E-20
  -12.3699999      -1.93699915E-20
  -12.3599997      -2.67742725E-20
  -12.3500004      -3.55267578E-20
  -12.3400002      -4.56900611E-20
  -12.3299999      -5.73146984E-20
  -12.3199997      -7.04398963E-20
  -12.3100004      -8.50946158E-20
  -12.3000002      -1.01298645E-19
  -12.2900000      -1.19063318E-19
  -12.2799997      -1.38391569E-19
  -12.2700005      -1.59277440E-19
  -12.2600002      -1.81704607E-19
  -12.2500000      -2.05644480E-19
  -12.2399998      -2.31053982E-19
  -12.2299995      -2.57873427E-19
  -12.2200003      -2.86024761E-19
  -12.2100000      -3.15410973E-19
  -12.1999998      -3.45916334E-19
  -12.1899996      -3.77407953E-19
  -12.1800003      -4.09738178E-19
  -12.1700001      -4.42747906E-19
  -12.1599998      -4.76270021E-19
  -12.1499996      -5.10133089E-19
  -12.1400003      -5.44163713E-19
  -12.1300001      -5.78188908E-19
  -12.1199999      -6.12037398E-19
  -12.1099997      -6.45539867E-19
  -12.1000004      -6.78528708E-19
  -12.0900002      -7.10837918E-19
  -12.0799999      -7.42302317E-19
  -12.0699997      -7.72757970E-19
  -12.0600004      -8.02042697E-19
  -12.0500002      -8.29996801E-19
  -12.0400000      -8.56464719E-19
  -12.0299997      -8.81296216E-19
  -12.0200005      -9.04347258E-19
  -12.0100002      -9.25480999E-19
  -12.0000000      -9.44567571E-19
  -11.9899998      -9.61483311E-19
  -11.9799995      -9.76109932E-19
  -11.9700003      -9.88333904E-19
  -11.9600000      -9.98045315E-19
  -11.9499998      -1.00513880E-18
  -11.9399996      -1.00951510E-18
  -11.9300003      -1.01108344E-18
  -11.9200001      -1.00976646E-18
  -11.9099998      -1.00550493E-18
  -11.8999996      -9.98263380E-19
  -11.8900003      -9.88036016E-19
  -11.8800001      -9.74851274E-19
  -11.8699999      -9.58776466E-19
  -11.8599997      -9.39920367E-19
  -11.8500004      -9.18435074E-19
  -11.8400002      -8.94516940E-19
  -11.8299999      -8.68406157E-19
  -11.8199997      -8.40387482E-19
  -11.8100004      -8.10789253E-19
  -11.8000002      -7.79984272E-19
  -11.7900000      -7.48390108E-19
  -11.7799997      -7.16470087E-19
  -11.7700005      -6.84734269E-19
  -11.7600002      -6.53739553E-19
  -11.7500000      -6.24088850E-19
  -11.7399998      -5.96430619E-19
  -11.7299995      -5.71455245E-19
  -11.7200003      -5.49892817E-19
  -11.7100000      -5.32507445E-19
  -11.6999998      -5.20094256E-19
  -11.6899996      -5.13475364E-19
  -11.6800003      -5.13498680E-19
  -11.6700001      -5.21034244E-19
  -11.6599998      -5.36978357E-19
  -11.6499996      -5.62254773E-19
  -11.6400003      -5.97816560E-19
  -11.6300001      -6.44653750E-19
  -11.6199999      -7.03795199E-19
  -11.6099997      -7.76311952E-19
  -11.6000004      -8.63321323E-19
  -11.5900002      -9.65985552E-19
  -11.5799999      -1.08551532E-18
  -11.5699997      -1.22315838E-18
  -11.5600004      -1.38020090E-18
  -11.5500002      -1.55796046E-18
  -11.5400000      -1.75777700E-18
  -11.5299997      -1.98100492E-18
  -11.5200005      -2.22901021E-18
  -11.5100002      -2.50315317E-18
  -11.5000000      -2.80479409E-18
  -11.4899998      -3.13527963E-18
  -11.4799995      -3.49593534E-18
  -11.4700003      -3.88807065E-18
  -11.4600000      -4.31295239E-18
  -11.4499998      -4.77181594E-18
  -11.4399996      -5.26585618E-18
  -11.4300003      -5.79621420E-18
  -11.4200001      -6.36398435E-18
  -11.4099998      -6.97017539E-18
  -11.3999996      -7.61573858E-18
  -11.3900003      -8.30154327E-18
  -11.3800001      -9.02836619E-18
  -11.3699999      -9.79689474E-18
  -11.3599997      -1.06077071E-17
  -11.3500004      -1.14612839E-17
  -11.3400002      -1.23579758E-17
  -11.3299999      -1.32980095E-17
  -11.3199997      -1.42815247E-17
  -11.3100004      -1.53084728E-17
  -11.3000002      -1.63786973E-17
  -11.2900000      -1.74919037E-17
  -11.2799997      -1.86476835E-17
  -11.2700005      -1.98454492E-17
  -11.2600002      -2.10844765E-17
  -11.2500000      -2.23638933E-17
  -11.2399998      -2.36826508E-17
  -11.2299995      -2.50395512E-17
  -11.2200003      -2.64332315E-17
  -11.2100000      -2.78621396E-17
  -11.1999998      -2.93245354E-17
  -11.1899996      -3.08184699E-17
  -11.1800003      -3.23417726E-17
  -11.1700001      -3.38920679E-17
  -11.1599998      -3.54667253E-17
  -11.1499996      -3.70628034E-17
  -11.1400003      -3.86771920E-17
  -11.1300001      -4.03064102E-17
  -11.1199999      -4.19466730E-17
  -11.1099997      -4.35939138E-17
  -11.1000004      -4.52437057E-17
  -11.0900002      -4.68913833E-17
  -11.0799999      -4.85319240E-17
  -11.0699997      -5.01599776E-17
  -11.0600004      -5.17699027E-17
  -11.0500002      -5.33556641E-17
  -11.0400000      -5.49109821E-17
  -11.0299997      -5.64293283E-17
  -11.0200005      -5.79038671E-17
  -11.0100002      -5.93274119E-17
  -11.0000000      -6.06925775E-17
  -10.9899998      -6.19916349E-17
  -10.9799995      -6.32166232E-17
  -10.9700003      -6.43594162E-17
  -10.9600000      -6.54115105E-17
  -10.9499998      -6.63640984E-17
  -10.9399996      -6.72081336E-17
  -10.9300003      -6.79342791E-17
  -10.9200001      -6.85328733E-17
  -10.9099998      -6.89939835E-17
  -10.8999996      -6.93072930E-17
  -10.8900003      -6.94621214E-17
  -10.8800001      -6.94474770E-17
  -10.8699999      -6.92520043E-17
  -10.8599997      -6.88639639E-17
  -10.8500004      -6.82712460E-17
  -10.8400002      -6.74613832E-17
  -10.8299999      -6.64215378E-17
  -10.8199997      -6.51385806E-17
  -10.8100004      -6.35989064E-17
  -10.8000002      -6.17886448E-17
  -10.7900000      -5.96936014E-17
  -10.7799997      -5.72993106E-17
  -10.7700005      -5.45909856E-17
  -10.7600002      -5.15535883E-17
  -10.7500000      -4.81718390E-17
  -10.7399998      -4.44302728E-17
  -10.7299995      -4.03131898E-17
  -10.7200003      -3.58047345E-17
  -10.7100000      -3.08888497E-17
  -10.6999998      -2.55493460E-17
  -10.6899996      -1.97698995E-17
  -10.6800003      -1.35340041E-17
  -10.6700001      -6.82504945E-18
  -10.6599998       3.73732169E-19
  -10.6499996       8.07921780E-18
  -10.6400003       1.63085060E-17
  -10.6300001       2.50788225E-17
  -10.6199999       3.44074742E-17
  -10.6099997       4.43120158E-17
  -10.6000004       5.48099734E-17
  -10.5900002       6.59191215E-17
  -10.5799999       7.76573306E-17
  -10.5699997       9.00424544E-17
  -10.5600004       1.03092625E-16
  -10.5500002       1.16826212E-16
  -10.5400000       1.31261175E-16
  -10.5299997       1.46415865E-16
  -10.5200005       1.62308559E-16
  -10.5100002       1.78957495E-16
  -10.5000000       1.96381135E-16
  -10.4899998       2.14598179E-16
  -10.4799995       2.33626748E-16
  -10.4700003       2.53485144E-16
  -10.4600000       2.74191738E-16
  -10.4499998       2.95765297E-16
  -10.4399996       3.18224376E-16
  -10.4300003       3.41586947E-16
  -10.4200001       3.65871170E-16
  -10.4099998       3.91095811E-16
  -10.3999996       4.17279294E-16
  -10.3900003       4.44439617E-16
  -10.3800001       4.72594992E-16
  -10.3699999       5.01763471E-16
  -10.3599997       5.31962420E-16
  -10.3500004       5.63209730E-16
  -10.3400002       5.95522819E-16
  -10.3299999       6.28918946E-16
  -10.3199997       6.63415104E-16
  -10.3100004       6.99028180E-16
  -10.3000002       7.35773687E-16
  -10.2900000       7.73666977E-16
  -10.2799997       8.12724725E-16
  -10.2700005       8.52961490E-16
  -10.2600002       8.94391406E-16
  -10.2500000       9.37027974E-16
  -10.2399998       9.80884588E-16
  -10.2299995       1.02597554E-15
  -10.2200003       1.07231205E-15
  -10.2100000       1.11990461E-15
  -10.1999998       1.16876677E-15
  -10.1899996       1.21890900E-15
  -10.1800003       1.27034158E-15
  -10.1700001       1.32307266E-15
  -10.1599998       1.37711315E-15
  -10.1499996       1.43247194E-15
  -10.1400003       1.48915645E-15
  -10.1300001       1.54717386E-15
  -10.1199999       1.60653044E-15
  -10.1099997       1.66723560E-15
  -10.1000004       1.72929357E-15
  -10.0900002       1.79270902E-15
  -10.0799999       1.85748587E-15
  -10.0699997       1.92362771E-15
  -10.0600004       1.99114237E-15
  -10.0500002       2.06003008E-15
  -10.0400000       2.13029210E-15
  -10.0299997       2.20193224E-15
  -10.0200005       2.27494860E-15
  -10.0100002       2.34934456E-15
  -10.0000000       2.42511843E-15
  -9.98999977       2.50227085E-15
  -9.97999954       2.58079949E-15
  -9.97000027       2.66070244E-15
  -9.96000004       2.74197969E-15
  -9.94999981       2.82462427E-15
  -9.93999958       2.90863618E-15
  -9.93000031       2.99401117E-15
  -9.92000008       3.08074332E-15
  -9.90999985       3.16882734E-15
  -9.89999962       3.25825962E-15
  -9.89000034       3.34903211E-15
  -9.88000011       3.44113911E-15
  -9.86999989       3.53457722E-15
  -9.85999966       3.62933967E-15
  -9.85000038       3.72541692E-15
  -9.84000015       3.82280242E-15
  -9.82999992       3.92148768E-15
  -9.81999969       4.02146595E-15
  -9.81000042       4.12272874E-15
  -9.80000019       4.22526207E-15
  -9.78999996       4.32906384E-15
  -9.77999973       4.43412303E-15
  -9.77000046       4.54042525E-15
  -9.76000023       4.64796328E-15
  -9.75000000       4.75672781E-15
  -9.73999977       4.86670869E-15
  -9.72999954       4.97789447E-15
  -9.72000027       5.09027584E-15
  -9.71000004       5.20384220E-15
  -9.69999981       5.31858679E-15
  -9.68999958       5.43450071E-15
  -9.68000031       5.55156998E-15
  -9.67000008       5.66978656E-15
  -9.65999985       5.78914028E-15
  -9.64999962       5.90962394E-15
  -9.64000034       6.03122864E-15
  -9.63000011       6.15394762E-15
  -9.61999989       6.27777918E-15
  -9.60999966       6.40271315E-15
  -9.60000038       6.52874022E-15
  -9.59000015       6.65585403E-15
  -9.57999992       6.78404866E-15
  -9.56999969       6.91332283E-15
  -9.56000042       7.04367188E-15
  -9.55000019       7.17508989E-15
  -9.53999996       7.30757262E-15
  -9.52999973       7.44111753E-15
  -9.52000046       7.57572038E-15
  -9.51000023       7.71138118E-15
  -9.50000000       7.84809738E-15
  -9.48999977       7.98586644E-15
  -9.47999954       8.12468921E-15
  -9.47000027       8.26456315E-15
  -9.46000004       8.40548656E-15
  -9.44999981       8.54746199E-15
  -9.43999958       8.69049451E-15
  -9.43000031       8.83458329E-15
  -9.42000008       8.97973085E-15
  -9.40999985       9.12593890E-15
  -9.39999962       9.27320659E-15
  -9.39000034       9.42154239E-15
  -9.38000011       9.57094884E-15
  -9.36999989       9.72142678E-15
  -9.35999966       9.87297961E-15
  -9.35000038       1.00256133E-14
  -9.34000015       1.01793336E-14
  -9.32999992       1.03341425E-14
  -9.31999969       1.04900414E-14
  -9.31000042       1.06470364E-14
  -9.30000019       1.08051301E-14
  -9.28999996       1.09643240E-14
  -9.27999973       1.11246207E-14
  -9.27000046       1.12860211E-14
  -9.26000023       1.14485261E-14
  -9.25000000       1.16121348E-14
  -9.23999977       1.17768446E-14
  -9.22999954       1.19426529E-14
  -9.22000027       1.21095557E-14
  -9.21000004       1.22775486E-14
  -9.19999981       1.24466181E-14
  -9.18999958       1.26167573E-14
  -9.18000031       1.27879563E-14
  -9.17000008       1.29602089E-14
  -9.15999985       1.31334915E-14
  -9.14999962       1.33077838E-14
  -9.14000034       1.34830654E-14
  -9.13000011       1.36593134E-14
  -9.11999989       1.38365077E-14
  -9.10999966       1.40146124E-14
  -9.10000038       1.41935947E-14
  -9.09000015       1.43734207E-14
  -9.07999992       1.45540454E-14
  -9.06999969       1.47354087E-14
  -9.06000042       1.49174750E-14
  -9.05000019       1.51001936E-14
  -9.03999996       1.52834966E-14
  -9.02999973       1.54672976E-14
  -9.02000046       1.56515409E-14
  -9.01000023       1.58361331E-14
  -9.00000000       1.60209760E-14
  -8.98999977       1.62060103E-14
  -8.97999954       1.63911395E-14
  -8.97000027       1.65762247E-14
  -8.96000004       1.67611608E-14
  -8.94999981       1.69458242E-14
  -8.93999958       1.71300775E-14
  -8.93000031       1.73137820E-14
  -8.92000008       1.74967869E-14
  -8.90999985       1.76789058E-14
  -8.89999962       1.78599794E-14
  -8.89000034       1.80398417E-14
  -8.88000011       1.82182811E-14
  -8.86999989       1.83950941E-14
  -8.85999966       1.85700403E-14
  -8.85000038       1.87428842E-14
  -8.84000015       1.89133445E-14
  -8.82999992       1.90812044E-14
  -8.81999969       1.92462030E-14
  -8.81000042       1.94080371E-14
  -8.80000019       1.95663933E-14
  -8.78999996       1.97209599E-14
  -8.77999973       1.98713675E-14
  -8.77000046       2.00171927E-14
  -8.76000023       2.01581678E-14
  -8.75000000       2.02938642E-14
  -8.73999977       2.04238075E-14
  -8.72999954       2.05475607E-14
  -8.72000027       2.06647088E-14
  -8.71000004       2.07747417E-14
  -8.69999981       2.08771666E-14
  -8.68999958       2.09714855E-14
  -8.68000031       2.10571120E-14
  -8.67000008       2.11334144E-14
  -8.65999985       2.11998184E-14
  -8.64999962       2.12556582E-14
  -8.64000034       2.13003663E-14
  -8.63000011       2.13332786E-14
  -8.61999989       2.13535905E-14
  -8.60999966       2.13605175E-14
  -8.60000038       2.13533144E-14
  -8.59000015       2.13312610E-14
  -8.57999992       2.12934545E-14
  -8.56999969       2.12389971E-14
  -8.56000042       2.11670484E-14
  -8.55000019       2.10765379E-14
  -8.53999996       2.09664202E-14
  -8.52999973       2.08358009E-14
  -8.52000046       2.06837026E-14
  -8.51000023       2.05089546E-14
  -8.50000000       2.03103728E-14
  -8.48999977       2.00868222E-14
  -8.47999954       1.98370305E-14
  -8.47000027       1.95597678E-14
  -8.46000004       1.92537873E-14
  -8.44999981       1.89175407E-14
  -8.43999958       1.85496895E-14
  -8.43000031       1.81489125E-14
  -8.42000008       1.77137256E-14
  -8.40999985       1.72423839E-14
  -8.39999962       1.67333188E-14
  -8.39000034       1.61850429E-14
  -8.38000011       1.55957417E-14
  -8.36999989       1.49636383E-14
  -8.35999966       1.42869081E-14
  -8.35000038       1.35637097E-14
  -8.34000015       1.27922024E-14
  -8.32999992       1.19703975E-14
  -8.31999969       1.10960139E-14
  -8.31000042       1.01669729E-14
  -8.30000019       9.18127387E-15
  -8.28999996       8.13674842E-15
  -8.27999973       7.03091006E-15
  -8.27000046       5.86130071E-15
  -8.26000023       4.62578330E-15
  -8.25000000       3.32173309E-15
  -8.23999977       1.94633518E-15
  -8.22999954       4.97290714E-16
  -8.22000027      -1.02796628E-15
  -8.21000004      -2.63265421E-15
  -8.19999981      -4.31951439E-15
  -8.18999958      -6.09134342E-15
  -8.18000031      -7.95120246E-15
  -8.17000008      -9.90217091E-15
  -8.15999985      -1.19474057E-14
  -8.14999962      -1.40898002E-14
  -8.14000034      -1.63327739E-14
  -8.13000011      -1.86800835E-14
  -8.11999989      -2.11351102E-14
  -8.10999966      -2.37010915E-14
  -8.10000038      -2.63816678E-14
  -8.09000015      -2.91808102E-14
  -8.07999992      -3.21022743E-14
  -8.06999969      -3.51498751E-14
  -8.06000042      -3.83276005E-14
  -8.05000019      -4.16395806E-14
  -8.03999996      -4.50899253E-14
  -8.02999973      -4.86826969E-14
  -8.02000046      -5.24221949E-14
  -8.01000023      -5.63129763E-14
  -8.00000000      -6.03595814E-14
  -7.98999977      -6.45664755E-14
  -7.98000002      -6.89382091E-14
  -7.96999979      -7.34794983E-14
  -7.96000004      -7.81953847E-14
  -7.94999981      -8.30908421E-14
  -7.94000006      -8.81709053E-14
  -7.92999983      -9.34404396E-14
  -7.92000008      -9.89045271E-14
  -7.90999985      -1.04568792E-13
  -7.90000010      -1.10438778E-13
  -7.88999987      -1.16519736E-13
  -7.88000011      -1.22817135E-13
  -7.86999989      -1.29336591E-13
  -7.86000013      -1.36084002E-13
  -7.84999990      -1.43065654E-13
  -7.84000015      -1.50287213E-13
  -7.82999992      -1.57754506E-13
  -7.82000017      -1.65473538E-13
  -7.80999994      -1.73450772E-13
  -7.80000019      -1.81692660E-13
  -7.78999996      -1.90205395E-13
  -7.78000021      -1.98995321E-13
  -7.76999998      -2.08069171E-13
  -7.76000023      -2.17433791E-13
  -7.75000000      -2.27095686E-13
  -7.73999977      -2.37061591E-13
  -7.73000002      -2.47338608E-13
  -7.71999979      -2.57933676E-13
  -7.71000004      -2.68853922E-13
  -7.69999981      -2.80106532E-13
  -7.69000006      -2.91698686E-13
  -7.67999983      -3.03637839E-13
  -7.67000008      -3.15931444E-13
  -7.65999985      -3.28587011E-13
  -7.65000010      -3.41612074E-13
  -7.63999987      -3.55014087E-13
  -7.63000011      -3.68800937E-13
  -7.61999989      -3.82980540E-13
  -7.61000013      -3.97560294E-13
  -7.59999990      -4.12548332E-13
  -7.59000015      -4.27952975E-13
  -7.57999992      -4.43782110E-13
  -7.57000017      -4.60043678E-13
  -7.55999994      -4.76746030E-13
  -7.55000019      -4.93897187E-13
  -7.53999996      -5.11505335E-13
  -7.53000021      -5.29579039E-13
  -7.51999998      -5.48126648E-13
  -7.51000023      -5.67156619E-13
  -7.50000000      -5.86677083E-13
  -7.48999977      -6.06696822E-13
  -7.48000002      -6.27224238E-13
  -7.46999979      -6.48268060E-13
  -7.46000004      -6.69836962E-13
  -7.44999981      -6.91939236E-13
  -7.44000006      -7.14583557E-13