  -16.0000000       0.00000000    
  -15.9899998       0.00000000    
  -15.9799995       0.00000000    
  -15.9700003       0.00000000    
  -15.9600000       0.00000000    
  -15.9499998       0.00000000    
  -15.9399996       0.00000000    
  -15.9300003       0.00000000    
  -15.9200001       0.00000000    
  -15.9099998       0.00000000    
  -15.8999996       1.54056497E-38
  -15.8900003       2.68793843E-37
  -15.8800001       2.36118388E-36
  -15.8699999       1.38593467E-35
  -15.8599997       6.07547884E-35
  -15.8500004       2.10129143E-34
  -15.8400002       5.88147165E-34
  -15.8299999       1.33254379E-33
  -15.8199997       2.34532374E-33
  -15.8100004       2.65864404E-33
  -15.8000002      -6.82307798E-34
  -15.7900000      -1.39031345E-32
  -15.7799997      -4.67840286E-32
  -15.7700005      -1.09658965E-31
  -15.7600002      -2.04161293E-31
  -15.7500000      -3.05772083E-31
  -15.7399998      -3.40376520E-31
  -15.7299995      -1.64777236E-31
  -15.7200003       4.29508615E-31
  -15.7100000       1.66431305E-30
  -15.6999998       3.65662438E-30
  -15.6899996       6.24293539E-30
  -15.6800003       8.80310980E-30
  -15.6700001       1.01973161E-29
  -15.6599998       8.96404833E-30
  -15.6499996       3.89702445E-30
  -15.6400003      -5.01288419E-30
  -15.6300001      -1.55198176E-29
  -15.6199999      -2.24761968E-29
  -15.6099997      -1.83101500E-29
  -15.6000004       4.74638890E-30
  -15.5900002       5.05640449E-29
  -15.5799999       1.13992953E-28
  -15.5699997       1.76711246E-28
  -15.5600004       2.06926198E-28
  -15.5500002       1.65734999E-28
  -15.5400000       2.13428893E-29
  -15.5299997      -2.30931158E-28
  -15.5200005      -5.49183787E-28
  -15.5100002      -8.35953648E-28
  -15.5000000      -9.50528954E-28
  -15.4899998      -7.49271778E-28
  -15.4799995      -1.51017102E-28
  -15.4700003       7.89095387E-28
  -15.4600000       1.82728689E-27
  -15.4499998       2.53654103E-27
  -15.4399996       2.39865157E-27
  -15.4300003       9.87278875E-28
  -15.4200001      -1.79279253E-27
  -15.4099998      -5.48814615E-27
  -15.3999996      -9.00855503E-27
  -15.3900003      -1.07721530E-26
  -15.3800001      -9.13716478E-27
  -15.3699999      -3.07579814E-27
  -15.3599997       7.07794970E-27
  -15.3500004       1.90837625E-26
  -15.3400002       2.87730298E-26
  -15.3299999       3.07979864E-26
  -15.3199997       2.01988359E-26
  -15.3100004      -5.46914415E-27
  -15.3000002      -4.40342958E-26
  -15.2900000      -8.74498659E-26
  -15.2799997      -1.22202122E-25
  -15.2700005      -1.31907441E-25
  -15.2600002      -1.02010229E-25
  -15.2500000      -2.56935294E-26
  -15.2399998       9.06458311E-26
  -15.2299995       2.24436129E-25
  -15.2200003       3.38399561E-25
  -15.2100000       3.87480095E-25
  -15.1999998       3.30734249E-25
  -15.1899996       1.45862427E-25
  -15.1800003      -1.57529939E-25
  -15.1700001      -5.30600762E-25
  -15.1599998      -8.87949230E-25
  -15.1499996      -1.12231961E-24
  -15.1400003      -1.13009038E-24
  -15.1300001      -8.42617634E-25
  -15.1199999      -2.55458060E-25
  -15.1099997       5.53782623E-25
  -15.1000004       1.42694150E-24
  -15.0900002       2.15009522E-24
  -15.0799999       2.49957106E-24
  -15.0699997       2.30043357E-24
  -15.0600004       1.48334141E-24
  -15.0500002       1.23488434E-25
  -15.0400000      -1.55249236E-24
  -15.0299997      -3.19911733E-24
  -15.0200005      -4.42168686E-24
  -15.0100002      -4.86974920E-24
  -15.0000000      -4.33255938E-24
  -14.9899998      -2.81102971E-24
  -14.9799995      -5.43693586E-25
  -14.9700003       2.02605158E-24
  -14.9600000       4.33960983E-24
  -14.9499998       5.85216147E-24
  -14.9399996       6.17062067E-24
  -14.9300003       5.16454652E-24
  -14.9200001       3.01767301E-24
  -14.9099998       2.00756916E-25
  -14.8999996      -2.63381546E-24
  -14.8900003      -4.81369748E-24
  -14.8800001      -5.82502860E-24
  -14.8699999      -5.45994574E-24
  -14.8599997      -3.88973350E-24
  -14.8500004      -1.63696526E-24
  -14.8400002       5.54222759E-25
  -14.8299999       1.92212448E-24
  -14.8199997       1.91463799E-24
  -14.8100004       3.77061141E-25
  -14.8000002      -2.35717634E-24
  -14.7900000      -5.50907995E-24
  -14.7799997      -8.03245153E-24
  -14.7700005      -8.89266806E-24
  -14.7600002      -7.37845980E-24
  -14.7500000      -3.36258311E-24
  -14.7399998       2.56800750E-24
  -14.7299995       9.16486609E-24
  -14.7200003       1.47617206E-23
  -14.7100000       1.76660193E-23
  -14.6999998       1.66103231E-23
  -14.6899996       1.11494950E-23
  -14.6800003       1.89148019E-24
  -14.6700001      -9.51869624E-24
  -14.6599998      -2.06858230E-23
  -14.6499996      -2.89783478E-23
  -14.6400003      -3.21621052E-23
  -14.6300001      -2.90056108E-23
  -14.6199999      -1.97016623E-23
  -14.6099997      -5.98180800E-24
  -14.6000004       9.13432692E-24
  -14.5900002       2.19279429E-23
  -14.5799999       2.87968341E-23
  -14.5699997       2.71234013E-23
  -14.5600004       1.59950305E-23
  -14.5500002      -3.40262845E-24
  -14.5400000      -2.78354114E-23
  -14.5299997      -5.25360190E-23
  -14.5200005      -7.21046888E-23
  -14.5100002      -8.16256593E-23
  -14.5000000      -7.77736452E-23
  -14.4899998      -5.96750934E-23
  -14.4799995      -2.93279047E-23
  -14.4700003       8.53574005E-24
  -14.4600000       4.71523525E-23
  -14.4499998       7.88925087E-23
  -14.4399996       9.66888447E-23
  -14.4300003       9.54646840E-23
  -14.4200001       7.32853800E-23
  -14.4099998       3.19897013E-23
  -14.3999996      -2.28574530E-23
  -14.3900003      -8.27305757E-23
  -14.3800001      -1.37529303E-22
  -14.3699999      -1.77356265E-22
  -14.3599997      -1.94360900E-22
  -14.3500004      -1.84282666E-22
  -14.3400002      -1.47358914E-22
  -14.3299999      -8.83720924E-23
  -14.3199997      -1.57822289E-23
  -14.3100004       5.99039262E-23
  -14.3000002       1.28184041E-22
  -14.2900000       1.80556365E-22
  -14.2799997       2.11958241E-22
  -14.2700005       2.21243349E-22
  -14.2600002       2.10513111E-22
  -14.2500000       1.83415903E-22
  -14.2399998       1.42839271E-22
  -14.2299995       8.86601718E-23
  -14.2200003       1.63118528E-23
  -14.2100000      -8.31730510E-23
  -14.1999998      -2.21280305E-22
  -14.1899996      -4.08370900E-22
  -14.1800003      -6.48843673E-22
  -14.1700001      -9.36086937E-22
  -14.1599998      -1.24842466E-21
  -14.1499996      -1.54721458E-21
  -14.1400003      -1.77790881E-21
  -14.1300001      -1.87430766E-21
  -14.1199999      -1.76553624E-21
  -14.1099997      -1.38461119E-21
  -14.1000004      -6.77018806E-22
  -14.0900002       3.92394914E-22
  -14.0799999       1.83566060E-21
  -14.0699997       3.64187348E-21
  -14.0600004       5.78133857E-21
  -14.0500002       8.21281781E-21
  -14.0400000       1.08923402E-20
  -14.0299997       1.37816804E-20
  -14.0200005       1.68546806E-20
  -14.0100002       2.01000931E-20
  -14.0000000       2.35203928E-20
  -13.9899998       2.71269681E-20
  -13.9799995       3.09328875E-20
  -13.9700003       3.49450689E-20
  -13.9600000       3.91576930E-20
  -13.9499998       4.35485906E-20
  -13.9399996       4.80795209E-20
  -13.9300003       5.27005299E-20
  -13.9200001       5.73576084E-20
  -13.9099998       6.20023051E-20
  -13.8999996       6.66014099E-20
  -13.8900003       7.11451130E-20
  -13.8800001       7.56520971E-20
  -13.8699999       8.01708555E-20
  -13.8599997       8.47771335E-20
  -13.8500004       8.95679504E-20
  -13.8400002       9.46532758E-20
  -13.8299999       1.00146401E-19
  -13.8199997       1.06154195E-19
  -13.8100004       1.12768228E-19
  -13.8000002       1.20057317E-19
  -13.7900000       1.28061905E-19
  -13.7799997       1.36790574E-19
  -13.7700005       1.46218520E-19
  -13.7600002       1.56288255E-19
  -13.7500000       1.66912304E-19
  -13.7399998       1.77977822E-19
  -13.7299995       1.89353003E-19
  -13.7200003       2.00894887E-19
  -13.7100000       2.12458096E-19
  -13.6999998       2.23903833E-19
  -13.6899996       2.35108537E-19
  -13.6800003       2.45971849E-19
  -13.6700001       2.56423017E-19
  -13.6599998       2.66425854E-19
  -13.6499996       2.75982065E-19
  -13.6400003       2.85132569E-19
  -13.6300001       2.93957061E-19
  -13.6199999       3.02571708E-19
  -13.6099997       3.11124238E-19
  -13.6000004       3.19786913E-19
  -13.5900002       3.28746572E-19
  -13.5799999       3.38192457E-19
  -13.5699997       3.48302181E-19
  -13.5600004       3.59226445E-19
  -13.5500002       3.71074283E-19
  -13.5400000       3.83899692E-19
  -13.5299997       3.97691455E-19
  -13.5200005       4.12366803E-19
  -13.5100002       4.27769914E-19
  -13.5000000       4.43675020E-19
  -13.4899998       4.59794341E-19
  -13.4799995       4.75789532E-19
  -13.4700003       4.91286657E-19
  -13.4600000       5.05893168E-19
  -13.4499998       5.19216669E-19
  -13.4399996       5.30883690E-19
  -13.4300003       5.40558291E-19
  -13.4200001       5.47958921E-19
  -13.4099998       5.52871908E-19
  -13.3999996       5.55160665E-19
  -13.3900003       5.54769047E-19
  -13.3800001       5.51717991E-19
  -13.3699999       5.46095800E-19
  -13.3599997       5.38042059E-19
  -13.3500004       5.27727427E-19
  -13.3400002       5.15330885E-19
  -13.3299999       5.01016783E-19
  -13.3199997       4.84914058E-19
  -13.3100004       4.67098500E-19
  -13.3000002       4.47579623E-19
  -13.2900000       4.26291354E-19
  -13.2799997       4.03086612E-19
  -13.2700005       3.77734818E-19
  -13.2600002       3.49922137E-19
  -13.2500000       3.19254855E-19
  -13.2399998       2.85266366E-19
  -13.2299995       2.47429031E-19
  -13.2200003       2.05172199E-19
  -13.2100000       1.57906297E-19
  -13.1999998       1.05052823E-19
  -13.1899996       4.60776792E-20
  -13.1800003      -1.94751306E-20
  -13.1700001      -9.19539722E-20
  -13.1599998      -1.71578339E-19
  -13.1499996      -2.58429732E-19
  -13.1400003      -3.52456360E-19
  -13.1300001      -4.53491948E-19
  -13.1199999      -5.61285421E-19
  -13.1099997      -6.75538916E-19
  -13.1000004      -7.95946376E-19
  -13.0900002      -9.22230593E-19
  -13.0799999      -1.05417159E-18
  -13.0699997      -1.19162553E-18
  -13.0600004      -1.33453381E-18
  -13.0500002      -1.48292308E-18
  -13.0400000      -1.63690099E-18
  -13.0299997      -1.79664911E-18
  -13.0200005      -1.96241838E-18
  -13.0100002      -2.13452551E-18
  -13.0000000      -2.31335100E-18
  -12.9899998      -2.49933615E-18
  -12.9799995      -2.69297582E-18
  -12.9700003      -2.89480106E-18
  -12.9600000      -3.10535245E-18
  -12.9499998      -3.32514095E-18
  -12.9399996      -3.55460230E-18
  -12.9300003      -3.79404214E-18
  -12.9200001      -4.04359177E-18
  -12.9099998      -4.30316560E-18
  -12.8999996      -4.57244184E-18
  -12.8900003      -4.85085719E-18
  -12.8800001      -5.13762871E-18
  -12.8699999      -5.43179068E-18
  -12.8599997      -5.73225122E-18
  -12.8500004      -6.03785682E-18
  -12.8400002      -6.34746101E-18
  -12.8299999      -6.65999259E-18
  -12.8199997      -6.97451726E-18
  -12.8100004      -7.29029264E-18
  -12.8000002      -7.60680668E-18
  -12.7900000      -7.92381372E-18
  -12.7799997      -8.24134851E-18
  -12.7700005      -8.55973777E-18
  -12.7600002      -8.87957791E-18
  -12.7500000      -9.20172009E-18
  -12.7399998      -9.52722145E-18
  -12.7299995      -9.85729050E-18
  -12.7200003      -1.01932176E-17
  -12.7100000      -1.05362974E-17
  -12.6999998      -1.08877532E-17
  -12.6899996      -1.12486637E-17
  -12.6800003      -1.16199032E-17
  -12.6700001      -1.20020912E-17
  -12.6599998      -1.23955769E-17
  -12.6499996      -1.28004264E-17
  -12.6400003      -1.32164404E-17
  -12.6300001      -1.36431820E-17
  -12.6199999      -1.40800219E-17
  -12.6099997      -1.45261783E-17
  -12.6000004      -1.49807670E-17
  -12.5900002      -1.54428433E-17
  -12.5799999      -1.59114378E-17
  -12.5699997      -1.63855728E-17
  -12.5600004      -1.68642787E-17
  -12.5500002      -1.73465978E-17
  -12.5400000      -1.78315622E-17
  -12.5299997      -1.83181926E-17
  -12.5200005      -1.88054582E-17
  -12.5100002      -1.92922623E-17
  -12.5000000      -1.97774153E-17
  -12.4899998      -2.02596120E-17
  -12.4799995      -2.07374146E-17
  -12.4700003      -2.12092319E-17
  -12.4600000      -2.16733232E-17
  -12.4499998      -2.21277812E-17
  -12.4399996      -2.25705461E-17
  -12.4300003      -2.29994112E-17
  -12.4200001      -2.34120453E-17
  -12.4099998      -2.38060198E-17
  -12.3999996      -2.41788466E-17
  -12.3900003      -2.45280161E-17
  -12.3800001      -2.48510715E-17
  -12.3699999      -2.51456338E-17
  -12.3599997      -2.54094747E-17
  -12.3500004      -2.56405592E-17
  -12.3400002      -2.58370791E-17
  -12.3299999      -2.59974793E-17
  -12.3199997      -2.61204745E-17
  -12.3100004      -2.62050404E-17
  -12.3000002      -2.62504080E-17
  -12.2900000      -2.62560411E-17
  -12.2799997      -2.62216138E-17
  -12.2700005      -2.61469757E-17
  -12.2600002      -2.60321299E-17
  -12.2500000      -2.58772122E-17
  -12.2399998      -2.56824691E-17
  -12.2299995      -2.54482331E-17
  -12.2200003      -2.51749293E-17
  -12.2100000      -2.48630739E-17
  -12.1999998      -2.45132873E-17
  -12.1899996      -2.41263091E-17
  -12.1800003      -2.37030275E-17
  -12.1700001      -2.32445213E-17
  -12.1599998      -2.27520991E-17
  -12.1499996      -2.22273506E-17
  -12.1400003      -2.16721933E-17
  -12.1300001      -2.10889168E-17
  -12.1199999      -2.04802227E-17
  -12.1099997      -1.98492510E-17
  -12.1000004      -1.91996015E-17
  -12.0900002      -1.85353292E-17
  -12.0799999      -1.78609205E-17
  -12.0699997      -1.71812626E-17
  -12.0600004      -1.65016047E-17
  -12.0500002      -1.58274922E-17
  -12.0400000      -1.51646939E-17
  -12.0299997      -1.45191373E-17
  -12.0200005      -1.38968460E-17
  -12.0100002      -1.33038833E-17
  -12.0000000      -1.27462883E-17
  -11.9899998      -1.22300308E-17
  -11.9799995      -1.17609979E-17
  -11.9700003      -1.13449508E-17
  -11.9600000      -1.09875369E-17
  -11.9499998      -1.06942773E-17
  -11.9399996      -1.04705779E-17
  -11.9300003      -1.03217491E-17
  -11.9200001      -1.02530071E-17
  -11.9099998      -1.02694986E-17
  -11.8999996      -1.03763008E-17
  -11.8900003      -1.05784348E-17
  -11.8800001      -1.08808612E-17
  -11.8699999      -1.12884585E-17
  -11.8599997      -1.18059932E-17
  -11.8500004      -1.24380684E-17
  -11.8400002      -1.31890913E-17
  -11.8299999      -1.40631970E-17
  -11.8199997      -1.50641650E-17
  -11.8100004      -1.61953808E-17
  -11.8000002      -1.74597528E-17
  -11.7900000      -1.88596270E-17
  -11.7799997      -2.03967668E-17
  -11.7700005      -2.20722542E-17
  -11.7600002      -2.38864714E-17
  -11.7500000      -2.58390891E-17
  -11.7399998      -2.79290387E-17
  -11.7299995      -3.01544457E-17
  -11.7200003      -3.25126450E-17
  -11.7100000      -3.50001922E-17
  -11.6999998      -3.76128587E-17
  -11.6899996      -4.03455789E-17
  -11.6800003      -4.31924665E-17
  -11.6700001      -4.61468248E-17
  -11.6599998      -4.92011197E-17
  -11.6499996      -5.23469207E-17
  -11.6400003      -5.55749169E-17
  -11.6300001      -5.88749242E-17
  -11.6199999      -6.22358186E-17
  -11.6099997      -6.56455365E-17
  -11.6000004      -6.90910415E-17
  -11.5900002      -7.25583113E-17
  -11.5799999      -7.60323111E-17
  -11.5699997      -7.94969405E-17
  -11.5600004      -8.29350473E-17
  -11.5500002      -8.63283936E-17
  -11.5400000      -8.96576235E-17
  -11.5299997      -9.29022362E-17
  -11.5200005      -9.60406454E-17
  -11.5100002      -9.90501270E-17
  -11.5000000      -1.01906838E-16
  -11.4899998      -1.04585845E-16
  -11.4799995      -1.07061212E-16
  -11.4700003      -1.09305929E-16
  -11.4600000      -1.11292003E-16
  -11.4499998      -1.12990503E-16
  -11.4399996      -1.14371563E-16
  -11.4300003      -1.15404441E-16
  -11.4200001      -1.16057437E-16
  -11.4099998      -1.16297941E-16
  -11.3999996      -1.16092483E-16
  -11.3900003      -1.15406651E-16
  -11.3800001      -1.14205188E-16
  -11.3699999      -1.12451896E-16
  -11.3599997      -1.10109717E-16
  -11.3500004      -1.07140761E-16
  -11.3400002      -1.03506268E-16
  -11.3299999      -9.91666602E-17
  -11.3199997      -9.40816435E-17
  -11.3100004      -8.82102626E-17
  -11.3000002      -8.15109202E-17
  -11.2900000      -7.39414103E-17
  -11.2799997      -6.54590569E-17
  -11.2700005      -5.60207077E-17
  -11.2600002      -4.55829159E-17
  -11.2500000      -3.41019104E-17
  -11.2399998      -2.15337100E-17
  -11.2299995      -7.83422179E-18
  -11.2200003       7.04070081E-18
  -11.2100000       2.31351647E-17
  -11.1999998       4.04932405E-17
  -11.1899996       5.91587994E-17
  -11.1800003       7.91755379E-17
  -11.1700001       1.00586876E-16
  -11.1599998       1.23435901E-16
  -11.1499996       1.47765295E-16
  -11.1400003       1.73617402E-16
  -11.1300001       2.01034019E-16
  -11.1199999       2.30056425E-16
  -11.1099997       2.60725211E-16
  -11.1000004       2.93080255E-16
  -11.0900002       3.27160388E-16
  -11.0799999       3.63003619E-16
  -11.0699997       4.00646690E-16
  -11.0600004       4.40124910E-16
  -11.0500002       4.81472109E-16
  -11.0400000       5.24720447E-16
  -11.0299997       5.69900125E-16
  -11.0200005       6.17039309E-16
  -11.0100002       6.66164149E-16
  -11.0000000       7.17298258E-16
  -10.9899998       7.70462810E-16
  -10.9799995       8.25676282E-16
  -10.9700003       8.82954662E-16
  -10.9600000       9.42310813E-16
  -10.9499998       1.00375469E-15
  -10.9399996       1.06729338E-15
  -10.9300003       1.13293081E-15
  -10.9200001       1.20066719E-15
  -10.9099998       1.27049934E-15
  -10.8999996       1.34242070E-15
  -10.8900003       1.41642078E-15
  -10.8800001       1.49248508E-15
  -10.8699999       1.57059485E-15
  -10.8599997       1.65072661E-15
  -10.8500004       1.73285270E-15
  -10.8400002       1.81693988E-15
  -10.8299999       1.90295036E-15
  -10.8199997       1.99084040E-15
  -10.8100004       2.08056131E-15
  -10.8000002       2.17205845E-15
  -10.7900000       2.26527061E-15
  -10.7799997       2.36013068E-15
  -10.7700005       2.45656559E-15
  -10.7600002       2.55449488E-15
  -10.7500000       2.65383236E-15
  -10.7399998       2.75448444E-15
  -10.7299995       2.85635053E-15
  -10.7200003       2.95932348E-15
  -10.7100000       3.06328872E-15
  -10.6999998       3.16812430E-15
  -10.6899996       3.27370060E-15
  -10.6800003       3.37988021E-15
  -10.6700001       3.48651848E-15
  -10.6599998       3.59346189E-15
  -10.6499996       3.70054930E-15
  -10.6400003       3.80761088E-15
  -10.6300001       3.91446832E-15
  -10.6199999       4.02093401E-15
  -10.6099997       4.12681271E-15
  -10.6000004       4.23189815E-15
  -10.5900002       4.33597606E-15
  -10.5799999       4.43882322E-15
  -10.5699997       4.54020671E-15
  -10.5600004       4.63988301E-15
  -10.5500002       4.73760096E-15
  -10.5400000       4.83309842E-15
  -10.5299997       4.92610518E-15
  -10.5200005       5.01634045E-15
  -10.5100002       5.10351369E-15
  -10.5000000       5.18732548E-15
  -10.4899998       5.26746666E-15
  -10.4799995       5.34361916E-15
  -10.4700003       5.41545433E-15
  -10.4600000       5.48263547E-15
  -10.4499998       5.54481532E-15
  -10.4399996       5.60163852E-15
  -10.4300003       5.65273917E-15
  -10.4200001       5.69774373E-15
  -10.4099998       5.73626975E-15
  -10.3999996       5.76792379E-15
  -10.3900003       5.79230691E-15
  -10.3800001       5.80900870E-15
  -10.3699999       5.81761286E-15
  -10.3599997       5.81769333E-15
  -10.3500004       5.80881558E-15
  -10.3400002       5.79054000E-15
  -10.3299999       5.76241639E-15
  -10.3199997       5.72398989E-15
  -10.3100004       5.67479887E-15
  -10.3000002       5.61437408E-15
  -10.2900000       5.54224034E-15
  -10.2799997       5.45791778E-15
  -10.2700005       5.36092107E-15
  -10.2600002       5.25075936E-15
  -10.2500000       5.12693881E-15
  -10.2399998       4.98896138E-15
  -10.2299995       4.83632562E-15
  -10.2200003       4.66852585E-15
  -10.2100000       4.48505640E-15
  -10.1999998       4.28540819E-15
  -10.1899996       4.06907174E-15
  -10.1800003       3.83553629E-15
  -10.1700001       3.58429064E-15
  -10.1599998       3.31482617E-15
  -10.1499996       3.02663422E-15
  -10.1400003       2.71920806E-15
  -10.1300001       2.39204434E-15
  -10.1199999       2.04464288E-15
  -10.1099997       1.67650754E-15
  -10.1000004       1.28714745E-15
  -10.0900002       8.76076913E-16
  -10.0799999       4.42817416E-16
  -10.0699997      -1.31025963E-17
  -10.0600004      -4.92145889E-16
  -10.0500002      -9.94766505E-16
  -10.0400000      -1.52140871E-15
  -10.0299997      -2.07250497E-15
  -10.0200005      -2.64847636E-15
  -10.0100002      -3.24973126E-15
  -10.0000000      -3.87666397E-15
  -9.98999977      -4.52965353E-15
  -9.97999954      -5.20906458E-15
  -9.97000027      -5.91524358E-15
  -9.96000004      -6.64851873E-15
  -9.94999981      -7.40920048E-15
  -9.93999958      -8.19757809E-15
  -9.93000031      -9.01392049E-15
  -9.92000008      -9.85847248E-15
  -9.90999985      -1.07314560E-14
  -9.89999962      -1.16330700E-14
  -9.89000034      -1.25634857E-14
  -9.88000011      -1.35228463E-14
  -9.86999989      -1.45112668E-14
  -9.85999966      -1.55288363E-14
  -9.85000038      -1.65756081E-14
  -9.84000015      -1.76516093E-14
  -9.82999992      -1.87568280E-14
  -9.81999969      -1.98912220E-14
  -9.81000042      -2.10547098E-14
  -9.80000019      -2.22471798E-14
  -9.78999996      -2.34684776E-14
  -9.77999973      -2.47184085E-14
  -9.77000046      -2.59967405E-14
  -9.76000023      -2.73032007E-14
  -9.75000000      -2.86374691E-14
  -9.73999977      -2.99991829E-14
  -9.72999954      -3.13879341E-14
  -9.72000027      -3.28032686E-14
  -9.71000004      -3.42446849E-14
  -9.69999981      -3.57116307E-14
  -9.68999958      -3.72035031E-14
  -9.68000031      -3.87196480E-14
  -9.67000008      -4.02593540E-14
  -9.65999985      -4.18218655E-14
  -9.64999962      -4.34063626E-14
  -9.64000034      -4.50119712E-14
  -9.63000011      -4.66377628E-14
  -9.61999989      -4.82827415E-14
  -9.60999966      -4.99458636E-14
  -9.60000038      -5.16260178E-14
  -9.59000015      -5.33220285E-14
  -9.57999992      -5.50326623E-14
  -9.56999969      -5.67566183E-14
  -9.56000042      -5.84925310E-14
  -9.55000019      -6.02389707E-14
  -9.53999996      -6.19944431E-14
  -9.52999973      -6.37573693E-14
  -9.52000046      -6.55261300E-14
  -9.51000023      -6.72990174E-14
  -9.50000000      -6.90742494E-14
  -9.48999977      -7.08499896E-14
  -9.47999954      -7.26243203E-14
  -9.47000027      -7.43952493E-14
  -9.46000004      -7.61607100E-14
  -9.44999981      -7.79185676E-14
  -9.43999958      -7.96666132E-14
  -9.43000031      -8.14025700E-14
  -9.42000008      -8.31240797E-14
  -9.40999985      -8.48287030E-14
  -9.39999962      -8.65139259E-14
  -9.39000034      -8.81771801E-14
  -9.38000011      -8.98157823E-14
  -9.36999989      -9.14270152E-14
  -9.35999966      -9.30080597E-14
  -9.35000038      -9.45560362E-14
  -9.34000015      -9.60679832E-14
  -9.32999992      -9.75408583E-14
  -9.31999969      -9.89715444E-14
  -9.31000042      -1.00356863E-13
  -9.30000019      -1.01693542E-13
  -9.28999996      -1.02978247E-13
  -9.27999973      -1.04207577E-13
  -9.27000046      -1.05378061E-13
  -9.26000023      -1.06486136E-13
  -9.25000000      -1.07528176E-13
  -9.23999977      -1.08500496E-13
  -9.22999954      -1.09399326E-13
  -9.22000027      -1.10220847E-13
  -9.21000004      -1.10961153E-13
  -9.19999981      -1.11616289E-13
  -9.18999958      -1.12182223E-13
  -9.18000031      -1.12654881E-13
  -9.17000008      -1.13030109E-13
  -9.15999985      -1.13303708E-13
  -9.14999962      -1.13471407E-13
  -9.14000034      -1.13528876E-13
  -9.13000011      -1.13471759E-13
  -9.11999989      -1.13295624E-13
  -9.10999966      -1.12996011E-13
  -9.10000038      -1.12568388E-13
  -9.09000015      -1.12008201E-13
  -9.07999992      -1.11310843E-13
  -9.06999969      -1.10471677E-13
  -9.06000042      -1.09485995E-13
  -9.05000019      -1.08349107E-13
  -9.03999996      -1.07056271E-13
  -9.02999973      -1.05602694E-13
  -9.02000046      -1.03983601E-13
  -9.01000023      -1.02194166E-13
  -9.00000000      -1.00229565E-13
  -8.98999977      -9.80849381E-14
  -8.97999954      -9.57554348E-14
  -8.97000027      -9.32361759E-14
  -8.96000004      -9.05223094E-14
  -8.94999981      -8.76089430E-14
  -8.93999958      -8.44912316E-14
  -8.93000031      -8.11643030E-14
  -8.92000008      -7.76233190E-14
  -8.90999985      -7.38634550E-14
  -8.89999962      -6.98799132E-14
  -8.89000034      -6.56679030E-14
  -8.88000011      -6.12226808E-14
  -8.86999989      -5.65395272E-14
  -8.85999966      -5.16137697E-14
  -8.85000038      -4.64407768E-14
  -8.84000015      -4.10159713E-14
  -8.82999992      -3.53348230E-14
  -8.81999969      -2.93928768E-14
  -8.81000042      -2.31857278E-14
  -8.80000019      -1.67090446E-14
  -8.78999996      -9.95857229E-15
  -8.77999973      -2.93014319E-15
  -8.77000046       4.38032840E-15
  -8.76000023       1.19768273E-14
  -8.75000000       1.98632513E-14
  -8.73999977       2.80434008E-14
  -8.72999954       3.65209470E-14
  -8.72000027       4.52994474E-14
  -8.71000004       5.43823545E-14
  -8.69999981       6.37729886E-14
  -8.68999958       7.34745245E-14
  -8.68000031       8.34900047E-14
  -8.67000008       9.38223159E-14
  -8.65999985       1.04474209E-13
  -8.64999962       1.15448287E-13
  -8.64000034       1.26746947E-13
  -8.63000011       1.38372454E-13
  -8.61999989       1.50326881E-13
  -8.60999966       1.62612125E-13
  -8.60000038       1.75229894E-13
  -8.59000015       1.88181691E-13
  -8.57999992       2.01468806E-13
  -8.56999969       2.15092362E-13
  -8.56000042       2.29053240E-13
  -8.55000019       2.43352078E-13
  -8.53999996       2.57989322E-13
  -8.52999973       2.72965217E-13
  -8.52000046       2.88279681E-13
  -8.51000023       3.03932443E-13
  -8.50000000       3.19922989E-13
  -8.48999977       3.36250477E-13
  -8.47999954       3.52913879E-13
  -8.47000027       3.69911865E-13
  -8.46000004       3.87242782E-13
  -8.44999981       4.04904815E-13
  -8.43999958       4.22895768E-13
  -8.43000031       4.41213147E-13
  -8.42000008       4.59854160E-13
  -8.40999985       4.78815772E-13
  -8.39999962       4.98094621E-13
  -8.39000034       5.17686913E-13
  -8.38000011       5.37588745E-13
  -8.36999989       5.57795672E-13
  -8.35999966       5.78302976E-13
  -8.35000038       5.99105726E-13
  -8.34000015       6.20198554E-13
  -8.32999992       6.41575714E-13
  -8.31999969       6.63231189E-13
  -8.31000042       6.85158527E-13
  -8.30000019       7.07351007E-13
  -8.28999996       7.29801365E-13
  -8.27999973       7.52502227E-13
  -8.27000046       7.75445680E-13
  -8.26000023       7.98623429E-13
  -8.25000000       8.22026908E-13
  -8.23999977       8.45647120E-13
  -8.22999954       8.69474577E-13
  -8.22000027       8.93499521E-13
  -8.21000004       9.17711870E-13
  -8.19999981       9.42100998E-13
  -8.18999958       9.66655900E-13
  -8.18000031       9.91365410E-13
  -8.17000008       1.01621760E-12
  -8.15999985       1.04120044E-12
  -8.14999962       1.06630134E-12
  -8.14000034       1.09150731E-12
  -8.13000011       1.11680500E-12
  -8.11999989       1.14218064E-12
  -8.10999966       1.16762015E-12
  -8.10000038       1.19310898E-12
  -8.09000015       1.21863229E-12
  -8.07999992       1.24417447E-12
  -8.06999969       1.26971990E-12
  -8.06000042       1.29525232E-12
  -8.05000019       1.32075546E-12
  -8.03999996       1.34621210E-12
  -8.02999973       1.37160519E-12
  -8.02000046       1.39691698E-12
  -8.01000023       1.42212923E-12
  -8.00000000       1.44722342E-12
  -7.98999977       1.47218088E-12
  -7.98000002       1.49698244E-12
  -7.96999979       1.52160825E-12
  -7.96000004       1.54603858E-12
  -7.94999981       1.57025304E-12
  -7.94000006       1.59423093E-12
  -7.92999983       1.61795132E-12
  -7.92000008       1.64139275E-12
  -7.90999985       1.66453364E-12
  -7.90000010       1.68735186E-12
  -7.88999987       1.70982521E-12
  -7.88000011       1.73193100E-12
  -7.86999989       1.75364627E-12
  -7.86000013       1.77494792E-12
  -7.84999990       1.79581220E-12
  -7.84000015       1.81621536E-12
  -7.82999992       1.83613346E-12
  -7.82000017       1.85554198E-12
  -7.80999994       1.87441664E-12
  -7.80000019       1.89273272E-12
  -7.78999996       1.91046484E-12
  -7.78000021       1.92758786E-12
  -7.76999998       1.94407641E-12
  -7.76000023       1.95990489E-12
  -7.75000000       1.97504751E-12
  -7.73999977       1.98947803E-12
  -7.73000002       2.00317063E-12
  -7.71999979       2.01609931E-12
  -7.71000004       2.02823739E-12
  -7.69999981       2.03955841E-12
  -7.69000006       2.05003614E-12
  -7.67999983       2.05964347E-12
  -7.67000008       2.06835395E-12
  -7.65999985       2.07614113E-12
  -7.65000010       2.08297810E-12
  -7.63999987       2.08883800E-12
  -7.63000011       2.09369414E-12
  -7.61999989       2.09752007E-12
  -7.61000013       2.10028869E-12
  -7.59999990       2.10197354E-12
  -7.59000015       2.10254860E-12
  -7.57999992       2.10198677E-12
  -7.57000017       2.10026224E-12
  -7.55999994       2.09734855E-12
  -7.55000019       2.09321991E-12
  -7.53999996       2.08785051E-12
  -7.53000021       2.08121476E-12
  -7.51999998       2.07328729E-12
  -7.51000023       2.06404295E-12
  -7.50000000       2.05345658E-12
  -7.48999977       2.04150412E-12
  -7.48000002       2.02816106E-12
  -7.46999979       2.01340355E-12
  -7.46000004       1.99720795E-12
  -7.44999981       1.97955085E-12
  -7.44000006       1.96040970E-12