  -16.0000000       0.00000000    
  -15.9899998       0.00000000    
  -15.9799995       0.00000000    
  -15.9700003       0.00000000    
  -15.9600000       0.00000000    
  -15.9499998       0.00000000    
  -15.9399996       0.00000000    
  -15.9300003       0.00000000    
  -15.9200001       0.00000000    
  -15.9099998       0.00000000    
  -15.8999996       0.00000000    
  -15.8900003       0.00000000    
  -15.8800001       1.40129846E-45
  -15.8699999       2.24207754E-44
  -15.8599997       1.86372696E-43
  -15.8500004       1.31021406E-42
  -15.8400002       7.56561041E-42
  -15.8299999       3.70545353E-41
  -15.8199997       1.58121117E-40
  -15.8100004       6.00006575E-40
  -15.8000002       2.05616728E-39
  -15.7900000       6.44018417E-39
  -15.7799997       1.86131238E-38
  -15.7700005       5.00241187E-38
  -15.7600002       1.25815852E-37
  -15.7500000       2.97692586E-37
  -15.7399998       6.65540136E-37
  -15.7299995       1.41101904E-36
  -15.7200003       2.84543926E-36
  -15.7100000       5.47125394E-36
  -15.6999998       1.00504186E-35
  -15.6899996       1.76627913E-35
  -15.6800003       2.97234107E-35
  -15.6700001       4.79099355E-35
  -15.6599998       7.39332567E-35
  -15.6499996       1.09069276E-34
  -15.6400003       1.53365462E-34
  -15.6300001       2.04447074E-34
  -15.6199999       2.55881587E-34
  -15.6099997       2.95118739E-34
  -15.6000004       3.01103682E-34
  -15.5900002       2.41755566E-34
  -15.5799999       7.15955383E-35
  -15.5699997      -2.70132115E-34
  -15.5600004      -8.60469671E-34
  -15.5500002      -1.79257250E-33
  -15.5400000      -3.17415176E-33
  -15.5299997      -5.12452648E-33
  -15.5200005      -7.77051871E-33
  -15.5100002      -1.12416815E-32
  -15.5000000      -1.56655590E-32
  -15.4899998      -2.11638295E-32
  -15.4799995      -2.78501913E-32
  -15.4700003      -3.58307782E-32
  -15.4600000      -4.52077172E-32
  -15.4499998      -5.60862620E-32
  -15.4399996      -6.85855756E-32
  -15.4300003      -8.28533028E-32
  -15.4200001      -9.90837942E-32
  -15.4099998      -1.17540372E-31
  -15.3999996      -1.38581415E-31
  -15.3900003      -1.62690687E-31
  -15.3800001      -1.90511723E-31
  -15.3699999      -2.22885272E-31
  -15.3599997      -2.60888887E-31
  -15.3500004      -3.05873786E-31
  -15.3400002      -3.59497064E-31
  -15.3299999      -4.23739712E-31
  -15.3199997      -5.00906872E-31
  -15.3100004      -5.93602736E-31
  -15.3000002      -7.04675056E-31
  -15.2900000      -8.37129995E-31
  -15.2799997      -9.94020028E-31
  -15.2700005      -1.17831582E-30
  -15.2600002      -1.39277621E-30
  -15.2500000      -1.63983681E-30
  -15.2399998      -1.92153924E-30
  -15.2299995      -2.23952287E-30
  -15.2200003      -2.59509731E-30
  -15.2100000      -2.98940119E-30
  -15.1999998      -3.42365269E-30
  -15.1899996      -3.89947964E-30
  -15.1800003      -4.41930016E-30
  -15.1700001      -4.98673254E-30
  -15.1599998      -5.60699069E-30
  -15.1499996      -6.28723366E-30
  -15.1400003      -7.03682741E-30
  -15.1300001      -7.86749454E-30
  -15.1199999      -8.79332593E-30
  -15.1099997      -9.83066941E-30
  -15.1000004      -1.09978529E-29
  -15.0900002      -1.23148121E-29
  -15.0799999      -1.38025802E-29
  -15.0699997      -1.54827254E-29
  -15.0600004      -1.73767345E-29
  -15.0500002      -1.95053806E-29
  -15.0400000      -2.18881306E-29
  -15.0299997      -2.45426188E-29
  -15.0200005      -2.74842421E-29
  -15.0100002      -3.07259222E-29
  -15.0000000      -3.42780623E-29
  -14.9899998      -3.81486879E-29
  -14.9799995      -4.23439411E-29
  -14.9700003      -4.68687119E-29
  -14.9600000      -5.17275653E-29
  -14.9499998      -5.69259271E-29
  -14.9399996      -6.24713234E-29
  -14.9300003      -6.83747140E-29
  -14.9200001      -7.46519034E-29
  -14.9099998      -8.13246489E-29
  -14.8999996      -8.84216887E-29
  -14.8900003      -9.59792604E-29
  -14.8800001      -1.04041516E-28
  -14.8699999      -1.12660017E-28
  -14.8599997      -1.21893177E-28
  -14.8500004      -1.31804771E-28
  -14.8400002      -1.42462615E-28
  -14.8299999      -1.53936258E-28
  -14.8199997      -1.66294915E-28
  -14.8100004      -1.79605197E-28
  -14.8000002      -1.93928675E-28
  -14.7900000      -2.09320346E-28
  -14.7799997      -2.25826095E-28
  -14.7700005      -2.43481817E-28
  -14.7600002      -2.62312236E-28
  -14.7500000      -2.82330472E-28
  -14.7399998      -3.03537537E-28
  -14.7299995      -3.25923367E-28
  -14.7200003      -3.49467957E-28
  -14.7100000      -3.74142201E-28
  -14.6999998      -3.99910831E-28
  -14.6899996      -4.26735183E-28
  -14.6800003      -4.54576330E-28
  -14.6700001      -4.83398883E-28
  -14.6599998      -5.13174386E-28
  -14.6499996      -5.43885939E-28
  -14.6400003      -5.75531519E-28
  -14.6300001      -6.08126198E-28
  -14.6199999      -6.41705943E-28
  -14.6099997      -6.76325978E-28
  -14.6000004      -7.12062667E-28
  -14.5900002      -7.49011152E-28
  -14.5799999      -7.87281739E-28
  -14.5699997      -8.26996726E-28
  -14.5600004      -8.68285101E-28
  -14.5500002      -9.11277057E-28
  -14.5400000      -9.56098936E-28
  -14.5299997      -1.00286600E-27
  -14.5200005      -1.05168043E-27
  -14.5100002      -1.10262600E-27
  -14.5000000      -1.15576558E-27
  -14.4899998      -1.21114290E-27
  -14.4799995      -1.26878291E-27
  -14.4700003      -1.32868694E-27
  -14.4600000      -1.39082841E-27
  -14.4499998      -1.45517720E-27
  -14.4399996      -1.52166887E-27
  -14.4300003      -1.59020627E-27
  -14.4200001      -1.66064388E-27
  -14.4099998      -1.73276553E-27
  -14.3999996      -1.80621953E-27
  -14.3900003      -1.88046529E-27
  -14.3800001      -1.95469602E-27
  -14.3699999      -2.02767105E-27
  -14.3599997      -2.09758018E-27
  -14.3500004      -2.16186214E-27
  -14.3400002      -2.21677271E-27
  -14.3299999      -2.25712364E-27
  -14.3199997      -2.27574758E-27
  -14.3100004      -2.26303047E-27
  -14.3000002      -2.20612521E-27
  -14.2900000      -2.08798193E-27
  -14.2799997      -1.88659167E-27
  -14.2700005      -1.57340802E-27
  -14.2600002      -1.11210899E-27
  -14.2500000      -4.56721960E-28
  -14.2399998       4.50284395E-28
  -14.2299995       1.68024214E-27
  -14.2200003       3.32157010E-27
  -14.2100000       5.48217230E-27
  -14.1999998       8.29362056E-27
  -14.1899996       1.19148796E-26
  -14.1800003       1.65373734E-26
  -14.1700001       2.23898138E-26
  -14.1599998       2.97441730E-26
  -14.1499996       3.89228038E-26
  -14.1400003       5.03047170E-26
  -14.1300001       6.43349472E-26
  -14.1199999       8.15328544E-26
  -14.1099997       1.02502053E-25
  -14.1000004       1.27941011E-25
  -14.0900002       1.58656013E-25
  -14.0799999       1.95573114E-25
  -14.0699997       2.39752455E-25
  -14.0600004       2.92402856E-25
  -14.0500002       3.54897354E-25
  -14.0400000       4.28792149E-25
  -14.0299997       5.15844478E-25
  -14.0200005       6.18035147E-25
  -14.0100002       7.37582876E-25
  -14.0000000       8.76966413E-25
  -13.9899998       1.03895151E-24
  -13.9799995       1.22662428E-24
  -13.9700003       1.44340079E-24
  -13.9600000       1.69305327E-24
  -13.9499998       1.97974682E-24
  -13.9399996       2.30805791E-24
  -13.9300003       2.68301750E-24
  -13.9200001       3.11012573E-24
  -13.9099998       3.59536689E-24
  -13.8999996       4.14529564E-24
  -13.8900003       4.76697483E-24
  -13.8800001       5.46807338E-24
  -13.8699999       6.25692837E-24
  -13.8599997       7.14249021E-24
  -13.8500004       8.13434554E-24
  -13.8400002       9.24280949E-24
  -13.8299999       1.04789285E-23
  -13.8199997       1.18544779E-23
  -13.8100004       1.33820029E-23
  -13.8000002       1.50748022E-23
  -13.7900000       1.69470247E-23
  -13.7799997       1.90135752E-23
  -13.7700005       2.12901205E-23
  -13.7600002       2.37932203E-23
  -13.7500000       2.65402817E-23
  -13.7399998       2.95493411E-23
  -13.7299995       3.28392761E-23
  -13.7200003       3.64300100E-23
  -13.7100000       4.03418418E-23
  -13.6999998       4.45959352E-23
  -13.6899996       4.92138133E-23
  -13.6800003       5.42181828E-23
  -13.6700001       5.96318638E-23
  -13.6599998       6.54782256E-23
  -13.6499996       7.17809592E-23
  -13.6400003       7.85640838E-23
  -13.6300001       8.58524202E-23
  -13.6199999       9.36703536E-23
  -13.6099997       1.02041878E-22
  -13.6000004       1.10991657E-22
  -13.5900002       1.20543487E-22
  -13.5799999       1.30721371E-22
  -13.5699997       1.41547471E-22
  -13.5600004       1.53043686E-22
  -13.5500002       1.65232584E-22
  -13.5400000       1.78133426E-22
  -13.5299997       1.91764122E-22
  -13.5200005       2.06142178E-22
  -13.5100002       2.21282956E-22
  -13.5000000       2.37198988E-22
  -13.4899998       2.53900979E-22
  -13.4799995       2.71397712E-22
  -13.4700003       2.89693352E-22
  -13.4600000       3.08790930E-22
  -13.4499998       3.28687012E-22
  -13.4399996       3.49378165E-22
  -13.4300003       3.70853887E-22
  -13.4200001       3.93100320E-22
  -13.4099998       4.16099364E-22
  -13.3999996       4.39828300E-22
  -13.3900003       4.64255977E-22
  -13.3800001       4.89348267E-22
  -13.3699999       5.15066445E-22
  -13.3599997       5.41362700E-22
  -13.3500004       5.68183820E-22
  -13.3400002       5.95470380E-22
  -13.3299999       6.23153818E-22
  -13.3199997       6.51161233E-22
  -13.3100004       6.79410027E-22
  -13.3000002       7.07807555E-22
  -13.2900000       7.36258145E-22
  -13.2799997       7.64655321E-22
  -13.2700005       7.92883465E-22
  -13.2600002       8.20816512E-22
  -13.2500000       8.48323498E-22
  -13.2399998       8.75264222E-22
  -13.2299995       9.01487220E-22
  -13.2200003       9.26831138E-22
  -13.2100000       9.51130578E-22
  -13.1999998       9.74207120E-22
  -13.1899996       9.95874667E-22
  -13.1800003       1.01593915E-21
  -13.1700001       1.03419326E-21
  -13.1599998       1.05042668E-21
  -13.1499996       1.06441979E-21
  -13.1400003       1.07594599E-21
  -13.1300001       1.08476296E-21
  -13.1199999       1.09063491E-21
  -13.1099997       1.09330911E-21
  -13.1000004       1.09252606E-21
  -13.0900002       1.08802453E-21
  -13.0799999       1.07953229E-21
  -13.0699997       1.06677592E-21
  -13.0600004       1.04948086E-21
  -13.0500002       1.02735852E-21
  -13.0400000       1.00012730E-21
  -13.0299997       9.67495062E-22
  -13.0200005       9.29171316E-22
  -13.0100002       8.84862829E-22
  -13.0000000       8.34274858E-22
  -12.9899998       7.77113012E-22
  -12.9799995       7.13081791E-22
  -12.9700003       6.41886248E-22
  -12.9600000       5.63234418E-22
  -12.9499998       4.76833222E-22
  -12.9399996       3.82391754E-22
  -12.9300003       2.79622413E-22
  -12.9200001       1.68238964E-22
  -12.9099998       4.79581361E-23
  -12.8999996      -8.14986906E-23
  -12.8900003      -2.20416471E-22
  -12.8800001      -3.69070682E-22
  -12.8699999      -5.27738252E-22
  -12.8599997      -6.96700545E-22
  -12.8500004      -8.76227415E-22
  -12.8400002      -1.06660840E-21
  -12.8299999      -1.26812190E-21
  -12.8199997      -1.48105053E-21
  -12.8100004      -1.70569731E-21
  -12.8000002      -1.94236710E-21
  -12.7900000      -2.19137391E-21
  -12.7799997      -2.45306287E-21
  -12.7700005      -2.72778115E-21
  -12.7600002      -3.01589445E-21
  -12.7500000      -3.31782487E-21
  -12.7399998      -3.63402092E-21
  -12.7299995      -3.96495375E-21
  -12.7200003      -4.31114580E-21
  -12.7100000      -4.67319363E-21
  -12.6999998      -5.05174548E-21
  -12.6899996      -5.44749769E-21
  -12.6800003      -5.86125238E-21
  -12.6700001      -6.29389369E-21
  -12.6599998      -6.74641076E-21
  -12.6499996      -7.21992481E-21
  -12.6400003      -7.71559583E-21
  -12.6300001      -8.23482453E-21
  -12.6199999      -8.77911906E-21
  -12.6099997      -9.35018226E-21
  -12.6000004      -9.94986801E-21
  -12.5900002      -1.05802879E-20
  -12.5799999      -1.12437150E-20
  -12.5699997      -1.19427174E-20
  -12.5600004      -1.26801400E-20
  -12.5500002      -1.34590428E-20
  -12.5400000      -1.42829260E-20
  -12.5299997      -1.51555143E-20
  -12.5200005      -1.60809953E-20
  -12.5100002      -1.70638975E-20
  -12.5000000      -1.81092357E-20
  -12.4899998      -1.92224577E-20
  -12.4799995      -2.04094958E-20
  -12.4700003      -2.16767704E-20
  -12.4600000      -2.30313885E-20
  -12.4499998      -2.44810177E-20
  -12.4399996      -2.60340154E-20
  -12.4300003      -2.76993157E-20
  -12.4200001      -2.94868595E-20
  -12.4099998      -3.14070979E-20
  -12.3999996      -3.34712657E-20
  -12.3900003      -3.56917675E-20
  -12.3800001      -3.80817184E-20
  -12.3699999      -4.06554489E-20
  -12.3599997      -4.34282423E-20
  -12.3500004      -4.64163612E-20
  -12.3400002      -4.96374962E-20
  -12.3299999      -5.31104528E-20
  -12.3199997      -5.68551608E-20
  -12.3100004      -6.08929977E-20
  -12.3000002      -6.52470051E-20
  -12.2900000      -6.99412098E-20
  -12.2799997      -7.50018297E-20
  -12.2700005      -8.04565430E-20
  -12.2600002      -8.63341201E-20
  -12.2500000      -9.26663686E-20
  -12.2399998      -9.94855680E-20
  -12.2299995      -1.06826861E-19
  -12.2200003      -1.14727353E-19
  -12.2100000      -1.23226246E-19
  -12.1999998      -1.32364330E-19
  -12.1899996      -1.42184864E-19
  -12.1800003      -1.52733976E-19
  -12.1700001      -1.64060237E-19
  -12.1599998      -1.76214182E-19
  -12.1499996      -1.89249838E-19
  -12.1400003      -2.03222793E-19
  -12.1300001      -2.18191893E-19
  -12.1199999      -2.34219577E-19
  -12.1099997      -2.51371063E-19
  -12.1000004      -2.69713121E-19
  -12.0900002      -2.89316242E-19
  -12.0799999      -3.10255570E-19
  -12.0699997      -3.32607437E-19
  -12.0600004      -3.56453374E-19
  -12.0500002      -3.81877417E-19
  -12.0400000      -4.08968435E-19
  -12.0299997      -4.37815945E-19
  -12.0200005      -4.68514685E-19
  -12.0100002      -5.01167226E-19
  -12.0000000      -5.35871537E-19
  -11.9899998      -5.72736547E-19
  -11.9799995      -6.11873512E-19
  -11.9700003      -6.53394464E-19
  -11.9600000      -6.97417068E-19
  -11.9499998      -7.44063282E-19
  -11.9399996      -7.93463749E-19
  -11.9300003      -8.45744252E-19
  -11.9200001      -9.01041327E-19
  -11.9099998      -9.59491874E-19
  -11.8999996      -1.02123936E-18
  -11.8900003      -1.08643049E-18
  -11.8800001      -1.15521697E-18
  -11.8699999      -1.22775306E-18
  -11.8599997      -1.30420006E-18
  -11.8500004      -1.38472196E-18
  -11.8400002      -1.46947922E-18
  -11.8299999      -1.55864774E-18
  -11.8199997      -1.65239584E-18
  -11.8100004      -1.75091057E-18
  -11.8000002      -1.85437040E-18
  -11.7900000      -1.96295543E-18
  -11.7799997      -2.07685489E-18
  -11.7700005      -2.19626358E-18
  -11.7600002      -2.32137299E-18
  -11.7500000      -2.45238662E-18
  -11.7399998      -2.58950442E-18
  -11.7299995      -2.73292141E-18
  -11.7200003      -2.88284975E-18
  -11.7100000      -3.03948054E-18
  -11.6999998      -3.20303648E-18
  -11.6899996      -3.37372644E-18
  -11.6800003      -3.55174398E-18
  -11.6700001      -3.73731574E-18
  -11.6599998      -3.93065474E-18
  -11.6499996      -4.13196362E-18
  -11.6400003      -4.34145869E-18
  -11.6300001      -4.55932317E-18
  -11.6199999      -4.78576676E-18
  -11.6099997      -5.02101113E-18
  -11.6000004      -5.26525027E-18
  -11.5900002      -5.51869593E-18
  -11.5799999      -5.78154167E-18
  -11.5699997      -6.05396450E-18
  -11.5600004      -6.33613401E-18
  -11.5500002      -6.62827145E-18
  -11.5400000      -6.93053359E-18
  -11.5299997      -7.24308544E-18
  -11.5200005      -7.56609616E-18
  -11.5100002      -7.89969479E-18
  -11.5000000      -8.24402278E-18
  -11.4899998      -8.59922324E-18
  -11.4799995      -8.96540451E-18
  -11.4700003      -9.34263692E-18
  -11.4600000      -9.73104868E-18
  -11.4499998      -1.01307399E-17
  -11.4399996      -1.05417552E-17
  -11.4300003      -1.09641616E-17
  -11.4200001      -1.13979748E-17
  -11.4099998      -1.18431576E-17
  -11.3999996      -1.22997919E-17
  -11.3900003      -1.27678148E-17
  -11.3800001      -1.32471569E-17
  -11.3699999      -1.37377015E-17
  -11.3599997      -1.42394014E-17
  -11.3500004      -1.47521740E-17
  -11.3400002      -1.52757942E-17
  -11.3299999      -1.58101231E-17
  -11.3199997      -1.63549158E-17
  -11.3100004      -1.69099805E-17
  -11.3000002      -1.74750275E-17
  -11.2900000      -1.80496997E-17
  -11.2799997      -1.86337421E-17
  -11.2700005      -1.92267314E-17
  -11.2600002      -1.98281992E-17
  -11.2500000      -2.04377089E-17
  -11.2399998      -2.10548154E-17
  -11.2299995      -2.16789265E-17
  -11.2200003      -2.23094731E-17
  -11.2100000      -2.29457123E-17
  -11.1999998      -2.35870320E-17
  -11.1899996      -2.42328053E-17
  -11.1800003      -2.48820643E-17
  -11.1700001      -2.55341027E-17
  -11.1599998      -2.61880154E-17
  -11.1499996      -2.68427719E-17
  -11.1400003      -2.74973943E-17
  -11.1300001      -2.81508687E-17
  -11.1199999      -2.88019128E-17
  -11.1099997      -2.94493371E-17
  -11.1000004      -3.00920300E-17
  -11.0900002      -3.07286513E-17
  -11.0799999      -3.13577354E-17
  -11.0699997      -3.19777503E-17
  -11.0600004      -3.25872931E-17
  -11.0500002      -3.31845506E-17
  -11.0400000      -3.37681166E-17
  -11.0299997      -3.43360852E-17
  -11.0200005      -3.48865773E-17
  -11.0100002      -3.54177893E-17
  -11.0000000      -3.59276271E-17
  -10.9899998      -3.64141383E-17
  -10.9799995      -3.68750268E-17
  -10.9700003      -3.73079202E-17
  -10.9600000      -3.77107108E-17
  -10.9499998      -3.80809271E-17
  -10.9399996      -3.84160775E-17
  -10.9300003      -3.87136144E-17
  -10.9200001      -3.89707848E-17
  -10.9099998      -3.91850180E-17
  -10.8999996      -3.93532368E-17
  -10.8900003      -3.94725460E-17
  -10.8800001      -3.95400439E-17
  -10.8699999      -3.95524483E-17
  -10.8599997      -3.95066027E-17
  -10.8500004      -3.93991784E-17
  -10.8400002      -3.92268138E-17
  -10.8299999      -3.89859917E-17
  -10.8199997      -3.86732380E-17
  -10.8100004      -3.82849098E-17
  -10.8000002      -3.78171127E-17
  -10.7900000      -3.72661244E-17
  -10.7799997      -3.66280406E-17
  -10.7700005      -3.58987452E-17
  -10.7600002      -3.50743075E-17
  -10.7500000      -3.41504924E-17
  -10.7399998      -3.31229852E-17
  -10.7299995      -3.19874879E-17
  -10.7200003      -3.07396330E-17
  -10.7100000      -2.93749901E-17
  -10.6999998      -2.78889370E-17
  -10.6899996      -2.62768678E-17
  -10.6800003      -2.45341555E-17
  -10.6700001      -2.26560270E-17
  -10.6599998      -2.06377526E-17
  -10.6499996      -1.84745049E-17
  -10.6400003      -1.61613473E-17
  -10.6300001      -1.36933315E-17
  -10.6199999      -1.10655143E-17
  -10.6099997      -8.27286823E-18
  -10.6000004      -5.31032789E-18
  -10.5900002      -2.17286740E-18
  -10.5799999       1.14463723E-18
  -10.5699997       4.64726901E-18
  -10.5600004       8.34012711E-18
  -10.5500002       1.22283318E-17
  -10.5400000       1.63169184E-17
  -10.5299997       2.06110694E-17
  -10.5200005       2.51157726E-17
  -10.5100002       2.98360771E-17
  -10.5000000       3.47770122E-17
  -10.4899998       3.99434599E-17
  -10.4799995       4.53403138E-17
  -10.4700003       5.09726561E-17
  -10.4600000       5.68449899E-17
  -10.4499998       6.29618317E-17
  -10.4399996       6.93281115E-17
  -10.4300003       7.59481703E-17
  -10.4200001       8.28263690E-17
  -10.4099998       8.99669560E-17
  -10.3999996       9.73742459E-17
  -10.3900003       1.05051852E-16
  -10.3800001       1.13003711E-16
  -10.3699999       1.21233430E-16
  -10.3599997       1.29744603E-16
  -10.3500004       1.38540179E-16
  -10.3400002       1.47623364E-16
  -10.3299999       1.56997067E-16
  -10.3199997       1.66663434E-16
  -10.3100004       1.76625176E-16
  -10.3000002       1.86885194E-16
  -10.2900000       1.97443698E-16
  -10.2799997       2.08303666E-16
  -10.2700005       2.19464159E-16
  -10.2600002       2.30927969E-16
  -10.2500000       2.42695480E-16
  -10.2399998       2.54765699E-16
  -10.2299995       2.67139898E-16
  -10.2200003       2.79815825E-16
  -10.2100000       2.92794038E-16
  -10.1999998       3.06071835E-16
  -10.1899996       3.19647391E-16
  -10.1800003       3.33519011E-16
  -10.1700001       3.47683758E-16
  -10.1599998       3.62137660E-16
  -10.1499996       3.76877595E-16
  -10.1400003       3.91900069E-16
  -10.1300001       4.07199575E-16
  -10.1199999       4.22769470E-16
  -10.1099997       4.38604989E-16
  -10.1000004       4.54698139E-16
  -10.0900002       4.71044233E-16
  -10.0799999       4.87633321E-16
  -10.0699997       5.04457724E-16
  -10.0600004       5.21508498E-16
  -10.0500002       5.38775476E-16
  -10.0400000       5.56247648E-16
  -10.0299997       5.73913738E-16
  -10.0200005       5.91762151E-16
  -10.0100002       6.09779230E-16
  -10.0000000       6.27951899E-16
  -9.98999977       6.46266869E-16
  -9.97999954       6.64709423E-16
  -9.97000027       6.83261615E-16
  -9.96000004       7.01906822E-16
  -9.94999981       7.20629162E-16
  -9.93999958       7.39409100E-16
  -9.93000031       7.58224719E-16
  -9.92000008       7.77060191E-16
  -9.90999985       7.95892274E-16
  -9.89999962       8.14700482E-16
  -9.89000034       8.33460727E-16
  -9.88000011       8.52149450E-16
  -9.86999989       8.70740499E-16
  -9.85999966       8.89207565E-16
  -9.85000038       9.07523593E-16
  -9.84000015       9.25661322E-16
  -9.82999992       9.43592586E-16
  -9.81999969       9.61285092E-16
  -9.81000042       9.78715019E-16
  -9.80000019       9.95844036E-16
  -9.78999996       1.01264282E-15
  -9.77999973       1.02907504E-15
  -9.77000046       1.04510758E-15
  -9.76000023       1.06070463E-15
  -9.75000000       1.07582618E-15
  -9.73999977       1.09043496E-15
  -9.72999954       1.10449316E-15
  -9.72000027       1.11795993E-15
  -9.71000004       1.13079481E-15
  -9.69999981       1.14295386E-15
  -9.68999958       1.15440056E-15
  -9.68000031       1.16508620E-15
  -9.67000008       1.17496324E-15
  -9.65999985       1.18398763E-15
  -9.64999962       1.19211406E-15
  -9.64000034       1.19928992E-15
  -9.63000011       1.20547167E-15
  -9.61999989       1.21060532E-15
  -9.60999966       1.21464165E-15
  -9.60000038       1.21753257E-15
  -9.59000015       1.21922526E-15
  -9.57999992       1.21965714E-15
  -9.56999969       1.21878417E-15
  -9.56000042       1.21654694E-15
  -9.55000019       1.21289136E-15
  -9.53999996       1.20776067E-15
  -9.52999973       1.20109791E-15
  -9.52000046       1.19284272E-15
  -9.51000023       1.18293720E-15
  -9.50000000       1.17132449E-15
  -9.48999977       1.15794761E-15
  -9.47999954       1.14273977E-15
  -9.47000027       1.12564569E-15
  -9.46000004       1.10660376E-15
  -9.44999981       1.08555001E-15
  -9.43999958       1.06242496E-15
  -9.43000031       1.03716728E-15
  -9.42000008       1.00971526E-15
  -9.40999985       9.80005473E-16
  -9.39999962       9.47976934E-16
  -9.39000034       9.13567809E-16
  -9.38000011       8.76714517E-16
  -9.36999989       8.37353849E-16
  -9.35999966       7.95426300E-16
  -9.35000038       7.50866597E-16
  -9.34000015       7.03618993E-16
  -9.32999992       6.53619962E-16
  -9.31999969       6.00807458E-16
  -9.31000042       5.45124888E-16
  -9.30000019       4.86511055E-16
  -9.28999996       4.24909234E-16
  -9.27999973       3.60259762E-16
  -9.27000046       2.92505517E-16
  -9.26000023       2.21591853E-16
  -9.25000000       1.47463791E-16
  -9.23999977       7.00695300E-17
  -9.22999954      -1.06446573E-17
  -9.22000027      -9.47291009E-17
  -9.21000004      -1.82233130E-16
  -9.19999981      -2.73204495E-16
  -9.18999958      -3.67689061E-16
  -9.18000031      -4.65730531E-16
  -9.17000008      -5.67371150E-16
  -9.15999985      -6.72651786E-16
  -9.14999962      -7.81609764E-16
  -9.14000034      -8.94279810E-16
  -9.13000011      -1.01069655E-15
  -9.11999989      -1.13089211E-15
  -9.10999966      -1.25489318E-15
  -9.10000038      -1.38272305E-15
  -9.09000015      -1.51440841E-15
  -9.07999992      -1.64996682E-15
  -9.06999969      -1.78941343E-15
  -9.06000042      -1.93276211E-15
  -9.05000019      -2.08002239E-15
  -9.03999996      -2.23120358E-15
  -9.02999973      -2.38630738E-15
  -9.02000046      -2.54532850E-15
  -9.01000023      -2.70826461E-15
  -9.00000000      -2.87511358E-15
  -8.98999977      -3.04584789E-15
  -8.97999954      -3.22046204E-15
  -8.97000027      -3.39893442E-15
  -8.96000004      -3.58123878E-15
  -8.94999981      -3.76733404E-15
  -8.93999958      -3.95718377E-15
  -8.93000031      -4.15074859E-15
  -8.92000008      -4.34798910E-15
  -8.90999985      -4.54886296E-15
  -8.89999962      -4.75329055E-15
  -8.89000034      -4.96121766E-15
  -8.88000011      -5.17260363E-15
  -8.86999989      -5.38732944E-15
  -8.85999966      -5.60532184E-15
  -8.85000038      -5.82653127E-15
  -8.84000015      -6.05083237E-15
  -8.82999992      -6.27813409E-15
  -8.81999969      -6.50834536E-15
  -8.81000042      -6.74135100E-15
  -8.80000019      -6.97701886E-15
  -8.78999996      -7.21524349E-15
  -8.77999973      -7.45587962E-15
  -8.77000046      -7.69881036E-15
  -8.76000023      -7.94387393E-15
  -8.75000000      -8.19090601E-15
  -8.73999977      -8.43978546E-15
  -8.72999954      -8.69030816E-15
  -8.72000027      -8.94232757E-15
  -8.71000004      -9.19567004E-15
  -8.69999981      -9.45008655E-15
  -8.68999958      -9.70539584E-15
  -8.68000031      -9.96142086E-15
  -8.67000008      -1.02179236E-14
  -8.65999985      -1.04747194E-14
  -8.64999962      -1.07315466E-14
  -8.64000034      -1.09882044E-14
  -8.63000011      -1.12444022E-14
  -8.61999989      -1.14999063E-14
  -8.60999966      -1.17544609E-14
  -8.60000038      -1.20078042E-14
  -8.59000015      -1.22596686E-14
  -8.57999992      -1.25097373E-14
  -8.56999969      -1.27577138E-14
  -8.56000042      -1.30033127E-14
  -8.55000019      -1.32462002E-14
  -8.53999996      -1.34860342E-14
  -8.52999973      -1.37225851E-14
  -8.52000046      -1.39554624E-14
  -8.51000023      -1.41843112E-14
  -8.50000000      -1.44087978E-14
  -8.48999977      -1.46285385E-14
  -8.47999954      -1.48431563E-14
  -8.47000027      -1.50523328E-14
  -8.46000004      -1.52556529E-14
  -8.44999981      -1.54527304E-14
  -8.43999958      -1.56431637E-14
  -8.43000031      -1.58265718E-14
  -8.42000008      -1.60024903E-14
  -8.40999985      -1.61705180E-14
  -8.39999962      -1.63302768E-14
  -8.39000034      -1.64812825E-14
  -8.38000011      -1.66231012E-14
  -8.36999989      -1.67552197E-14
  -8.35999966      -1.68773127E-14
  -8.35000038      -1.69888788E-14
  -8.34000015      -1.70893996E-14
  -8.32999992      -1.71783804E-14
  -8.31999969      -1.72553605E-14
  -8.31000042      -1.73199112E-14
  -8.30000019      -1.73715463E-14
  -8.28999996      -1.74097221E-14
  -8.27999973      -1.74339591E-14
  -8.27000046      -1.74437779E-14
  -8.26000023      -1.74386770E-14
  -8.25000000      -1.74181111E-14
  -8.23999977      -1.73816023E-14
  -8.22999954      -1.73285814E-14
  -8.22000027      -1.72586012E-14
  -8.21000004      -1.71711112E-14
  -8.19999981      -1.70655743E-14
  -8.18999958      -1.69415043E-14
  -8.18000031      -1.67982981E-14
  -8.17000008      -1.66354950E-14
  -8.15999985      -1.64525545E-14
  -8.14999962      -1.62489634E-14
  -8.14000034      -1.60242269E-14
  -8.13000011      -1.57777657E-14
  -8.11999989      -1.55090293E-14
  -8.10999966      -1.52175805E-14
  -8.10000038      -1.49028518E-14
  -8.09000015      -1.45643622E-14
  -8.07999992      -1.42015704E-14
  -8.06999969      -1.38139630E-14
  -8.06000042      -1.34011200E-14
  -8.05000019      -1.29624925E-14
  -8.03999996      -1.24975722E-14
  -8.02999973      -1.20059111E-14
  -8.02000046      -1.14870119E-14
  -8.01000023      -1.09404114E-14
  -8.00000000      -1.03656690E-14
  -7.98999977      -9.76234356E-15
  -7.98000002      -9.13000890E-15
  -7.96999979      -8.46820766E-15
  -7.96000004      -7.77654173E-15
  -7.94999981      -7.05459395E-15
  -7.94000006      -6.30195096E-15
  -7.92999983      -5.51830361E-15
  -7.92000008      -4.70322752E-15
  -7.90999985      -3.85638473E-15
  -7.90000010      -2.97746608E-15
  -7.88999987      -2.06611114E-15
  -7.88000011      -1.12207354E-15
  -7.86999989      -1.45047484E-16
  -7.86000013       8.65227109E-16
  -7.84999990       1.90898716E-15
  -7.84000015       2.98647321E-15
  -7.82999992       4.09787594E-15
  -7.82000017       5.24338424E-15
  -7.80999994       6.42314952E-15
  -7.80000019       7.63730645E-15
  -7.78999996       8.88597108E-15
  -7.78000021       1.01692226E-14
  -7.76999998       1.14871229E-14
  -7.76000023       1.28397167E-14
  -7.75000000       1.42270009E-14
  -7.73999977       1.56489625E-14
  -7.73000002       1.71055170E-14
  -7.71999979       1.85966151E-14
  -7.71000004       2.01221198E-14
  -7.69999981       2.16818886E-14
  -7.69000006       2.32757556E-14
  -7.67999983       2.49035513E-14
  -7.67000008       2.65650047E-14
  -7.65999985       2.82598042E-14
  -7.65000010       2.99876802E-14
  -7.63999987       3.17482789E-14
  -7.63000011       3.35411833E-14
  -7.61999989       3.53660176E-14
  -7.61000013       3.72222733E-14
  -7.59999990       3.91095508E-14
  -7.59000015       4.10271453E-14
  -7.57999992       4.29745554E-14
  -7.57000017       4.49510424E-14
  -7.55999994       4.69561151E-14
  -7.55000019       4.89890213E-14
  -7.53999996       5.10489342E-14
  -7.53000021       5.31351628E-14
  -7.51999998       5.52468702E-14
  -7.51000023       5.73831686E-14
  -7.50000000       5.95431094E-14
  -7.48999977       6.17255203E-14
  -7.48000002       6.39297168E-14
  -7.46999979       6.61544116E-14
  -7.46000004       6.83983781E-14
  -7.44999981       7.06606675E-14
  -7.44000006       7.29398909E-14