  -16.0000000       0.00000000    
  -15.9899998       0.00000000    
  -15.9799995       0.00000000    
  -15.9700003       0.00000000    
  -15.9600000       0.00000000    
  -15.9499998       0.00000000    
  -15.9399996       0.00000000    
  -15.9300003       0.00000000    
  -15.9200001       0.00000000    
  -15.9099998       0.00000000    
  -15.8999996       0.00000000    
  -15.8900003       0.00000000    
  -15.8800001       0.00000000    
  -15.8699999       0.00000000    
  -15.8599997       0.00000000    
  -15.8500004       0.00000000    
  -15.8400002       0.00000000    
  -15.8299999       0.00000000    
  -15.8199997       0.00000000    
  -15.8100004       0.00000000    
  -15.8000002       0.00000000    
  -15.7900000       0.00000000    
  -15.7799997       0.00000000    
  -15.7700005       0.00000000    
  -15.7600002       0.00000000    
  -15.7500000       0.00000000    
  -15.7399998       0.00000000    
  -15.7299995       0.00000000    
  -15.7200003       1.40129846E-45
  -15.7100000       1.40129846E-45
  -15.6999998       4.20389539E-45
  -15.6899996       9.80908925E-45
  -15.6800003       2.24207754E-44
  -15.6700001       4.34402524E-44
  -15.6599998       7.98740125E-44
  -15.6499996       1.42932443E-43
  -15.6400003       2.38220739E-43
  -15.6300001       3.72745392E-43
  -15.6199999       5.43703804E-43
  -15.6099997       7.37082992E-43
  -15.6000004       9.24856986E-43
  -15.5900002       1.07479592E-42
  -15.5799999       1.17148552E-42
  -15.5699997       1.24995823E-42
  -15.5600004       1.39569327E-42
  -15.5500002       1.71238672E-42
  -15.5400000       2.20564378E-42
  -15.5299997       2.58539567E-42
  -15.5200005       2.06691523E-42
  -15.5100002      -6.67018069E-43
  -15.5000000      -7.07515595E-42
  -15.4899998      -1.77320308E-41
  -15.4799995      -3.06702195E-41
  -15.4700003      -3.96651543E-41
  -15.4600000      -3.36045385E-41
  -15.4499998       1.41531145E-42
  -15.4399996       7.58592924E-41
  -15.4300003       1.86397919E-40
  -15.4200001       3.04206482E-40
  -15.4099998       3.67993588E-40
  -15.3999996       2.90250951E-40
  -15.3900003      -1.56595103E-41
  -15.3800001      -5.86226206E-40
  -15.3699999      -1.34667865E-39
  -15.3599997      -2.06280383E-39
  -15.3500004      -2.34085507E-39
  -15.3400002      -1.70890590E-39
  -15.3299999       2.07826575E-40
  -15.3199997       3.44445889E-39
  -15.3100004       7.46083672E-39
  -15.3000002       1.10222522E-38
  -15.2900000       1.23063362E-38
  -15.2799997       9.29916515E-39
  -15.2700005       4.57261906E-40
  -15.2600002      -1.44820315E-38
  -15.2500000      -3.37207762E-38
  -15.2399998      -5.28373543E-38
  -15.2299995      -6.46051505E-38
  -15.2200003      -5.93865525E-38
  -15.2100000      -2.64568653E-38
  -15.1999998       4.31073627E-38
  -15.1899996       1.51166608E-37
  -15.1800003       2.84481189E-37
  -15.1700001       4.05063235E-37
  -15.1599998       4.43091426E-37
  -15.1499996       3.00393056E-37
  -15.1400003      -1.24873529E-37
  -15.1300001      -8.83699976E-37
  -15.1199999      -1.89357905E-36
  -15.1099997      -2.84983230E-36
  -15.1000004      -3.17999634E-36
  -15.0900002      -2.11266806E-36
  -15.0799999       1.06900212E-36
  -15.0699997       6.56492358E-36
  -15.0600004       1.34657556E-35
  -15.0500002       1.92584818E-35
  -15.0400000       1.98031538E-35
  -15.0299997       1.02076984E-35
  -15.0200005      -1.31190307E-35
  -15.0100002      -4.93843659E-35
  -15.0000000      -9.01454992E-35
  -14.9899998      -1.17499339E-34
  -14.9799995      -1.05894730E-34
  -14.9700003      -2.94973346E-35
  -14.9600000       1.24419304E-34
  -14.9499998       3.38409487E-34
  -14.9399996       5.50200830E-34
  -14.9300003       6.49882705E-34
  -14.9200001       4.99327592E-34
  -14.9099998      -1.94247299E-35
  -14.8999996      -9.29810338E-34
  -14.8900003      -2.07858258E-33
  -14.8800001      -3.08090494E-33
  -14.8699999      -3.33917207E-33
  -14.8599997      -2.17864892E-33
  -14.8500004       8.83570339E-34
  -14.8400002       5.77238733E-33
  -14.8299999       1.14981443E-32
  -14.8199997       1.59839167E-32
  -14.8100004       1.62810038E-32
  -14.8000002       9.33183529E-33
  -14.7900000      -6.70814512E-33
  -14.7799997      -3.08253792E-32
  -14.7700005      -5.77127054E-32
  -14.7600002      -7.73197220E-32
  -14.7500000      -7.62136170E-32
  -14.7399998      -4.12877668E-32
  -14.7299995       3.43424348E-32
  -14.7200003       1.44465117E-31
  -14.7100000       2.64277720E-31
  -14.6999998       3.49448257E-31
  -14.6899996       3.42847080E-31
  -14.6800003       1.90652841E-31
  -14.6700001      -1.33400647E-31
  -14.6599998      -6.00957381E-31
  -14.6499996      -1.10865179E-30
  -14.6400003      -1.47650121E-30
  -14.6300001      -1.47627044E-30
  -14.6199999      -8.95064093E-31
  -14.6099997       3.71849277E-31
  -14.6000004       2.21984021E-30
  -14.5900002       4.26064115E-30
  -14.5799999       5.81836037E-30
  -14.5699997       6.03443091E-30
  -14.5600004       4.09796552E-30
  -14.5500002      -4.21781573E-31
  -14.5400000      -7.21496014E-30
  -14.5299997      -1.49645449E-29
  -14.5200005      -2.13206328E-29
  -14.5100002      -2.32445811E-29
  -14.5000000      -1.77771489E-29
  -14.4899998      -3.15407779E-30
  -14.4799995       1.99712932E-29
  -14.4700003       4.75910590E-29
  -14.4600000       7.21633191E-29
  -14.4499998       8.36068337E-29
  -14.4399996       7.16559328E-29
  -14.4300003       2.93622103E-29
  -14.4200001      -4.29706718E-29
  -14.4099998      -1.34599548E-28
  -14.3999996      -2.23335675E-28
  -14.3900003      -2.78016076E-28
  -14.3800001      -2.65102499E-28
  -14.3699999      -1.58918892E-28
  -14.3599997       4.64036420E-29
  -14.3500004       3.26577124E-28
  -14.3400002       6.22513810E-28
  -14.3299999       8.45247704E-28
  -14.3199997       8.92635981E-28
  -14.3100004       6.77039053E-28
  -14.3000002       1.59265920E-28
  -14.2900000      -6.19776438E-28
  -14.2799997      -1.52078718E-27
  -14.2700005      -2.31201977E-27
  -14.2600002      -2.70662240E-27
  -14.2500000      -2.43113738E-27
  -14.2399998      -1.31498337E-27
  -14.2299995       6.19459718E-28
  -14.2200003       3.09387915E-27
  -14.2100000       5.56704456E-27
  -14.1999998       7.30524410E-27
  -14.1899996       7.53502757E-27
  -14.1800003       5.65963634E-27
  -14.1700001       1.49510606E-27
  -14.1599998      -4.53812381E-27
  -14.1499996      -1.13393062E-26
  -14.1400003      -1.72262447E-26
  -14.1300001      -2.02344270E-26
  -14.1199999      -1.85906874E-26
  -14.1099997      -1.12768830E-26
  -14.1000004       1.45211314E-27
  -14.0900002       1.77579076E-26
  -14.0799999       3.42639207E-26
  -14.0699997       4.65447502E-26
  -14.0600004       5.00458227E-26
  -14.0500002       4.12941628E-26
  -14.0400000       1.91420565E-26
  -14.0299997      -1.42915373E-26
  -14.0200005      -5.33192873E-26
  -14.0100002      -8.92694845E-26
  -14.0000000      -1.12019210E-25
  -13.9899998      -1.12296260E-25
  -13.9799995      -8.43169110E-26
  -13.9700003      -2.81349954E-26
  -13.9600000       4.89885180E-26
  -13.9499998       1.32778837E-25
  -13.9399996       2.03999689E-25
  -13.9300003       2.42232166E-25
  -13.9200001       2.30765382E-25
  -13.9099998       1.61566282E-25
  -13.8999996       3.90686167E-26
  -13.8900003      -1.18419362E-25
  -13.8800001      -2.80502939E-25
  -13.8699999      -4.09829634E-25
  -13.8599997      -4.69874743E-25
  -13.8500004      -4.33903721E-25
  -13.8400002      -2.93078885E-25
  -13.8299999      -6.15586128E-26
  -13.8199997       2.23153614E-25
  -13.8100004       5.05432007E-25
  -13.8000002       7.21876162E-25
  -13.7900000       8.14995226E-25
  -13.7799997       7.47357750E-25
  -13.7700005       5.12834530E-25
  -13.7600002       1.41841036E-25
  -13.7500000      -3.01416430E-25
  -13.7399998      -7.29950055E-25
  -13.7299995      -1.05150396E-24
  -13.7200003      -1.18901859E-24
  -13.7100000      -1.09938604E-24
  -13.6999998      -7.85792779E-25
  -13.6899996      -3.00086633E-25
  -13.6800003       2.66225838E-25
  -13.6700001       8.01009511E-25
  -13.6599998       1.19656365E-24
  -13.6499996       1.37484956E-24
  -13.6400003       1.30650206E-24
  -13.6300001       1.01835050E-24
  -13.6199999       5.86785260E-25
  -13.6099997       1.17859246E-25
  -13.6000004      -2.81327249E-25
  -13.5900002      -5.32637897E-25
  -13.5799999      -6.09933250E-25
  -13.5699997      -5.47895108E-25
  -13.5600004      -4.32684980E-25
  -13.5500002      -3.75229085E-25
  -13.5400000      -4.73020227E-25
  -13.5299997      -7.70419112E-25
  -13.5200005      -1.22927159E-24
  -13.5100002      -1.72044706E-24
  -13.5000000      -2.04257506E-24
  -13.4899998      -1.96756681E-24
  -13.4799995      -1.30495668E-24
  -13.4700003       2.94380796E-26
  -13.4600000       1.95864598E-24
  -13.4499998       4.22092925E-24
  -13.4399996       6.38958558E-24
  -13.4300003       7.93909615E-24
  -13.4200001       8.34926911E-24
  -13.4099998       7.22827883E-24
  -13.3999996       4.42807900E-24
  -13.3900003       1.23813100E-25
  -13.3800001      -5.16634434E-24
  -13.3699999      -1.06334553E-23
  -13.3599997      -1.52994950E-23
  -13.3500004      -1.81896368E-23
  -13.3400002      -1.85230915E-23
  -13.3299999      -1.58835834E-23
  -13.3199997      -1.03321246E-23
  -13.3100004      -2.43504440E-24
  -13.3000002       6.80257320E-24
  -13.2900000       1.60877437E-23
  -13.2799997       2.40457710E-23
  -13.2700005       2.94405130E-23
  -13.2600002       3.13646868E-23
  -13.2500000       2.93638988E-23
  -13.2399998       2.34748092E-23
  -13.2299995       1.41791894E-23
  -13.2200003       2.29628633E-24
  -13.2100000      -1.11501355E-23
  -13.1999998      -2.50504816E-23
  -13.1899996      -3.82832588E-23
  -13.1800003      -4.97331836E-23
  -13.1700001      -5.82669704E-23
  -13.1599998      -6.27026343E-23
  -13.1499996      -6.18207698E-23
  -13.1400003      -5.44634302E-23
  -13.1300001      -3.97458984E-23
  -13.1199999      -1.73717821E-23
  -13.1099997       1.19998578E-23
  -13.1000004       4.64245526E-23
  -13.0900002       8.24908188E-23
  -13.0799999       1.15394497E-22
  -13.0699997       1.39343065E-22
  -13.0600004       1.48302669E-22
  -13.0500002       1.37021719E-22
  -13.0400000       1.02184107E-22
  -13.0299997       4.34824990E-23
  -13.0200005      -3.56260061E-23
  -13.0100002      -1.27699125E-22
  -13.0000000      -2.21770510E-22
  -12.9899998      -3.04526563E-22
  -12.9799995      -3.62096546E-22
  -12.9700003      -3.82219012E-22
  -12.9600000      -3.56445651E-22
  -12.9499998      -2.81996089E-22
  -12.9399996      -1.62900761E-22
  -12.9300003      -1.01659992E-23
  -12.9200001       1.59151552E-22
  -12.9099998       3.23887784E-22
  -12.8999996       4.61476309E-22
  -12.8900003       5.51019065E-22
  -12.8800001       5.76252062E-22
  -12.8699999       5.27946865E-22
  -12.8599997       4.05383931E-22
  -12.8500004       2.16691079E-22
  -12.8400002      -2.19682963E-23
  -12.8299999      -2.88189215E-22
  -12.8199997      -5.55794235E-22
  -12.8100004      -7.97599515E-22
  -12.8000002      -9.88109348E-22
  -12.7900000      -1.10584778E-21
  -12.7799997      -1.13515958E-21
  -12.7700005      -1.06744084E-21
  -12.7600002      -9.01862844E-22
  -12.7500000      -6.45699488E-22
  -12.7399998      -3.14348777E-22
  -12.7299995       6.89360743E-23
  -12.7200003       4.73691359E-22
  -12.7100000       8.63440951E-22
  -12.6999998       1.19766069E-21
  -12.6899996       1.43467348E-21
  -12.6800003       1.53549945E-21
  -12.6700001       1.46846571E-21
  -12.6599998       1.21412504E-21
  -12.6499996       7.69803742E-22
  -12.6400003       1.52956002E-22
  -12.6300001      -5.97491681E-22
  -12.6199999      -1.42245147E-21
  -12.6099997      -2.24694344E-21
  -12.6000004      -2.98716750E-21
  -12.5900002      -3.55971845E-21
  -12.5799999      -3.89183833E-21
  -12.5699997      -3.93129865E-21
  -12.5600004      -3.65442377E-21
  -12.5500002      -3.07095003E-21
  -12.5400000      -2.22481333E-21
  -12.5299997      -1.19056604E-21
  -12.5200005      -6.57728368E-23
  -12.5100002       1.03963820E-21
  -12.5000000       2.01563175E-21
  -12.4899998       2.76426656E-21
  -12.4799995       3.21023141E-21
  -12.4700003       3.30841004E-21
  -12.4600000       3.04767063E-21
  -12.4499998       2.45065545E-21
  -12.4399996       1.56990530E-21
  -12.4300003       4.81100139E-22
  -12.4200001      -7.25566947E-22
  -12.4099998      -1.95480409E-21
  -12.3999996      -3.11548026E-21
  -12.3900003      -4.12900895E-21
  -12.3800001      -4.93638327E-21
  -12.3699999      -5.50357552E-21
  -12.3599997      -5.82509594E-21
  -12.3500004      -5.92547843E-21
  -12.3400002      -5.85835200E-21
  -12.3299999      -5.70268896E-21
  -12.3199997      -5.55581836E-21
  -12.3100004      -5.52300377E-21
  -12.3000002      -5.70378756E-21
  -12.2900000      -6.17592028E-21
  -12.2799997      -6.97839453E-21
  -12.2700005      -8.09579599E-21
  -12.2600002      -9.44664816E-21
  -12.2500000      -1.08785463E-20
  -12.2399998      -1.21724983E-20
  -12.2299995      -1.30580315E-20
  -12.2200003      -1.32392818E-20
  -12.2100000      -1.24306643E-20
  -12.1999998      -1.03990392E-20
  -12.1899996      -7.00781357E-21
  -12.1800003      -2.25737004E-21
  -12.1700001       3.68418530E-21
  -12.1599998       1.04656620E-20
  -12.1499996       1.75575386E-20
  -12.1400003       2.42800629E-20
  -12.1300001       2.98561956E-20
  -12.1199999       3.34891115E-20
  -12.1099997       3.44625092E-20
  -12.1000004       3.22610391E-20
  -12.0900002       2.67076619E-20
  -12.0799999       1.81149323E-20
  -12.0699997       7.44775006E-21
  -12.0600004      -3.50424040E-21
  -12.0500002      -1.19456739E-20
  -12.0400000      -1.38867808E-20
  -12.0299997      -3.94777925E-21
  -12.0200005       2.48422711E-20
  -12.0100002       8.12496993E-20
  -12.0000000       1.76040190E-19
  -11.9899998       3.22177853E-19
  -11.9799995       5.35013854E-19
  -11.9700003       8.32459266E-19
  -11.9600000       1.23513627E-18
  -11.9499998       1.76650251E-18
  -11.9399996       2.45294600E-18
  -11.9300003       3.32384765E-18
  -11.9200001       4.41160981E-18
  -11.9099998       5.75165315E-18
  -11.8999996       7.38237852E-18
  -11.8900003       9.34509779E-18
  -11.8800001       1.16839369E-17
  -11.8699999       1.44457019E-17
  -11.8599997       1.76797101E-17
  -11.8500004       2.14375966E-17
  -11.8400002       2.57730785E-17
  -11.8299999       3.07416811E-17
  -11.8199997       3.64004369E-17
  -11.8100004       4.28075265E-17
  -11.8000002       5.00219145E-17
  -11.7900000       5.81029331E-17
  -11.7799997       6.71098315E-17
  -11.7700005       7.71013328E-17
  -11.7600002       8.81351281E-17
  -11.7500000       1.00267366E-16
  -11.7399998       1.13552138E-16
  -11.7299995       1.28040888E-16
  -11.7200003       1.43781897E-16
  -11.7100000       1.60819594E-16
  -11.6999998       1.79194015E-16
  -11.6899996       1.98940048E-16
  -11.6800003       2.20086847E-16
  -11.6700001       2.42657019E-16
  -11.6599998       2.66665956E-16
  -11.6499996       2.92121149E-16
  -11.6400003       3.19021354E-16
  -11.6300001       3.47355903E-16
  -11.6199999       3.77104018E-16
  -11.6099997       4.08234146E-16
  -11.6000004       4.40703249E-16
  -11.5900002       4.74456241E-16
  -11.5799999       5.09425308E-16
  -11.5699997       5.45529558E-16
  -11.5600004       5.82674176E-16
  -11.5500002       6.20750372E-16
  -11.5400000       6.59634531E-16
  -11.5299997       6.99187846E-16
  -11.5200005       7.39256157E-16
  -11.5100002       7.79669423E-16
  -11.5000000       8.20241295E-16
  -11.4899998       8.60768910E-16
  -11.4799995       9.01032780E-16
  -11.4700003       9.40796212E-16
  -11.4600000       9.79805573E-16
  -11.4499998       1.01778971E-15
  -11.4399996       1.05446009E-15
  -11.4300003       1.08951116E-15
  -11.4200001       1.12261946E-15
  -11.4099998       1.15344457E-15
  -11.3999996       1.18162875E-15
  -11.3900003       1.20679759E-15
  -11.3800001       1.22855956E-15
  -11.3699999       1.24650724E-15
  -11.3599997       1.26021721E-15
  -11.3500004       1.26925060E-15
  -11.3400002       1.27315394E-15
  -11.3299999       1.27145956E-15
  -11.3199997       1.26368612E-15
  -11.3100004       1.24934003E-15
  -11.3000002       1.22791561E-15
  -11.2900000       1.19889647E-15
  -11.2799997       1.16175609E-15
  -11.2700005       1.11595924E-15
  -11.2600002       1.06096276E-15
  -11.2500000       9.96216413E-16
  -11.2399998       9.21164953E-16
  -11.2299995       8.35248284E-16
  -11.2200003       7.37903446E-16
  -11.2100000       6.28565627E-16
  -11.1999998       5.06669486E-16
  -11.1899996       3.71650846E-16
  -11.1800003       2.22947727E-16
  -11.1700001       6.00019810E-17
  -11.1599998      -1.17739234E-16
  -11.1499996      -3.10821969E-16
  -11.1400003      -5.19783992E-16
  -11.1300001      -7.45153201E-16
  -11.1199999      -9.87446340E-16
  -11.1099997      -1.24716708E-15
  -11.1000004      -1.52480457E-15
  -11.0900002      -1.82083200E-15
  -11.0799999      -2.13570400E-15
  -11.0699997      -2.46985681E-15
  -11.0600004      -2.82370397E-15
  -11.0500002      -3.19763662E-15
  -11.0400000      -3.59202109E-15
  -11.0299997      -4.00719598E-15
  -11.0200005      -4.44347174E-15
  -11.0100002      -4.90112745E-15
  -11.0000000      -5.38041046E-15
  -10.9899998      -5.88153293E-15
  -10.9799995      -6.40467022E-15
  -10.9700003      -6.94995997E-15
  -10.9600000      -7.51749957E-15
  -10.9499998      -8.10734197E-15
  -10.9399996      -8.71949946E-15
  -10.9300003      -9.35393561E-15
  -10.9200001      -1.00105691E-14
  -10.9099998      -1.06892661E-14
  -10.8999996      -1.13898428E-14
  -10.8900003      -1.21120621E-14
  -10.8800001      -1.28556333E-14
  -10.8699999      -1.36202076E-14
  -10.8599997      -1.44053792E-14
  -10.8500004      -1.52106839E-14
  -10.8400002      -1.60355924E-14
  -10.8299999      -1.68795133E-14
  -10.8199997      -1.77417946E-14
  -10.8100004      -1.86217127E-14
  -10.8000002      -1.95184784E-14
  -10.7900000      -2.04312309E-14
  -10.7799997      -2.13590403E-14
  -10.7700005      -2.23009020E-14
  -10.7600002      -2.32557385E-14
  -10.7500000      -2.42223894E-14
  -10.7399998      -2.51996232E-14
  -10.7299995      -2.61861235E-14
  -10.7200003      -2.71804928E-14
  -10.7100000      -2.81812520E-14
  -10.6999998      -2.91868377E-14
  -10.6899996      -3.01955997E-14
  -10.6800003      -3.12057949E-14
  -10.6700001      -3.22156005E-14
  -10.6599998      -3.32230920E-14
  -10.6499996      -3.42262602E-14
  -10.6400003      -3.52230011E-14
  -10.6300001      -3.62111125E-14
  -10.6199999      -3.71883039E-14
  -10.6099997      -3.81521800E-14
  -10.6000004      -3.91002504E-14
  -10.5900002      -4.00299301E-14
  -10.5799999      -4.09385186E-14
  -10.5699997      -4.18232343E-14
  -10.5600004      -4.26811737E-14
  -10.5500002      -4.35093517E-14
  -10.5400000      -4.43046546E-14
  -10.5299997      -4.50638774E-14
  -10.5200005      -4.57837063E-14
  -10.5100002      -4.64607228E-14
  -10.5000000      -4.70913998E-14
  -10.4899998      -4.76721052E-14
  -10.4799995      -4.81990919E-14
  -10.4700003      -4.86685074E-14
  -10.4600000      -4.90763910E-14
  -10.4499998      -4.94186635E-14
  -10.4399996      -4.96911438E-14
  -10.4300003      -4.98895392E-14
  -10.4200001      -5.00094520E-14
  -10.4099998      -5.00463623E-14
  -10.3999996      -4.99956454E-14
  -10.3900003      -4.98525646E-14
  -10.3800001      -4.96122816E-14
  -10.3699999      -4.92698364E-14
  -10.3599997      -4.88201737E-14
  -10.3500004      -4.82581199E-14
  -10.3400002      -4.75783929E-14
  -10.3299999      -4.67756157E-14
  -10.3199997      -4.58442929E-14
  -10.3100004      -4.47788338E-14
  -10.3000002      -4.35735466E-14
  -10.2900000      -4.22226273E-14
  -10.2799997      -4.07201840E-14
  -10.2700005      -3.90602196E-14
  -10.2600002      -3.72366424E-14
  -10.2500000      -3.52432689E-14
  -10.2399998      -3.30738211E-14
  -10.2299995      -3.07219324E-14
  -10.2200003      -2.81811487E-14
  -10.2100000      -2.54449256E-14
  -10.1999998      -2.25066446E-14
  -10.1899996      -1.93596004E-14
  -10.1800003      -1.59970151E-14
  -10.1700001      -1.24120380E-14
  -10.1599998      -8.59774440E-15
  -10.1499996      -4.54714476E-15
  -10.1400003      -2.53186989E-16
  -10.1300001       4.29123959E-15
  -10.1199999       9.09330188E-15
  -10.1099997       1.41602174E-14
  -10.1000004       1.94992490E-14
  -10.0900002       2.51177033E-14
  -10.0799999       3.10229171E-14
  -10.0699997       3.72222598E-14
  -10.0600004       4.37231360E-14
  -10.0500002       5.05329556E-14
  -10.0400000       5.76591522E-14
  -10.0299997       6.51091526E-14
  -10.0200005       7.28903971E-14
  -10.0100002       8.10103124E-14
  -10.0000000       8.94763118E-14
  -9.98999977       9.82957815E-14
  -9.97999954       1.07476074E-13
  -9.97000027       1.17024500E-13
  -9.96000004       1.26948351E-13
  -9.94999981       1.37254804E-13
  -9.93999958       1.47951001E-13
  -9.93000031       1.59044029E-13
  -9.92000008       1.70540841E-13
  -9.90999985       1.82448308E-13
  -9.89999962       1.94773207E-13
  -9.89000034       2.07522151E-13
  -9.88000011       2.20701671E-13
  -9.86999989       2.34318099E-13
  -9.85999966       2.48377707E-13
  -9.85000038       2.62886474E-13
  -9.84000015       2.77850253E-13
  -9.82999992       2.93274709E-13
  -9.81999969       3.09165291E-13
  -9.81000042       3.25527257E-13
  -9.80000019       3.42365540E-13
  -9.78999996       3.59684938E-13
  -9.77999973       3.77489896E-13
  -9.77000046       3.95784642E-13
  -9.76000023       4.14573053E-13
  -9.75000000       4.33858787E-13
  -9.73999977       4.53645124E-13
  -9.72999954       4.73934965E-13
  -9.72000027       4.94730992E-13
  -9.71000004       5.16035402E-13
  -9.69999981       5.37850092E-13
  -9.68999958       5.60176471E-13
  -9.68000031       5.83015732E-13
  -9.67000008       6.06368417E-13
  -9.65999985       6.30234688E-13
  -9.64999962       6.54614384E-13
  -9.64000034       6.79506744E-13
  -9.63000011       7.04910577E-13
  -9.61999989       7.30824201E-13
  -9.60999966       7.57245286E-13
  -9.60000038       7.84171122E-13
  -9.59000015       8.11598401E-13
  -9.57999992       8.39523275E-13
  -9.56999969       8.67941190E-13
  -9.56000042       8.96847050E-13
  -9.55000019       9.26235217E-13
  -9.53999996       9.56099241E-13
  -9.52999973       9.86432290E-13
  -9.52000046       1.01722656E-12
  -9.51000023       1.04847370E-12
  -9.50000000       1.08016471E-12
  -9.48999977       1.11228973E-12
  -9.47999954       1.14483813E-12
  -9.47000027       1.17779874E-12
  -9.46000004       1.21115932E-12
  -9.44999981       1.24490696E-12
  -9.43999958       1.27902799E-12
  -9.43000031       1.31350768E-12
  -9.42000008       1.34833063E-12
  -9.40999985       1.38348046E-12
  -9.39999962       1.41893994E-12
  -9.39000034       1.45469097E-12
  -9.38000011       1.49071413E-12
  -9.36999989       1.52698958E-12
  -9.35999966       1.56349619E-12
  -9.35000038       1.60021193E-12
  -9.34000015       1.63711362E-12
  -9.32999992       1.67417696E-12
  -9.31999969       1.71137692E-12
  -9.31000042       1.74868702E-12
  -9.30000019       1.78607996E-12
  -9.28999996       1.82352701E-12
  -9.27999973       1.86099877E-12
  -9.27000046       1.89846402E-12
  -9.26000023       1.93589068E-12
  -9.25000000       1.97324600E-12
  -9.23999977       2.01049507E-12
  -9.22999954       2.04760211E-12
  -9.22000027       2.08453046E-12
  -9.21000004       2.12124133E-12
  -9.19999981       2.15769546E-12
  -9.18999958       2.19385209E-12
  -9.18000031       2.22966892E-12
  -9.17000008       2.26510195E-12
  -9.15999985       2.30010650E-12
  -9.14999962       2.33463639E-12
  -9.14000034       2.36864326E-12
  -9.13000011       2.40207832E-12
  -9.11999989       2.43489083E-12
  -9.10999966       2.46702832E-12
  -9.10000038       2.49843744E-12
  -9.09000015       2.52906311E-12
  -9.07999992       2.55884875E-12
  -9.06999969       2.58773580E-12
  -9.06000042       2.61566485E-12
  -9.05000019       2.64257474E-12
  -9.03999996       2.66840217E-12
  -9.02999973       2.69308317E-12
  -9.02000046       2.71655159E-12
  -9.01000023       2.73874022E-12
  -9.00000000       2.75957924E-12
  -8.98999977       2.77899839E-12
  -8.97999954       2.79692502E-12
  -8.97000027       2.81328498E-12
  -8.96000004       2.82800302E-12
  -8.94999981       2.84100131E-12
  -8.93999958       2.85220111E-12
  -8.93000031       2.86152178E-12
  -8.92000008       2.86888135E-12
  -8.90999985       2.87419567E-12
  -8.89999962       2.87737911E-12
  -8.89000034       2.87834470E-12
  -8.88000011       2.87700376E-12
  -8.86999989       2.87326564E-12
  -8.85999966       2.86703864E-12
  -8.85000038       2.85822884E-12
  -8.84000015       2.84674107E-12
  -8.82999992       2.83247839E-12
  -8.81999969       2.81534279E-12
  -8.81000042       2.79523366E-12
  -8.80000019       2.77205017E-12
  -8.78999996       2.74568888E-12
  -8.77999973       2.71604527E-12
  -8.77000046       2.68301353E-12
  -8.76000023       2.64648590E-12
  -8.75000000       2.60635350E-12
  -8.73999977       2.56250620E-12
  -8.72999954       2.51483231E-12
  -8.72000027       2.46321886E-12
  -8.71000004       2.40755115E-12
  -8.69999981       2.34771382E-12
  -8.68999958       2.28358977E-12
  -8.68000031       2.21506103E-12
  -8.67000008       2.14200814E-12
  -8.65999985       2.06431118E-12
  -8.64999962       1.98184871E-12
  -8.64000034       1.89449780E-12
  -8.63000011       1.80213559E-12
  -8.61999989       1.70463741E-12
  -8.60999966       1.60187824E-12
  -8.60000038       1.49373190E-12
  -8.59000015       1.38007195E-12
  -8.57999992       1.26077089E-12
  -8.56999969       1.13570069E-12
  -8.56000042       1.00473276E-12
  -8.55000019       8.67738173E-13
  -8.53999996       7.24587382E-13
  -8.52999973       5.75150713E-13
  -8.52000046       4.19298087E-13
  -8.51000023       2.56899428E-13
  -8.50000000       8.78244553E-14
  -8.48999977      -8.80570709E-14
  -8.47999954      -2.70875390E-13
  -8.47000027      -4.60760445E-13
  -8.46000004      -6.57841891E-13
  -8.44999981      -8.62249074E-13
  -8.43999958      -1.07411085E-12
  -8.43000031      -1.29355554E-12
  -8.42000008      -1.52071075E-12
  -8.40999985      -1.75570355E-12
  -8.39999962      -1.99865970E-12
  -8.39000034      -2.24970390E-12
  -8.38000011      -2.50896049E-12
  -8.36999989      -2.77655199E-12
  -8.35999966      -3.05259941E-12
  -8.35000038      -3.33722308E-12
  -8.34000015      -3.63054075E-12
  -8.32999992      -3.93266929E-12
  -8.31999969      -4.24372343E-12
  -8.31000042      -4.56381591E-12
  -8.30000019      -4.89305688E-12
  -8.28999996      -5.23155521E-12
  -8.27999973      -5.57941714E-12
  -8.27000046      -5.93674589E-12
  -8.26000023      -6.30364207E-12
  -8.25000000      -6.68020413E-12
  -8.23999977      -7.06652748E-12
  -8.22999954      -7.46270407E-12
  -8.22000027      -7.86882191E-12
  -8.21000004      -8.28496820E-12
  -8.19999981      -8.71122358E-12
  -8.18999958      -9.14766700E-12
  -8.18000031      -9.59437217E-12
  -8.17000008      -1.00514111E-11
  -8.15999985      -1.05188497E-11
  -8.14999962      -1.09967495E-11
  -8.14000034      -1.14851679E-11
  -8.13000011      -1.19841576E-11
  -8.11999989      -1.24937682E-11
  -8.10999966      -1.30140421E-11
  -8.10000038      -1.35450175E-11
  -8.09000015      -1.40867283E-11
  -8.07999992      -1.46392013E-11
  -8.06999969      -1.52024573E-11
  -8.06000042      -1.57765138E-11
  -8.05000019      -1.63613810E-11
  -8.03999996      -1.69570625E-11
  -8.02999973      -1.75635565E-11
  -8.02000046      -1.81808527E-11
  -8.01000023      -1.88089405E-11
  -8.00000000      -1.94477941E-11
  -7.98999977      -2.00973856E-11
  -7.98000002      -2.07576786E-11
  -7.96999979      -2.14286332E-11
  -7.96000004      -2.21101921E-11
  -7.94999981      -2.28023034E-11
  -7.94000006      -2.35049012E-11
  -7.92999983      -2.42179089E-11
  -7.92000008      -2.49412452E-11
  -7.90999985      -2.56748216E-11
  -7.90000010      -2.64185392E-11
  -7.88999987      -2.71722922E-11
  -7.88000011      -2.79359626E-11
  -7.86999989      -2.87094255E-11
  -7.86000013      -2.94925508E-11
  -7.84999990      -3.02851945E-11
  -7.84000015      -3.10872057E-11
  -7.82999992      -3.18984214E-11
  -7.82000017      -3.27186750E-11
  -7.80999994      -3.35477826E-11
  -7.80000019      -3.43855569E-11
  -7.78999996      -3.52317897E-11
  -7.78000021      -3.60862798E-11
  -7.76999998      -3.69488017E-11
  -7.76000023      -3.78191298E-11
  -7.75000000      -3.86970143E-11
  -7.73999977      -3.95822125E-11
  -7.73000002      -4.04744571E-11
  -7.71999979      -4.13734741E-11
  -7.71000004      -4.22789859E-11
  -7.69999981      -4.31906906E-11
  -7.69000006      -4.41082795E-11
  -7.67999983      -4.50314439E-11
  -7.67000008      -4.59598540E-11
  -7.65999985      -4.68931630E-11
  -7.65000010      -4.78310273E-11
  -7.63999987      -4.87730793E-11
  -7.63000011      -4.97189408E-11
  -7.61999989      -5.06682300E-11
  -7.61000013      -5.16205516E-11
  -7.59999990      -5.25754960E-11
  -7.59000015      -5.35326367E-11
  -7.57999992      -5.44915467E-11
  -7.57000017      -5.54517751E-11
  -7.55999994      -5.64128674E-11
  -7.55000019      -5.73743553E-11
  -7.53999996      -5.83357598E-11
  -7.53000021      -5.92965885E-11
  -7.51999998      -6.02563346E-11
  -7.51000023      -6.12144849E-11
  -7.50000000      -6.21705049E-11
  -7.48999977      -6.31238672E-11
  -7.48000002      -6.40740030E-11
  -7.46999979      -6.50203641E-11
  -7.46000004      -6.59623675E-11
  -7.44999981      -6.68994235E-11
  -7.44000006      -6.78309353E-11