  -16.0000000       0.00000000    
  -15.9899998       0.00000000    
  -15.9799995       0.00000000    
  -15.9700003       0.00000000    
  -15.9600000       0.00000000    
  -15.9499998       0.00000000    
  -15.9399996       0.00000000    
  -15.9300003       0.00000000    
  -15.9200001       0.00000000    
  -15.9099998       0.00000000    
  -15.8999996       3.82028403E-35
  -15.8900003       6.94738651E-34
  -15.8800001       6.40502627E-33
  -15.8699999       3.97876890E-32
  -15.8599997       1.86535919E-31
  -15.8500004       6.99718843E-31
  -15.8400002       2.16769641E-30
  -15.8299999       5.62119254E-30
  -15.8199997       1.21254022E-29
  -15.8100004       2.08179636E-29
  -15.8000002       2.36486142E-29
  -15.7900000      -5.23423184E-30
  -15.7799997      -1.26421135E-28
  -15.7700005      -4.55700880E-28
  -15.7600002      -1.17787892E-27
  -15.7500000      -2.53359281E-27
  -15.7399998      -4.74955702E-27
  -15.7299995      -7.88217336E-27
  -15.7200003      -1.15631956E-26
  -15.7100000      -1.46835210E-26
  -15.6999998      -1.51284154E-26
  -15.6899996      -9.76935206E-27
  -15.6800003       5.01288441E-27
  -15.6700001       3.20088601E-26
  -15.6599998       7.09495458E-26
  -15.6499996       1.15574027E-25
  -15.6400003       1.50682824E-25
  -15.6300001       1.50374539E-25
  -15.6199999       7.89957114E-26
  -15.6099997      -1.03780384E-25
  -15.6000004      -4.33126545E-25
  -15.5900002      -9.25413615E-25
  -15.5799999      -1.56374763E-24
  -15.5699997      -2.28774179E-24
  -15.5600004      -2.99371037E-24
  -15.5500002      -3.55077101E-24
  -15.5400000      -3.83514511E-24
  -15.5299997      -3.77929534E-24
  -15.5200005      -3.42545533E-24
  -15.5100002      -2.96668301E-24
  -15.5000000      -2.75549864E-24
  -15.4899998      -3.26305431E-24
  -15.4799995      -4.98200648E-24
  -15.4700003      -8.28302136E-24
  -15.4600000      -1.32546129E-23
  -15.4499998      -1.95728350E-23
  -15.4399996      -2.64542816E-23
  -15.4300003      -3.27370618E-23
  -15.4200001      -3.71075310E-23
  -15.4099998      -3.84493014E-23
  -15.3999996      -3.62444509E-23
  -15.3900003      -3.09192864E-23
  -15.3800001      -2.40132147E-23
  -15.3699999      -1.80705314E-23
  -15.3599997      -1.62131742E-23
  -15.3500004      -2.14387119E-23
  -15.3400002      -3.57807585E-23
  -15.3299999      -5.95412206E-23
  -15.3199997      -9.08276145E-23
  -15.3100004      -1.25587603E-22
  -15.3000002      -1.58225782E-22
  -15.2900000      -1.82736549E-22
  -15.2799997      -1.94129682E-22
  -15.2700005      -1.89808151E-22
  -15.2600002      -1.70523493E-22
  -15.2500000      -1.40603690E-22
  -15.2399998      -1.07314429E-22
  -15.2299995      -7.94396879E-23
  -15.2200003      -6.53905106E-23
  -15.2100000      -7.13041275E-23
  -15.1999998      -9.96290366E-23
  -15.1899996      -1.48583668E-22
  -15.1800003      -2.12649713E-22
  -15.1700001      -2.83975815E-22
  -15.1599998      -3.54305428E-22
  -15.1499996      -4.16884085E-22
  -15.1400003      -4.67798455E-22
  -15.1300001      -5.06359440E-22
  -15.1199999      -5.34422037E-22
  -15.1099997      -5.54855024E-22
  -15.1000004      -5.69639716E-22
  -15.0900002      -5.78209901E-22
  -15.0799999      -5.76606178E-22
  -15.0699997      -5.57815385E-22
  -15.0600004      -5.13361142E-22
  -15.0500002      -4.35884147E-22
  -15.0400000      -3.22184905E-22
  -15.0299997      -1.76054746E-22
  -15.0200005      -1.02118431E-23
  -15.0100002       1.53226701E-22
  -15.0000000       2.84107106E-22
  -14.9899998       3.47559720E-22
  -14.9799995       3.09130229E-22
  -14.9700003       1.41281972E-22
  -14.9600000      -1.69482247E-22
  -14.9499998      -6.15944665E-22
  -14.9399996      -1.16527655E-21
  -14.9300003      -1.75737348E-21
  -14.9200001      -2.30773374E-21
  -14.9099998      -2.71568525E-21
  -14.8999996      -2.87787545E-21
  -14.8900003      -2.70574434E-21
  -14.8800001      -2.14443807E-21
  -14.8699999      -1.18960861E-21
  -14.8599997       1.01859077E-22
  -14.8500004       1.61067555E-21
  -14.8400002       3.16557638E-21
  -14.8299999       4.56517789E-21
  -14.8199997       5.60850548E-21
  -14.8100004       6.12912440E-21
  -14.8000002       6.02637589E-21
  -14.7900000       5.28718580E-21
  -14.7799997       3.99340424E-21
  -14.7700005       2.31246620E-21
  -14.7600002       4.72701206E-22
  -14.7500000      -1.27198618E-21
  -14.7399998      -2.68092306E-21
  -14.7299995      -3.56108201E-21
  -14.7200003      -3.79035806E-21
  -14.7100000      -3.32574589E-21
  -14.6999998      -2.19617301E-21
  -14.6899996      -4.83441882E-22
  -14.6800003       1.70257014E-21
  -14.6700001       4.24730426E-21
  -14.6599998       7.04731305E-21
  -14.6499996       1.00148631E-20
  -14.6400003       1.30713278E-20
  -14.6300001       1.61328460E-20
  -14.6199999       1.90942221E-20
  -14.6099997       2.18179129E-20
  -14.6000004       2.41337876E-20
  -14.5900002       2.58527594E-20
  -14.5799999       2.67936160E-20
  -14.5699997       2.68188417E-20
  -14.5600004       2.58722951E-20
  -14.5500002       2.40104666E-20
  -14.5400000       2.14195625E-20
  -14.5299997       1.84128966E-20
  -14.5200005       1.54065701E-20
  -14.5100002       1.28753619E-20
  -14.5000000       1.12943734E-20
  -14.4899998       1.10747157E-20
  -14.4799995       1.25027970E-20
  -14.4700003       1.56924402E-20
  -14.4600000       2.05572881E-20
  -14.4499998       2.68079107E-20
  -14.4399996       3.39743757E-20
  -14.4300003       4.14512354E-20
  -14.4200001       4.85585490E-20
  -14.4099998       5.46103219E-20
  -14.3999996       5.89806466E-20
  -14.3900003       6.11585938E-20
  -14.3800001       6.07847082E-20
  -14.3699999       5.76651645E-20
  -14.3599997       5.17632437E-20
  -14.3500004       4.31711636E-20
  -14.3400002       3.20683706E-20
  -14.3299999       1.86736314E-20
  -14.3199997       3.19851477E-21
  -14.3100004      -1.41915371E-20
  -14.3000002      -3.34046034E-20
  -14.2900000      -5.44370728E-20
  -14.2799997      -7.73773567E-20
  -14.2700005      -1.02401755E-19
  -14.2600002      -1.29766647E-19
  -14.2500000      -1.59800412E-19
  -14.2399998      -1.92897226E-19
  -14.2299995      -2.29513410E-19
  -14.2200003      -2.70164219E-19
  -14.2100000      -3.15419219E-19
  -14.1999998      -3.65893133E-19
  -14.1899996      -4.22231009E-19
  -14.1800003      -4.85086990E-19
  -14.1700001      -5.55099919E-19
  -14.1599998      -6.32868390E-19
  -14.1499996      -7.18931311E-19
  -14.1400003      -8.13757177E-19
  -14.1300001      -9.17745619E-19
  -14.1199999      -1.03124028E-18
  -14.1099997      -1.15454995E-18
  -14.1000004      -1.28797243E-18
  -14.0900002      -1.43181324E-18
  -14.0799999      -1.58639159E-18
  -14.0699997      -1.75203140E-18
  -14.0600004      -1.92903316E-18
  -14.0500002      -2.11763345E-18
  -14.0400000      -2.31795901E-18
  -14.0299997      -2.52998546E-18
  -14.0200005      -2.75351200E-18
  -14.0100002      -2.98815894E-18
  -14.0000000      -3.23339132E-18
  -13.9899998      -3.48856723E-18
  -13.9799995      -3.75299950E-18
  -13.9700003      -4.02602039E-18
  -13.9600000      -4.30703102E-18
  -13.9499998      -4.59553466E-18
  -13.9399996      -4.89113551E-18
  -13.9300003      -5.19351221E-18
  -13.9200001      -5.50236573E-18
  -13.9099998      -5.81736107E-18
  -13.8999996      -6.13806892E-18
  -13.8900003      -6.46392018E-18
  -13.8800001      -6.79417990E-18
  -13.8699999      -7.12794851E-18
  -13.8599997      -7.46417345E-18
  -13.8500004      -7.80167472E-18
  -13.8400002      -8.13917350E-18
  -13.8299999      -8.47530662E-18
  -13.8199997      -8.80863724E-18
  -13.8100004      -9.13765412E-18
  -13.8000002      -9.46076080E-18
  -13.7900000      -9.77627478E-18
  -13.7799997      -1.00824209E-17
  -13.7700005      -1.03773464E-17
  -13.7600002      -1.06591395E-17
  -13.7500000      -1.09258540E-17
  -13.7399998      -1.11755393E-17
  -13.7299995      -1.14062582E-17
  -13.7200003      -1.16160940E-17
  -13.7100000      -1.18031427E-17
  -13.6999998      -1.19654918E-17
  -13.6899996      -1.21011924E-17
  -13.6800003      -1.22082321E-17
  -13.6700001      -1.22845097E-17
  -13.6599998      -1.23278284E-17
  -13.6499996      -1.23359041E-17
  -13.6400003      -1.23063911E-17
  -13.6300001      -1.22369220E-17
  -13.6199999      -1.21251608E-17
  -13.6099997      -1.19688560E-17
  -13.6000004      -1.17659006E-17
  -13.5900002      -1.15143831E-17
  -13.5799999      -1.12126375E-17
  -13.5699997      -1.08592825E-17
  -13.5600004      -1.04532559E-17
  -13.5500002      -9.99383155E-18
  -13.5400000      -9.48062719E-18
  -13.5299997      -8.91359736E-18
  -13.5200005      -8.29300263E-18
  -13.5100002      -7.61935915E-18
  -13.5000000      -6.89337374E-18
  -13.4899998      -6.11586119E-18
  -13.4799995      -5.28765363E-18
  -13.4700003      -4.40951373E-18
  -13.4600000      -3.48206807E-18
  -13.4499998      -2.50576541E-18
  -13.4399996      -1.48086795E-18
  -13.4300003      -4.07488712E-19
  -13.4200001       7.14331153E-19
  -13.4099998       1.88451803E-18
  -13.3999996       3.10283616E-18
  -13.3900003       4.36875441E-18
  -13.3800001       5.68133205E-18
  -13.3699999       7.03912669E-18
  -13.3599997       8.44014731E-18
  -13.3500004       9.88185198E-18
  -13.3400002       1.13611834E-17
  -13.3299999       1.28746518E-17
  -13.3199997       1.44184281E-17
  -13.3100004       1.59884616E-17
  -13.3000002       1.75805973E-17
  -13.2900000       1.91906630E-17
  -13.2799997       2.08145608E-17
  -13.2700005       2.24483335E-17
  -13.2600002       2.40882042E-17
  -13.2500000       2.57305994E-17
  -13.2399998       2.73721609E-17
  -13.2299995       2.90097402E-17
  -13.2200003       3.06403713E-17
  -13.2100000       3.22612714E-17
  -13.1999998       3.38697936E-17
  -13.1899996       3.54634199E-17
  -13.1800003       3.70397317E-17
  -13.1700001       3.85964194E-17
  -13.1599998       4.01313225E-17
  -13.1499996       4.16424326E-17
  -13.1400003       4.31279696E-17
  -13.1300001       4.45864346E-17
  -13.1199999       4.60166530E-17
  -13.1099997       4.74178441E-17
  -13.1000004       4.87896238E-17
  -13.0900002       5.01320255E-17
  -13.0799999       5.14455155E-17
  -13.0699997       5.27310038E-17
  -13.0600004       5.39898503E-17
  -13.0500002       5.52239508E-17
  -13.0400000       5.64358068E-17
  -13.0299997       5.76286542E-17
  -13.0200005       5.88066256E-17
  -13.0100002       5.99748891E-17
  -13.0000000       6.11397646E-17
  -12.9899998       6.23088619E-17
  -12.9799995       6.34910949E-17
  -12.9700003       6.46967140E-17
  -12.9600000       6.59372467E-17
  -12.9499998       6.72254316E-17
  -12.9399996       6.85751058E-17
  -12.9300003       7.00011453E-17
  -12.9200001       7.15194056E-17
  -12.9099998       7.31466684E-17
  -12.8999996       7.49006552E-17
  -12.8900003       7.68000406E-17
  -12.8800001       7.88645246E-17
  -12.8699999       8.11148595E-17
  -12.8599997       8.35729293E-17
  -12.8500004       8.62617956E-17
  -12.8400002       8.92057513E-17
  -12.8299999       9.24303594E-17
  -12.8199997       9.59624537E-17
  -12.8100004       9.98301716E-17
  -12.8000002       1.04062894E-16
  -12.7900000       1.08691241E-16
  -12.7799997       1.13747009E-16
  -12.7700005       1.19263112E-16
  -12.7600002       1.25273460E-16
  -12.7500000       1.31812938E-16
  -12.7399998       1.38917308E-16
  -12.7299995       1.46623177E-16
  -12.7200003       1.54967973E-16
  -12.7100000       1.63989920E-16
  -12.6999998       1.73728032E-16
  -12.6899996       1.84222135E-16
  -12.6800003       1.95512793E-16
  -12.6700001       2.07641273E-16
  -12.6599998       2.20649502E-16
  -12.6499996       2.34579951E-16
  -12.6400003       2.49475582E-16
  -12.6300001       2.65379684E-16
  -12.6199999       2.82335828E-16
  -12.6099997       3.00387820E-16
  -12.6000004       3.19579575E-16
  -12.5900002       3.39955138E-16
  -12.5799999       3.61558634E-16
  -12.5699997       3.84434188E-16
  -12.5600004       4.08626031E-16
  -12.5500002       4.34178289E-16
  -12.5400000       4.61134848E-16
  -12.5299997       4.89539198E-16
  -12.5200005       5.19434432E-16
  -12.5100002       5.50862848E-16
  -12.5000000       5.83865846E-16
  -12.4899998       6.18483870E-16
  -12.4799995       6.54755992E-16
  -12.4700003       6.92720167E-16
  -12.4600000       7.32412819E-16
  -12.4499998       7.73868994E-16
  -12.4399996       8.17122414E-16
  -12.4300003       8.62205054E-16
  -12.4200001       9.09147567E-16
  -12.4099998       9.57978699E-16
  -12.3999996       1.00872561E-15
  -12.3900003       1.06141360E-15
  -12.3800001       1.11606575E-15
  -12.3699999       1.17270293E-15
  -12.3599997       1.23134387E-15
  -12.3500004       1.29200424E-15
  -12.3400002       1.35469738E-15
  -12.3299999       1.41943325E-15
  -12.3199997       1.48621894E-15
  -12.3100004       1.55505773E-15
  -12.3000002       1.62594930E-15
  -12.2900000       1.69888922E-15
  -12.2799997       1.77386910E-15
  -12.2700005       1.85087562E-15
  -12.2600002       1.92989194E-15
  -12.2500000       2.01089582E-15
  -12.2399998       2.09386036E-15
  -12.2299995       2.17875424E-15
  -12.2200003       2.26554060E-15
  -12.2100000       2.35417794E-15
  -12.1999998       2.44461882E-15
  -12.1899996       2.53681095E-15
  -12.1800003       2.63069629E-15
  -12.1700001       2.72621048E-15
  -12.1599998       2.82328384E-15
  -12.1499996       2.92184036E-15
  -12.1400003       3.02179766E-15
  -12.1300001       3.12306702E-15
  -12.1199999       3.22555356E-15
  -12.1099997       3.32915606E-15
  -12.1000004       3.43376611E-15
  -12.0900002       3.53926894E-15
  -12.0799999       3.64554214E-15
  -12.0699997       3.75245675E-15
  -12.0600004       3.85987662E-15
  -12.0500002       3.96765776E-15
  -12.0400000       4.07564853E-15
  -12.0299997       4.18368970E-15
  -12.0200005       4.29161482E-15
  -12.0100002       4.39924942E-15
  -12.0000000       4.50641052E-15
  -11.9899998       4.61290797E-15
  -11.9799995       4.71854230E-15
  -11.9700003       4.82310809E-15
  -11.9600000       4.92638978E-15
  -11.9499998       5.02816460E-15
  -11.9399996       5.12820216E-15
  -11.9300003       5.22626316E-15
  -11.9200001       5.32210113E-15
  -11.9099998       5.41546110E-15
  -11.8999996       5.50608050E-15
  -11.8900003       5.59368785E-15
  -11.8800001       5.67800489E-15
  -11.8699999       5.75874492E-15
  -11.8599997       5.83561316E-15
  -11.8500004       5.90830722E-15
  -11.8400002       5.97651667E-15
  -11.8299999       6.03992428E-15
  -11.8199997       6.09820481E-15
  -11.8100004       6.15102621E-15
  -11.8000002       6.19804967E-15
  -11.7900000       6.23892917E-15
  -11.7799997       6.27331320E-15
  -11.7700005       6.30084262E-15
  -11.7600002       6.32115405E-15
  -11.7500000       6.33387690E-15
  -11.7399998       6.33863596E-15
  -11.7299995       6.33505005E-15
  -11.7200003       6.32273334E-15
  -11.7100000       6.30129663E-15
  -11.6999998       6.27034435E-15
  -11.6899996       6.22947925E-15
  -11.6800003       6.17830025E-15
  -11.6700001       6.11640331E-15
  -11.6599998       6.04338230E-15
  -11.6499996       5.95882850E-15
  -11.6400003       5.86233409E-15
  -11.6300001       5.75348739E-15
  -11.6199999       5.63187844E-15
  -11.6099997       5.49709771E-15
  -11.6000004       5.34873481E-15
  -11.5900002       5.18638104E-15
  -11.5799999       5.00962941E-15
  -11.5699997       4.81807502E-15
  -11.5600004       4.61131555E-15
  -11.5500002       4.38895034E-15
  -11.5400000       4.15058341E-15
  -11.5299997       3.89582259E-15
  -11.5200005       3.62428076E-15
  -11.5100002       3.33557488E-15
  -11.5000000       3.02932927E-15
  -11.4899998       2.70517378E-15
  -11.4799995       2.36274589E-15
  -11.4700003       2.00169196E-15
  -11.4600000       1.62166671E-15
  -11.4499998       1.22233493E-15
  -11.4399996       8.03371734E-16
  -11.4300003       3.64463348E-16
  -11.4200001      -9.46922815E-17
  -11.4099998      -5.74384212E-16
  -11.3999996      -1.07488852E-15
  -11.3900003      -1.59646779E-15
  -11.3800001      -2.13936890E-15
  -11.3699999      -2.70382446E-15
  -11.3599997      -3.29005046E-15
  -11.3500004      -3.89824679E-15
  -11.3400002      -4.52859558E-15
  -11.3299999      -5.18126157E-15
  -11.3199997      -5.85639003E-15
  -11.3100004      -6.55410716E-15
  -11.3000002      -7.27451885E-15
  -11.2900000      -8.01771149E-15
  -11.2799997      -8.78374776E-15
  -11.2700005      -9.57267001E-15
  -11.2600002      -1.03844969E-14
  -11.2500000      -1.12192224E-14
  -11.2399998      -1.20768187E-14
  -11.2299995      -1.29572324E-14
  -11.2200003      -1.38603821E-14
  -11.2100000      -1.47861612E-14
  -11.1999998      -1.57344400E-14
  -11.1899996      -1.67050601E-14
  -11.1800003      -1.76978336E-14
  -11.1700001      -1.87125435E-14
  -11.1599998      -1.97489476E-14
  -11.1499996      -2.08067680E-14
  -11.1400003      -2.18857067E-14
  -11.1300001      -2.29854232E-14
  -11.1199999      -2.41055531E-14
  -11.1099997      -2.52456967E-14
  -11.1000004      -2.64054237E-14
  -11.0900002      -2.75842734E-14
  -11.0799999      -2.87817425E-14
  -11.0699997      -2.99973059E-14
  -11.0600004      -3.12303928E-14
  -11.0500002      -3.24804101E-14
  -11.0400000      -3.37467244E-14
  -11.0299997      -3.50286613E-14
  -11.0200005      -3.63255196E-14
  -11.0100002      -3.76365605E-14
  -11.0000000      -3.89610050E-14
  -10.9899998      -4.02980499E-14
  -10.9799995      -4.16468380E-14
  -10.9700003      -4.30064885E-14
  -10.9600000      -4.43760832E-14
  -10.9499998      -4.57546598E-14
  -10.9399996      -4.71412257E-14
  -10.9300003      -4.85347575E-14
  -10.9200001      -4.99341779E-14
  -10.9099998      -5.13383925E-14
  -10.8999996      -5.27462561E-14
  -10.8900003      -5.41565931E-14
  -10.8800001      -5.55681904E-14
  -10.8699999      -5.69797979E-14
  -10.8599997      -5.83901349E-14
  -10.8500004      -5.97978833E-14
  -10.8400002      -6.12016812E-14
  -10.8299999      -6.26001394E-14
  -10.8199997      -6.39918416E-14
  -10.8100004      -6.53753242E-14
  -10.8000002      -6.67490829E-14
  -10.7900000      -6.81116066E-14
  -10.7799997      -6.94613231E-14
  -10.7700005      -7.07966400E-14
  -10.7600002      -7.21159447E-14
  -10.7500000      -7.34175633E-14
  -10.7399998      -7.46998221E-14
  -10.7299995      -7.59609931E-14
  -10.7200003      -7.71993282E-14
  -10.7100000      -7.84130383E-14
  -10.6999998      -7.96003142E-14
  -10.6899996      -8.07593264E-14
  -10.6800003      -8.18882044E-14
  -10.6700001      -8.29850579E-14
  -10.6599998      -8.40479691E-14
  -10.6499996      -8.50749999E-14
  -10.6400003      -8.60641717E-14
  -10.6300001      -8.70135059E-14
  -10.6199999      -8.79209899E-14
  -10.6099997      -8.87845908E-14
  -10.6000004      -8.96022758E-14
  -10.5900002      -9.03719712E-14
  -10.5799999      -9.10915969E-14
  -10.5699997      -9.17590656E-14
  -10.5600004      -9.23722565E-14
  -10.5500002      -9.29290485E-14
  -10.5400000      -9.34273140E-14
  -10.5299997      -9.38649047E-14
  -10.5200005      -9.42396660E-14
  -10.5100002      -9.45494361E-14
  -10.5000000      -9.47920534E-14
  -10.4899998      -9.49653361E-14
  -10.4799995      -9.50671155E-14
  -10.4700003      -9.50952031E-14
  -10.4600000      -9.50474440E-14
  -10.4499998      -9.49216495E-14
  -10.4399996      -9.47156511E-14
  -10.4300003      -9.44272804E-14
  -10.4200001      -9.40543758E-14
  -10.4099998      -9.35947893E-14
  -10.3999996      -9.30463727E-14
  -10.3900003      -9.24069984E-14
  -10.3800001      -9.16745656E-14
  -10.3699999      -9.08469670E-14
  -10.3599997      -8.99221154E-14
  -10.3500004      -8.88979510E-14
  -10.3400002      -8.77724339E-14
  -10.3299999      -8.65435450E-14
  -10.3199997      -8.52092919E-14
  -10.3100004      -8.37677231E-14
  -10.3000002      -8.22168803E-14
  -10.2900000      -8.05548662E-14
  -10.2799997      -7.87798104E-14
  -10.2700005      -7.68898766E-14
  -10.2600002      -7.48832555E-14
  -10.2500000      -7.27581989E-14
  -10.2399998      -7.05129789E-14
  -10.2299995      -6.81459284E-14
  -10.2200003      -6.56554143E-14
  -10.2100000      -6.30398443E-14
  -10.1999998      -6.02977005E-14
  -10.1899996      -5.74275057E-14
  -10.1800003      -5.44278300E-14
  -10.1700001      -5.12973114E-14
  -10.1599998      -4.80346421E-14
  -10.1499996      -4.46385753E-14
  -10.1400003      -4.11079286E-14
  -10.1300001      -3.74415837E-14
  -10.1199999      -3.36384939E-14
  -10.1099997      -2.96976799E-14
  -10.1000004      -2.56182371E-14
  -10.0900002      -2.13993353E-14
  -10.0799999      -1.70402192E-14
  -10.0699997      -1.25402127E-14
  -10.0600004      -7.89872369E-15
  -10.0500002      -3.11524107E-15
  -10.0400000       1.81066083E-15
  -10.0299997       6.87932038E-15
  -10.0200005       1.20909845E-14
  -10.0100002       1.74458108E-14
  -10.0000000       2.29438610E-14
  -9.98999977       2.85850987E-14
  -9.97999954       3.43693918E-14
  -9.97000027       4.02965015E-14
  -9.96000004       4.63660956E-14
  -9.94999981       5.25777169E-14
  -9.93999958       5.89308198E-14
  -9.93000031       6.54247503E-14
  -9.92000008       7.20587191E-14
  -9.90999985       7.88318317E-14
  -9.89999962       8.57430920E-14
  -9.89000034       9.27913481E-14
  -9.88000011       9.99753665E-14
  -9.86999989       1.07293758E-13
  -9.85999966       1.14745033E-13
  -9.85000038       1.22327550E-13
  -9.84000015       1.30039547E-13
  -9.82999992       1.37879142E-13
  -9.81999969       1.45844315E-13
  -9.81000042       1.53932897E-13
  -9.80000019       1.62142570E-13
  -9.78999996       1.70470910E-13
  -9.77999973       1.78915314E-13
  -9.77000046       1.87473084E-13
  -9.76000023       1.96141348E-13
  -9.75000000       2.04917070E-13
  -9.73999977       2.13797093E-13
  -9.72999954       2.22778068E-13
  -9.72000027       2.31856553E-13
  -9.71000004       2.41028904E-13
  -9.69999981       2.50291378E-13
  -9.68999958       2.59639966E-13
  -9.68000031       2.69070573E-13
  -9.67000008       2.78578945E-13
  -9.65999985       2.88160663E-13
  -9.64999962       2.97811119E-13
  -9.64000034       3.07525544E-13
  -9.63000011       3.17299030E-13
  -9.61999989       3.27126455E-13
  -9.60999966       3.37002561E-13
  -9.60000038       3.46921900E-13
  -9.59000015       3.56878860E-13
  -9.57999992       3.66867642E-13
  -9.56999969       3.76882282E-13
  -9.56000042       3.86916654E-13
  -9.55000019       3.96964417E-13
  -9.53999996       4.07019091E-13
  -9.52999973       4.17074009E-13
  -9.52000046       4.27122286E-13
  -9.51000023       4.37156848E-13
  -9.50000000       4.47170512E-13
  -9.48999977       4.57155906E-13
  -9.47999954       4.67105358E-13
  -9.47000027       4.77011063E-13
  -9.46000004       4.86865214E-13
  -9.44999981       4.96659571E-13
  -9.43999958       5.06385895E-13
  -9.43000031       5.16035565E-13
  -9.42000008       5.25599963E-13
  -9.40999985       5.35070252E-13
  -9.39999962       5.44437325E-13
  -9.39000034       5.53691966E-13
  -9.38000011       5.62824798E-13
  -9.36999989       5.71826169E-13
  -9.35999966       5.80686324E-13
  -9.35000038       5.89395340E-13
  -9.34000015       5.97943028E-13
  -9.32999992       6.06319086E-13
  -9.31999969       6.14513106E-13
  -9.31000042       6.22514410E-13
  -9.30000019       6.30312154E-13
  -9.28999996       6.37895390E-13
  -9.27999973       6.45252948E-13
  -9.27000046       6.52373500E-13
  -9.26000023       6.59245607E-13
  -9.25000000       6.65857560E-13
  -9.23999977       6.72197541E-13
  -9.22999954       6.78253731E-13
  -9.22000027       6.84013881E-13
  -9.21000004       6.89465846E-13
  -9.19999981       6.94597266E-13
  -9.18999958       6.99395403E-13
  -9.18000031       7.03847787E-13
  -9.17000008       7.07941626E-13
  -9.15999985       7.11663909E-13
  -9.14999962       7.15001571E-13
  -9.14000034       7.17941494E-13
  -9.13000011       7.20470450E-13
  -9.11999989       7.22574995E-13
  -9.10999966       7.24241684E-13
  -9.10000038       7.25457021E-13
  -9.09000015       7.26207235E-13
  -9.07999992       7.26478610E-13
  -9.06999969       7.26257379E-13
  -9.06000042       7.25529717E-13
  -9.05000019       7.24281583E-13
  -9.03999996       7.22499100E-13
  -9.02999973       7.20168174E-13
  -9.02000046       7.17274710E-13
  -9.01000023       7.13804721E-13
  -9.00000000       7.09744004E-13
  -8.98999977       7.05078519E-13
  -8.97999954       6.99794064E-13
  -8.97000027       6.93876488E-13
  -8.96000004       6.87311861E-13
  -8.94999981       6.80086033E-13
  -8.93999958       6.72184964E-13
  -8.93000031       6.63594776E-13
  -8.92000008       6.54301483E-13
  -8.90999985       6.44291261E-13
  -8.89999962       6.33550395E-13
  -8.89000034       6.22065279E-13
  -8.88000011       6.09822306E-13
  -8.86999989       5.96808139E-13
  -8.85999966       5.83009444E-13
  -8.85000038       5.68413155E-13
  -8.84000015       5.53006263E-13
  -8.82999992       5.36776027E-13
  -8.81999969       5.19709872E-13
  -8.81000042       5.01795383E-13
  -8.80000019       4.83020470E-13
  -8.78999996       4.63373263E-13
  -8.77999973       4.42842025E-13
  -8.77000046       4.21415452E-13
  -8.76000023       3.99082406E-13
  -8.75000000       3.75832069E-13
  -8.73999977       3.51653982E-13
  -8.72999954       3.26538059E-13
  -8.72000027       3.00474516E-13
  -8.71000004       2.73453948E-13
  -8.69999981       2.45467383E-13
  -8.68999958       2.16506283E-13
  -8.68000031       1.86562422E-13
  -8.67000008       1.55628115E-13
  -8.65999985       1.23696152E-13
  -8.64999962       9.07598039E-14
  -8.64000034       5.68128545E-14
  -8.63000011       2.18496011E-14
  -8.61999989      -1.41350986E-14
  -8.60999966      -5.11458145E-14
  -8.60000038      -8.91865317E-14
  -8.59000015      -1.28260602E-13
  -8.57999992      -1.68370729E-13
  -8.56999969      -2.09519007E-13
  -8.56000042      -2.51706804E-13
  -8.55000019      -2.94934785E-13
  -8.53999996      -3.39202977E-13
  -8.52999973      -3.84510539E-13
  -8.52000046      -4.30855899E-13
  -8.51000023      -4.78236754E-13
  -8.50000000      -5.26649850E-13
  -8.48999977      -5.76091312E-13
  -8.47999954      -6.26556207E-13
  -8.47000027      -6.78038788E-13
  -8.46000004      -7.30532334E-13
  -8.44999981      -7.84029417E-13
  -8.43999958      -8.38521310E-13
  -8.43000031      -8.93998525E-13
  -8.42000008      -9.50450656E-13
  -8.40999985      -1.00786621E-12
  -8.39999962      -1.06623239E-12
  -8.39000034      -1.12553565E-12
  -8.38000011      -1.18576123E-12
  -8.36999989      -1.24689321E-12
  -8.35999966      -1.30891457E-12
  -8.35000038      -1.37180718E-12
  -8.34000015      -1.43555176E-12
  -8.32999992      -1.50012760E-12
  -8.31999969      -1.56551313E-12
  -8.31000042      -1.63168513E-12
  -8.30000019      -1.69861944E-12
  -8.28999996      -1.76629046E-12
  -8.27999973      -1.83467109E-12
  -8.27000046      -1.90373346E-12
  -8.26000023      -1.97344766E-12
  -8.25000000      -2.04378311E-12
  -8.23999977      -2.11470728E-12
  -8.22999954      -2.18618656E-12
  -8.22000027      -2.25818561E-12
  -8.21000004      -2.33066799E-12
  -8.19999981      -2.40359555E-12
  -8.18999958      -2.47692925E-12
  -8.18000031      -2.55062724E-12
  -8.17000008      -2.62464768E-12
  -8.15999985      -2.69894632E-12
  -8.14999962      -2.77347784E-12
  -8.14000034      -2.84819477E-12
  -8.13000011      -2.92304852E-12
  -8.11999989      -2.99798944E-12
  -8.10999966      -3.07296506E-12
  -8.10000038      -3.14792246E-12
  -8.09000015      -3.22280679E-12
  -8.07999992      -3.29756101E-12
  -8.06999969      -3.37212745E-12
  -8.06000042      -3.44644625E-12
  -8.05000019      -3.52045606E-12
  -8.03999996      -3.59409356E-12
  -8.02999973      -3.66729477E-12
  -8.02000046      -3.73999312E-12
  -8.01000023      -3.81212032E-12
  -8.00000000      -3.88360785E-12
  -7.98999977      -3.95438413E-12
  -7.98000002      -4.02437719E-12
  -7.96999979      -4.09351199E-12
  -7.96000004      -4.16171351E-12
  -7.94999981      -4.22890412E-12
  -7.94000006      -4.29500489E-12
  -7.92999983      -4.35993472E-12
  -7.92000008      -4.42361165E-12
  -7.90999985      -4.48595284E-12
  -7.90000010      -4.54687243E-12
  -7.88999987      -4.60628454E-12
  -7.88000011      -4.66410070E-12
  -7.86999989      -4.72023158E-12
  -7.86000013      -4.77458654E-12
  -7.84999990      -4.82707320E-12
  -7.84000015      -4.87759746E-12
  -7.82999992      -4.92606476E-12
  -7.82000017      -4.97237841E-12
  -7.80999994      -5.01644082E-12
  -7.80000019      -5.05815268E-12
  -7.78999996      -5.09741468E-12
  -7.78000021      -5.13412576E-12
  -7.76999998      -5.16818316E-12
  -7.76000023      -5.19948364E-12
  -7.75000000      -5.22792226E-12
  -7.73999977      -5.25339364E-12
  -7.73000002      -5.27579196E-12
  -7.71999979      -5.29500966E-12
  -7.71000004      -5.31093832E-12
  -7.69999981      -5.32346910E-12
  -7.69000006      -5.33249269E-12
  -7.67999983      -5.33789853E-12
  -7.67000008      -5.33957514E-12
  -7.65999985      -5.33741150E-12
  -7.65000010      -5.33129573E-12
  -7.63999987      -5.32111551E-12
  -7.63000011      -5.30675764E-12
  -7.61999989      -5.28810979E-12
  -7.61000013      -5.26505879E-12
  -7.59999990      -5.23749013E-12
  -7.59000015      -5.20529193E-12
  -7.57999992      -5.16835056E-12
  -7.57000017      -5.12655283E-12
  -7.55999994      -5.07978512E-12
  -7.55000019      -5.02793553E-12
  -7.53999996      -4.97089132E-12
  -7.53000021      -4.90854102E-12
  -7.51999998      -4.84077362E-12
  -7.51000023      -4.76747851E-12
  -7.50000000      -4.68854513E-12
  -7.48999977      -4.60386590E-12
  -7.48000002      -4.51333198E-12
  -7.46999979      -4.41683712E-12
  -7.46000004      -4.31427507E-12
  -7.44999981      -4.20554173E-12
  -7.44000006      -4.09053433E-12