  -16.0000000       0.00000000    
  -15.9899998       0.00000000    
  -15.9799995       0.00000000    
  -15.9700003       0.00000000    
  -15.9600000       0.00000000    
  -15.9499998       0.00000000    
  -15.9399996       0.00000000    
  -15.9300003       0.00000000    
  -15.9200001       0.00000000    
  -15.9099998       0.00000000    
  -15.8999996      -9.74743212E-42
  -15.8900003      -1.60047903E-40
  -15.8800001      -1.30498162E-39
  -15.8699999      -6.97413494E-39
  -15.8599997      -2.70234523E-38
  -15.8500004      -7.84399460E-38
  -15.8400002      -1.64744427E-37
  -15.8299999      -1.92477918E-37
  -15.8199997       2.32179909E-37
  -15.8100004       2.15166568E-36
  -15.8000002       7.64853795E-36
  -15.7900000       1.99558720E-35
  -15.7799997       4.27625703E-35
  -15.7700005       7.82837625E-35
  -15.7600002       1.24366682E-34
  -15.7500000       1.72260512E-34
  -15.7399998       2.08091887E-34
  -15.7299995       2.21126352E-34
  -15.7200003       2.18785190E-34
  -15.7100000       2.41343913E-34
  -15.6999998       3.60318613E-34
  -15.6899996       6.39729510E-34
  -15.6800003       1.04725517E-33
  -15.6700001       1.32904633E-33
  -15.6599998       9.04214867E-34
  -15.6499996      -1.12616923E-33
  -15.6400003      -5.75808965E-33
  -15.6300001      -1.36199990E-32
  -15.6199999      -2.43736285E-32
  -15.6099997      -3.62596925E-32
  -15.6000004      -4.61665179E-32
  -15.5900002      -5.05020174E-32
  -15.5799999      -4.67874435E-32
  -15.5699997      -3.53472297E-32
  -15.5600004      -2.00302827E-32
  -15.5500002      -6.99211223E-33
  -15.5400000      -1.54798096E-33
  -15.5299997      -4.91520216E-33
  -15.5200005      -1.45419892E-32
  -15.5100002      -3.21999582E-32
  -15.5000000      -8.14237959E-32
  -15.4899998      -2.29358014E-31
  -15.4799995      -5.98869186E-31
  -15.4700003      -1.34909540E-30
  -15.4600000      -2.60308560E-30
  -15.4499998      -4.31658716E-30
  -15.4399996      -6.11498706E-30
  -15.4300003      -7.16977150E-30
  -15.4200001      -6.22407144E-30
  -15.4099998      -1.88203134E-30
  -15.3999996       6.77830141E-30
  -15.3900003       1.93370935E-29
  -15.3800001       3.31618023E-29
  -15.3699999       4.29655380E-29
  -15.3599997       4.13106015E-29
  -15.3500004       2.04579004E-29
  -15.3400002      -2.44163575E-29
  -15.3299999      -9.12334681E-29
  -15.3199997      -1.67556423E-28
  -15.3100004      -2.29483797E-28
  -15.3000002      -2.44704494E-28
  -15.2900000      -1.80722405E-28
  -15.2799997      -1.76092575E-29
  -15.2700005       2.37566660E-28
  -15.2600002       5.39585818E-28
  -15.2500000       8.03205857E-28
  -15.2399998       9.15686474E-28
  -15.2299995       7.65480982E-28
  -15.2200003       2.83360147E-28
  -15.2100000      -5.14135762E-28
  -15.1999998      -1.49410361E-27
  -15.1899996      -2.40603404E-27
  -15.1800003      -2.92196968E-27
  -15.1700001      -2.71946855E-27
  -15.1599998      -1.59368478E-27
  -15.1499996       4.30580687E-28
  -15.1400003       3.02622451E-27
  -15.1300001       5.56933681E-27
  -15.1199999       7.24688226E-27
  -15.1099997       7.26250463E-27
  -15.1000004       5.10095604E-27
  -15.0900002       7.79271026E-28
  -15.0799999      -5.00399702E-27
  -15.0699997      -1.09009137E-26
  -15.0600004      -1.51676582E-26
  -15.0500002      -1.61151171E-26
  -15.0400000      -1.26591052E-26
  -15.0299997      -4.81347286E-27
  -15.0200005       6.05146525E-27
  -15.0100002       1.73283405E-26
  -15.0000000       2.57212951E-26
  -14.9899998       2.81432568E-26
  -14.9799995       2.27453035E-26
  -14.9700003       9.76671662E-27
  -14.9600000      -8.11698968E-27
  -14.9499998      -2.61749164E-26
  -14.9399996      -3.87624678E-26
  -14.9300003      -4.10055014E-26
  -14.9200001      -3.05759590E-26
  -14.9099998      -8.97644208E-27
  -14.8999996       1.82112392E-26
  -14.8900003       4.24262707E-26
  -14.8800001       5.44982276E-26
  -14.8699999       4.77516026E-26
  -14.8599997       2.09350819E-26
  -14.8500004      -2.00865125E-26
  -14.8400002      -6.27634869E-26
  -14.8299999      -9.07803442E-26
  -14.8199997      -8.90579712E-26
  -14.8100004      -4.96163064E-26
  -14.8000002       2.35258536E-26
  -14.7900000       1.12369550E-25
  -14.7799997       1.87335988E-25
  -14.7700005       2.14407587E-25
  -14.7600002       1.65870837E-25
  -14.7500000       3.20262459E-26
  -14.7399998      -1.69779236E-25
  -14.7299995      -3.92519659E-25
  -14.7200003      -5.65886166E-25
  -14.7100000      -6.12138609E-25
  -14.6999998      -4.68967356E-25
  -14.6899996      -1.14111281E-25
  -14.6800003       4.15387430E-25
  -14.6700001       1.01655436E-24
  -14.6599998       1.53173684E-24
  -14.6499996       1.77897955E-24
  -14.6400003       1.59748061E-24
  -14.6300001       8.98833046E-25
  -14.6199999      -2.88960070E-25
  -14.6099997      -1.79851708E-24
  -14.6000004      -3.33208890E-24
  -14.5900002      -4.50702623E-24
  -14.5799999      -4.93329629E-24
  -14.5699997      -4.30933965E-24
  -14.5600004      -2.51529542E-24
  -14.5500002       3.20341351E-25
  -14.5400000       3.80174079E-24
  -14.5299997       7.30691801E-24
  -14.5200005       1.00884668E-23
  -14.5100002       1.14185502E-23
  -14.5000000       1.07501783E-23
  -14.4899998       7.85956793E-24
  -14.4799995       2.93499506E-24
  -14.4700003      -3.41317592E-24
  -14.4600000      -1.02304129E-23
  -14.4499998      -1.63732088E-23
  -14.4399996      -2.07122941E-23
  -14.4300003      -2.23419892E-23
  -14.4200001      -2.07508347E-23
  -14.4099998      -1.59167439E-23
  -14.3999996      -8.30740978E-24
  -14.3900003       1.21019743E-24
  -14.3800001       1.15249904E-23
  -14.3699999       2.14597082E-23
  -14.3599997       2.99257508E-23
  -14.3500004       3.60187515E-23
  -14.3400002       3.90402308E-23
  -14.3299999       3.84582471E-23
  -14.3199997       3.38457490E-23
  -14.3100004       2.48498948E-23
  -14.3000002       1.12429127E-23
  -14.2900000      -6.91792912E-24
  -14.2799997      -2.90333598E-23
  -14.2700005      -5.36674822E-23
  -14.2600002      -7.83157883E-23
  -14.2500000      -9.93561980E-23
  -14.2399998      -1.12290955E-22
  -14.2299995      -1.12337037E-22
  -14.2200003      -9.53403217E-23
  -14.2100000      -5.88892113E-23
  -14.1999998      -3.41114381E-24
  -14.1899996       6.70229352E-23
  -14.1800003       1.44461838E-22
  -14.1700001       2.17610853E-22
  -14.1599998       2.73210198E-22
  -14.1499996       2.98141283E-22
  -14.1400003       2.81954690E-22
  -14.1300001       2.19360862E-22
  -14.1199999       1.12151635E-22
  -14.1099997      -2.99392214E-23
  -14.1000004      -1.89770702E-22
  -14.0900002      -3.44803503E-22
  -14.0799999      -4.70357696E-22
  -14.0699997      -5.43606397E-22
  -14.0600004      -5.47590385E-22
  -14.0500002      -4.74475323E-22
  -14.0400000      -3.27377351E-22
  -14.0299997      -1.20340416E-22
  -14.0200005       1.23588402E-22
  -14.0100002       3.75850317E-22
  -14.0000000       6.06768483E-22
  -13.9899998       7.89990453E-22
  -13.9799995       9.06122845E-22
  -13.9700003       9.44890272E-22
  -13.9600000       9.05486303E-22
  -13.9499998       7.95191937E-22
  -13.9399996       6.26714825E-22
  -13.9300003       4.14963454E-22
  -13.9200001       1.74051493E-22
  -13.9099998      -8.47905945E-23
  -13.8999996      -3.53999804E-22
  -13.8900003      -6.29131642E-22
  -13.8800001      -9.07307474E-22
  -13.8699999      -1.18524016E-21
  -13.8599997      -1.45749598E-21
  -13.8500004      -1.71552836E-21
  -13.8400002      -1.94773206E-21
  -13.8299999      -2.14038719E-21
  -13.8199997      -2.27898699E-21
  -13.8100004      -2.34920445E-21
  -13.8000002      -2.33668042E-21
  -13.7900000      -2.22500074E-21
  -13.7799997      -1.99161019E-21
  -13.7700005      -1.60190725E-21
  -13.7600002      -1.00232338E-21
  -13.7500000      -1.13591401E-22
  -13.7399998       1.17435211E-21
  -13.7299995       3.00447044E-21
  -13.7200003       5.55069291E-21
  -13.7100000       9.01151400E-21
  -13.6999998       1.35994406E-20
  -13.6899996       1.95273351E-20
  -13.6800003       2.69933365E-20
  -13.6700001       3.61664560E-20
  -13.6599998       4.71749957E-20
  -13.6499996       6.00996410E-20
  -13.6400003       7.49725617E-20
  -13.6300001       9.17829268E-20
  -13.6199999       1.10488453E-19
  -13.6099997       1.31031445E-19
  -13.6000004       1.53357631E-19
  -13.5900002       1.77434726E-19
  -13.5799999       2.03268766E-19
  -13.5699997       2.30915559E-19
  -13.5600004       2.60486077E-19
  -13.5500002       2.92145070E-19
  -13.5400000       3.26103420E-19
  -13.5299997       3.62605685E-19
  -13.5200005       4.01915091E-19
  -13.5100002       4.44297887E-19
  -13.5000000       4.90010059E-19
  -13.4899998       5.39287742E-19
  -13.4799995       5.92341659E-19
  -13.4700003       6.49356013E-19
  -13.4600000       7.10490295E-19
  -13.4499998       7.75882076E-19
  -13.4399996       8.45649126E-19
  -13.4300003       9.19889051E-19
  -13.4200001       9.98674696E-19
  -13.4099998       1.08204706E-18
  -13.3999996       1.17000500E-18
  -13.3900003       1.26249547E-18
  -13.3800001       1.35940371E-18
  -13.3699999       1.46054857E-18
  -13.3599997       1.56568229E-18
  -13.3500004       1.67449584E-18
  -13.3400002       1.78662865E-18
  -13.3299999       1.90168182E-18
  -13.3199997       2.01923266E-18
  -13.3100004       2.13884732E-18
  -13.3000002       2.26009194E-18
  -13.2900000       2.38253949E-18
  -13.2799997       2.50577327E-18
  -13.2700005       2.62938714E-18
  -13.2600002       2.75298343E-18
  -13.2500000       2.87617068E-18
  -13.2399998       2.99855867E-18
  -13.2299995       3.11975449E-18
  -13.2200003       3.23935777E-18
  -13.2100000       3.35695390E-18
  -13.1999998       3.47210675E-18
  -13.1899996       3.58434896E-18
  -13.1800003       3.69317242E-18
  -13.1700001       3.79801591E-18
  -13.1599998       3.89825862E-18
  -13.1499996       3.99321234E-18
  -13.1400003       4.08212061E-18
  -13.1300001       4.16416038E-18
  -13.1199999       4.23844864E-18
  -13.1099997       4.30405565E-18
  -13.1000004       4.36002021E-18
  -13.0900002       4.40536790E-18
  -13.0799999       4.43912886E-18
  -13.0699997       4.46036052E-18
  -13.0600004       4.46816621E-18
  -13.0500002       4.46171214E-18
  -13.0400000       4.44024556E-18
  -13.0299997       4.40310391E-18
  -13.0200005       4.34971891E-18
  -13.0100002       4.27961742E-18
  -13.0000000       4.19240736E-18
  -12.9899998       4.08776032E-18
  -12.9799995       3.96538640E-18
  -12.9700003       3.82500640E-18
  -12.9600000       3.66632214E-18
  -12.9499998       3.48899282E-18
  -12.9399996       3.29262221E-18
  -12.9300003       3.07675226E-18
  -12.9200001       2.84087199E-18
  -12.9099998       2.58443545E-18
  -12.8999996       2.30688493E-18
  -12.8900003       2.00767612E-18
  -12.8800001       1.68629888E-18
  -12.8699999       1.34228852E-18
  -12.8599997       9.75226607E-19
  -12.8500004       5.84729994E-19
  -12.8400002       1.70432978E-19
  -12.8299999      -2.68035134E-19
  -12.8199997      -7.31067912E-19
  -12.8100004      -1.21909103E-18
  -12.8000002      -1.73255761E-18
  -12.7900000      -2.27192765E-18
  -12.7799997      -2.83763254E-18
  -12.7700005      -3.43002931E-18
  -12.7600002      -4.04934771E-18
  -12.7500000      -4.69563674E-18
  -12.7399998      -5.36872188E-18
  -12.7299995      -6.06817174E-18
  -12.7200003      -6.79327786E-18
  -12.7100000      -7.54305422E-18
  -12.6999998      -8.31625468E-18
  -12.6899996      -9.11140106E-18
  -12.6800003      -9.92683158E-18
  -12.6700001      -1.07607562E-17
  -12.6599998      -1.16113253E-17
  -12.6499996      -1.24767085E-17
  -12.6400003      -1.33551751E-17
  -12.6300001      -1.42451735E-17
  -12.6199999      -1.51454090E-17
  -12.6099997      -1.60549139E-17
  -12.6000004      -1.69730844E-17
  -12.5900002      -1.78997219E-17
  -12.5799999      -1.88350366E-17
  -12.5699997      -1.97796173E-17
  -12.5600004      -2.07343938E-17
  -12.5500002      -2.17005722E-17
  -12.5400000      -2.26795421E-17
  -12.5299997      -2.36727875E-17
  -12.5200005      -2.46817791E-17
  -12.5100002      -2.57078702E-17
  -12.5000000      -2.67522039E-17
  -12.4899998      -2.78156190E-17
  -12.4799995      -2.88985936E-17
  -12.4700003      -3.00012188E-17
  -12.4600000      -3.11231834E-17
  -12.4499998      -3.22638258E-17
  -12.4399996      -3.34222161E-17
  -12.4300003      -3.45972626E-17
  -12.4200001      -3.57878600E-17
  -12.4099998      -3.69930158E-17
  -12.3999996      -3.82119988E-17
  -12.3900003      -3.94444748E-17
  -12.3800001      -4.06905661E-17
  -12.3699999      -4.19509247E-17
  -12.3599997      -4.32267383E-17
  -12.3500004      -4.45197142E-17
  -12.3400002      -4.58320296E-17
  -12.3299999      -4.71662984E-17
  -12.3199997      -4.85254952E-17
  -12.3100004      -4.99129120E-17
  -12.3000002      -5.13321190E-17
  -12.2900000      -5.27869113E-17
  -12.2799997      -5.42812826E-17
  -12.2700005      -5.58193786E-17
  -12.2600002      -5.74054544E-17
  -12.2500000      -5.90438477E-17
  -12.2399998      -6.07389327E-17
  -12.2299995      -6.24951099E-17
  -12.2200003      -6.43168263E-17
  -12.2100000      -6.62086016E-17
  -12.1999998      -6.81750813E-17
  -12.1899996      -7.02211621E-17
  -12.1800003      -7.23521184E-17
  -12.1700001      -7.45737270E-17
  -12.1599998      -7.68924400E-17
  -12.1499996      -7.93155101E-17
  -12.1400003      -8.18511032E-17
  -12.1300001      -8.45083647E-17
  -12.1199999      -8.72974787E-17
  -12.1099997      -9.02296288E-17
  -12.1000004      -9.33169581E-17
  -12.0900002      -9.65724895E-17
  -12.0799999      -1.00009987E-16
  -12.0699997      -1.03643832E-16
  -12.0600004      -1.07488865E-16
  -12.0500002      -1.11560261E-16
  -12.0400000      -1.15873366E-16
  -12.0299997      -1.20443585E-16
  -12.0200005      -1.25286231E-16
  -12.0100002      -1.30416485E-16
  -12.0000000      -1.35849209E-16
  -11.9899998      -1.41598921E-16
  -11.9799995      -1.47679731E-16
  -11.9700003      -1.54105270E-16
  -11.9600000      -1.60888694E-16
  -11.9499998      -1.68042721E-16
  -11.9399996      -1.75579607E-16
  -11.9300003      -1.83511263E-16
  -11.9200001      -1.91849416E-16
  -11.9099998      -2.00605658E-16
  -11.8999996      -2.09791651E-16
  -11.8900003      -2.19419226E-16
  -11.8800001      -2.29500533E-16
  -11.8699999      -2.40048158E-16
  -11.8599997      -2.51075124E-16
  -11.8500004      -2.62594984E-16
  -11.8400002      -2.74621634E-16
  -11.8299999      -2.87169315E-16
  -11.8199997      -3.00252427E-16
  -11.8100004      -3.13885264E-16
  -11.8000002      -3.28081801E-16
  -11.7900000      -3.42855432E-16
  -11.7799997      -3.58218704E-16
  -11.7700005      -3.74183104E-16
  -11.7600002      -3.90758718E-16
  -11.7500000      -4.07954281E-16
  -11.7399998      -4.25776913E-16
  -11.7299995      -4.44231988E-16
  -11.7200003      -4.63323369E-16
  -11.7100000      -4.83053202E-16
  -11.6999998      -5.03422227E-16
  -11.6899996      -5.24429438E-16
  -11.6800003      -5.46072453E-16
  -11.6700001      -5.68347514E-16
  -11.6599998      -5.91249697E-16
  -11.6499996      -6.14772543E-16
  -11.6400003      -6.38908429E-16
  -11.6300001      -6.63648514E-16
  -11.6199999      -6.88982687E-16
  -11.6099997      -7.14899354E-16
  -11.6000004      -7.41385810E-16
  -11.5900002      -7.68427760E-16
  -11.5799999      -7.96009271E-16
  -11.5699997      -8.24112765E-16
  -11.5600004      -8.52718656E-16
  -11.5500002      -8.81805291E-16
  -11.5400000      -9.11348794E-16
  -11.5299997      -9.41322749E-16
  -11.5200005      -9.71698198E-16
  -11.5100002      -1.00244327E-15
  -11.5000000      -1.03352345E-15
  -11.4899998      -1.06490094E-15
  -11.4799995      -1.09653497E-15
  -11.4700003      -1.12838193E-15
  -11.4600000      -1.16039490E-15
  -11.4499998      -1.19252424E-15
  -11.4399996      -1.22471732E-15
  -11.4300003      -1.25691844E-15
  -11.4200001      -1.28906927E-15
  -11.4099998      -1.32110892E-15
  -11.3999996      -1.35297367E-15
  -11.3900003      -1.38459711E-15
  -11.3800001      -1.41591023E-15
  -11.3699999      -1.44684133E-15
  -11.3599997      -1.47731599E-15
  -11.3500004      -1.50725670E-15
  -11.3400002      -1.53658267E-15
  -11.3299999      -1.56521016E-15
  -11.3199997      -1.59305182E-15
  -11.3100004      -1.62001658E-15
  -11.3000002      -1.64600969E-15
  -11.2900000      -1.67093258E-15
  -11.2799997      -1.69468253E-15
  -11.2700005      -1.71715315E-15
  -11.2600002      -1.73823379E-15
  -11.2500000      -1.75780999E-15
  -11.2399998      -1.77576360E-15
  -11.2299995      -1.79197295E-15
  -11.2200003      -1.80631258E-15
  -11.2100000      -1.81865428E-15
  -11.1999998      -1.82886611E-15
  -11.1899996      -1.83681360E-15
  -11.1800003      -1.84235913E-15
  -11.1700001      -1.84536250E-15
  -11.1599998      -1.84568035E-15
  -11.1499996      -1.84316677E-15
  -11.1400003      -1.83767334E-15
  -11.1300001      -1.82904822E-15
  -11.1199999      -1.81713661E-15
  -11.1099997      -1.80178053E-15
  -11.1000004      -1.78281885E-15
  -11.0900002      -1.76008671E-15
  -11.0799999      -1.73341629E-15
  -11.0699997      -1.70263607E-15
  -11.0600004      -1.66757113E-15
  -11.0500002      -1.62804285E-15
  -11.0400000      -1.58386966E-15
  -11.0299997      -1.53486648E-15
  -11.0200005      -1.48084568E-15
  -11.0100002      -1.42161658E-15
  -11.0000000      -1.35698638E-15
  -10.9899998      -1.28675994E-15
  -10.9799995      -1.21074053E-15
  -10.9700003      -1.12873017E-15
  -10.9600000      -1.04052968E-15
  -10.9499998      -9.45938973E-16
  -10.9399996      -8.44757817E-16
  -10.9300003      -7.36785786E-16
  -10.9200001      -6.21822345E-16
  -10.9099998      -4.99667436E-16
  -10.8999996      -3.70121317E-16
  -10.8900003      -2.32984830E-16
  -10.8800001      -8.80593253E-17
  -10.8699999       6.48529850E-17
  -10.8599997       2.25949083E-16
  -10.8500004       3.95424997E-16
  -10.8400002       5.73475610E-16
  -10.8299999       7.60294497E-16
  -10.8199997       9.56073404E-16
  -10.8100004       1.16100244E-15
  -10.8000002       1.37526906E-15
  -10.7900000       1.59905855E-15
  -10.7799997       1.83255218E-15
  -10.7700005       2.07592783E-15
  -10.7600002       2.32935945E-15
  -10.7500000       2.59301540E-15
  -10.7399998       2.86705851E-15
  -10.7299995       3.15164654E-15
  -10.7200003       3.44692879E-15
  -10.7100000       3.75304883E-15
  -10.6999998       4.07014154E-15
  -10.6899996       4.39833420E-15
  -10.6800003       4.73774496E-15
  -10.6700001       5.08848309E-15
  -10.6599998       5.45064812E-15
  -10.6499996       5.82433026E-15
  -10.6400003       6.20960828E-15
  -10.6300001       6.60654994E-15
  -10.6199999       7.01521242E-15
  -10.6099997       7.43564146E-15
  -10.6000004       7.86786797E-15
  -10.5900002       8.31191229E-15
  -10.5799999       8.76777864E-15
  -10.5699997       9.23545857E-15
  -10.5600004       9.71492665E-15
  -10.5500002       1.02061414E-14
  -10.5400000       1.07090469E-14
  -10.5299997       1.12235686E-14
  -10.5200005       1.17496141E-14
  -10.5100002       1.22870735E-14
  -10.5000000       1.28358162E-14
  -10.4899998       1.33956931E-14
  -10.4799995       1.39665357E-14
  -10.4700003       1.45481534E-14
  -10.4600000       1.51403345E-14
  -10.4499998       1.57428442E-14
  -10.4399996       1.63554286E-14
  -10.4300003       1.69778064E-14
  -10.4200001       1.76096761E-14
  -10.4099998       1.82507089E-14
  -10.3999996       1.89005560E-14
  -10.3900003       1.95588378E-14
  -10.3800001       2.02251478E-14
  -10.3699999       2.08990557E-14
  -10.3599997       2.15801040E-14
  -10.3500004       2.22678050E-14
  -10.3400002       2.29616436E-14
  -10.3299999       2.36610709E-14
  -10.3199997       2.43655160E-14
  -10.3100004       2.50743691E-14
  -10.3000002       2.57869965E-14
  -10.2900000       2.65027258E-14
  -10.2799997       2.72208539E-14
  -10.2700005       2.79406506E-14
  -10.2600002       2.86613452E-14
  -10.2500000       2.93821398E-14
  -10.2399998       3.01022025E-14
  -10.2299995       3.08206558E-14
  -10.2200003       3.15366087E-14
  -10.2100000       3.22491159E-14
  -10.1999998       3.29572049E-14
  -10.1899996       3.36598696E-14
  -10.1800003       3.43560697E-14
  -10.1700001       3.50447278E-14
  -10.1599998       3.57247292E-14
  -10.1499996       3.63949254E-14
  -10.1400003       3.70541339E-14
  -10.1300001       3.77011349E-14
  -10.1199999       3.83346715E-14
  -10.1099997       3.89534562E-14
  -10.1000004       3.95561574E-14
  -10.0900002       4.01414199E-14
  -10.0799999       4.07078376E-14
  -10.0699997       4.12539875E-14
  -10.0600004       4.17783958E-14
  -10.0500002       4.22795581E-14
  -10.0400000       4.27559362E-14
  -10.0299997       4.32059614E-14
  -10.0200005       4.36280244E-14
  -10.0100002       4.40204852E-14
  -10.0000000       4.43816770E-14
  -9.98999977       4.47098921E-14
  -9.97999954       4.50033992E-14
  -9.97000027       4.52604364E-14
  -9.96000004       4.54792047E-14
  -9.94999981       4.56578846E-14
  -9.93999958       4.57946195E-14
  -9.93000031       4.58875390E-14
  -9.92000008       4.59347323E-14
  -9.90999985       4.59342715E-14
  -9.89999962       4.58842084E-14
  -9.89000034       4.57825611E-14
  -9.88000011       4.56273338E-14
  -9.86999989       4.54165141E-14
  -9.85999966       4.51480589E-14
  -9.85000038       4.48199183E-14
  -9.84000015       4.44300257E-14
  -9.82999992       4.39763006E-14
  -9.81999969       4.34566493E-14
  -9.81000042       4.28689677E-14
  -9.80000019       4.22111483E-14
  -9.78999996       4.14810703E-14
  -9.77999973       4.06766228E-14
  -9.77000046       3.97956780E-14
  -9.76000023       3.88361184E-14
  -9.75000000       3.77958332E-14
  -9.73999977       3.66727014E-14
  -9.72999954       3.54646291E-14
  -9.72000027       3.41695225E-14
  -9.71000004       3.27852945E-14
  -9.69999981       3.13098885E-14
  -9.68999958       2.97412478E-14
  -9.68000031       2.80773499E-14
  -9.67000008       2.63161905E-14
  -9.65999985       2.44557894E-14
  -9.64999962       2.24941966E-14
  -9.64000034       2.04294962E-14
  -9.63000011       1.82598043E-14
  -9.61999989       1.59832762E-14
  -9.60999966       1.35981094E-14
  -9.60000038       1.11025453E-14
  -9.59000015       8.49487649E-15
  -9.57999992       5.77344518E-15
  -9.56999969       2.93665200E-15
  -9.56000042      -1.70436711E-17
  -9.55000019      -3.08911772E-15
  -9.53999996      -6.28097970E-15
  -9.52999973      -9.59396780E-15
  -9.52000046      -1.30293420E-14
  -9.51000023      -1.65882848E-14
  -9.50000000      -2.02718921E-14
  -9.48999977      -2.40811789E-14
  -9.47999954      -2.80170581E-14
  -9.47000027      -3.20803564E-14
  -9.46000004      -3.62718007E-14
  -9.44999981      -4.05920042E-14
  -9.43999958      -4.50414784E-14
  -9.43000031      -4.96206232E-14
  -9.42000008      -5.43297266E-14
  -9.40999985      -5.91689444E-14
  -9.39999962      -6.41383173E-14
  -9.39000034      -6.92377538E-14
  -9.38000011      -7.44670303E-14
  -9.36999989      -7.98257876E-14
  -9.35999966      -8.53135176E-14
  -9.35000038      -9.09295764E-14
  -9.34000015      -9.66731578E-14
  -9.32999992      -1.02543306E-13
  -9.31999969      -1.08538904E-13
  -9.31000042      -1.14658676E-13
  -9.30000019      -1.20901146E-13
  -9.28999996      -1.27264735E-13
  -9.27999973      -1.33747614E-13
  -9.27000046      -1.40347816E-13
  -9.26000023      -1.47063161E-13
  -9.25000000      -1.53891290E-13
  -9.23999977      -1.60829656E-13
  -9.22999954      -1.67875520E-13
  -9.22000027      -1.75025914E-13
  -9.21000004      -1.82277696E-13
  -9.19999981      -1.89627502E-13
  -9.18999958      -1.97071743E-13
  -9.18000031      -2.04606595E-13
  -9.17000008      -2.12228076E-13
  -9.15999985      -2.19931942E-13
  -9.14999962      -2.27713708E-13
  -9.14000034      -2.35568726E-13
  -9.13000011      -2.43492021E-13
  -9.11999989      -2.51478471E-13
  -9.10999966      -2.59522628E-13
  -9.10000038      -2.67618881E-13
  -9.09000015      -2.75761320E-13
  -9.07999992      -2.83943848E-13
  -9.06999969      -2.92160068E-13
  -9.06000042      -3.00403338E-13
  -9.05000019      -3.08666748E-13
  -9.03999996      -3.16943249E-13
  -9.02999973      -3.25225388E-13
  -9.02000046      -3.33505494E-13
  -9.01000023      -3.41775761E-13
  -9.00000000      -3.50027949E-13
  -8.98999977      -3.58253656E-13
  -8.97999954      -3.66444207E-13
  -8.97000027      -3.74590658E-13
  -8.96000004      -3.82683875E-13
  -8.94999981      -3.90714316E-13
  -8.93999958      -3.98672279E-13
  -8.93000031      -4.06547815E-13
  -8.92000008      -4.14330733E-13
  -8.90999985      -4.22010544E-13
  -8.89999962      -4.29576486E-13
  -8.89000034      -4.37017582E-13
  -8.88000011      -4.44322611E-13
  -8.86999989      -4.51480108E-13
  -8.85999966      -4.58478307E-13
  -8.85000038      -4.65305312E-13
  -8.84000015      -4.71948869E-13
  -8.82999992      -4.78396565E-13
  -8.81999969      -4.84635769E-13
  -8.81000042      -4.90653579E-13
  -8.80000019      -4.96436930E-13
  -8.78999996      -5.01972433E-13
  -8.77999973      -5.07246588E-13
  -8.77000046      -5.12245736E-13
  -8.76000023      -5.16955890E-13
  -8.75000000      -5.21363009E-13
  -8.73999977      -5.25452728E-13
  -8.72999954      -5.29210627E-13
  -8.72000027      -5.32622015E-13
  -8.71000004      -5.35672038E-13
  -8.69999981      -5.38345952E-13
  -8.68999958      -5.40628577E-13
  -8.68000031      -5.42504626E-13
  -8.67000008      -5.43958812E-13
  -8.65999985      -5.44975686E-13
  -8.64999962      -5.45539688E-13
  -8.64000034      -5.45635152E-13
  -8.63000011      -5.45246357E-13
  -8.61999989      -5.44357419E-13
  -8.60999966      -5.42952619E-13
  -8.60000038      -5.41015908E-13
  -8.59000015      -5.38531405E-13
  -8.57999992      -5.35483170E-13
  -8.56999969      -5.31855213E-13
  -8.56000042      -5.27631595E-13
  -8.55000019      -5.22796324E-13
  -8.53999996      -5.17333572E-13
  -8.52999973      -5.11227399E-13
  -8.52000046      -5.04462086E-13
  -8.51000023      -4.97021966E-13
  -8.50000000      -4.88891317E-13
  -8.48999977      -4.80054798E-13
  -8.47999954      -4.70496960E-13
  -8.47000027      -4.60202568E-13
  -8.46000004      -4.49156689E-13
  -8.44999981      -4.37344415E-13
  -8.43999958      -4.24751136E-13
  -8.43000031      -4.11362378E-13
  -8.42000008      -3.97163991E-13
  -8.40999985      -3.82142072E-13
  -8.39999962      -3.66282905E-13
  -8.39000034      -3.49573208E-13
  -8.38000011      -3.31999917E-13
  -8.36999989      -3.13550401E-13
  -8.35999966      -2.94212327E-13
  -8.35000038      -2.73973742E-13
  -8.34000015      -2.52823153E-13
  -8.32999992      -2.30749393E-13
  -8.31999969      -2.07741796E-13
  -8.31000042      -1.83790212E-13
  -8.30000019      -1.58884922E-13
  -8.28999996      -1.33016753E-13
  -8.27999973      -1.06177030E-13
  -8.27000046      -7.83576559E-14
  -8.26000023      -4.95511157E-14
  -8.25000000      -1.97505061E-14
  -8.23999977       1.10504571E-14
  -8.22999954       4.28574040E-14
  -8.22000027       7.56752923E-14
  -8.21000004       1.09508404E-13
  -8.19999981       1.44360245E-13
  -8.18999958       1.80233649E-13
  -8.18000031       2.17130621E-13
  -8.17000008       2.55052408E-13
  -8.15999985       2.93999471E-13
  -8.14999962       3.33971349E-13
  -8.14000034       3.74966795E-13
  -8.13000011       4.16983613E-13
  -8.11999989       4.60018796E-13
  -8.10999966       5.04068358E-13
  -8.10000038       5.49127258E-13
  -8.09000015       5.95189642E-13
  -8.07999992       6.42248678E-13
  -8.06999969       6.90296399E-13
  -8.06000042       7.39323750E-13
  -8.05000019       7.89320811E-13
  -8.03999996       8.40276362E-13
  -8.02999973       8.92178258E-13
  -8.02000046       9.45013165E-13
  -8.01000023       9.98766499E-13
  -8.00000000       1.05342276E-12
  -7.98999977       1.10896492E-12
  -7.98000002       1.16537509E-12
  -7.96999979       1.22263397E-12
  -7.96000004       1.28072108E-12
  -7.94999981       1.33961462E-12
  -7.94000006       1.39929171E-12
  -7.92999983       1.45972795E-12
  -7.92000008       1.52089767E-12
  -7.90999985       1.58277395E-12
  -7.90000010       1.64532851E-12
  -7.88999987       1.70853186E-12
  -7.88000011       1.77235299E-12
  -7.86999989       1.83675948E-12
  -7.86000013       1.90171772E-12
  -7.84999990       1.96719225E-12
  -7.84000015       2.03314709E-12
  -7.82999992       2.09954406E-12
  -7.82000017       2.16634371E-12
  -7.80999994       2.23350505E-12
  -7.80000019       2.30098666E-12
  -7.78999996       2.36874409E-12
  -7.78000021       2.43673267E-12
  -7.76999998       2.50490579E-12
  -7.76000023       2.57321573E-12
  -7.75000000       2.64161262E-12
  -7.73999977       2.71004573E-12
  -7.73000002       2.77846279E-12
  -7.71999979       2.84681003E-12
  -7.71000004       2.91503236E-12
  -7.69999981       2.98307342E-12
  -7.69000006       3.05087487E-12
  -7.67999983       3.11837708E-12
  -7.67000008       3.18551956E-12
  -7.65999985       3.25224006E-12
  -7.65000010       3.31847462E-12
  -7.63999987       3.38415840E-12
  -7.63000011       3.44922506E-12
  -7.61999989       3.51360672E-12
  -7.61000013       3.57723465E-12
  -7.59999990       3.64003836E-12
  -7.59000015       3.70194630E-12
  -7.57999992       3.76288540E-12
  -7.57000017       3.82278193E-12
  -7.55999994       3.88156000E-12
  -7.55000019       3.93914372E-12
  -7.53999996       3.99545501E-12
  -7.53000021       4.05041495E-12
  -7.51999998       4.10394331E-12
  -7.51000023       4.15595986E-12
  -7.50000000       4.20638220E-12
  -7.48999977       4.25512750E-12
  -7.48000002       4.30211118E-12
  -7.46999979       4.34724912E-12
  -7.46000004       4.39045545E-12
  -7.44999981       4.43164255E-12
  -7.44000006       4.47072414E-12