  -16.0000000       0.00000000    
  -15.9899998       0.00000000    
  -15.9799995       0.00000000    
  -15.9700003       0.00000000    
  -15.9600000       0.00000000    
  -15.9499998       0.00000000    
  -15.9399996       0.00000000    
  -15.9300003       0.00000000    
  -15.9200001       0.00000000    
  -15.9099998       0.00000000    
  -15.8999996       0.00000000    
  -15.8900003       0.00000000    
  -15.8800001       0.00000000    
  -15.8699999       0.00000000    
  -15.8599997       0.00000000    
  -15.8500004       0.00000000    
  -15.8400002       0.00000000    
  -15.8299999       0.00000000    
  -15.8199997       0.00000000    
  -15.8100004       0.00000000    
  -15.8000002       0.00000000    
  -15.7900000       0.00000000    
  -15.7799997       0.00000000    
  -15.7700005       0.00000000    
  -15.7600002       0.00000000    
  -15.7500000       0.00000000    
  -15.7399998       0.00000000    
  -15.7299995       0.00000000    
  -15.7200003       0.00000000    
  -15.7100000       0.00000000    
  -15.6999998       0.00000000    
  -15.6899996       0.00000000    
  -15.6800003       0.00000000    
  -15.6700001       0.00000000    
  -15.6599998       0.00000000    
  -15.6499996       0.00000000    
  -15.6400003       0.00000000    
  -15.6300001       0.00000000    
  -15.6199999       1.40129846E-45
  -15.6099997       2.80259693E-45
  -15.6000004       7.00649232E-45
  -15.5900002       1.40129846E-44
  -15.5799999       2.52233724E-44
  -15.5699997       4.90454463E-44
  -15.5600004       8.82818033E-44
  -15.5500002       1.52741533E-43
  -15.5400000       2.59240216E-43
  -15.5299997       4.30198629E-43
  -15.5200005       6.93642740E-43
  -15.5100002       1.08880891E-42
  -15.5000000       1.66614387E-42
  -15.4899998       2.49571256E-42
  -15.4799995       3.66299419E-42
  -15.4700003       5.27869132E-42
  -15.4600000       7.47312471E-42
  -15.4499998       1.03990359E-41
  -15.4399996       1.42441989E-41
  -15.4300003       1.92258149E-41
  -15.4200001       2.55989203E-41
  -15.4099998       3.36493800E-41
  -15.3999996       4.37177095E-41
  -15.3900003       5.61976736E-41
  -15.3800001       7.15376879E-41
  -15.3699999       9.02646406E-41
  -15.3599997       1.12988096E-40
  -15.3500004       1.40400297E-40
  -15.3400002       1.73283167E-40
  -15.3299999       2.12495702E-40
  -15.3199997       2.58955752E-40
  -15.3100004       3.13583972E-40
  -15.3000002       3.77236553E-40
  -15.2900000       4.50590324E-40
  -15.2799997       5.33971786E-40
  -15.2700005       6.27120299E-40
  -15.2600002       7.28879791E-40
  -15.2500000       8.36778371E-40
  -15.2399998       9.46484627E-40
  -15.2299995       1.05110557E-39
  -15.2200003       1.14028561E-39
  -15.2100000       1.19907008E-39
  -15.1999998       1.20647734E-39
  -15.1899996       1.13371492E-39
  -15.1800003       9.41937413E-40
  -15.1700001       5.79499973E-40
  -15.1599998      -2.14552808E-41
  -15.1499996      -9.49172317E-40
  -15.1400003      -2.31740995E-39
  -15.1300001      -4.27166779E-39
  -15.1199999      -6.99674209E-39
  -15.1099997      -1.07258832E-38
  -15.1000004      -1.57517606E-38
  -15.0900002      -2.24396691E-38
  -15.0799999      -3.12432721E-38
  -15.0699997      -4.27233285E-38
  -15.0600004      -5.75699316E-38
  -15.0500002      -7.66287678E-38
  -15.0400000      -1.00932098E-37
  -15.0299997      -1.31735037E-37
  -15.0200005      -1.70558303E-37
  -15.0100002      -2.19237876E-37
  -15.0000000      -2.79982976E-37
  -14.9899998      -3.55443593E-37
  -14.9799995      -4.48788680E-37
  -14.9700003      -5.63796855E-37
  -14.9600000      -7.04960702E-37
  -14.9499998      -8.77608431E-37
  -14.9399996      -1.08804185E-36
  -14.9300003      -1.34369662E-36
  -14.9200001      -1.65332484E-36
  -14.9099998      -2.02720616E-36
  -14.8999996      -2.47738555E-36
  -14.8900003      -3.01794794E-36
  -14.8800001      -3.66533007E-36
  -14.8699999      -4.43867320E-36
  -14.8599997      -5.36022662E-36
  -14.8500004      -6.45580005E-36
  -14.8400002      -7.75528524E-36
  -14.8299999      -9.29323061E-36
  -14.8199997      -1.11095007E-35
  -14.8100004      -1.32500153E-35
  -14.8000002      -1.57675850E-35
  -14.7900000      -1.87228412E-35
  -14.7799997      -2.21852863E-35
  -14.7700005      -2.62344625E-35
  -14.7600002      -3.09612728E-35
  -14.7500000      -3.64694453E-35
  -14.7399998      -4.28771724E-35
  -14.7299995      -5.03189355E-35
  -14.7200003      -5.89475405E-35
  -14.7100000      -6.89363955E-35
  -14.6999998      -8.04819828E-35
  -14.6899996      -9.38066934E-35
  -14.6800003      -1.09161916E-34
  -14.6700001      -1.26831432E-34
  -14.6599998      -1.47135227E-34
  -14.6499996      -1.70433663E-34
  -14.6400003      -1.97132125E-34
  -14.6300001      -2.27686047E-34
  -14.6199999      -2.62606632E-34
  -14.6099997      -3.02466934E-34
  -14.6000004      -3.47908698E-34
  -14.5900002      -3.99649896E-34
  -14.5799999      -4.58492755E-34
  -14.5699997      -5.25332742E-34
  -14.5600004      -6.01168566E-34
  -14.5500002      -6.87112769E-34
  -14.5400000      -7.84403707E-34
  -14.5299997      -8.94417948E-34
  -14.5200005      -1.01868487E-33
  -14.5100002      -1.15890170E-33
  -14.5000000      -1.31695003E-33
  -14.4899998      -1.49491400E-33
  -14.4799995      -1.69510032E-33
  -14.4700003      -1.92005982E-33
  -14.4600000      -2.17261001E-33
  -14.4499998      -2.45586135E-33
  -14.4399996      -2.77324372E-33
  -14.4300003      -3.12853744E-33
  -14.4200001      -3.52590302E-33
  -14.4099998      -3.96991956E-33
  -14.3999996      -4.46561892E-33
  -14.3900003      -5.01852885E-33
  -14.3800001      -5.63471491E-33
  -14.3699999      -6.32083002E-33
  -14.3599997      -7.08416226E-33
  -14.3500004      -7.93269285E-33
  -14.3400002      -8.87515573E-33
  -14.3299999      -9.92109665E-33
  -14.3199997      -1.10809466E-32
  -14.3100004      -1.23660918E-32
  -14.3000002      -1.37889558E-32
  -14.2900000      -1.53630779E-32
  -14.2799997      -1.71032106E-32
  -14.2700005      -1.90254128E-32
  -14.2600002      -2.11471537E-32
  -14.2500000      -2.34874248E-32
  -14.2399998      -2.60668576E-32
  -14.2299995      -2.89078541E-32
  -14.2200003      -3.20347102E-32
  -14.2100000      -3.54737746E-32
  -14.1999998      -3.92535944E-32
  -14.1899996      -4.34050819E-32
  -14.1800003      -4.79616771E-32
  -14.1700001      -5.29595587E-32
  -14.1599998      -5.84378150E-32
  -14.1499996      -6.44386607E-32
  -14.1400003      -7.10076758E-32
  -14.1300001      -7.81940135E-32
  -14.1199999      -8.60506651E-32
  -14.1099997      -9.46347302E-32
  -14.1000004      -1.04007670E-31
  -14.0900002      -1.14235646E-31
  -14.0799999      -1.25389806E-31
  -14.0699997      -1.37546604E-31
  -14.0600004      -1.50788184E-31
  -14.0500002      -1.65202707E-31
  -14.0400000      -1.80884777E-31
  -14.0299997      -1.97935851E-31
  -14.0200005      -2.16464628E-31
  -14.0100002      -2.36587516E-31
  -14.0000000      -2.58429165E-31
  -13.9899998      -2.82122899E-31
  -13.9799995      -3.07811283E-31
  -13.9700003      -3.35646637E-31
  -13.9600000      -3.65791649E-31
  -13.9499998      -3.98419986E-31
  -13.9399996      -4.33716884E-31
  -13.9300003      -4.71879826E-31
  -13.9200001      -5.13119318E-31
  -13.9099998      -5.57659410E-31
  -13.8999996      -6.05738775E-31
  -13.8900003      -6.57611130E-31
  -13.8800001      -7.13546277E-31
  -13.8699999      -7.73830987E-31
  -13.8599997      -8.38769762E-31
  -13.8500004      -9.08685627E-31
  -13.8400002      -9.83921591E-31
  -13.8299999      -1.06484112E-30
  -13.8199997      -1.15182930E-30
  -13.8100004      -1.24529417E-30
  -13.8000002      -1.34566747E-30
  -13.7900000      -1.45340576E-30
  -13.7799997      -1.56899203E-30
  -13.7700005      -1.69293643E-30
  -13.7600002      -1.82577783E-30
  -13.7500000      -1.96808486E-30
  -13.7399998      -2.12045752E-30
  -13.7299995      -2.28352812E-30
  -13.7200003      -2.45796283E-30
  -13.7100000      -2.64446337E-30
  -13.6999998      -2.84376797E-30
  -13.6899996      -3.05665338E-30
  -13.6800003      -3.28393587E-30
  -13.6700001      -3.52647252E-30
  -13.6599998      -3.78516403E-30
  -13.6499996      -4.06095494E-30
  -13.6400003      -4.35483493E-30
  -13.6300001      -4.66784255E-30
  -13.6199999      -5.00106492E-30
  -13.6099997      -5.35563840E-30
  -13.6000004      -5.73275354E-30
  -13.5900002      -6.13365354E-30
  -13.5799999      -6.55963765E-30
  -13.5699997      -7.01206116E-30
  -13.5600004      -7.49233768E-30
  -13.5500002      -8.00194251E-30
  -13.5400000      -8.54240961E-30
  -13.5299997      -9.11533916E-30
  -13.5200005      -9.72239228E-30
  -13.5100002      -1.03652963E-29
  -13.5000000      -1.10458469E-29
  -13.4899998      -1.17659055E-29
  -13.4799995      -1.25274024E-29
  -13.4700003      -1.33323388E-29
  -13.4600000      -1.41827843E-29
  -13.4499998      -1.50808831E-29
  -13.4399996      -1.60288469E-29
  -13.4300003      -1.70289612E-29
  -13.4200001      -1.80835839E-29
  -13.4099998      -1.91951434E-29
  -13.3999996      -2.03661404E-29
  -13.3900003      -2.15991478E-29
  -13.3800001      -2.28968078E-29
  -13.3699999      -2.42618303E-29
  -13.3599997      -2.56969941E-29
  -13.3500004      -2.72051447E-29
  -13.3400002      -2.87891920E-29
  -13.3299999      -3.04521061E-29
  -13.3199997      -3.21969114E-29
  -13.3100004      -3.40266983E-29
  -13.3000002      -3.59445965E-29
  -13.2900000      -3.79537898E-29
  -13.2799997      -4.00575072E-29
  -13.2700005      -4.22590046E-29
  -13.2600002      -4.45615772E-29
  -13.2500000      -4.69685383E-29
  -13.2399998      -4.94832190E-29
  -13.2299995      -5.21089657E-29
  -13.2200003      -5.48491126E-29
  -13.2100000      -5.77070061E-29
  -13.1999998      -6.06859382E-29
  -13.1899996      -6.37892012E-29
  -13.1800003      -6.70200269E-29
  -13.1700001      -7.03815871E-29
  -13.1599998      -7.38769935E-29
  -13.1499996      -7.75092673E-29
  -13.1400003      -8.12813094E-29
  -13.1300001      -8.51959245E-29
  -13.1199999      -8.92557608E-29
  -13.1099997      -9.34633158E-29
  -13.1000004      -9.78208888E-29
  -13.0900002      -1.02330592E-28
  -13.0799999      -1.06994280E-28
  -13.0699997      -1.11813582E-28
  -13.0600004      -1.16789800E-28
  -13.0500002      -1.21923980E-28
  -13.0400000      -1.27216785E-28
  -13.0299997      -1.32668479E-28
  -13.0200005      -1.38278965E-28
  -13.0100002      -1.44047643E-28
  -13.0000000      -1.49973465E-28
  -12.9899998      -1.56054841E-28
  -12.9799995      -1.62289594E-28
  -12.9700003      -1.68674955E-28
  -12.9600000      -1.75207444E-28
  -12.9499998      -1.81882898E-28
  -12.9399996      -1.88696369E-28
  -12.9300003      -1.95642127E-28
  -12.9200001      -2.02713467E-28
  -12.9099998      -2.09902868E-28
  -12.8999996      -2.17201685E-28
  -12.8900003      -2.24600289E-28
  -12.8800001      -2.32087895E-28
  -12.8699999      -2.39652467E-28
  -12.8599997      -2.47280738E-28
  -12.8500004      -2.54958073E-28
  -12.8400002      -2.62668317E-28
  -12.8299999      -2.70393944E-28
  -12.8199997      -2.78115695E-28
  -12.8100004      -2.85812674E-28
  -12.8000002      -2.93462131E-28
  -12.7900000      -3.01039558E-28
  -12.7799997      -3.08518353E-28
  -12.7700005      -3.15869772E-28
  -12.7600002      -3.23063072E-28
  -12.7500000      -3.30065055E-28
  -12.7399998      -3.36840236E-28
  -12.7299995      -3.43350433E-28
  -12.7200003      -3.49554913E-28
  -12.7100000      -3.55410149E-28
  -12.6999998      -3.60869823E-28
  -12.6899996      -3.65884584E-28
  -12.6800003      -3.70401828E-28
  -12.6700001      -3.74365681E-28
  -12.6599998      -3.77716920E-28
  -12.6499996      -3.80392638E-28
  -12.6400003      -3.82326368E-28
  -12.6300001      -3.83447693E-28
  -12.6199999      -3.83682415E-28
  -12.6099997      -3.82952006E-28
  -12.6000004      -3.81173651E-28
  -12.5900002      -3.78260008E-28
  -12.5799999      -3.74119282E-28
  -12.5699997      -3.68655010E-28
  -12.5600004      -3.61765501E-28
  -12.5500002      -3.53344180E-28
  -12.5400000      -3.43279246E-28
  -12.5299997      -3.31453603E-28
  -12.5200005      -3.17744207E-28
  -12.5100002      -3.02022576E-28
  -12.5000000      -2.84154473E-28
  -12.4899998      -2.63999351E-28
  -12.4799995      -2.41410552E-28
  -12.4700003      -2.16235109E-28
  -12.4600000      -1.88313494E-28
  -12.4499998      -1.57479801E-28
  -12.4399996      -1.23560888E-28
  -12.4300003      -8.63767663E-29
  -12.4200001      -4.57403788E-29
  -12.4099998      -1.45743940E-30
  -12.3999996       4.66736423E-29
  -12.3900003       9.88617878E-29
  -12.3800001       1.55323566E-28
  -12.3699999       2.16283498E-28
  -12.3599997       2.81973862E-28
  -12.3500004       3.52634595E-28
  -12.3400002       4.28514068E-28
  -12.3299999       5.09868286E-28
  -12.3199997       5.96961438E-28
  -12.3100004       6.90066044E-28
  -12.3000002       7.89462662E-28
  -12.2900000       8.95440135E-28
  -12.2799997       1.00829520E-27
  -12.2700005       1.12833360E-27
  -12.2600002       1.25586849E-27
  -12.2500000       1.39122101E-27
  -12.2399998       1.53472061E-27
  -12.2299995       1.68670537E-27
  -12.2200003       1.84752033E-27
  -12.2100000       2.01751812E-27
  -12.1999998       2.19705947E-27
  -12.1899996       2.38651205E-27
  -12.1800003       2.58625082E-27
  -12.1700001       2.79665770E-27
  -12.1599998       3.01812135E-27
  -12.1499996       3.25103638E-27
  -12.1400003       3.49580205E-27
  -12.1300001       3.75282549E-27
  -12.1199999       4.02251770E-27
  -12.1099997       4.30529390E-27
  -12.1000004       4.60157473E-27
  -12.0900002       4.91178388E-27
  -12.0799999       5.23634776E-27
  -12.0699997       5.57569546E-27
  -12.0600004       5.93025685E-27
  -12.0500002       6.30046449E-27
  -12.0400000       6.68675019E-27
  -12.0299997       7.08954457E-27
  -12.0200005       7.50927866E-27
  -12.0100002       7.94638002E-27
  -12.0000000       8.40127234E-27
  -11.9899998       8.87437472E-27
  -11.9799995       9.36610162E-27
  -11.9700003       9.87686055E-27
  -11.9600000       1.04070513E-26
  -11.9499998       1.09570630E-26
  -11.9399996       1.15272762E-26
  -11.9300003       1.21180583E-26
  -11.9200001       1.27297629E-26
  -11.9099998       1.33627290E-26
  -11.8999996       1.40172787E-26
  -11.8900003       1.46937177E-26
  -11.8800001       1.53923279E-26
  -11.8699999       1.61133715E-26
  -11.8599997       1.68570855E-26
  -11.8500004       1.76236811E-26
  -11.8400002       1.84133463E-26
  -11.8299999       1.92262289E-26
  -11.8199997       2.00624538E-26
  -11.8100004       2.09221042E-26
  -11.8000002       2.18052325E-26
  -11.7900000       2.27118478E-26
  -11.7799997       2.36419164E-26
  -11.7700005       2.45953626E-26
  -11.7600002       2.55720633E-26
  -11.7500000       2.65718428E-26
  -11.7399998       2.75944746E-26
  -11.7299995       2.86396753E-26
  -11.7200003       2.97071089E-26
  -11.7100000       3.07963624E-26
  -11.6999998       3.19069738E-26
  -11.6899996       3.30384068E-26
  -11.6800003       3.41900575E-26
  -11.6700001       3.53612386E-26
  -11.6599998       3.65511952E-26
  -11.6499996       3.77590861E-26
  -11.6400003       3.89839898E-26
  -11.6300001       4.02248896E-26
  -11.6199999       4.14806915E-26
  -11.6099997       4.27501875E-26
  -11.6000004       4.40320926E-26
  -11.5900002       4.53250017E-26
  -11.5799999       4.66274172E-26
  -11.5699997       4.79377306E-26
  -11.5600004       4.92542224E-26
  -11.5500002       5.05750528E-26
  -11.5400000       5.18982715E-26
  -11.5299997       5.32218014E-26
  -11.5200005       5.45434269E-26
  -11.5100002       5.58608246E-26
  -11.5000000       5.71715416E-26
  -11.4899998       5.84729711E-26
  -11.4799995       5.97623765E-26
  -11.4700003       6.10368984E-26
  -11.4600000       6.22935169E-26
  -11.4499998       6.35290764E-26
  -11.4399996       6.47402614E-26
  -11.4300003       6.59236206E-26
  -11.4200001       6.70755362E-26
  -11.4099998       6.81922613E-26
  -11.3999996       6.92698884E-26
  -11.3900003       7.03043316E-26
  -11.3800001       7.12913630E-26
  -11.3699999       7.22266130E-26
  -11.3599997       7.31055582E-26
  -11.3500004       7.39234898E-26
  -11.3400002       7.46755639E-26
  -11.3299999       7.53567946E-26
  -11.3199997       7.59620112E-26
  -11.3100004       7.64859258E-26
  -11.3000002       7.69231026E-26
  -11.2900000       7.72679334E-26
  -11.2799997       7.75147051E-26
  -11.2700005       7.76575444E-26
  -11.2600002       7.76904917E-26
  -11.2500000       7.76074148E-26
  -11.2399998       7.74021014E-26
  -11.2299995       7.70681606E-26
  -11.2200003       7.65991704E-26
  -11.2100000       7.59886167E-26
  -11.1999998       7.52299051E-26
  -11.1899996       7.43163672E-26
  -11.1800003       7.32412669E-26
  -11.1700001       7.19978249E-26
  -11.1599998       7.05792250E-26
  -11.1499996       6.89787494E-26
  -11.1400003       6.71895513E-26
  -11.1300001       6.52048450E-26
  -11.1199999       6.30178822E-26
  -11.1099997       6.06220069E-26
  -11.1000004       5.80107109E-26
  -11.0900002       5.51775293E-26
  -11.0799999       5.21160957E-26
  -11.0699997       4.88203026E-26
  -11.0600004       4.52842460E-26
  -11.0500002       4.15022033E-26
  -11.0400000       3.74687113E-26
  -11.0299997       3.31786792E-26
  -11.0200005       2.86272939E-26
  -11.0100002       2.38101147E-26
  -11.0000000       1.87232423E-26
  -10.9899998       1.33631050E-26
  -10.9799995       7.72673695E-27
  -10.9700003       1.81167974E-27
  -10.9600000      -4.38395967E-27
  -10.9499998      -1.08612657E-26
  -10.9399996      -1.76206089E-26
  -10.9300003      -2.46615453E-26
  -10.9200001      -3.19828894E-26
  -10.9099998      -3.95824240E-26
  -10.8999996      -4.74569445E-26
  -10.8900003      -5.56021891E-26
  -10.8800001      -6.40127838E-26
  -10.8699999      -7.26822172E-26
  -10.8599997      -8.16024899E-26
  -10.8500004      -9.07642773E-26
  -10.8400002      -1.00156745E-25
  -10.8299999      -1.09767271E-25
  -10.8199997      -1.19581921E-25
  -10.8100004      -1.29584776E-25
  -10.8000002      -1.39757704E-25
  -10.7900000      -1.50081157E-25
  -10.7799997      -1.60532948E-25
  -10.7700005      -1.71088794E-25
  -10.7600002      -1.81722245E-25
  -10.7500000      -1.92404112E-25
  -10.7399998      -2.03102754E-25
  -10.7299995      -2.13783499E-25
  -10.7200003      -2.24408568E-25
  -10.7100000      -2.34937519E-25
  -10.6999998      -2.45326349E-25
  -10.6899996      -2.55527553E-25
  -10.6800003      -2.65490028E-25
  -10.6700001      -2.75159417E-25
  -10.6599998      -2.84477023E-25
  -10.6499996      -2.93380107E-25
  -10.6400003      -3.01801740E-25
  -10.6300001      -3.09669937E-25
  -10.6199999      -3.16908771E-25
  -10.6099997      -3.23436324E-25
  -10.6000004      -3.29166462E-25
  -10.5900002      -3.34007405E-25
  -10.5799999      -3.37861237E-25
  -10.5699997      -3.40624641E-25
  -10.5600004      -3.42188336E-25
  -10.5500002      -3.42436261E-25
  -10.5400000      -3.41245426E-25
  -10.5299997      -3.38487100E-25
  -10.5200005      -3.34025080E-25
  -10.5100002      -3.27714637E-25
  -10.5000000      -3.19404086E-25
  -10.4899998      -3.08933979E-25
  -10.4799995      -2.96135746E-25
  -10.4700003      -2.80832978E-25
  -10.4600000      -2.62839825E-25
  -10.4499998      -2.41960403E-25
  -10.4399996      -2.17990642E-25
  -10.4300003      -1.90715469E-25
  -10.4200001      -1.59909711E-25
  -10.4099998      -1.25338005E-25
  -10.3999996      -8.67533757E-26
  -10.3900003      -4.38980602E-26
  -10.3800001       3.49845059E-27
  -10.3699999       5.57190638E-26
  -10.3599997       1.13058448E-25
  -10.3500004       1.75824092E-25
  -10.3400002       2.44337980E-25
  -10.3299999       3.18935281E-25
  -10.3199997       3.99965298E-25
  -10.3100004       4.87793275E-25
  -10.3000002       5.82798555E-25
  -10.2900000       6.85374582E-25
  -10.2799997       7.95933388E-25
  -10.2700005       9.14903030E-25
  -10.2600002       1.04272759E-24
  -10.2500000       1.17986928E-24
  -10.2399998       1.32680774E-24
  -10.2299995       1.48404182E-24
  -10.2200003       1.65209029E-24
  -10.2100000       1.83148929E-24
  -10.1999998       2.02279378E-24
  -10.1899996       2.22658140E-24
  -10.1800003       2.44345090E-24
  -10.1700001       2.67402272E-24
  -10.1599998       2.91893839E-24
  -10.1499996       3.17886037E-24
  -10.1400003       3.45447831E-24
  -10.1300001       3.74650081E-24
  -10.1199999       4.05566408E-24
  -10.1099997       4.38272462E-24
  -10.1000004       4.72846855E-24
  -10.0900002       5.09370563E-24
  -10.0799999       5.47927323E-24
  -10.0699997       5.88603397E-24
  -10.0600004       6.31487809E-24
  -10.0500002       6.76672342E-24
  -10.0400000       7.24251698E-24
  -10.0299997       7.74323303E-24
  -10.0200005       8.26987657E-24
  -10.0100002       8.82348022E-24
  -10.0000000       9.40510973E-24
  -9.98999977       1.00158624E-23
  -9.97999954       1.06568655E-23
  -9.97000027       1.13292748E-23
  -9.96000004       1.20342798E-23
  -9.94999981       1.27731056E-23
  -9.93999958       1.35470105E-23
  -9.93000031       1.43572811E-23
  -9.92000008       1.52052419E-23
  -9.90999985       1.60922497E-23
  -9.89999962       1.70197024E-23
  -9.89000034       1.79890247E-23
  -9.88000011       1.90016792E-23
  -9.86999989       2.00591661E-23
  -9.85999966       2.11630224E-23
  -9.85000038       2.23148177E-23
  -9.84000015       2.35161597E-23
  -9.82999992       2.47686910E-23
  -9.81999969       2.60740917E-23
  -9.81000042       2.74340769E-23
  -9.80000019       2.88504104E-23
  -9.78999996       3.03248797E-23
  -9.77999973       3.18593152E-23
  -9.77000046       3.34555815E-23
  -9.76000023       3.51155752E-23
  -9.75000000       3.68412432E-23
  -9.73999977       3.86345607E-23
  -9.72999954       4.04975503E-23
  -9.72000027       4.24322506E-23
  -9.71000004       4.44407536E-23
  -9.69999981       4.65251797E-23
  -9.68999958       4.86876873E-23
  -9.68000031       5.09304662E-23
  -9.67000008       5.32557473E-23
  -9.65999985       5.56657805E-23
  -9.64999962       5.81628597E-23
  -9.64000034       6.07493137E-23
  -9.63000011       6.34274965E-23
  -9.61999989       6.61997935E-23
  -9.60999966       6.90686219E-23
  -9.60000038       7.20364239E-23
  -9.59000015       7.51056860E-23
  -9.57999992       7.82788822E-23
  -9.56999969       8.15585493E-23
  -9.56000042       8.49472307E-23
  -9.55000019       8.84474823E-23
  -9.53999996       9.20618978E-23
  -9.52999973       9.57930837E-23
  -9.52000046       9.96436589E-23
  -9.51000023       1.03616261E-22
  -9.50000000       1.07713529E-22
  -9.48999977       1.11938126E-22
  -9.47999954       1.16292713E-22
  -9.47000027       1.20779944E-22
  -9.46000004       1.25402517E-22
  -9.44999981       1.30163059E-22
  -9.43999958       1.35064271E-22
  -9.43000031       1.40108803E-22
  -9.42000008       1.45299306E-22
  -9.40999985       1.50638405E-22
  -9.39999962       1.56128725E-22
  -9.39000034       1.61772842E-22
  -9.38000011       1.67573355E-22
  -9.36999989       1.73532802E-22
  -9.35999966       1.79653668E-22
  -9.35000038       1.85938428E-22
  -9.34000015       1.92389505E-22
  -9.32999992       1.99009298E-22
  -9.31999969       2.05800141E-22
  -9.31000042       2.12764268E-22
  -9.30000019       2.19903926E-22
  -9.28999996       2.27221198E-22
  -9.27999973       2.34718179E-22
  -9.27000046       2.42396812E-22
  -9.26000023       2.50259016E-22
  -9.25000000       2.58306584E-22
  -9.23999977       2.66541181E-22
  -9.22999954       2.74964398E-22
  -9.22000027       2.83577699E-22
  -9.21000004       2.92382447E-22
  -9.19999981       3.01379803E-22
  -9.18999958       3.10570828E-22
  -9.18000031       3.19956455E-22
  -9.17000008       3.29537417E-22
  -9.15999985       3.39314344E-22
  -9.14999962       3.49287591E-22
  -9.14000034       3.59457384E-22
  -9.13000011       3.69823748E-22
  -9.11999989       3.80386482E-22
  -9.10999966       3.91145181E-22
  -9.10000038       4.02099190E-22
  -9.09000015       4.13247625E-22
  -9.07999992       4.24589425E-22
  -9.06999969       4.36123051E-22
  -9.06000042       4.47846913E-22
  -9.05000019       4.59758990E-22
  -9.03999996       4.71856961E-22
  -9.02999973       4.84138200E-22
  -9.02000046       4.96599880E-22
  -9.01000023       5.09238618E-22
  -9.00000000       5.22050729E-22
  -8.98999977       5.35032275E-22
  -8.97999954       5.48178711E-22
  -8.97000027       5.61485242E-22
  -8.96000004       5.74946667E-22
  -8.94999981       5.88557131E-22
  -8.93999958       6.02310523E-22
  -8.93000031       6.16200129E-22
  -8.92000008       6.30218831E-22
  -8.90999985       6.44358904E-22
  -8.89999962       6.58612119E-22
  -8.89000034       6.72969741E-22
  -8.88000011       6.87422380E-22
  -8.86999989       7.01960089E-22
  -8.85999966       7.16572216E-22
  -8.85000038       7.31247553E-22
  -8.84000015       7.45974286E-22
  -8.82999992       7.60739743E-22
  -8.81999969       7.75530645E-22
  -8.81000042       7.90332958E-22
  -8.80000019       8.05131938E-22
  -8.78999996       8.19911985E-22
  -8.77999973       8.34656641E-22
  -8.77000046       8.49348790E-22
  -8.76000023       8.63970359E-22
  -8.75000000       8.78502262E-22
  -8.73999977       8.92924609E-22
  -8.72999954       9.07216799E-22
  -8.72000027       9.21356923E-22
  -8.71000004       9.35322159E-22
  -8.69999981       9.49088476E-22
  -8.68999958       9.62631135E-22
  -8.68000031       9.75924287E-22
  -8.67000008       9.88940668E-22
  -8.65999985       1.00165201E-21
  -8.64999962       1.01402882E-21
  -8.64000034       1.02604061E-21
  -8.63000011       1.03765527E-21
  -8.61999989       1.04883967E-21
  -8.60999966       1.05955919E-21
  -8.60000038       1.06977819E-21
  -8.59000015       1.07945919E-21
  -8.57999992       1.08856363E-21
  -8.56999969       1.09705122E-21
  -8.56000042       1.10488035E-21
  -8.55000019       1.11200792E-21
  -8.53999996       1.11838908E-21
  -8.52999973       1.12397770E-21
  -8.52000046       1.12872551E-21
  -8.51000023       1.13258282E-21
  -8.50000000       1.13549845E-21
  -8.48999977       1.13741918E-21
  -8.47999954       1.13828968E-21
  -8.47000027       1.13805340E-21
  -8.46000004       1.13665178E-21
  -8.44999981       1.13402373E-21
  -8.43999958       1.13010684E-21
  -8.43000031       1.12483659E-21
  -8.42000008       1.11814634E-21
  -8.40999985       1.10996713E-21
  -8.39999962       1.10022807E-21
  -8.39000034       1.08885635E-21
  -8.38000011       1.07577666E-21
  -8.36999989       1.06091124E-21
  -8.35999966       1.04418022E-21
  -8.35000038       1.02550161E-21
  -8.34000015       1.00479069E-21
  -8.32999992       9.81960221E-22
  -8.31999969       9.56921044E-22
  -8.31000042       9.29580766E-22
  -8.30000019       8.99844976E-22
  -8.28999996       8.67616739E-22
  -8.27999973       8.32795737E-22
  -8.27000046       7.95279128E-22
  -8.26000023       7.54962202E-22
  -8.25000000       7.11736966E-22
  -8.23999977       6.65491945E-22
  -8.22999954       6.16113847E-22
  -8.22000027       5.63485642E-22
  -8.21000004       5.07487423E-22
  -8.19999981       4.47996910E-22
  -8.18999958       3.84888618E-22
  -8.18000031       3.18033300E-22
  -8.17000008       2.47298932E-22
  -8.15999985       1.72550979E-22
  -8.14999962       9.36510549E-23
  -8.14000034       1.04576371E-23
  -8.13000011      -7.71738585E-23
  -8.11999989      -1.69391660E-22
  -8.10999966      -2.66347083E-22
  -8.10000038      -3.68194731E-22
  -8.09000015      -4.75093638E-22
  -8.07999992      -5.87204935E-22
  -8.06999969      -7.04693460E-22
  -8.06000042      -8.27728196E-22
  -8.05000019      -9.56481201E-22
  -8.03999996      -1.09112817E-21
  -8.02999973      -1.23184843E-21
  -8.02000046      -1.37882536E-21
  -8.01000023      -1.53224495E-21
  -8.00000000      -1.69229693E-21
  -7.98999977      -1.85917648E-21
  -7.98000002      -2.03308070E-21
  -7.96999979      -2.21421063E-21
  -7.96000004      -2.40277187E-21
  -7.94999981      -2.59897341E-21
  -7.94000006      -2.80302772E-21
  -7.92999983      -3.01515088E-21
  -7.92000008      -3.23556301E-21
  -7.90999985      -3.46448888E-21
  -7.90000010      -3.70215548E-21
  -7.88999987      -3.94879384E-21
  -7.88000011      -4.20464064E-21
  -7.86999989      -4.46993459E-21
  -7.86000013      -4.74491762E-21
  -7.84999990      -5.02983691E-21
  -7.84000015      -5.32494288E-21
  -7.82999992      -5.63049080E-21
  -7.82000017      -5.94673713E-21
  -7.80999994      -6.27394240E-21
  -7.80000019      -6.61237196E-21
  -7.78999996      -6.96229521E-21
  -7.78000021      -7.32398397E-21
  -7.76999998      -7.69771370E-21
  -7.76000023      -8.08376390E-21
  -7.75000000      -8.48241730E-21
  -7.73999977      -8.89396065E-21
  -7.73000002      -9.31868316E-21
  -7.71999979      -9.75687644E-21
  -7.71000004      -1.02088369E-20
  -7.69999981      -1.06748635E-20
  -7.69000006      -1.11552600E-20
  -7.67999983      -1.16503300E-20
  -7.67000008      -1.21603814E-20
  -7.65999985      -1.26857267E-20
  -7.65000010      -1.32266778E-20
  -7.63999987      -1.37835497E-20
  -7.63000011      -1.43566630E-20
  -7.61999989      -1.49463378E-20
  -7.61000013      -1.55528971E-20
  -7.59999990      -1.61766656E-20
  -7.59000015      -1.68179696E-20
  -7.57999992      -1.74771405E-20
  -7.57000017      -1.81545093E-20
  -7.55999994      -1.88504090E-20
  -7.55000019      -1.95651689E-20
  -7.53999996      -2.02991286E-20
  -7.53000021      -2.10526206E-20
  -7.51999998      -2.18259844E-20
  -7.51000023      -2.26195592E-20
  -7.50000000      -2.34336778E-20
  -7.48999977      -2.42686811E-20
  -7.48000002      -2.51249083E-20
  -7.46999979      -2.60026988E-20
  -7.46000004      -2.69023870E-20
  -7.44999981      -2.78243105E-20
  -7.44000006      -2.87688086E-20