  -16.0000000       0.00000000    
  -15.9899998       0.00000000    
  -15.9799995       0.00000000    
  -15.9700003       0.00000000    
  -15.9600000       0.00000000    
  -15.9499998       0.00000000    
  -15.9399996       0.00000000    
  -15.9300003       0.00000000    
  -15.9200001       0.00000000    
  -15.9099998       0.00000000    
  -15.8999996       0.00000000    
  -15.8900003       0.00000000    
  -15.8800001       0.00000000    
  -15.8699999       0.00000000    
  -15.8599997       0.00000000    
  -15.8500004       0.00000000    
  -15.8400002       0.00000000    
  -15.8299999       0.00000000    
  -15.8199997       0.00000000    
  -15.8100004       0.00000000    
  -15.8000002       0.00000000    
  -15.7900000       0.00000000    
  -15.7799997       0.00000000    
  -15.7700005       0.00000000    
  -15.7600002       0.00000000    
  -15.7500000       0.00000000    
  -15.7399998       0.00000000    
  -15.7299995       0.00000000    
  -15.7200003       0.00000000    
  -15.7100000       0.00000000    
  -15.6999998       0.00000000    
  -15.6899996       0.00000000    
  -15.6800003       0.00000000    
  -15.6700001       0.00000000    
  -15.6599998       0.00000000    
  -15.6499996       0.00000000    
  -15.6400003       0.00000000    
  -15.6300001       0.00000000    
  -15.6199999       0.00000000    
  -15.6099997       0.00000000    
  -15.6000004       0.00000000    
  -15.5900002       0.00000000    
  -15.5799999       0.00000000    
  -15.5699997       0.00000000    
  -15.5600004       0.00000000    
  -15.5500002       0.00000000    
  -15.5400000       0.00000000    
  -15.5299997       0.00000000    
  -15.5200005       0.00000000    
  -15.5100002       0.00000000    
  -15.5000000       0.00000000    
  -15.4899998       0.00000000    
  -15.4799995       0.00000000    
  -15.4700003       0.00000000    
  -15.4600000       0.00000000    
  -15.4499998       0.00000000    
  -15.4399996       0.00000000    
  -15.4300003       0.00000000    
  -15.4200001       0.00000000    
  -15.4099998       0.00000000    
  -15.3999996       0.00000000    
  -15.3900003       0.00000000    
  -15.3800001      -0.00000000    
  -15.3699999      -0.00000000    
  -15.3599997      -0.00000000    
  -15.3500004      -0.00000000    
  -15.3400002      -0.00000000    
  -15.3299999      -0.00000000    
  -15.3199997      -0.00000000    
  -15.3100004      -0.00000000    
  -15.3000002      -0.00000000    
  -15.2900000      -0.00000000    
  -15.2799997      -0.00000000    
  -15.2700005      -0.00000000    
  -15.2600002      -1.40129846E-45
  -15.2500000      -1.40129846E-45
  -15.2399998      -1.40129846E-45
  -15.2299995       0.00000000    
  -15.2200003      -0.00000000    
  -15.2100000      -1.40129846E-45
  -15.1999998      -2.80259693E-45
  -15.1899996      -1.40129846E-45
  -15.1800003      -0.00000000    
  -15.1700001      -0.00000000    
  -15.1599998      -0.00000000    
  -15.1499996      -0.00000000    
  -15.1400003       0.00000000    
  -15.1300001       0.00000000    
  -15.1199999       0.00000000    
  -15.1099997       2.80259693E-45
  -15.1000004       5.60519386E-45
  -15.0900002       8.40779079E-45
  -15.0799999       1.40129846E-44
  -15.0699997       2.38220739E-44
  -15.0600004       3.36311631E-44
  -15.0500002       4.76441478E-44
  -15.0400000       6.44597294E-44
  -15.0299997       8.68805048E-44
  -15.0200005       1.13505176E-43
  -15.0100002       1.49938936E-43
  -15.0000000       1.96181785E-43
  -14.9899998       2.50832425E-43
  -14.9799995       3.18094751E-43
  -14.9700003       4.03573958E-43
  -14.9600000       5.08671343E-43
  -14.9499998       6.38992100E-43
  -14.9399996       8.00141423E-43
  -14.9300003       9.94921910E-43
  -14.9200001       1.23174135E-42
  -14.9099998       1.52461273E-42
  -14.8999996       1.87914124E-42
  -14.8900003       2.30653727E-42
  -14.8800001       2.81941251E-42
  -14.8699999       3.43878643E-42
  -14.8599997       4.18007332E-42
  -14.8500004       5.06289135E-42
  -14.8400002       6.11106260E-42
  -14.8299999       7.35401434E-42
  -14.8199997       8.82677903E-42
  -14.8100004       1.05699943E-41
  -14.8000002       1.26299031E-41
  -14.7900000       1.50513468E-41
  -14.7799997       1.78917788E-41
  -14.7700005       2.12212639E-41
  -14.7600002       2.51196763E-41
  -14.7500000       2.96696924E-41
  -14.7399998       3.49722058E-41
  -14.7299995       4.11407216E-41
  -14.7200003       4.82985542E-41
  -14.7100000       5.65914385E-41
  -14.6999998       6.61847278E-41
  -14.6899996       7.72661960E-41
  -14.6800003       9.00432354E-41
  -14.6700001       1.04749863E-40
  -14.6599998       1.21655127E-40
  -14.6499996       1.41060309E-40
  -14.6400003       1.63297514E-40
  -14.6300001       1.88749298E-40
  -14.6199999       2.17841655E-40
  -14.6099997       2.51048225E-40
  -14.6000004       2.88902902E-40
  -14.5900002       3.32002639E-40
  -14.5799999       3.81013052E-40
  -14.5699997       4.36675430E-40
  -14.5600004       4.99809531E-40
  -14.5500002       5.71336009E-40
  -14.5400000       6.52279212E-40
  -14.5299997       7.43778396E-40
  -14.5200005       8.47094731E-40
  -14.5100002       9.63632316E-40
  -14.5000000       1.09495220E-39
  -14.4899998       1.24278498E-39
  -14.4799995       1.40904905E-39
  -14.4700003       1.59587156E-39
  -14.4600000       1.80560951E-39
  -14.4499998       2.04087631E-39
  -14.4399996       2.30456424E-39
  -14.4300003       2.59986407E-39
  -14.4200001       2.93030707E-39
  -14.4099998       3.29980565E-39
  -14.3999996       3.71268143E-39
  -14.3900003       4.17370442E-39
  -14.3800001       4.68814491E-39
  -14.3699999       5.26182248E-39
  -14.3599997       5.90116351E-39
  -14.3500004       6.61326415E-39
  -14.3400002       7.40595767E-39
  -14.3299999       8.28788168E-39
  -14.3199997       9.26856639E-39
  -14.3100004       1.03585244E-38
  -14.3000002       1.15693527E-38
  -14.2900000       1.29138552E-38
  -14.2799997       1.44061540E-38
  -14.2700005       1.60618357E-38
  -14.2600002       1.78980958E-38
  -14.2500000       1.99339247E-38
  -14.2399998       2.21902800E-38
  -14.2299995       2.46903016E-38
  -14.2200003       2.74595560E-38
  -14.2100000       3.05262781E-38
  -14.1999998       3.39216635E-38
  -14.1899996       3.76801702E-38
  -14.1800003       4.18398771E-38
  -14.1700001       4.64428482E-38
  -14.1599998       5.15355704E-38
  -14.1499996       5.71693956E-38
  -14.1400003       6.34010596E-38
  -14.1300001       7.02932172E-38
  -14.1199999       7.79150813E-38
  -14.1099997       8.63430732E-38
  -14.1000004       9.56615791E-38
  -14.0900002       1.05963791E-37
  -14.0799999       1.17352648E-37
  -14.0699997       1.29941824E-37
  -14.0600004       1.43856897E-37
  -14.0500002       1.59236529E-37
  -14.0400000       1.76233943E-37
  -14.0299997       1.95018371E-37
  -14.0200005       2.15776780E-37
  -14.0100002       2.38715633E-37
  -14.0000000       2.64062925E-37
  -13.9899998       2.92070217E-37
  -13.9799995       3.23015103E-37
  -13.9700003       3.57203691E-37
  -13.9600000       3.94973303E-37
  -13.9499998       4.36695452E-37
  -13.9399996       4.82779338E-37
  -13.9300003       5.33674857E-37
  -13.9200001       5.89876970E-37
  -13.9099998       6.51929425E-37
  -13.8999996       7.20429558E-37
  -13.8900003       7.96033220E-37
  -13.8800001       8.79459938E-37
  -13.8699999       9.71499195E-37
  -13.8599997       1.07301607E-36
  -13.8500004       1.18495843E-36
  -13.8400002       1.30836435E-36
  -13.8299999       1.44436940E-36
  -13.8199997       1.59421561E-36
  -13.8100004       1.75926013E-36
  -13.8000002       1.94098500E-36
  -13.7900000       2.14100684E-36
  -13.7799997       2.36108792E-36
  -13.7700005       2.60314673E-36
  -13.7600002       2.86927093E-36
  -13.7500000       3.16172860E-36
  -13.7399998       3.48298065E-36
  -13.7299995       3.83569676E-36
  -13.7200003       4.22276615E-36
  -13.7100000       4.64731448E-36
  -13.6999998       5.11271740E-36
  -13.6899996       5.62261498E-36
  -13.6800003       6.18092780E-36
  -13.6700001       6.79187133E-36
  -13.6599998       7.45997170E-36
  -13.6499996       8.19007752E-36
  -13.6400003       8.98737608E-36
  -13.6300001       9.85739974E-36
  -13.6199999       1.08060418E-35
  -13.6099997       1.18395577E-35
  -13.6000004       1.29645705E-35
  -13.5900002       1.41880690E-35
  -13.5799999       1.55174036E-35
  -13.5699997       1.69602670E-35
  -13.5600004       1.85246789E-35
  -13.5500002       2.02189505E-35
  -13.5400000       2.20516498E-35
  -13.5299997       2.40315413E-35
  -13.5200005       2.61675202E-35
  -13.5100002       2.84685159E-35
  -13.5000000       3.09434051E-35
  -13.4899998       3.36008718E-35
  -13.4799995       3.64492473E-35
  -13.4700003       3.94963462E-35
  -13.4600000       4.27492427E-35
  -13.4499998       4.62140180E-35
  -13.4399996       4.98954763E-35
  -13.4300003       5.37968089E-35
  -13.4200001       5.79192068E-35
  -13.4099998       6.22614530E-35
  -13.3999996       6.68193750E-35
  -13.3900003       7.15853388E-35
  -13.3800001       7.65475952E-35
  -13.3699999       8.16895966E-35
  -13.3599997       8.69891878E-35
  -13.3500004       9.24177562E-35
  -13.3400002       9.79392850E-35
  -13.3299999       1.03509280E-34
  -13.3199997       1.09073650E-34
  -13.3100004       1.14567445E-34
  -13.3000002       1.19913499E-34
  -13.2900000       1.25020941E-34
  -13.2799997       1.29783737E-34
  -13.2700005       1.34078883E-34
  -13.2600002       1.37764689E-34
  -13.2500000       1.40678939E-34
  -13.2399998       1.42636941E-34
  -13.2299995       1.43429424E-34
  -13.2200003       1.42820440E-34
  -13.2100000       1.40545238E-34
  -13.1999998       1.36308041E-34
  -13.1899996       1.29779822E-34
  -13.1800003       1.20596158E-34
  -13.1700001       1.08354980E-34
  -13.1599998       9.26145883E-35
  -13.1499996       7.28916126E-35
  -13.1400003       4.86594050E-35
  -13.1300001       1.93461201E-35
  -13.1199999      -1.56663149E-35
  -13.1099997      -5.70430559E-35
  -13.1000004      -1.05497186E-34
  -13.0900002      -1.61789567E-34
  -13.0799999      -2.26728202E-34
  -13.0699997      -3.01167278E-34
  -13.0600004      -3.86004519E-34
  -13.0500002      -4.82178875E-34
  -13.0400000      -5.90666167E-34
  -13.0299997      -7.12474289E-34
  -13.0200005      -8.48635841E-34
  -13.0100002      -1.00020041E-33
  -13.0000000      -1.16822548E-33
  -12.9899998      -1.35376349E-33
  -12.9799995      -1.55784924E-33
  -12.9700003      -1.78148318E-33
  -12.9600000      -2.02561242E-33
  -12.9499998      -2.29110975E-33
  -12.9399996      -2.57874992E-33
  -12.9300003      -2.88917979E-33
  -12.9200001      -3.22288702E-33
  -12.9099998      -3.58016604E-33
  -12.8999996      -3.96107617E-33
  -12.8900003      -4.36539590E-33
  -12.8800001      -4.79257753E-33
  -12.8699999      -5.24168617E-33
  -12.8599997      -5.71133950E-33
  -12.8500004      -6.19964316E-33
  -12.8400002      -6.70411097E-33
  -12.8299999      -7.22158783E-33
  -12.8199997      -7.74815420E-33
  -12.8100004      -8.27903169E-33
  -12.8000002      -8.80846994E-33
  -12.7900000      -9.32963344E-33
  -12.7799997      -9.83447300E-33
  -12.7700005      -1.03135891E-32
  -12.7600002      -1.07560775E-32
  -12.7500000      -1.11493648E-32
  -12.7399998      -1.14790381E-32
  -12.7299995      -1.17286565E-32
  -12.7200003      -1.18795408E-32
  -12.7100000      -1.19105577E-32
  -12.6999998      -1.17978858E-32
  -12.6899996      -1.15147636E-32
  -12.6800003      -1.10312151E-32
  -12.6700001      -1.03137573E-32
  -12.6599998      -9.32510926E-33
  -12.6499996      -8.02384877E-33
  -12.6400003      -6.36405809E-33
  -12.6300001      -4.29497314E-33
  -12.6199999      -1.76056158E-33
  -12.6099997       1.30088580E-33
  -12.6000004       4.95718861E-33
  -12.5900002       9.28278044E-33
  -12.5799999       1.43591675E-32
  -12.5699997       2.02754746E-32
  -12.5600004       2.71290020E-32
  -12.5500002       3.50258173E-32
  -12.5400000       4.40813702E-32
  -12.5299997       5.44211038E-32
  -12.5200005       6.61811842E-32
  -12.5100002       7.95092095E-32
  -12.5000000       9.45649294E-32
  -12.4899998       1.11521030E-31
  -12.4799995       1.30564003E-31
  -12.4700003       1.51894958E-31
  -12.4600000       1.75730516E-31
  -12.4499998       2.02303753E-31
  -12.4399996       2.31865203E-31
  -12.4300003       2.64683783E-31
  -12.4200001       3.01047912E-31
  -12.4099998       3.41266605E-31
  -12.3999996       3.85670528E-31
  -12.3900003       4.34613269E-31
  -12.3800001       4.88472352E-31
  -12.3699999       5.47650875E-31
  -12.3599997       6.12578318E-31
  -12.3500004       6.83712136E-31
  -12.3400002       7.61539078E-31
  -12.3299999       8.46576549E-31
  -12.3199997       9.39374211E-31
  -12.3100004       1.04051497E-30
  -12.3000002       1.15061722E-30
  -12.2900000       1.27033559E-30
  -12.2799997       1.40036313E-30
  -12.2700005       1.54143242E-30
  -12.2600002       1.69431768E-30
  -12.2500000       1.85983556E-30
  -12.2399998       2.03884812E-30
  -12.2299995       2.23226283E-30
  -12.2200003       2.44103589E-30
  -12.2100000       2.66617222E-30
  -12.1999998       2.90872880E-30
  -12.1899996       3.16981474E-30
  -12.1800003       3.45059427E-30
  -12.1700001       3.75228818E-30
  -12.1599998       4.07617393E-30
  -12.1499996       4.42358874E-30
  -12.1400003       4.79593156E-30
  -12.1300001       5.19466226E-30
  -12.1199999       5.62130502E-30
  -12.1099997       6.07744949E-30
  -12.1000004       6.56475114E-30
  -12.0900002       7.08493278E-30
  -12.0799999       7.63978567E-30
  -12.0699997       8.23117180E-30
  -12.0600004       8.86102161E-30
  -12.0500002       9.53133777E-30
  -12.0400000       1.02441922E-29
  -12.0299997       1.10017311E-29
  -12.0200005       1.18061702E-29
  -12.0100002       1.26597996E-29
  -12.0000000       1.35649746E-29
  -11.9899998       1.45241298E-29
  -11.9799995       1.55397615E-29
  -11.9700003       1.66144379E-29
  -11.9600000       1.77507938E-29
  -11.9499998       1.89515283E-29
  -11.9399996       2.02194011E-29
  -11.9300003       2.15572363E-29
  -11.9200001       2.29679123E-29
  -11.9099998       2.44543555E-29
  -11.8999996       2.60195483E-29
  -11.8900003       2.76665073E-29
  -11.8800001       2.93982975E-29
  -11.8699999       3.12180154E-29
  -11.8599997       3.31287696E-29
  -11.8500004       3.51337018E-29
  -11.8400002       3.72359566E-29
  -11.8299999       3.94386788E-29
  -11.8199997       4.17450100E-29
  -11.8100004       4.41580618E-29
  -11.8000002       4.66809247E-29
  -11.7900000       4.93166321E-29
  -11.7799997       5.20681721E-29
  -11.7700005       5.49384456E-29
  -11.7600002       5.79302755E-29
  -11.7500000       6.10463639E-29
  -11.7399998       6.42892990E-29
  -11.7299995       6.76615120E-29
  -11.7200003       7.11652781E-29
  -11.7100000       7.48026616E-29
  -11.6999998       7.85755163E-29
  -11.6899996       8.24854550E-29
  -11.6800003       8.65338139E-29
  -11.6700001       9.07216222E-29
  -11.6599998       9.50495840E-29
  -11.6499996       9.95180063E-29
  -11.6400003       1.04126799E-28
  -11.6300001       1.08875456E-28
  -11.6199999       1.13762912E-28
  -11.6099997       1.18787640E-28
  -11.6000004       1.23947471E-28
  -11.5900002       1.29239649E-28
  -11.5799999       1.34660709E-28
  -11.5699997       1.40206436E-28
  -11.5600004       1.45871848E-28
  -11.5500002       1.51651082E-28
  -11.5400000       1.57537350E-28
  -11.5299997       1.63522875E-28
  -11.5200005       1.69598799E-28
  -11.5100002       1.75755155E-28
  -11.5000000       1.81980699E-28
  -11.4899998       1.88262902E-28
  -11.4799995       1.94587849E-28
  -11.4700003       2.00940095E-28
  -11.4600000       2.07302670E-28
  -11.4499998       2.13656842E-28
  -11.4399996       2.19982126E-28
  -11.4300003       2.26256131E-28
  -11.4200001       2.32454400E-28
  -11.4099998       2.38550329E-28
  -11.3999996       2.44515079E-28
  -11.3900003       2.50317376E-28
  -11.3800001       2.55923325E-28
  -11.3699999       2.61296429E-28
  -11.3599997       2.66397278E-28
  -11.3500004       2.71183503E-28
  -11.3400002       2.75609458E-28
  -11.3299999       2.79626298E-28
  -11.3199997       2.83181517E-28
  -11.3100004       2.86218997E-28
  -11.3000002       2.88678626E-28
  -11.2900000       2.90496271E-28
  -11.2799997       2.91603392E-28
  -11.2700005       2.91926996E-28
  -11.2600002       2.91389325E-28
  -11.2500000       2.89907659E-28
  -11.2399998       2.87393959E-28
  -11.2299995       2.83754842E-28
  -11.2200003       2.78891195E-28
  -11.2100000       2.72697765E-28
  -11.1999998       2.65063210E-28
  -11.1899996       2.55869543E-28
  -11.1800003       2.44992059E-28
  -11.1700001       2.32298785E-28
  -11.1599998       2.17650378E-28
  -11.1499996       2.00899759E-28
  -11.1400003       1.81891733E-28
  -11.1300001       1.60462705E-28
  -11.1199999       1.36440400E-28
  -11.1099997       1.09643396E-28
  -11.1000004       7.98806949E-29
  -11.0900002       4.69516563E-29
  -11.0799999       1.06452595E-29
  -11.0699997      -2.92599766E-29
  -11.0600004      -7.29965065E-29
  -11.0500002      -1.20808289E-28
  -11.0400000      -1.72951013E-28
  -11.0299997      -2.29692592E-28
  -11.0200005      -2.91313443E-28
  -11.0100002      -3.58107149E-28
  -11.0000000      -4.30380728E-28
  -10.9899998      -5.08455328E-28
  -10.9799995      -5.92666229E-28
  -10.9700003      -6.83363807E-28
  -10.9600000      -7.80913459E-28
  -10.9499998      -8.85696470E-28
  -10.9399996      -9.98110112E-28
  -10.9300003      -1.11856875E-27
  -10.9200001      -1.24750340E-27
  -10.9099998      -1.38536291E-27
  -10.8999996      -1.53261412E-27
  -10.8900003      -1.68974256E-27
  -10.8800001      -1.85725244E-27
  -10.8699999      -2.03566770E-27
  -10.8599997      -2.22553223E-27
  -10.8500004      -2.42740994E-27
  -10.8400002      -2.64188535E-27
  -10.8299999      -2.86956436E-27
  -10.8199997      -3.11107424E-27
  -10.8100004      -3.36706480E-27
  -10.8000002      -3.63820801E-27
  -10.7900000      -3.92519815E-27
  -10.7799997      -4.22875282E-27
  -10.7700005      -4.54961352E-27
  -10.7600002      -4.88854445E-27
  -10.7500000      -5.24633409E-27
  -10.7399998      -5.62379517E-27
  -10.7299995      -6.02176510E-27
  -10.7200003      -6.44110591E-27
  -10.7100000      -6.88270355E-27
  -10.6999998      -7.34746973E-27
  -10.6899996      -7.83634085E-27
  -10.6800003      -8.35027757E-27
  -10.6700001      -8.89026519E-27
  -10.6599998      -9.45731520E-27
  -10.6499996      -1.00524614E-26
  -10.6400003      -1.06767632E-26
  -10.6300001      -1.13313051E-26
  -10.6199999      -1.20171919E-26
  -10.6099997      -1.27355546E-26
  -10.6000004      -1.34875462E-26
  -10.5900002      -1.42743395E-26
  -10.5799999      -1.50971322E-26
  -10.5699997      -1.59571385E-26
  -10.5600004      -1.68555940E-26
  -10.5500002      -1.77937530E-26
  -10.5400000      -1.87728881E-26
  -10.5299997      -1.97942843E-26
  -10.5200005      -2.08592434E-26
  -10.5100002      -2.19690813E-26
  -10.5000000      -2.31251231E-26
  -10.4899998      -2.43287045E-26
  -10.4799995      -2.55811660E-26
  -10.4700003      -2.68838558E-26
  -10.4600000      -2.82381266E-26
  -10.4499998      -2.96453281E-26
  -10.4399996      -3.11068039E-26
  -10.4300003      -3.26239005E-26
  -10.4200001      -3.41979522E-26
  -10.4099998      -3.58302780E-26
  -10.3999996      -3.75221813E-26
  -10.3900003      -3.92749532E-26
  -10.3800001      -4.10898479E-26
  -10.3699999      -4.29681072E-26
  -10.3599997      -4.49109206E-26
  -10.3500004      -4.69194591E-26
  -10.3400002      -4.89948350E-26
  -10.3299999      -5.11381177E-26
  -10.3199997      -5.33503241E-26
  -10.3100004      -5.56324062E-26
  -10.3000002      -5.79852455E-26
  -10.2900000      -6.04096492E-26
  -10.2799997      -6.29063447E-26
  -10.2700005      -6.54759728E-26
  -10.2600002      -6.81190698E-26
  -10.2500000      -7.08360608E-26
  -10.2399998      -7.36272541E-26
  -10.2299995      -7.64928529E-26
  -10.2200003      -7.94328882E-26
  -10.2100000      -8.24472798E-26
  -10.1999998      -8.55357627E-26
  -10.1899996      -8.86979178E-26
  -10.1800003      -9.19331412E-26
  -10.1700001      -9.52406315E-26
  -10.1599998      -9.86193844E-26
  -10.1499996      -1.02068167E-25
  -10.1400003      -1.05585519E-25
  -10.1300001      -1.09169721E-25
  -10.1199999      -1.12818794E-25
  -10.1099997      -1.16530459E-25
  -10.1000004      -1.20302176E-25
  -10.0900002      -1.24131048E-25
  -10.0799999      -1.28013858E-25
  -10.0699997      -1.31947044E-25
  -10.0600004      -1.35926626E-25
  -10.0500002      -1.39948288E-25
  -10.0400000      -1.44007236E-25
  -10.0299997      -1.48098293E-25
  -10.0200005      -1.52215778E-25
  -10.0100002      -1.56353526E-25
  -10.0000000      -1.60504869E-25
  -9.98999977      -1.64662610E-25
  -9.97999954      -1.68818958E-25
  -9.97000027      -1.72965568E-25
  -9.96000004      -1.77093443E-25
  -9.94999981      -1.81192956E-25
  -9.93999958      -1.85253778E-25
  -9.93000031      -1.89264877E-25
  -9.92000008      -1.93214494E-25
  -9.90999985      -1.97090044E-25
  -9.89999962      -2.00878179E-25
  -9.89000034      -2.04564698E-25
  -9.88000011      -2.08134491E-25
  -9.86999989      -2.11571509E-25
  -9.85999966      -2.14858791E-25
  -9.85000038      -2.17978366E-25
  -9.84000015      -2.20911178E-25
  -9.82999992      -2.23637112E-25
  -9.81999969      -2.26134941E-25
  -9.81000042      -2.28382233E-25
  -9.80000019      -2.30355396E-25
  -9.78999996      -2.32029507E-25
  -9.77999973      -2.33378385E-25
  -9.77000046      -2.34374495E-25
  -9.76000023      -2.34988820E-25
  -9.75000000      -2.35190941E-25
  -9.73999977      -2.34948909E-25
  -9.72999954      -2.34229221E-25
  -9.72000027      -2.32996774E-25
  -9.71000004      -2.31214688E-25
  -9.69999981      -2.28844481E-25
  -9.68999958      -2.25845824E-25
  -9.68000031      -2.22176536E-25
  -9.67000008      -2.17792490E-25
  -9.65999985      -2.12647638E-25
  -9.64999962      -2.06693969E-25
  -9.64000034      -1.99881206E-25
  -9.63000011      -1.92157038E-25
  -9.61999989      -1.83466958E-25
  -9.60999966      -1.73754047E-25
  -9.60000038      -1.62959139E-25
  -9.59000015      -1.51020641E-25
  -9.57999992      -1.37874447E-25
  -9.56999969      -1.23453909E-25
  -9.56000042      -1.07689695E-25
  -9.55000019      -9.05098450E-26
  -9.53999996      -7.18396090E-26
  -9.52999973      -5.16014348E-26
  -9.52000046      -2.97148218E-26
  -9.51000023      -6.09631053E-27
  -9.50000000       1.93405660E-26
  -9.48999977       4.66854386E-26
  -9.47999954       7.60311536E-26
  -9.47000027       1.07473793E-25
  -9.46000004       1.41112758E-25
  -9.44999981       1.77050808E-25
  -9.43999958       2.15394230E-25
  -9.43000031       2.56252886E-25
  -9.42000008       2.99740199E-25
  -9.40999985       3.45973217E-25
  -9.39999962       3.95072906E-25
  -9.39000034       4.47163832E-25
  -9.38000011       5.02374530E-25
  -9.36999989       5.60837456E-25
  -9.35999966       6.22689229E-25
  -9.35000038       6.88070317E-25
  -9.34000015       7.57125376E-25
  -9.32999992       8.30003255E-25
  -9.31999969       9.06857043E-25
  -9.31000042       9.87844067E-25
  -9.30000019       1.07312595E-24
  -9.28999996       1.16286864E-24
  -9.27999973       1.25724283E-24
  -9.27000046       1.35642325E-24
  -9.26000023       1.46058957E-24
  -9.25000000       1.56992530E-24
  -9.23999977       1.68461897E-24
  -9.22999954       1.80486366E-24
  -9.22000027       1.93085717E-24
  -9.21000004       2.06280145E-24
  -9.19999981       2.20090299E-24
  -9.18999958       2.34537360E-24
  -9.18000031       2.49642902E-24
  -9.17000008       2.65428975E-24
  -9.15999985       2.81918081E-24
  -9.14999962       2.99133235E-24
  -9.14000034       3.17097767E-24
  -9.13000011       3.35835561E-24
  -9.11999989       3.55370912E-24
  -9.10999966       3.75728533E-24
  -9.10000038       3.96933587E-24
  -9.09000015       4.19011674E-24
  -9.07999992       4.41988668E-24
  -9.06999969       4.65891035E-24
  -9.06000042       4.90745557E-24
  -9.05000019       5.16579253E-24
  -9.03999996       5.43419732E-24
  -9.02999973       5.71294803E-24
  -9.02000046       6.00232627E-24
  -9.01000023       6.30261722E-24
  -9.00000000       6.61410802E-24
  -8.98999977       6.93708976E-24
  -8.97999954       7.27185472E-24
  -8.97000027       7.61869872E-24
  -8.96000004       7.97791915E-24
  -8.94999981       8.34981500E-24
  -8.93999958       8.73468604E-24
  -8.93000031       9.13283439E-24
  -8.92000008       9.54456141E-24
  -8.90999985       9.97017080E-24
  -8.89999962       1.04099647E-23
  -8.89000034       1.08642460E-23
  -8.88000011       1.13333169E-23
  -8.86999989       1.18174771E-23
  -8.85999966       1.23170257E-23
  -8.85000038       1.28322584E-23
  -8.84000015       1.33634694E-23
  -8.82999992       1.39109499E-23
  -8.81999969       1.44749886E-23
  -8.81000042       1.50558663E-23
  -8.80000019       1.56538608E-23
  -8.78999996       1.62692433E-23
  -8.77999973       1.69022821E-23
  -8.77000046       1.75532327E-23
  -8.76000023       1.82223493E-23
  -8.75000000       1.89098715E-23
  -8.73999977       1.96160314E-23
  -8.72999954       2.03410530E-23
  -8.72000027       2.10851476E-23
  -8.71000004       2.18485141E-23
  -8.69999981       2.26313402E-23
  -8.68999958       2.34337948E-23
  -8.68000031       2.42560371E-23
  -8.67000008       2.50982077E-23
  -8.65999985       2.59604295E-23
  -8.64999962       2.68428098E-23
  -8.64000034       2.77454276E-23
  -8.63000011       2.86683539E-23
  -8.61999989       2.96116327E-23
  -8.60999966       3.05752737E-23
  -8.60000038       3.15592767E-23
  -8.59000015       3.25636070E-23
  -8.57999992       3.35882017E-23
  -8.56999969       3.46329722E-23
  -8.56000042       3.56978019E-23
  -8.55000019       3.67825267E-23
  -8.53999996       3.78869666E-23
  -8.52999973       3.90108915E-23
  -8.52000046       4.01540393E-23
  -8.51000023       4.13161071E-23
  -8.50000000       4.24967511E-23
  -8.48999977       4.36955830E-23
  -8.47999954       4.49121643E-23
  -8.47000027       4.61460153E-23
  -8.46000004       4.73966060E-23
  -8.44999981       4.86633493E-23
  -8.43999958       4.99456049E-23
  -8.43000031       5.12426815E-23
  -8.42000008       5.25538252E-23
  -8.40999985       5.38782090E-23
  -8.39999962       5.52149559E-23
  -8.39000034       5.65631129E-23
  -8.38000011       5.79216639E-23
  -8.36999989       5.92895235E-23
  -8.35999966       6.06655178E-23
  -8.35000038       6.20483972E-23
  -8.34000015       6.34368429E-23
  -8.32999992       6.48294475E-23
  -8.31999969       6.62247152E-23
  -8.31000042       6.76210558E-23
  -8.30000019       6.90167780E-23
  -8.28999996       7.04101209E-23
  -8.27999973       7.17991977E-23
  -8.27000046       7.31820266E-23
  -8.26000023       7.45565253E-23
  -8.25000000       7.59204847E-23
  -8.23999977       7.72716015E-23
  -8.22999954       7.86074396E-23
  -8.22000027       7.99254495E-23
  -8.21000004       8.12229426E-23
  -8.19999981       8.24971171E-23
  -8.18999958       8.37450256E-23
  -8.18000031       8.49635948E-23
  -8.17000008       8.61495936E-23
  -8.15999985       8.72996707E-23
  -8.14999962       8.84102985E-23
  -8.14000034       8.94777977E-23
  -8.13000011       9.04983439E-23
  -8.11999989       9.14679550E-23
  -8.10999966       9.23824656E-23
  -8.10000038       9.32375340E-23
  -8.09000015       9.40286543E-23
  -8.07999992       9.47511436E-23
  -8.06999969       9.54001110E-23
  -8.06000042       9.59704827E-23
  -8.05000019       9.64570016E-23
  -8.03999996       9.68542089E-23
  -8.02999973       9.71564309E-23
  -8.02000046       9.73577924E-23
  -8.01000023       9.74521781E-23
  -8.00000000       9.74332896E-23
  -7.98999977       9.72945763E-23
  -7.98000002       9.70292855E-23
  -7.96999979       9.66303869E-23
  -7.96000004       9.60906420E-23
  -7.94999981       9.54025596E-23
  -7.94000006       9.45583901E-23
  -7.92999983       9.35501438E-23
  -7.92000008       9.23695662E-23
  -7.90999985       9.10081248E-23
  -7.90000010       8.94570223E-23
  -7.88999987       8.77071710E-23
  -7.88000011       8.57492309E-23
  -7.86999989       8.35735651E-23
  -7.86000013       8.11702467E-23
  -7.84999990       7.85290205E-23
  -7.84000015       7.56393788E-23
  -7.82999992       7.24904922E-23
  -7.82000017       6.90712157E-23
  -7.80999994       6.53700759E-23
  -7.80000019       6.13752906E-23
  -7.78999996       5.70747618E-23
  -7.78000021       5.24560474E-23
  -7.76999998       4.75063807E-23
  -7.76000023       4.22126602E-23
  -7.75000000       3.65614342E-23
  -7.73999977       3.05389135E-23
  -7.73000002       2.41309474E-23
  -7.71999979       1.73230352E-23
  -7.71000004       1.01003265E-23
  -7.69999981       2.44759735E-24
  -7.69000006      -5.65073057E-24
  -7.67999983      -1.42106082E-23
  -7.67000008      -2.32483509E-23
  -7.65999985      -3.27806448E-23
  -7.65000010      -4.28245512E-23
  -7.63999987      -5.33975277E-23
  -7.63000011      -6.45174120E-23
  -7.61999989      -7.62023983E-23
  -7.61000013      -8.84710534E-23
  -7.59999990      -1.01342360E-22
  -7.59000015      -1.14835668E-22
  -7.57999992      -1.28970731E-22
  -7.57000017      -1.43767666E-22
  -7.55999994      -1.59246985E-22
  -7.55000019      -1.75429564E-22
  -7.53999996      -1.92336709E-22
  -7.53000021      -2.09990065E-22
  -7.51999998      -2.28411659E-22
  -7.51000023      -2.47623893E-22
  -7.50000000      -2.67649600E-22
  -7.48999977      -2.88511929E-22
  -7.48000002      -3.10234407E-22
  -7.46999979      -3.32840964E-22
  -7.46000004      -3.56355835E-22
  -7.44999981      -3.80803606E-22
  -7.44000006      -4.06209244E-22