  -16.0000000       0.00000000    
  -15.9899998       0.00000000    
  -15.9799995       0.00000000    
  -15.9700003       0.00000000    
  -15.9600000       0.00000000    
  -15.9499998       0.00000000    
  -15.9399996       0.00000000    
  -15.9300003      -4.83457787E-32
  -15.9200001       4.95567241E-30
  -15.9099998       2.87368346E-30
  -15.8999996      -4.98800593E-28
  -15.8900003      -4.92040087E-27
  -15.8800001      -2.71163633E-26
  -15.8699999      -1.09797815E-25
  -15.8599997      -3.79658046E-25
  -15.8500004      -1.25720595E-24
  -15.8400002      -4.18477694E-24
  -15.8299999      -1.35891893E-23
  -15.8199997      -4.07507905E-23
  -15.8100004      -1.08598694E-22
  -15.8000002      -2.51856302E-22
  -15.7900000      -5.00139127E-22
  -15.7799997      -8.28661854E-22
  -15.7700005      -1.07491909E-21
  -15.7600002      -8.63060278E-22
  -15.7500000       3.54226340E-22
  -15.7399998       2.98024996E-21
  -15.7299995       6.59989478E-21
  -15.7200003       9.14838816E-21
  -15.7100000       6.62148952E-21
  -15.6999998      -5.53124447E-21
  -15.6899996      -2.83657648E-20
  -15.6800003      -5.32540752E-20
  -15.6700001      -5.69768081E-20
  -15.6599998      -4.84324185E-21
  -15.6499996       1.30532758E-19
  -15.6400003       3.32563984E-19
  -15.6300001       4.97977204E-19
  -15.6199999       4.19862403E-19
  -15.6099997      -1.57121070E-19
  -15.6000004      -1.37248103E-18
  -15.5900002      -2.99116037E-18
  -15.5799999      -4.15969112E-18
  -15.5699997      -3.39183735E-18
  -15.5600004       9.59429629E-19
  -15.5500002       9.60245105E-18
  -15.5400000       2.07756618E-17
  -15.5299997       2.89940106E-17
  -15.5200005       2.52581006E-17
  -15.5100002      -2.79247354E-20
  -15.5000000      -5.09463484E-17
  -15.4899998      -1.18050122E-16
  -15.4799995      -1.72152776E-16
  -15.4700003      -1.65638881E-16
  -15.4600000      -4.69306281E-17
  -15.4499998       2.10032937E-16
  -15.4399996       5.67436001E-16
  -15.4300003       8.92938533E-16
  -15.4200001       9.61714220E-16
  -15.4099998       5.15821518E-16
  -15.3999996      -6.09686110E-16
  -15.3900003      -2.31651293E-15
  -15.3800001      -4.09359334E-15
  -15.3699999      -4.98877757E-15
  -15.3599997      -3.80671599E-15
  -15.3500004       4.12512827E-16
  -15.3400002       7.69432871E-15
  -15.3299999       1.64308688E-14
  -15.3199997       2.30541836E-14
  -15.3100004       2.25096465E-14
  -15.3000002       9.82996474E-15
  -15.2900000      -1.72535648E-14
  -15.2799997      -5.52912784E-14
  -15.2700005      -9.29269750E-14
  -15.2600002      -1.11167037E-13
  -15.2500000      -8.75674045E-14
  -15.2399998      -4.82811999E-15
  -15.2299995       1.37514024E-13
  -15.2200003       3.11881190E-13
  -15.2100000       4.57501333E-13
  -15.1999998       4.87454098E-13
  -15.1899996       3.12175036E-13
  -15.1800003      -1.21268718E-13
  -15.1700001      -7.82361589E-13
  -15.1599998      -1.51927125E-12
  -15.1499996      -2.05213255E-12
  -15.1400003      -2.01887422E-12
  -15.1300001      -1.08430365E-12
  -15.1199999       8.98252989E-13
  -15.1099997       3.71234337E-12
  -15.1000004       6.65840516E-12
  -15.0900002       8.57059996E-12
  -15.0799999       8.04029673E-12
  -15.0699997       3.86729451E-12
  -15.0600004      -4.32424235E-12
  -15.0500002      -1.54710706E-11
  -15.0400000      -2.67119764E-11
  -15.0299997      -3.35692064E-11
  -15.0200005      -3.08830322E-11
  -15.0100002      -1.45162762E-11
  -15.0000000       1.64575298E-11
  -14.9899998       5.77091569E-11
  -14.9799995       9.86373969E-11
  -14.9700003       1.23299107E-10
  -14.9600000       1.13886386E-10
  -14.9499998       5.66443073E-11
  -14.9399996      -5.08792973E-11
  -14.9300003      -1.93402488E-10
  -14.9200001      -3.35137446E-10
  -14.9099998      -4.23434177E-10
  -14.8999996      -4.00417977E-10
  -14.8900003      -2.21895807E-10
  -14.8800001       1.20232491E-10
  -14.8699999       5.78772530E-10
  -14.8599997       1.04366638E-09
  -14.8500004       1.35380340E-09
  -14.8400002       1.33215505E-09
  -14.8299999       8.41391679E-10
  -14.8199997      -1.51354748E-10
  -14.8100004      -1.51972146E-09
  -14.8000002      -2.95650571E-09
  -14.7900000      -4.00578504E-09
  -14.7799997      -4.15854107E-09
  -14.7700005      -3.00332781E-09
  -14.7600002      -4.01549433E-10
  -14.7500000       3.36261330E-09
  -14.7399998       7.51703055E-09
  -14.7299995       1.08733316E-08
  -14.7200003       1.20603803E-08
  -14.7100000       9.89965621E-09
  -14.6999998       3.84960197E-09
  -14.6899996      -5.60072388E-09
  -14.6800003      -1.67312155E-08
  -14.6700001      -2.67103690E-08
  -14.6599998      -3.21007363E-08
  -14.6499996      -2.97151992E-08
  -14.6400003      -1.76688708E-08
  -14.6300001       3.63604591E-09
  -14.6199999       3.09128154E-08
  -14.6099997       5.80764841E-08
  -14.6000004       7.71890072E-08
  -14.5900002       8.02304783E-08
  -14.5799999       6.14084499E-08
  -14.5699997       1.94791543E-08
  -14.5600004      -4.05917682E-08
  -14.5500002      -1.07288813E-07
  -14.5400000      -1.63977930E-07
  -14.5299997      -1.92169665E-07
  -14.5200005      -1.76167404E-07
  -14.5100002      -1.08149848E-07
  -14.5000000       7.62068009E-09
  -14.4899998       1.52847846E-07
  -14.4799995       2.96598557E-07
  -14.4700003       4.00473027E-07
  -14.4600000       4.27037691E-07
  -14.4499998       3.50005564E-07
  -14.4399996       1.63830435E-07
  -14.4300003      -1.09980469E-07
  -14.4200001      -4.22247069E-07
  -14.4099998      -7.02604837E-07
  -14.3999996      -8.72933981E-07
  -14.3900003      -8.65693437E-07
  -14.3800001      -6.43413955E-07
  -14.3699999      -2.14538773E-07
  -14.3599997       3.59213658E-07
  -14.3500004       9.67536494E-07
  -14.3400002       1.46942159E-06
  -14.3299999       1.72221246E-06
  -14.3199997       1.61655032E-06
  -14.3100004       1.10946587E-06
  -14.3000002       2.46959132E-07
  -14.2900000      -8.31432260E-07
  -14.2799997      -1.91030040E-06
  -14.2700005      -2.73758837E-06
  -14.2600002      -3.07914956E-06
  -14.2500000      -2.77759545E-06
  -14.2399998      -1.80160964E-06
  -14.2299995      -2.72204545E-07
  -14.2200003       1.54383508E-06
  -14.2100000       3.27632438E-06
  -14.1999998       4.52442418E-06
  -14.1899996       4.94611731E-06
  -14.1800003       4.34492586E-06
  -14.1700001       2.73266664E-06
  -14.1599998       3.50408669E-07
  -14.1499996      -2.36204028E-06
  -14.1400003      -4.84630709E-06
  -14.1300001      -6.54125415E-06
  -14.1199999      -7.01034924E-06
  -14.1099997      -6.05151308E-06
  -14.1000004      -3.76193270E-06
  -14.0900002      -5.38847871E-07
  -14.0799999       2.98885629E-06
  -14.0699997       6.08721939E-06
  -14.0600004       8.07620108E-06
  -14.0500002       8.48583932E-06
  -14.0400000       7.17272042E-06
  -14.0299997       4.36711844E-06
  -14.0200005       6.36014647E-07
  -14.0100002      -3.23356039E-06
  -14.0000000      -6.40714552E-06
  -13.9899998      -8.19317484E-06
  -13.9799995      -8.20667083E-06
  -13.9700003      -6.46625085E-06
  -13.9600000      -3.39854910E-06
  -13.9499998       2.54793491E-07
  -13.9399996       3.60918534E-06
  -13.9300003       5.84985082E-06
  -13.9200001       6.43529665E-06
  -13.9099998       5.24124380E-06
  -13.8999996       2.60669299E-06
  -13.8900003      -7.34384571E-07
  -13.8800001      -3.82517283E-06
  -13.8699999      -5.72522868E-06
  -13.8599997      -5.76115008E-06
  -13.8500004      -3.72643831E-06
  -13.8400002       2.36459385E-08
  -13.8299999       4.61447689E-06
  -13.8199997       8.83238317E-06
  -13.8100004       1.14092836E-05
  -13.8000002       1.13491060E-05
  -13.7900000       8.21747290E-06
  -13.7799997       2.31813351E-06
  -13.7700005      -5.29911904E-06
  -13.7600002      -1.30174385E-05
  -13.7500000      -1.89921357E-05
  -13.7399998      -2.15808359E-05
  -13.7299995      -1.97660011E-05
  -13.7200003      -1.34639349E-05
  -13.7100000      -3.63303388E-06
  -13.6999998       7.86346300E-06
  -13.6899996       1.86273228E-05
  -13.6800003       2.62552185E-05
  -13.6700001       2.89096661E-05
  -13.6599998       2.57918200E-05
  -13.6499996       1.73907047E-05
  -13.6400003       5.43054148E-06
  -13.6300001      -7.49113133E-06
  -13.6199999      -1.85030804E-05
  -13.6099997      -2.51599904E-05
  -13.6000004      -2.60685483E-05
  -13.5900002      -2.12732157E-05
  -13.5799999      -1.22858146E-05
  -13.5699997      -1.72812463E-06
  -13.5600004       7.34361993E-06
  -13.5500002       1.22741758E-05
  -13.5400000       1.15920284E-05
  -13.5299997       5.52385836E-06
  -13.5200005      -3.92125776E-06
  -13.5100002      -1.33596313E-05
  -13.5000000      -1.88697613E-05
  -13.4899998      -1.70767544E-05
  -13.4799995      -6.22148445E-06
  -13.4700003       1.30689878E-05
  -13.4600000       3.75432901E-05
  -13.4499998       6.17402329E-05
  -13.4399996       7.90236081E-05
  -13.4300003       8.30477948E-05
  -13.4200001       6.93418260E-05
  -13.4099998       3.66427848E-05
  -13.3999996      -1.23620712E-05
  -13.3900003      -7.11139801E-05
  -13.3800001      -1.30137618E-04
  -13.3699999      -1.78729955E-04
  -13.3599997      -2.07062476E-04
  -13.3500004      -2.08261263E-04
  -13.3400002      -1.80007555E-04
  -13.3299999      -1.25281455E-04
  -13.3199997      -5.20410467E-05
  -13.3100004       2.81466164E-05
  -13.3000002       1.02275895E-04
  -13.2900000       1.58442315E-04
  -13.2799997       1.88222941E-04
  -13.2700005       1.88384569E-04
  -13.2600002       1.61537391E-04
  -13.2500000       1.15569121E-04
  -13.2399998       6.19561324E-05
  -13.2299995       1.32950372E-05
  -13.2200003      -1.94232143E-05
  -13.2100000      -2.92061741E-05
  -13.1999998      -1.45889189E-05
  -13.1899996       2.00530794E-05
  -13.1800003       6.54984615E-05
  -13.1700001       1.09785018E-04
  -13.1599998       1.40976073E-04
  -13.1499996       1.49979125E-04
  -13.1400003       1.32779271E-04
  -13.1300001       9.15620330E-05
  -13.1199999       3.44337896E-05
  -13.1099997      -2.62460107E-05
  -13.1000004      -7.65929581E-05
  -13.0900002      -1.04407161E-04
  -13.0799999      -1.02154088E-04
  -13.0699997      -6.90294328E-05
  -13.0600004      -1.15977900E-05
  -13.0500002       5.72082063E-05
  -13.0400000       1.20585639E-04
  -13.0299997       1.61375996E-04
  -13.0200005       1.65872640E-04
  -13.0100002       1.27103674E-04
  -13.0000000       4.68541293E-05
  -12.9899998      -6.40640937E-05
  -12.9799995      -1.87428843E-04
  -12.9700003      -3.00849613E-04
  -12.9600000      -3.82024329E-04
  -12.9499998      -4.13172995E-04
  -12.9399996      -3.84755025E-04
  -12.9300003      -2.97705061E-04
  -12.9200001      -1.63710007E-04
  -12.9099998      -3.43410238E-06
  -12.8999996       1.56996219E-04
  -12.8900003       2.90595548E-04
  -12.8800001       3.74348194E-04
  -12.8699999       3.93358961E-04
  -12.8599997       3.43556458E-04
  -12.8500004       2.32455874E-04
  -12.8400002       7.78540561E-05
  -12.8299999      -9.52892442E-05
  -12.8199997      -2.59202177E-04
  -12.8100004      -3.88087268E-04
  -12.8000002      -4.62480471E-04
  -12.7900000      -4.72412590E-04
  -12.7799997      -4.18831158E-04
  -12.7700005      -3.13066150E-04
  -12.7600002      -1.74483313E-04
  -12.7500000      -2.67972846E-05
  -12.7399998       1.06245097E-04
  -12.7299995       2.05000149E-04
  -12.7200003       2.57124862E-04
  -12.7100000       2.59280554E-04
  -12.6999998       2.17092791E-04
  -12.6899996       1.43466284E-04
  -12.6800003       5.56712403E-05
  -12.6700001      -2.81607718E-05
  -12.6599998      -9.24149354E-05
  -12.6499996      -1.26605417E-04
  -12.6400003      -1.26788218E-04
  -12.6300001      -9.56241056E-05
  -12.6199999      -4.12292902E-05
  -12.6099997       2.48230353E-05
  -12.6000004       8.98694343E-05
  -12.5900002       1.42416073E-04
  -12.5799999       1.73923210E-04
  -12.5699997       1.79908355E-04
  -12.5600004       1.60326657E-04
  -12.5500002       1.19307835E-04
  -12.5400000       6.43871972E-05
  -12.5299997       5.37075493E-06
  -12.5200005      -4.70489431E-05
  -12.5100002      -8.28232223E-05
  -12.5000000      -9.41005201E-05
  -12.4899998      -7.66249141E-05
  -12.4799995      -3.07403316E-05
  -12.4700003       3.82644394E-05
  -12.4600000       1.20683158E-04
  -12.4499998       2.03858028E-04
  -12.4399996       2.74426071E-04
  -12.4300003       3.20945750E-04
  -12.4200001       3.36321682E-04
  -12.4099998       3.19401472E-04
  -12.3999996       2.75256345E-04
  -12.3900003       2.13961684E-04
  -12.3800001       1.48095874E-04
  -12.3699999       8.95587364E-05
  -12.3599997       4.65535704E-05
  -12.3500004       2.15875116E-05
  -12.3400002       1.10999063E-05
  -12.3299999       6.88348609E-06
  -12.3199997      -1.05802064E-06
  -12.3100004      -2.10133894E-05
  -12.3000002      -5.64480579E-05
  -12.2900000      -1.04214741E-04
  -12.2799997      -1.54678986E-04
  -12.2700005      -1.93809014E-04
  -12.2600002      -2.06716722E-04
  -12.2500000      -1.81717609E-04
  -12.2399998      -1.13824892E-04
  -12.2299995      -6.74732837E-06
  -12.2200003       1.27131614E-04
  -12.2100000       2.68781645E-04
  -12.1999998       3.96046118E-04
  -12.1899996       4.87807847E-04
  -12.1800003       5.27867523E-04
  -12.1700001       5.07759105E-04
  -12.1599998       4.28050087E-04
  -12.1499996       2.98052735E-04
  -12.1400003       1.34189817E-04
  -12.1300001      -4.25538892E-05
  -12.1199999      -2.09619146E-04
  -12.1099997      -3.45886830E-04
  -12.1000004      -4.34408459E-04
  -12.0900002      -4.64623037E-04
  -12.0799999      -4.33864130E-04
  -12.0699997      -3.47960216E-04
  -12.0600004      -2.20743997E-04
  -12.0500002      -7.23616104E-05
  -12.0400000       7.35571521E-05
  -12.0299997       1.93566462E-04
  -12.0200005       2.68353353E-04
  -12.0100002       2.86234921E-04
  -12.0000000       2.45452364E-04
  -11.9899998       1.54689842E-04
  -11.9799995       3.16005171E-05
  -11.9700003      -1.00431454E-04
  -11.9600000      -2.16646906E-04
  -11.9499998      -2.95470993E-04
  -11.9399996      -3.22320353E-04
  -11.9300003      -2.91899400E-04
  -11.9200001      -2.08602534E-04
  -11.9099998      -8.50871365E-05
  -11.8999996       6.05240130E-05
  -11.8900003       2.08106736E-04
  -11.8800001       3.38910351E-04
  -11.8699999       4.38218529E-04
  -11.8599997       4.96918452E-04
  -11.8500004       5.11885795E-04
  -11.8400002       4.85338416E-04
  -11.8299999       4.23477642E-04
  -11.8199997       3.34801967E-04
  -11.8100004       2.28468518E-04
  -11.8000002       1.13007372E-04
  -11.7900000      -4.41023349E-06
  -11.7799997      -1.18077645E-04
  -11.7700005      -2.23303941E-04
  -11.7600002      -3.15626850E-04
  -11.7500000      -3.90020345E-04
  -11.7399998      -4.40476637E-04
  -11.7299995      -4.60282725E-04
  -11.7200003      -4.43127559E-04
  -11.7100000      -3.84896237E-04
  -11.6999998      -2.85707007E-04
  -11.6899996      -1.51527711E-04
  -11.6800003       5.32281592E-06
  -11.6700001       1.67274047E-04
  -11.6599998       3.14260513E-04
  -11.6499996       4.27656749E-04
  -11.6400003       4.94438049E-04
  -11.6300001       5.10383514E-04
  -11.6199999       4.81268391E-04
  -11.6099997       4.21489996E-04
  -11.6000004       3.50313203E-04
  -11.5900002       2.86679162E-04
  -11.5799999       2.44044189E-04
  -11.5699997       2.26801552E-04
  -11.5600004       2.29428711E-04
  -11.5500002       2.38697277E-04
  -11.5400000       2.38330715E-04
  -11.5299997       2.14703890E-04
  -11.5200005       1.61817923E-04
  -11.5100002       8.39832210E-05
  -11.5000000      -4.65305811E-06
  -11.4899998      -8.36202889E-05
  -11.4799995      -1.31631430E-04
  -11.4700003      -1.32455592E-04
  -11.4600000      -7.94767839E-05
  -11.4499998       2.22675280E-05
  -11.4399996       1.56962982E-04
  -11.4300003       3.01345513E-04
  -11.4200001       4.29396896E-04
  -11.4099998       5.17128385E-04
  -11.3999996       5.46405616E-04
  -11.3900003       5.07282501E-04
  -11.3800001       3.98863835E-04
  -11.3699999       2.29078360E-04
  -11.3599997       1.37989473E-05
  -11.3500004      -2.24473901E-04
  -11.3400002      -4.58468829E-04
  -11.3299999      -6.58844889E-04
  -11.3199997      -7.97954446E-04
  -11.3100004      -8.54481361E-04
  -11.3000002      -8.18194007E-04
  -11.2900000      -6.93563954E-04
  -11.2799997      -5.00876107E-04
  -11.2700005      -2.73850223E-04
  -11.2600002      -5.36798834E-05
  -11.2500000       1.19486533E-04
  -11.2399998       2.15625681E-04
  -11.2299995       2.22037168E-04
  -11.2200003       1.46531311E-04
  -11.2100000       1.55151574E-05
  -11.1999998      -1.32649991E-04
  -11.1899996      -2.57228327E-04
  -11.1800003      -3.24948574E-04
  -11.1700001      -3.17383005E-04
  -11.1599998      -2.33973726E-04
  -11.1499996      -9.02266547E-05
  -11.1400003       8.79027284E-05
  -11.1300001       2.71334313E-04
  -11.1199999       4.34514775E-04
  -11.1099997       5.59570151E-04
  -11.1000004       6.37282734E-04
  -11.0900002       6.65476196E-04
  -11.0799999       6.46275003E-04
  -11.0699997       5.83869813E-04
  -11.0600004       4.83853684E-04
  -11.0500002       3.54171672E-04
  -11.0400000       2.06725657E-04
  -11.0299997       5.81626336E-05
  -11.0200005      -7.13927730E-05
  -11.0100002      -1.61991426E-04
  -11.0000000      -1.99019298E-04
  -10.9899998      -1.78015820E-04
  -10.9799995      -1.07048174E-04
  -10.9700003      -5.19889454E-06
  -10.9600000       1.02882106E-04
  -10.9499998       1.94800756E-04
  -10.9399996       2.57890846E-04
  -10.9300003       2.93425604E-04
  -10.9200001       3.15641722E-04
  -10.9099998       3.45514418E-04
  -10.8999996       4.01303085E-04
  -10.8900003       4.89369151E-04
  -10.8800001       5.99000079E-04
  -10.8699999       7.03748141E-04
  -10.8599997       7.69469305E-04
  -10.8500004       7.66633253E-04
  -10.8400002       6.82569109E-04
  -10.8299999       5.28913573E-04
  -10.8199997       3.40902450E-04
  -10.8100004       1.67924125E-04
  -10.8000002       5.79704574E-05
  -10.7900000       4.11053734E-05
  -10.7799997       1.17839671E-04
  -10.7700005       2.56951782E-04
  -10.7600002       4.04198305E-04
  -10.7500000       4.99548274E-04
  -10.7399998       4.97408037E-04
  -10.7299995       3.82960949E-04
  -10.7200003       1.78799572E-04
  -10.7100000      -6.08110931E-05
  -10.6999998      -2.66482646E-04
  -10.6899996      -3.75720207E-04
  -10.6800003      -3.53062554E-04
  -10.6700001      -2.01545510E-04
  -10.6599998       3.83714942E-05
  -10.6499996       3.01958818E-04
  -10.6400003       5.20824222E-04
  -10.6300001       6.43823529E-04
  -10.6199999       6.51149428E-04
  -10.6099997       5.57041494E-04
  -10.6000004       4.00731165E-04
  -10.5900002       2.29491576E-04
  -10.5799999       8.04355877E-05
  -10.5699997      -3.20066065E-05
  -10.5600004      -1.18303426E-04
  -10.5500002      -2.05131262E-04
  -10.5400000      -3.19425308E-04
  -10.5299997      -4.71690611E-04
  -10.5200005      -6.45498687E-04
  -10.5100002      -7.97866029E-04
  -10.5000000      -8.71144410E-04
  -10.4899998      -8.12657294E-04
  -10.4799995      -5.95220074E-04
  -10.4700003      -2.31048660E-04
  -10.4600000       2.26334334E-04
  -10.4499998       6.93497714E-04
  -10.4399996       1.07849331E-03
  -10.4300003       1.30546070E-03
  -10.4200001       1.33457477E-03
  -10.4099998       1.17113569E-03
  -10.3999996       8.61375243E-04
  -10.3900003       4.77062451E-04
  -10.3800001       9.45932043E-05
  -10.3699999      -2.24316536E-04
  -10.3599997      -4.44370729E-04
  -10.3500004      -5.58123109E-04
  -10.3400002      -5.78343926E-04
  -10.3299999      -5.25796320E-04
  -10.3199997      -4.18161362E-04
  -10.3100004      -2.64753442E-04
  -10.3000002      -6.87262145E-05
  -10.2900000       1.65067861E-04
  -10.2799997       4.21078614E-04
  -10.2700005       6.68138964E-04
  -10.2600002       8.62262270E-04
  -10.2500000       9.57526674E-04
  -10.2399998       9.21770930E-04
  -10.2299995       7.51282962E-04
  -10.2200003       4.78314410E-04
  -10.2100000       1.67369028E-04
  -10.1999998      -9.99104232E-05
  -10.1899996      -2.47203832E-04
  -10.1800003      -2.26283402E-04
  -10.1700001      -3.24850989E-05
  -10.1599998       2.92563695E-04
  -10.1499996       6.72226073E-04
  -10.1400003       1.01668865E-03
  -10.1300001       1.24831486E-03
  -10.1199999       1.32236467E-03
  -10.1099997       1.23665307E-03
  -10.1000004       1.02767115E-03
  -10.0900002       7.55411049E-04
  -10.0799999       4.82895644E-04
  -10.0699997       2.57880514E-04
  -10.0600004       1.02868034E-04
  -10.0500002       1.60355739E-05
  -10.0400000      -1.86806901E-05
  -10.0299997      -1.75954738E-05
  -10.0200005       1.40847578E-05
  -10.0100002       8.58408457E-05
  -10.0000000       2.15979191E-04
  -9.98999977       4.18856449E-04
  -9.97999954       6.90916611E-04
  -9.97000027       1.00216130E-03
  -9.96000004       1.29783270E-03
  -9.94999981       1.51116296E-03
  -9.93999958       1.58352347E-03
  -9.93000031       1.48496777E-03
  -9.92000008       1.22737791E-03
  -9.90999985       8.64630623E-04
  -9.89999962       4.78675007E-04
  -9.89000034       1.55559013E-04
  -9.88000011      -4.06769068E-05
  -9.86999989      -8.72117380E-05
  -9.85999966      -7.91568800E-06
  -9.85000038       1.36997420E-04
  -9.84000015       2.73568759E-04
  -9.82999992       3.40906670E-04
  -9.81999969       3.12575925E-04
  -9.81000042       2.04842610E-04
  -9.80000019       6.88374930E-05
  -9.78999996      -3.03724155E-05
  -9.77999973      -3.99259625E-05
  -9.77000046       5.93588993E-05
  -9.76000023       2.44398747E-04
  -9.75000000       4.57591494E-04
  -9.73999977       6.28195354E-04
  -9.72999954       6.99401658E-04
  -9.72000027       6.50815899E-04
  -9.71000004       5.07548626E-04
  -9.69999981       3.31964577E-04
  -9.68999958       2.00601018E-04
  -9.68000031       1.74475965E-04
  -9.67000008       2.73802230E-04
  -9.65999985       4.66891186E-04
  -9.64999962       6.78121811E-04
  -9.64000034       8.12982034E-04
  -9.63000011       7.91835366E-04
  -9.61999989       5.80564432E-04
  -9.60999966       2.06943572E-04
  -9.60000038      -2.43677554E-04
  -9.59000015      -6.52654213E-04
  -9.57999992      -9.04537912E-04
  -9.56999969      -9.23614134E-04
  -9.56000042      -6.98139367E-04
  -9.55000019      -2.84055917E-04
  -9.53999996       2.13030493E-04
  -9.52999973       6.71409070E-04
  -9.52000046       9.90936416E-04
  -9.51000023       1.12218829E-03
  -9.50000000       1.07764069E-03
  -9.48999977       9.21824132E-04
  -9.47999954       7.44704739E-04
  -9.47000027       6.28181384E-04
  -9.46000004       6.17611688E-04
  -9.44999981       7.08066567E-04
  -9.43999958       8.49460077E-04
  -9.43000031       9.67885018E-04
  -9.42000008       9.94849950E-04
  -9.40999985       8.93635675E-04
  -9.39999962       6.73442031E-04
  -9.39000034       3.86714673E-04
  -9.38000011       1.11221685E-04
  -9.36999989      -7.61823248E-05
  -9.35999966      -1.24509708E-04
  -9.35000038      -2.36188989E-05
  -9.34000015       1.95490211E-04
  -9.32999992       4.74282366E-04
  -9.31999969       7.48469203E-04
  -9.31000042       9.69624729E-04
  -9.30000019       1.11884275E-03
  -9.28999996       1.20802154E-03
  -9.27999973       1.26918964E-03
  -9.27000046       1.33673334E-03
  -9.26000023       1.42981613E-03
  -9.25000000       1.54190022E-03
  -9.23999977       1.64133625E-03
  -9.22999954       1.68269500E-03
  -9.22000027       1.62449211E-03
  -9.21000004       1.44667248E-03
  -9.19999981       1.16143411E-03
  -9.18999958       8.13479302E-04
  -9.18000031       4.69583349E-04
  -9.17000008       2.01024188E-04
  -9.15999985       6.46560293E-05
  -9.14999962       8.85317568E-05
  -9.14000034       2.66111485E-04
  -9.13000011       5.60044835E-04
  -9.11999989       9.13450087E-04
  -9.10999966       1.26458507E-03
  -9.10000038       1.56037626E-03
  -9.09000015       1.76538806E-03
  -9.07999992       1.86483166E-03
  -9.06999969       1.86229905E-03
  -9.06000042       1.77430734E-03
  -9.05000019       1.62407581E-03
  -9.03999996       1.43636169E-03
  -9.02999973       1.23410730E-03
  -9.02000046       1.03667530E-03
  -9.01000023       8.58980347E-04
  -9.00000000       7.10964610E-04
  -8.98999977       5.97354025E-04
  -8.97999954       5.18088287E-04
  -8.97000027       4.69876628E-04
  -8.96000004       4.48895968E-04
  -8.94999981       4.53916786E-04
  -8.93999958       4.88527759E-04
  -8.93000031       5.61055087E-04
  -8.92000008       6.81427831E-04
  -8.90999985       8.55469843E-04
  -8.89999962       1.07843464E-03
  -8.89000034       1.33043109E-03
  -8.88000011       1.57624262E-03
  -8.86999989       1.77080033E-03
  -8.85999966       1.86958478E-03
  -8.85000038       1.84121763E-03
  -8.84000015       1.67826668E-03
  -8.82999992       1.40239403E-03
  -8.81999969       1.06153451E-03
  -8.81000042       7.19315023E-04
  -8.80000019       4.39565192E-04
  -8.78999996       2.70547782E-04
  -8.77999973       2.33748928E-04
  -8.77000046       3.20619351E-04
  -8.76000023       4.98002802E-04
  -8.75000000       7.20103562E-04
  -8.73999977       9.42743092E-04
  -8.72999954       1.13509689E-03
  -8.72000027       1.28527277E-03
  -8.71000004       1.39850506E-03
  -8.69999981       1.48947979E-03
  -8.68999958       1.57234247E-03
  -8.68000031       1.65255438E-03
  -8.67000008       1.72375795E-03
  -8.65999985       1.77065516E-03
  -8.64999962       1.77645066E-03
  -8.64000034       1.73162483E-03
  -8.63000011       1.64033321E-03
  -8.61999989       1.52173103E-03
  -8.60999966       1.40552933E-03
  -8.60000038       1.32330845E-03
  -8.59000015       1.29870407E-03
  -8.57999992       1.33994804E-03
  -8.56999969       1.43732643E-03
  -8.56000042       1.56631041E-03
  -8.55000019       1.69515656E-03
  -8.53999996       1.79435802E-03
  -8.52999973       1.84494013E-03
  -8.52000046       1.84324186E-03
  -8.51000023       1.80116063E-03
  -8.50000000       1.74230093E-03
  -8.48999977       1.69553561E-03
  -8.47999954       1.68787153E-03
  -8.47000027       1.73824804E-03
  -8.46000004       1.85330014E-03
  -8.44999981       2.02549947E-03
  -8.43999958       2.23370711E-03
  -8.43000031       2.44606333E-03
  -8.42000008       2.62508471E-03
  -8.40999985       2.73462688E-03
  -8.39999962       2.74787331E-03
  -8.39000034       2.65480671E-03
  -8.38000011       2.46708724E-03
  -8.36999989       2.21829070E-03
  -8.35999966       1.95832923E-03
  -8.35000038       1.74251769E-03
  -8.34000015       1.61770382E-03
  -8.32999992       1.60938292E-03
  -8.31999969       1.71407836E-03
  -8.31000042       1.90007931E-03
  -8.30000019       2.11706851E-03
  -8.28999996       2.31206394E-03
  -8.27999973       2.44654086E-03
  -8.27000046       2.50871200E-03
  -8.26000023       2.51621241E-03
  -8.25000000       2.50767451E-03
  -8.23999977       2.52576987E-03
  -8.22999954       2.59776367E-03
  -8.22000027       2.72107869E-03
  -8.21000004       2.86001153E-03
  -8.19999981       2.95592565E-03
  -8.18999958       2.94819591E-03
  -8.18000031       2.79879547E-03
  -8.17000008       2.51140003E-03
  -8.15999985       2.13720766E-03
  -8.14999962       1.76404009E-03
  -8.14000034       1.49125594E-03
  -8.13000011       1.39839866E-03
  -8.11999989       1.51828246E-03
  -8.10999966       1.82419340E-03
  -8.10000038       2.23626173E-03
  -8.09000015       2.64543621E-03
  -8.07999992       2.94722314E-03
  -8.06999969       3.07376659E-03
  -8.06000042       3.01333354E-03
  -8.05000019       2.81070732E-03
  -8.03999996       2.54881475E-03
  -8.02999973       2.31858203E-03
  -8.02000046       2.18810001E-03
  -8.01000023       2.18210975E-03
  -8.00000000       2.27868836E-03
  -7.98999977       2.42339377E-03
  -7.98000002       2.55451608E-03
  -7.96999979       2.62906333E-03
  -7.96000004       2.63915514E-03
  -7.94999981       2.61259242E-03
  -7.94000006       2.59785331E-03
  -7.92999983       2.64010089E-03
  -7.92000008       2.75842659E-03
  -7.90999985       2.93409382E-03
  -7.90000010       3.11510614E-03
  -7.88999987       3.23577132E-03
  -7.88000011       3.24372109E-03
  -7.86999989       3.12353089E-03
  -7.86000013       2.90708733E-03
  -7.84999990       2.66583823E-03
  -7.84000015       2.48710951E-03
  -7.82999992       2.44304026E-03
  -7.82000017       2.56385840E-03
  -7.80999994       2.82584690E-03
  -7.80000019       3.15892440E-03
  -7.78999996       3.47132166E-03
  -7.78000021       3.68224876E-03
  -7.76999998       3.75031075E-03
  -7.76000023       3.68700875E-03
  -7.75000000       3.55033204E-03
  -7.73999977       3.42110032E-03
  -7.73000002       3.37134325E-03
  -7.71999979       3.43701779E-03
  -7.71000004       3.60559369E-03
  -7.69999981       3.82312387E-03
  -7.69000006       4.01770137E-03
  -7.67999983       4.12972411E-03
  -7.67000008       4.13666479E-03
  -7.65999985       4.06223396E-03
  -7.65000010       3.96606466E-03
  -7.63999987       3.91794322E-03
  -7.63000011       3.96695826E-03
  -7.61999989       4.11829120E-03
  -7.61000013       4.32759617E-03
  -7.59999990       4.51610330E-03
  -7.59000015       4.60132817E-03
  -7.57999992       4.53172857E-03
  -7.57000017       4.31162445E-03
  -7.55999994       4.00589453E-03
  -7.55000019       3.72142275E-03
  -7.53999996       3.57117481E-03
  -7.53000021       3.63367167E-03
  -7.51999998       3.92284663E-03
  -7.51000023       4.37984848E-03
  -7.50000000       4.89046238E-03
  -7.48999977       5.32240188E-03
  -7.48000002       5.56927174E-03
  -7.46999979       5.58541156E-03
  -7.46000004       5.39907208E-03
  -7.44999981       5.09932684E-03
  -7.44000006       4.80181444E-03