  -16.0000000       0.00000000    
  -15.9899998       0.00000000    
  -15.9799995       0.00000000    
  -15.9700003       0.00000000    
  -15.9600000      -6.77924391E-29
  -15.9499998      -4.76222591E-15
  -15.9399996      -4.11507647E-14
  -15.9300003      -1.54265327E-13
  -15.9200001      -2.22613526E-13
  -15.9099998       6.98924967E-13
  -15.8999996       5.65389098E-12
  -15.8900003       2.10311022E-11
  -15.8800001       5.56537316E-11
  -15.8699999       1.14200358E-10
  -15.8599997       1.81991158E-10
  -15.8500004       2.02790895E-10
  -15.8400002       6.07182915E-11
  -15.8299999      -4.11218337E-10
  -15.8199997      -1.36756562E-09
  -15.8100004      -2.81375723E-09
  -15.8000002      -4.41302062E-09
  -15.7900000      -5.31077626E-09
  -15.7799997      -4.11081924E-09
  -15.7700005       8.35923331E-10
  -15.7600002       1.07206164E-08
  -15.7500000       2.51920191E-08
  -15.7399998       4.11963725E-08
  -15.7299995       5.23048058E-08
  -15.7200003       4.92370020E-08
  -15.7100000       2.21622471E-08
  -15.6999998      -3.51428113E-08
  -15.6899996      -1.20045286E-07
  -15.6800003      -2.16449024E-07
  -15.6700001      -2.93258921E-07
  -15.6599998      -3.08307705E-07
  -15.6499996      -2.19017053E-07
  -15.6400003       1.15184351E-09
  -15.6300001       3.44253522E-07
  -15.6199999       7.53759991E-07
  -15.6099997       1.12220130E-06
  -15.6000004       1.30646549E-06
  -15.5900002       1.16231217E-06
  -15.5799999       5.93060747E-07
  -15.5699997      -3.99623758E-07
  -15.5600004      -1.67985081E-06
  -15.5500002      -2.97382894E-06
  -15.5400000      -3.90984587E-06
  -15.5299997      -4.10172197E-06
  -15.5200005      -3.26080749E-06
  -15.5100002      -1.30812543E-06
  -15.5000000       1.54877011E-06
  -15.4899998       4.80637209E-06
  -15.4799995       7.74062937E-06
  -15.4700003       9.56107306E-06
  -15.4600000       9.61159640E-06
  -15.4499998       7.56576173E-06
  -15.4399996       3.55807947E-06
  -15.4300003      -1.79576296E-06
  -15.4200001      -7.50850995E-06
  -15.4099998      -1.24416219E-05
  -15.3999996      -1.55808630E-05
  -15.3900003      -1.62895467E-05
  -15.3800001      -1.44624637E-05
  -15.3699999      -1.05293348E-05
  -15.3599997      -5.30160560E-06
  -15.3500004       2.92667238E-07
  -15.3400002       5.50070217E-06
  -15.3299999       9.96321796E-06
  -15.3199997       1.37759762E-05
  -15.3100004       1.73589397E-05
  -15.3000002       2.11618808E-05
  -15.2900000       2.52972113E-05
  -15.2799997       2.92296882E-05
  -15.2700005       3.16534133E-05
  -15.2600002       3.06448419E-05
  -15.2500000       2.41052294E-05
  -15.2399998       1.04157616E-05
  -15.2299995      -1.08501590E-05
  -15.2200003      -3.83575170E-05
  -15.2100000      -6.87763240E-05
  -15.1999998      -9.70169931E-05
  -15.1899996      -1.16963092E-04
  -15.1800003      -1.22606783E-04
  -15.1700001      -1.09377514E-04
  -15.1599998      -7.53802960E-05
  -15.1499996      -2.22459603E-05
  -15.1400003       4.46467748E-05
  -15.1300001       1.16696749E-04
  -15.1199999       1.83311422E-04
  -15.1099997       2.33635918E-04
  -15.1000004       2.58442247E-04
  -15.0900002       2.51784280E-04
  -15.0799999       2.12061612E-04
  -15.0699997       1.42266683E-04
  -15.0600004       4.93868465E-05
  -15.0500002      -5.68531250E-05
  -15.0400000      -1.65555713E-04
  -15.0299997      -2.66103336E-04
  -15.0200005      -3.49145674E-04
  -15.0100002      -4.06955427E-04
  -15.0000000      -4.33243637E-04
  -14.9899998      -4.22765675E-04
  -14.9799995      -3.71179747E-04
  -14.9700003      -2.75571627E-04
  -14.9600000      -1.35815659E-04
  -14.9499998       4.34368121E-05
  -14.9399996       2.50750862E-04
  -14.9300003       4.66759171E-04
  -14.9200001       6.64746913E-04
  -14.9099998       8.13517603E-04
  -14.8999996       8.82469467E-04
  -14.8900003       8.48064723E-04
  -14.8800001       7.00223027E-04
  -14.8699999       4.46860417E-04
  -14.8599997       1.14991453E-04
  -14.8500004      -2.52463593E-04
  -14.8400002      -6.03921770E-04
  -14.8299999      -8.89000657E-04
  -14.8199997      -1.06867321E-03
  -14.8100004      -1.12308725E-03
  -14.8000002      -1.05488836E-03
  -14.7900000      -8.87038070E-04
  -14.7799997      -6.55665586E-04
  -14.7700005      -3.99966520E-04
  -14.7600002      -1.52103137E-04
  -14.7500000       6.98735093E-05
  -14.7399998       2.63940805E-04
  -14.7299995       4.40321106E-04
  -14.7200003       6.13298093E-04
  -14.7100000       7.91427155E-04
  -14.6999998       9.69577406E-04
  -14.6899996       1.12578401E-03
  -14.6800003       1.22442306E-03
  -14.6700001       1.22518477E-03
  -14.6599998       1.09535491E-03
  -14.6499996       8.21666094E-04
  -14.6400003       4.17888659E-04
  -14.6300001      -7.45314028E-05
  -14.6199999      -5.93433448E-04
  -14.6099997      -1.06882956E-03
  -14.6000004      -1.43818744E-03
  -14.5900002      -1.65978912E-03
  -14.5799999      -1.72039180E-03
  -14.5699997      -1.63514330E-03
  -14.5600004      -1.44007034E-03
  -14.5500002      -1.17970339E-03
  -14.5400000      -8.93826247E-04
  -14.5299997      -6.07474998E-04
  -14.5200005      -3.27147805E-04
  -14.5100002      -4.40912772E-05
  -14.5000000       2.56792642E-04
  -14.4899998       5.85688045E-04
  -14.4799995       9.38244280E-04
  -14.4700003       1.29100028E-03
  -14.4600000       1.60358555E-03
  -14.4499998       1.82721962E-03
  -14.4399996       1.91699737E-03
  -14.4300003       1.84424268E-03
  -14.4200001       1.60518044E-03
  -14.4099998       1.22331583E-03
  -14.3999996       7.44823832E-04
  -14.3900003       2.28326360E-04
  -14.3800001      -2.67961121E-04
  -14.3699999      -6.98071148E-04
  -14.3599997      -1.03591778E-03
  -14.3500004      -1.27688574E-03
  -14.3400002      -1.43338379E-03
  -14.3299999      -1.52612012E-03
  -14.3199997      -1.57402083E-03
  -14.3100004      -1.58597692E-03
  -14.3000002      -1.55693700E-03
  -14.2900000      -1.46949547E-03
  -14.2799997      -1.30047894E-03
  -14.2700005      -1.03055453E-03
  -14.2600002      -6.53990835E-04
  -14.2500000      -1.85609606E-04
  -14.2399998       3.37318314E-04
  -14.2299995       8.59141175E-04
  -14.2200003       1.31517416E-03
  -14.2100000       1.64419669E-03
  -14.1999998       1.80105644E-03
  -14.1899996       1.76621054E-03
  -14.1800003       1.54974603E-03
  -14.1700001       1.18882081E-03
  -14.1599998       7.39194744E-04
  -14.1499996       2.63117021E-04
  -14.1400003      -1.83162425E-04
  -14.1300001      -5.58902568E-04
  -14.1199999      -8.42958107E-04
  -14.1099997      -1.03168620E-03
  -14.1000004      -1.13189942E-03
  -14.0900002      -1.15175371E-03
  -14.0799999      -1.09322299E-03
  -14.0699997      -9.49365320E-04
  -14.0600004      -7.07947358E-04
  -14.0500002      -3.60658858E-04
  -14.0400000       8.51677105E-05
  -14.0299997       5.96868165E-04
  -14.0200005       1.11331558E-03
  -14.0100002       1.55122764E-03
  -14.0000000       1.82089920E-03
  -13.9899998       1.84805552E-03
  -13.9799995       1.59592880E-03
  -13.9700003       1.08071824E-03
  -13.9600000       3.74799041E-04
  -13.9499998      -4.04790626E-04
  -13.9399996      -1.12079154E-03
  -13.9300003      -1.64723489E-03
  -13.9200001      -1.89962192E-03
  -13.9099998      -1.85526267E-03
  -13.8999996      -1.55777193E-03
  -13.8900003      -1.10416149E-03
  -13.8800001      -6.18029677E-04
  -13.8699999      -2.16444663E-04
  -13.8599997       2.00475661E-05
  -13.8500004       6.58958816E-05
  -13.8400002      -4.73061082E-05
  -13.8299999      -2.44793482E-04
  -13.8199997      -4.33712208E-04
  -13.8100004      -5.31195314E-04
  -13.8000002      -4.86882549E-04
  -13.7900000      -2.93616875E-04
  -13.7799997       1.57865561E-05
  -13.7700005       3.83208739E-04
  -13.7600002       7.45362195E-04
  -13.7500000       1.05217297E-03
  -13.7399998       1.27748598E-03
  -13.7299995       1.41943409E-03
  -13.7200003       1.49180414E-03
  -13.7100000       1.51099358E-03
  -13.6999998       1.48453424E-03
  -13.6899996       1.40622514E-03
  -13.6800003       1.26006082E-03
  -13.6700001       1.03147887E-03
  -13.6599998       7.21333257E-04
  -13.6499996       3.56601988E-04
  -13.6400003      -7.31514365E-06
  -13.6300001      -2.95047823E-04
  -13.6199999      -4.29006672E-04
  -13.6099997      -3.51545023E-04
  -13.6000004      -4.47553393E-05
  -13.5900002       4.58549068E-04
  -13.5799999       1.07666419E-03
  -13.5699997       1.69386959E-03
  -13.5600004       2.18471908E-03
  -13.5500002       2.44139181E-03
  -13.5400000       2.39696191E-03
  -13.5299997       2.03877920E-03
  -13.5200005       1.40907255E-03
  -13.5100002       5.93462726E-04
  -13.5000000      -2.98833766E-04
  -13.4899998      -1.15754886E-03
  -13.4799995      -1.89101638E-03
  -13.4700003      -2.43875920E-03
  -13.4600000      -2.77523347E-03
  -13.4499998      -2.90548825E-03
  -13.4399996      -2.85544386E-03
  -13.4300003      -2.66040466E-03
  -13.4200001      -2.35520978E-03
  -13.4099998      -1.96833583E-03
  -13.3999996      -1.52073859E-03
  -13.3900003      -1.02872087E-03
  -13.3800001      -5.09014993E-04
  -13.3699999       1.62083979E-05
  -13.3599997       5.16530126E-04
  -13.3500004       9.54077637E-04
  -13.3400002       1.28825975E-03
  -13.3299999       1.48358045E-03
  -13.3199997       1.51862262E-03
  -13.3100004       1.39365764E-03
  -13.3000002       1.13432109E-03
  -13.2900000       7.89515849E-04
  -13.2799997       4.23092948E-04
  -13.2700005       1.00622587E-04
  -13.2600002      -1.25747451E-04
  -13.2500000      -2.30302903E-04
  -13.2399998      -2.20642658E-04
  -13.2299995      -1.35736089E-04
  -13.2200003      -3.48255307E-05
  -13.2100000       2.03667005E-05
  -13.1999998      -1.46911671E-05
  -13.1899996      -1.51696382E-04
  -13.1800003      -3.63090367E-04
  -13.1700001      -5.87591145E-04
  -13.1599998      -7.46829202E-04
  -13.1499996      -7.68635422E-04
  -13.1400003      -6.10112445E-04
  -13.1300001      -2.73279264E-04
  -13.1199999       1.91922547E-04
  -13.1099997       6.98676275E-04
  -13.1000004       1.14538718E-03
  -13.0900002       1.44224253E-03
  -13.0799999       1.53413636E-03
  -13.0699997       1.41299900E-03
  -13.0600004       1.11602154E-03
  -13.0500002       7.10905646E-04
  -13.0400000       2.73520505E-04
  -13.0299997      -1.34265501E-04
  -13.0200005      -4.79113427E-04
  -13.0100002      -7.58548675E-04
  -13.0000000      -9.91032925E-04
  -12.9899998      -1.19818654E-03
  -12.9799995      -1.38644374E-03
  -12.9700003      -1.53565209E-03
  -12.9600000      -1.59960554E-03
  -12.9499998      -1.51912286E-03
  -12.9399996      -1.24359003E-03
  -12.9300003      -7.53560744E-04
  -12.9200001      -7.62531563E-05
  -12.9099998       7.12126784E-04
  -12.8999996       1.49904867E-03
  -12.8900003       2.16019014E-03
  -12.8800001       2.58878130E-03
  -12.8699999       2.72109825E-03
  -12.8599997       2.55067344E-03
  -12.8500004       2.12738523E-03
  -12.8400002       1.54229067E-03
  -12.8299999       9.03298031E-04
  -12.8199997       3.09165654E-04
  -12.8100004      -1.70789397E-04
  -12.8000002      -5.06296870E-04
  -12.7900000      -7.03818223E-04
  -12.7799997      -7.94825668E-04
  -12.7700005      -8.19716894E-04
  -12.7600002      -8.13018472E-04
  -12.7500000      -7.94238586E-04
  -12.7399998      -7.66200421E-04
  -12.7299995      -7.19923293E-04
  -12.7200003      -6.43092964E-04
  -12.7100000      -5.28447970E-04
  -12.6999998      -3.79063131E-04
  -12.6899996      -2.09084421E-04
  -12.6800003      -4.02641599E-05
  -12.6700001       1.03998413E-04
  -12.6599998       2.04878772E-04
  -12.6499996       2.52693193E-04
  -12.6400003       2.48751341E-04
  -12.6300001       2.04409836E-04
  -12.6199999       1.37963376E-04
  -12.6099997       7.03262995E-05
  -12.6000004       2.04286443E-05
  -12.5900002       1.08328049E-06
  -12.5799999       1.59524170E-05
  -12.5699997       5.82169450E-05
  -12.5600004       1.11521185E-04
  -12.5500002       1.53543864E-04
  -12.5400000       1.61993230E-04
  -12.5299997       1.21980956E-04
  -12.5200005       3.28649876E-05
  -12.5100002      -8.78228821E-05
  -12.5000000      -2.05457342E-04
  -12.4899998      -2.75299622E-04
  -12.4799995      -2.54389917E-04
  -12.4700003      -1.15394745E-04
  -12.4600000       1.41851662E-04
  -12.4499998       4.85358731E-04
  -12.4399996       8.55230202E-04
  -12.4300003       1.17706135E-03
  -12.4200001       1.38125196E-03
  -12.4099998       1.42261537E-03
  -12.3999996       1.29399169E-03
  -12.3900003       1.02904253E-03
  -12.3800001       6.92687812E-04
  -12.3699999       3.61727842E-04
  -12.3599997       1.01653248E-04
  -12.3500004      -5.27827870E-05
  -12.3400002      -1.06654712E-04
  -12.3299999      -1.00393860E-04
  -12.3199997      -9.31545073E-05
  -12.3100004      -1.39699769E-04
  -12.3000002      -2.68899545E-04
  -12.2900000      -4.71533538E-04
  -12.2799997      -7.01939163E-04
  -12.2700005      -8.93190212E-04
  -12.2600002      -9.80636803E-04
  -12.2500000      -9.25525092E-04
  -12.2399998      -7.30201369E-04
  -12.2299995      -4.39229974E-04
  -12.2200003      -1.25658422E-04
  -12.2100000       1.33068097E-04
  -12.1999998       2.81287910E-04
  -12.1899996       3.04260029E-04
  -12.1800003       2.33442392E-04
  -12.1700001       1.35844370E-04
  -12.1599998       9.08929724E-05
  -12.1499996       1.62590790E-04
  -12.1400003       3.76398530E-04
  -12.1300001       7.08680367E-04
  -12.1199999       1.09228457E-03
  -12.1099997       1.43639161E-03
  -12.1000004       1.65403460E-03
  -12.0900002       1.68828503E-03
  -12.0799999       1.52875402E-03
  -12.0699997       1.21348351E-03
  -12.0600004       8.16232292E-04
  -12.0500002       4.23870748E-04
  -12.0400000       1.11524445E-04
  -12.0299997      -7.66543817E-05
  -12.0200005      -1.35575727E-04
  -12.0100002      -9.46701766E-05
  -12.0000000      -3.43837564E-06
  -11.9899998       8.72153978E-05
  -11.9799995       1.41348661E-04
  -11.9700003       1.46955208E-04
  -11.9600000       1.15462848E-04
  -11.9499998       7.30856773E-05
  -11.9399996       4.79888586E-05
  -11.9300003       5.82400316E-05
  -11.9200001       1.04730723E-04
  -11.9099998       1.71108579E-04
  -11.8999996       2.30140926E-04
  -11.8900003       2.53781880E-04
  -11.8800001       2.23220923E-04
  -11.8699999       1.35560447E-04
  -11.8599997       5.21160428E-06
  -11.8500004      -1.40001401E-04
  -11.8400002      -2.66376010E-04
  -11.8299999      -3.42947606E-04
  -11.8199997      -3.48662783E-04
  -11.8100004      -2.76385777E-04
  -11.8000002      -1.33194495E-04
  -11.7900000       6.24734676E-05
  -11.7799997       2.85561691E-04
  -11.7700005       5.09581703E-04
  -11.7600002       7.11058499E-04
  -11.7500000       8.72528646E-04
  -11.7399998       9.83872800E-04
  -11.7299995       1.04211492E-03
  -11.7200003       1.05001684E-03
  -11.7100000       1.01389666E-03
  -11.6999998       9.41165199E-04
  -11.6899996       8.38136475E-04
  -11.6800003       7.08688283E-04
  -11.6700001       5.54234663E-04
  -11.6599998       3.75174161E-04
  -11.6499996       1.73513647E-04
  -11.6400003      -4.41291158E-05
  -11.6300001      -2.64279603E-04
  -11.6199999      -4.66234866E-04
  -11.6099997      -6.24237466E-04
  -11.6000004      -7.12070323E-04
  -11.5900002      -7.09053362E-04
  -11.5799999      -6.05752808E-04
  -11.5699997      -4.07563348E-04
  -11.5600004      -1.34816873E-04
  -11.5500002       1.80910851E-04
  -11.5400000       5.03401156E-04
  -11.5299997       7.99404981E-04
  -11.5200005       1.04498095E-03
  -11.5100002       1.22866407E-03
  -11.5000000       1.35063706E-03
  -11.4899998       1.41845550E-03
  -11.4799995       1.44108292E-03
  -11.4700003       1.42357673E-03
  -11.4600000       1.36448559E-03
  -11.4499998       1.25699292E-03
  -11.4399996       1.09339505E-03
  -11.4300003       8.71202559E-04
  -11.4200001       5.98450890E-04
  -11.4099998       2.95995211E-04
  -11.3999996      -4.42349574E-06
  -11.3900003      -2.66065093E-04
  -11.3800001      -4.55329224E-04
  -11.3699999      -5.49595337E-04
  -11.3599997      -5.42257563E-04
  -11.3500004      -4.43360943E-04
  -11.3400002      -2.75720929E-04
  -11.3299999      -6.79098230E-05
  -11.3199997       1.53495872E-04
  -11.3100004       3.69850226E-04
  -11.3000002       5.72727819E-04
  -11.2900000       7.62088341E-04
  -11.2799997       9.41319391E-04
  -11.2700005       1.11125549E-03
  -11.2600002       1.26559625E-03
  -11.2500000       1.38960360E-03
  -11.2399998       1.46274874E-03
  -11.2299995       1.46453537E-03
  -11.2200003       1.38156244E-03
  -11.2100000       1.21340819E-03
  -11.1999998       9.75264469E-04
  -11.1899996       6.96312578E-04
  -11.1800003       4.14226088E-04
  -11.1700001       1.67433478E-04
  -11.1599998      -1.25489369E-05
  -11.1499996      -1.06513908E-04
  -11.1400003      -1.09337350E-04
  -11.1300001      -2.80413878E-05
  -11.1199999       1.22700236E-04
  -11.1099997       3.25674220E-04
  -11.1000004       5.64867572E-04
  -11.0900002       8.26546049E-04
  -11.0799999       1.09756284E-03
  -11.0699997       1.36202655E-03
  -11.0600004       1.59828446E-03
  -11.0500002       1.77825487E-03
  -11.0400000       1.87039364E-03
  -11.0299997       1.84623292E-03
  -11.0200005       1.68892473E-03
  -11.0100002       1.40112522E-03
  -11.0000000       1.00928615E-03
  -10.9899998       5.62190427E-04
  -10.9799995       1.23184480E-04
  -10.9700003      -2.42431866E-04
  -10.9600000      -4.81675437E-04
  -10.9499998      -5.65794646E-04
  -10.9399996      -4.96228866E-04
  -10.9300003      -3.02640576E-04
  -10.9200001      -3.34335782E-05
  -10.9099998       2.58460583E-04
  -10.8999996       5.30158228E-04
  -10.8900003       7.59178831E-04
  -10.8800001       9.46306915E-04
  -10.8699999       1.11013849E-03
  -10.8599997       1.27530948E-03
  -10.8500004       1.45863032E-03
  -10.8400002       1.65819796E-03
  -10.8299999       1.84967008E-03
  -10.8199997       1.99149060E-03
  -10.8100004       2.03774008E-03
  -10.8000002       1.95448054E-03
  -10.7900000       1.73398864E-03
  -10.7799997       1.40168658E-03
  -10.7700005       1.01282634E-03
  -10.7600002       6.39355741E-04
  -10.7500000       3.50749120E-04
  -10.7399998       1.94795794E-04
  -10.7299995       1.84563047E-04
  -10.7200003       2.95882608E-04
  -10.7100000       4.76311456E-04
  -10.6999998       6.62728446E-04
  -10.6899996       8.01842776E-04
  -10.6800003       8.66888382E-04
  -10.6700001       8.65041919E-04
  -10.6599998       8.33198486E-04
  -10.6499996       8.23659473E-04
  -10.6400003       8.84659588E-04
  -10.6300001       1.04235671E-03
  -10.6199999       1.29035697E-03
  -10.6099997       1.59024517E-03
  -10.6000004       1.88285939E-03
  -10.5900002       2.10645422E-03
  -10.5799999       2.21565110E-03
  -10.5699997       2.19492847E-03
  -10.5600004       2.06237496E-03
  -10.5500002       1.86275970E-03
  -10.5400000       1.65252900E-03
  -10.5299997       1.48191710E-03
  -10.5200005       1.38010748E-03
  -10.5100002       1.34813867E-03
  -10.5000000       1.36149873E-03
  -10.4899998       1.38107757E-03
  -10.4799995       1.36845978E-03
  -10.4700003       1.30032469E-03
  -10.4600000       1.17726345E-03
  -10.4499998       1.02435984E-03
  -10.4399996       8.83660919E-04
  -10.4300003       8.01222224E-04
  -10.4200001       8.12963583E-04
  -10.4099998       9.33680218E-04
  -10.3999996       1.15232344E-03
  -10.3900003       1.43459742E-03
  -10.3800001       1.73172564E-03
  -10.3699999       1.99259166E-03
  -10.3599997       2.17579026E-03
  -10.3500004       2.25849473E-03
  -10.3400002       2.24019191E-03
  -10.3299999       2.14087404E-03
  -10.3199997       1.99467200E-03
  -10.3100004       1.84088887E-03
  -10.3000002       1.71474915E-03
  -10.2900000       1.63998571E-03
  -10.2799997       1.62476115E-03
  -10.2700005       1.66157377E-03
  -10.2600002       1.73089432E-03
  -10.2500000       1.80748978E-03
  -10.2399998       1.86781713E-03
  -10.2299995       1.89661083E-03
  -10.2200003       1.89094187E-03
  -10.2100000       1.86060218E-03
  -10.1999998       1.82461343E-03
  -10.1899996       1.80476438E-03
  -10.1800003       1.81805482E-03
  -10.1700001       1.87043031E-03
  -10.1599998       1.95399509E-03
  -10.1499996       2.04892317E-03
  -10.1400003       2.12981878E-03
  -10.1300001       2.17467546E-03
  -10.1199999       2.17346405E-03
  -10.1099997       2.13319412E-03
  -10.1000004       2.07720348E-03
  -10.0900002       2.03826302E-03
  -10.0799999       2.04727636E-03
  -10.0699997       2.12112279E-03
  -10.0600004       2.25392985E-03
  -10.0500002       2.41529918E-03
  -10.0400000       2.55695148E-03
  -10.0299997       2.62647215E-03
  -10.0200005       2.58427439E-03
  -10.0100002       2.41844100E-03
  -10.0000000       2.15236819E-03
  -9.98999977       1.84212392E-03
  -9.97999954       1.56359700E-03
  -9.97000027       1.39281678E-03
  -9.96000004       1.38515700E-03
  -9.94999981       1.55970757E-03
  -9.93999958       1.89362618E-03
  -9.93000031       2.32822634E-03
  -9.92000008       2.78491457E-03
  -9.90999985       3.18600982E-03
  -9.89999962       3.47406091E-03
  -9.89000034       3.62392422E-03
  -9.88000011       3.64437187E-03
  -9.86999989       3.56949377E-03
  -9.85999966       3.44348163E-03
  -9.85000038       3.30438348E-03
  -9.84000015       3.17246700E-03
  -9.82999992       3.04695196E-03
  -9.81999969       2.91174720E-03
  -9.81000042       2.74757249E-03
  -9.80000019       2.54559098E-03
  -9.78999996       2.31715199E-03
  -9.77999973       2.09569861E-03
  -9.77000046       1.92968536E-03
  -9.76000023       1.86861865E-03
  -9.75000000       1.94685732E-03
  -9.73999977       2.17073644E-03
  -9.72999954       2.51362985E-03
  -9.72000027       2.92100804E-03
  -9.71000004       3.32427886E-03
  -9.69999981       3.65927326E-03
  -9.68999958       3.88363027E-03
  -9.68000031       3.98762664E-03
  -9.67000008       3.99505161E-03
  -9.65999985       3.95382475E-03
  -9.64999962       3.91930249E-03
  -9.64000034       3.93552473E-03
  -9.63000011       4.02029324E-03
  -9.61999989       4.15876182E-03
  -9.60999966       4.30756109E-03
  -9.60000038       4.40821052E-03
  -9.59000015       4.40573646E-03
  -9.57999992       4.26681945E-03
  -9.56999969       3.99200013E-03
  -9.56000042       3.61824874E-03
  -9.55000019       3.21114855E-03
  -9.53999996       2.84902658E-03
  -9.52999973       2.60367477E-03
  -9.52000046       2.52316729E-03
  -9.51000023       2.62148050E-03
  -9.50000000       2.87747453E-03
  -9.48999977       3.24295880E-03
  -9.47999954       3.65690072E-03
  -9.47000027       4.06121602E-03
  -9.46000004       4.41344082E-03
  -9.44999981       4.69291396E-03
  -9.43999958       4.89934627E-03
  -9.43000031       5.04518580E-03
  -9.42000008       5.14510833E-03
  -9.40999985       5.20670693E-03
  -9.39999962       5.22579579E-03
  -9.39000034       5.18795289E-03
  -9.38000011       5.07560326E-03
  -9.36999989       4.87799570E-03
  -9.35999966       4.60034981E-03
  -9.35000038       4.26866114E-03
  -9.34000015       3.92807648E-03
  -9.32999992       3.63486866E-03
  -9.31999969       3.44416453E-03
  -9.31000042       3.39697720E-03
  -9.30000019       3.51030077E-03
  -9.28999996       3.77305853E-03
  -9.27999973       4.14892985E-03
  -9.27000046       4.58502537E-03
  -9.26000023       5.02375886E-03
  -9.25000000       5.41455159E-03
  -9.23999977       5.72243938E-03
  -9.22999954       5.93182631E-03
  -9.22000027       6.04525534E-03
  -9.21000004       6.07846258E-03
  -9.19999981       6.05377089E-03
  -9.18999958       5.99389663E-03
  -9.18000031       5.91764785E-03
  -9.17000008       5.83798159E-03
  -9.15999985       5.76205691E-03
  -9.14999962       5.69248339E-03
  -9.14000034       5.62892202E-03
  -9.13000011       5.56958560E-03
  -9.11999989       5.51258679E-03
  -9.10999966       5.45728672E-03
  -9.10000038       5.40572824E-03
  -9.09000015       5.36389695E-03
  -9.07999992       5.34219621E-03
  -9.06999969       5.35443611E-03
  -9.06000042       5.41493250E-03
  -9.05000019       5.53408358E-03
  -9.03999996       5.71359368E-03
  -9.02999973       5.94307482E-03
  -9.02000046       6.19973289E-03
  -9.01000023       6.45205937E-03
  -9.00000000       6.66711899E-03
  -8.98999977       6.81954343E-03
  -8.97999954       6.89934520E-03
  -8.97000027       6.91565312E-03
  -8.96000004       6.89453911E-03
  -8.94999981       6.87104044E-03
  -8.93999958       6.87758066E-03
  -8.93000031       6.93258410E-03
  -8.92000008       7.03338627E-03
  -8.90999985       7.15637906E-03
  -8.89999962       7.26491818E-03
  -8.89000034       7.32275471E-03
  -8.88000011       7.30855949E-03
  -8.86999989       7.22631160E-03
  -8.85999966       7.10745016E-03
  -8.85000038       7.00331759E-03
  -8.84000015       6.96980394E-03
  -8.82999992       7.04903388E-03
  -8.81999969       7.25429086E-03
  -8.81000042       7.56356958E-03
  -8.80000019       7.92443007E-03
  -8.78999996       8.26904830E-03
  -8.77999973       8.53471365E-03
  -8.77000046       8.68302677E-03
  -8.76000023       8.71128403E-03
  -8.75000000       8.65205750E-03
  -8.73999977       8.56102258E-03
  -8.72999954       8.49711057E-03
  -8.72000027       8.50181002E-03
  -8.71000004       8.58478807E-03
  -8.69999981       8.72088037E-03
  -8.68999958       8.85955710E-03
  -8.68000031       8.94363038E-03
  -8.67000008       8.93067289E-03
  -8.65999985       8.80968384E-03
  -8.64999962       8.60715751E-03
  -8.64000034       8.38034507E-03
  -8.63000011       8.19997676E-03
  -8.61999989       8.12834781E-03
  -8.60999966       8.20019934E-03
  -8.60000038       8.41283984E-03
  -8.59000015       8.72864667E-03
  -8.57999992       9.08883382E-03
  -8.56999969       9.43344831E-03
  -8.56000042       9.72059462E-03
  -8.55000019       9.93830245E-03
  -8.53999996       1.01051480E-02
  -8.52999973       1.02597680E-02
  -8.52000046       1.04433093E-02
  -8.51000023       1.06811812E-02
  -8.50000000       1.09705981E-02
  -8.48999977       1.12783145E-02
  -8.47999954       1.15492893E-02
  -8.47000027       1.17233265E-02
  -8.46000004       1.17541179E-02
  -8.44999981       1.16244107E-02
  -8.43999958       1.13525782E-02
  -8.43000031       1.09887552E-02
  -8.42000008       1.06021641E-02
  -8.40999985       1.02639785E-02
  -8.39999962       1.00310417E-02
  -8.39000034       9.93512757E-03
  -8.38000011       9.98017751E-03
  -8.36999989       1.01472046E-02
  -8.35999966       1.04042133E-02
  -8.35000038       1.07172504E-02
  -8.34000015       1.10589527E-02
  -8.32999992       1.14123141E-02
  -8.31999969       1.17694736E-02
  -8.31000042       1.21270744E-02
  -8.30000019       1.24806957E-02
  -8.28999996       1.28208185E-02
  -8.27999973       1.31318653E-02
  -8.27000046       1.33944890E-02
  -8.26000023       1.35900071E-02
  -8.25000000       1.37052750E-02
  -8.23999977       1.37363728E-02
  -8.22999954       1.36900628E-02
  -8.22000027       1.35828387E-02
  -8.21000004       1.34382350E-02
  -8.19999981       1.32833291E-02
  -8.18999958       1.31452763E-02
  -8.18000031       1.30484030E-02
  -8.17000008       1.30119771E-02
  -8.15999985       1.30484840E-02
  -8.14999962       1.31624173E-02
  -8.14000034       1.33497380E-02
  -8.13000011       1.35983657E-02
  -8.11999989       1.38900653E-02
  -8.10999966       1.42037487E-02
  -8.10000038       1.45196225E-02
  -8.09000015       1.48231313E-02
  -8.07999992       1.51073439E-02
  -8.06999969       1.53727653E-02
  -8.06000042       1.56243145E-02
  -8.05000019       1.58663057E-02
  -8.03999996       1.60971992E-02
  -8.02999973       1.63061768E-02
  -8.02000046       1.64733659E-02
  -8.01000023       1.65742654E-02
  -8.00000000       1.65875219E-02
  -7.98999977       1.65037084E-02
  -7.98000002       1.63321607E-02
  -7.96999979       1.61031801E-02
  -7.96000004       1.58643275E-02
  -7.94999981       1.56712979E-02
  -7.94000006       1.55757051E-02
  -7.92999983       1.56132756E-02
  -7.92000008       1.57959517E-02
  -7.90999985       1.61101855E-02
  -7.90000010       1.65217165E-02
  -7.88999987       1.69852152E-02
  -7.88000011       1.74556319E-02
  -7.86999989       1.78977381E-02
  -7.86000013       1.82912610E-02
  -7.84999990       1.86305661E-02
  -7.84000015       1.89199205E-02
  -7.82999992       1.91666875E-02
  -7.82000017       1.93753298E-02
  -7.80999994       1.95444711E-02
  -7.80000019       1.96678340E-02
  -7.78999996       1.97383463E-02
  -7.78000021       1.97533779E-02
  -7.76999998       1.97187476E-02
  -7.76000023       1.96498632E-02
  -7.75000000       1.95694771E-02
  -7.73999977       1.95029769E-02
  -7.73000002       1.94730572E-02
  -7.71999979       1.94956400E-02
  -7.71000004       1.95783321E-02
  -7.69999981       1.97214838E-02
  -7.69000006       1.99207924E-02
  -7.67999983       2.01698933E-02
  -7.67000008       2.04616152E-02
  -7.65999985       2.07874253E-02
  -7.65000010       2.11356040E-02
  -7.63999987       2.14898512E-02
  -7.63000011       2.18298454E-02
  -7.61999989       2.21345033E-02
  -7.61000013       2.23874561E-02
  -7.59999990       2.25829370E-02
  -7.59000015       2.27294918E-02
  -7.57999992       2.28493307E-02
  -7.57000017       2.29725186E-02
  -7.55999994       2.31272262E-02
  -7.55000019       2.33291388E-02
  -7.53999996       2.35738754E-02
  -7.53000021       2.38357745E-02
  -7.51999998       2.40744166E-02
  -7.51000023       2.42475960E-02
  -7.50000000       2.43267640E-02
  -7.48999977       2.43096855E-02
  -7.48000002       2.42255088E-02
  -7.46999979       2.41298005E-02
  -7.46000004       2.40903217E-02
  -7.44999981       2.41676923E-02
  -7.44000006       2.43970845E-02