  -16.0000000       0.00000000    
  -15.9899998       0.00000000    
  -15.9799995       0.00000000    
  -15.9700003       0.00000000    
  -15.9600000       0.00000000    
  -15.9499998      -2.25534203E-20
  -15.9399996      -1.83295973E-19
  -15.9300003      -6.75351870E-19
  -15.9200001      -1.33596286E-18
  -15.9099998      -9.08759336E-19
  -15.8999996       2.30748112E-18
  -15.8900003       5.33108434E-18
  -15.8800001      -1.00070565E-17
  -15.8699999      -8.56105332E-17
  -15.8599997      -2.75596225E-16
  -15.8500004      -5.93779096E-16
  -15.8400002      -9.14797595E-16
  -15.8299999      -8.57140644E-16
  -15.8199997       2.84412488E-16
  -15.8100004       3.45450741E-15
  -15.8000002       9.46123690E-15
  -15.7900000       1.81266745E-14
  -15.7799997       2.68113168E-14
  -15.7700005       2.84808323E-14
  -15.7600002       1.03826741E-14
  -15.7500000      -4.41196186E-14
  -15.7399998      -1.46769234E-13
  -15.7299995      -2.85867358E-13
  -15.7200003      -4.00718521E-13
  -15.7100000      -3.62966168E-13
  -15.6999998       8.22217508E-15
  -15.6899996       8.65189918E-13
  -15.6800003       2.17065775E-12
  -15.6700001       3.49269875E-12
  -15.6599998       3.86954574E-12
  -15.6499996       1.92722249E-12
  -15.6400003      -3.56868181E-12
  -15.6300001      -1.26858732E-11
  -15.6199999      -2.30852108E-11
  -15.6099997      -2.92254519E-11
  -15.6000004      -2.29607895E-11
  -15.5900002       3.62233681E-12
  -15.5799999       5.30258129E-11
  -15.5699997       1.16119954E-10
  -15.5600004       1.67865194E-10
  -15.5500002       1.69071396E-10
  -15.5400000       7.77547610E-11
  -15.5299997      -1.29363117E-10
  -15.5200005      -4.30084607E-10
  -15.5100002      -7.35858152E-10
  -15.5000000      -8.92155128E-10
  -15.4899998      -7.13939352E-10
  -15.4799995      -6.01687589E-11
  -15.4700003       1.06668818E-09
  -15.4600000       2.43137399E-09
  -15.4499998       3.53746188E-09
  -15.4399996       3.70908282E-09
  -15.4300003       2.30534347E-09
  -15.4200001      -9.61760227E-10
  -15.4099998      -5.69972647E-09
  -15.3999996      -1.06448530E-08
  -15.3900003      -1.37654483E-08
  -15.3800001      -1.27589486E-08
  -15.3699999      -5.91361626E-09
  -15.3599997       6.86990465E-09
  -15.3500004       2.32652102E-08
  -15.3400002       3.83565144E-08
  -15.3299999       4.54804834E-08
  -15.3199997       3.81557328E-08
  -15.3100004       1.27629320E-08
  -15.3000002      -2.88062996E-08
  -15.2900000      -7.76084903E-08
  -15.2799997      -1.18259521E-07
  -15.2700005      -1.32277592E-07
  -15.2600002      -1.03875713E-07
  -15.2500000      -2.68697260E-08
  -15.2399998       8.95225867E-08
  -15.2299995       2.18545495E-07
  -15.2200003       3.19450265E-07
  -15.2100000       3.47274465E-07
  -15.1999998       2.67291171E-07
  -15.1899996       7.03941367E-08
  -15.1800003      -2.15750077E-07
  -15.1700001      -5.24922314E-07
  -15.1599998      -7.63212256E-07
  -15.1499996      -8.32272235E-07
  -15.1400003      -6.60383819E-07
  -15.1300001      -2.32945339E-07
  -15.1199999       3.87865498E-07
  -15.1099997       1.06330583E-06
  -15.1000004       1.60272441E-06
  -15.0900002       1.81025246E-06
  -15.0799999       1.54351062E-06
  -15.0699997       7.68441623E-07
  -15.0600004      -4.07493161E-07
  -15.0500002      -1.73808019E-06
  -15.0400000      -2.88285605E-06
  -15.0299997      -3.48735307E-06
  -15.0200005      -3.28131250E-06
  -15.0100002      -2.16896797E-06
  -15.0000000      -2.84059837E-07
  -14.9899998       2.01123112E-06
  -14.9799995       4.19071785E-06
  -14.9700003       5.68202904E-06
  -14.9600000       6.01156762E-06
  -14.9499998       4.93991683E-06
  -14.9399996       2.55000282E-06
  -14.9300003      -7.40171686E-07
  -14.9200001      -4.25027611E-06
  -14.9099998      -7.18368346E-06
  -14.8999996      -8.81413962E-06
  -14.8900003      -8.66754726E-06
  -14.8800001      -6.65196421E-06
  -14.8699999      -3.09991447E-06
  -14.8599997       1.29186139E-06
  -14.8500004       5.61428806E-06
  -14.8400002       8.95455196E-06
  -14.8299999       1.06106636E-05
  -14.8199997       1.02579488E-05
  -14.8100004       8.02401337E-06
  -14.8000002       4.45087835E-06
  -14.7900000       3.51672156E-07
  -14.7799997      -3.40278484E-06
  -14.7700005      -6.11197129E-06
  -14.7600002      -7.42609245E-06
  -14.7500000      -7.42634847E-06
  -14.7399998      -6.57698411E-06
  -14.7299995      -5.55538418E-06
  -14.7200003      -5.00239321E-06
  -14.7100000      -5.26295480E-06
  -14.6999998      -6.19841921E-06
  -14.6899996      -7.14118642E-06
  -14.6800003      -7.02966145E-06
  -14.6700001      -4.71287194E-06
  -14.6599998       6.38999154E-07
  -14.6499996       9.12499763E-06
  -14.6400003       1.98307007E-05
  -14.6300001       3.07844493E-05
  -14.6199999       3.92161273E-05
  -14.6099997       4.21078221E-05
  -14.6000004       3.69424888E-05
  -14.5900002       2.24862761E-05
  -14.5799999      -5.96012853E-07
  -14.5699997      -2.94808106E-05
  -14.5600004      -5.94064295E-05
  -14.5500002      -8.43961388E-05
  -14.5400000      -9.83842110E-05
  -14.5299997      -9.65354120E-05
  -14.5200005      -7.64784709E-05
  -14.5100002      -3.91640897E-05
  -14.5000000       1.08849190E-05
  -14.4899998       6.60493097E-05
  -14.4799995       1.16783995E-04
  -14.4700003       1.53300905E-04
  -14.4600000       1.67460326E-04
  -14.4499998       1.54501919E-04
  -14.4399996       1.14255163E-04
  -14.4300003       5.15492065E-05
  -14.4200001      -2.43160739E-05
  -14.4099998      -1.01000369E-04
  -14.3999996      -1.65236808E-04
  -14.3900003      -2.05262681E-04
  -14.3800001      -2.13111081E-04
  -14.3699999      -1.86302714E-04
  -14.3599997      -1.28562635E-04
  -14.3500004      -4.93577427E-05
  -14.3400002       3.77211727E-05
  -14.3299999       1.17464457E-04
  -14.3199997       1.75959081E-04
  -14.3100004       2.03317497E-04
  -14.3000002       1.95626955E-04
  -14.2900000       1.55669739E-04
  -14.2799997       9.22235340E-05
  -14.2700005       1.80740517E-05
  -14.2600002      -5.28191158E-05
  -14.2500000      -1.08347071E-04
  -14.2399998      -1.40752061E-04
  -14.2299995      -1.48011226E-04
  -14.2200003      -1.33790309E-04
  -14.2100000      -1.06019863E-04
  -14.1999998      -7.45018115E-05
  -14.1899996      -4.82002397E-05
  -14.1800003      -3.29370123E-05
  -14.1700001      -3.00816992E-05
  -14.1599998      -3.65343003E-05
  -14.1499996      -4.59348703E-05
  -14.1400003      -5.07025470E-05
  -14.1300001      -4.43027857E-05
  -14.1199999      -2.31188442E-05
  -14.1099997       1.25418965E-05
  -14.1000004       5.85020425E-05
  -14.0900002       1.07721105E-04
  -14.0799999       1.51908811E-04
  -14.0699997       1.83287935E-04
  -14.0600004       1.96083085E-04
  -14.0500002       1.87457772E-04
  -14.0400000       1.57812799E-04
  -14.0299997       1.10525492E-04
  -14.0200005       5.13003142E-05
  -14.0100002      -1.26932073E-05
  -14.0000000      -7.37723676E-05
  -13.9899998      -1.24722850E-04
  -13.9799995      -1.59774776E-04
  -13.9700003      -1.75506473E-04
  -13.9600000      -1.71537293E-04
  -13.9499998      -1.50806576E-04
  -13.9399996      -1.19235563E-04
  -13.9300003      -8.46679177E-05
  -13.9200001      -5.51778357E-05
  -13.9099998      -3.70665330E-05
  -13.8999996      -3.30542098E-05
  -13.8900003      -4.12264562E-05
  -13.8800001      -5.51635130E-05
  -13.8699999      -6.53797688E-05
  -13.8599997      -6.18098857E-05
  -13.8500004      -3.67226421E-05
  -13.8400002       1.27492613E-05
  -13.8299999       8.32226651E-05
  -13.8199997       1.65280784E-04
  -13.8100004       2.45292234E-04
  -13.8000002       3.08355229E-04
  -13.7900000       3.41558247E-04
  -13.7799997       3.36673344E-04
  -13.7700005       2.91609584E-04
  -13.7600002       2.10368540E-04
  -13.7500000       1.01722915E-04
  -13.7399998      -2.27975543E-05
  -13.7299995      -1.50901062E-04
  -13.7200003      -2.70945806E-04
  -13.7100000      -3.72557464E-04
  -13.6999998      -4.46645630E-04
  -13.6899996      -4.85302182E-04
  -13.6800003      -4.82107280E-04
  -13.6700001      -4.33144363E-04
  -13.6599998      -3.38612619E-04
  -13.6499996      -2.04498385E-04
  -13.6400003      -4.35134789E-05
  -13.6300001       1.25441220E-04
  -13.6199999       2.79649568E-04
  -13.6099997       3.96558200E-04
  -13.6000004       4.58513474E-04
  -13.5900002       4.57011542E-04
  -13.5799999       3.95192357E-04
  -13.5699997       2.87704053E-04
  -13.5600004       1.57770774E-04
  -13.5500002       3.20986910E-05
  -13.5400000      -6.51087030E-05
  -13.5299997      -1.17491822E-04
  -13.5200005      -1.19888158E-04
  -13.5100002      -7.89310798E-05
  -13.5000000      -1.08981712E-05
  -13.4899998       6.24712702E-05
  -13.4799995       1.19023025E-04
  -13.4700003       1.40862510E-04
  -13.4600000       1.17699681E-04
  -13.4499998       4.83936383E-05
  -13.4399996      -5.92715842E-05
  -13.4300003      -1.90195613E-04
  -13.4200001      -3.24443856E-04
  -13.4099998      -4.40161617E-04
  -13.3999996      -5.16631233E-04
  -13.3900003      -5.37290762E-04
  -13.3800001      -4.92510793E-04
  -13.3699999      -3.81786347E-04
  -13.3599997      -2.14839281E-04
  -13.3500004      -1.10896835E-05
  -13.3400002       2.02846655E-04
  -13.3299999       3.97527416E-04
  -13.3199997       5.46216441E-04
  -13.3100004       6.30344963E-04
  -13.3000002       6.43432839E-04
  -13.2900000       5.92222263E-04
  -13.2799997       4.94466978E-04
  -13.2700005       3.73797113E-04
  -13.2600002       2.53041333E-04
  -13.2500000       1.47985556E-04
  -13.2399998       6.35264005E-05
  -13.2299995      -6.50575157E-06
  -13.2200003      -7.57463422E-05
  -13.2100000      -1.59080868E-04
  -13.1999998      -2.65907263E-04
  -13.1899996      -3.95215524E-04
  -13.1800003      -5.34256978E-04
  -13.1700001      -6.61364116E-04
  -13.1599998      -7.52029417E-04
  -13.1499996      -7.86169723E-04
  -13.1400003      -7.54035718E-04
  -13.1300001      -6.58661709E-04
  -13.1199999      -5.13975567E-04
  -13.1099997      -3.39277671E-04
  -13.1000004      -1.52179753E-04
  -13.0900002       3.72435861E-05
  -13.0799999       2.28687059E-04
  -13.0699997       4.29103151E-04
  -13.0600004       6.46106026E-04
  -13.0500002       8.79619736E-04
  -13.0400000       1.11503166E-03
  -13.0299997       1.32091844E-03
  -13.0200005       1.45308510E-03
  -13.0100002       1.46459090E-03
  -13.0000000       1.31929573E-03
  -12.9899998       1.00498355E-03
  -12.9799995       5.41843008E-04
  -12.9700003      -1.68413007E-05
  -12.9600000      -5.92779776E-04
  -12.9499998      -1.09797972E-03
  -12.9399996      -1.45349349E-03
  -12.9300003      -1.60672900E-03
  -12.9200001      -1.54275389E-03
  -12.9099998      -1.28666672E-03
  -12.8999996      -8.96596175E-04
  -12.8900003      -4.49433603E-04
  -12.8800001      -2.32676466E-05
  -12.8699999       3.18861421E-04
  -12.8599997       5.39966859E-04
  -12.8500004       6.32704177E-04
  -12.8400002       6.15578145E-04
  -12.8299999       5.23775641E-04
  -12.8199997       3.97813303E-04
  -12.8100004       2.73295416E-04
  -12.8000002       1.74220608E-04
  -12.7900000       1.10825007E-04
  -12.7799997       8.14521554E-05
  -12.7700005       7.68728205E-05
  -12.7600002       8.51192526E-05
  -12.7500000       9.52504924E-05
  -12.7399998       9.92788919E-05
  -12.7299995       9.23855187E-05
  -12.7200003       7.21779725E-05
  -12.7100000       3.79001976E-05
  -12.6999998      -9.79874949E-06
  -12.6899996      -6.84848928E-05
  -12.6800003      -1.33410125E-04
  -12.6700001      -1.97512418E-04
  -12.6599998      -2.52438709E-04
  -12.6499996      -2.90576339E-04
  -12.6400003      -3.07487964E-04
  -12.6300001      -3.03756678E-04
  -12.6199999      -2.85275310E-04
  -12.6099997      -2.61502253E-04
  -12.6000004      -2.41995804E-04
  -12.5900002      -2.32323917E-04
  -12.5799999      -2.30895137E-04
  -12.5699997      -2.28136676E-04
  -12.5600004      -2.08737722E-04
  -12.5500002      -1.56593786E-04
  -12.5400000      -6.10136958E-05
  -12.5299997       7.79042675E-05
  -12.5200005       2.46763695E-04
  -12.5100002       4.20458266E-04
  -12.5000000       5.67760959E-04
  -12.4899998       6.59423240E-04
  -12.4799995       6.76326221E-04
  -12.4700003       6.15059340E-04
  -12.4600000       4.89042839E-04
  -12.4499998       3.24729714E-04
  -12.4399996       1.54049529E-04
  -12.4300003       5.52090069E-06
  -12.4200001      -1.03096339E-04
  -12.4099998      -1.68284503E-04
  -12.3999996      -1.99417875E-04
  -12.3900003      -2.13297331E-04
  -12.3800001      -2.26701624E-04
  -12.3699999      -2.49715929E-04
  -12.3599997      -2.82214256E-04
  -12.3500004      -3.14625853E-04
  -12.3400002      -3.32473137E-04
  -12.3299999      -3.22754175E-04
  -12.3199997      -2.79588538E-04
  -12.3100004      -2.06901124E-04
  -12.3000002      -1.17139432E-04
  -12.2900000      -2.66277584E-05
  -12.2799997       5.04813506E-05
  -12.2700005       1.07135857E-04
  -12.2600002       1.45139260E-04
  -12.2500000       1.73001536E-04
  -12.2399998       2.00810595E-04
  -12.2299995       2.34357765E-04
  -12.2200003       2.71159399E-04
  -12.2100000       3.00315849E-04
  -12.1999998       3.06580943E-04
  -12.1899996       2.77189101E-04
  -12.1800003       2.08657249E-04
  -12.1700001       1.10529858E-04
  -12.1599998       4.05148376E-06
  -12.1499996      -8.42992813E-05
  -12.1400003      -1.32330111E-04
  -12.1300001      -1.31142864E-04
  -12.1199999      -8.99072329E-05
  -12.1099997      -3.40212828E-05
  -12.1000004       3.29967679E-06
  -12.0900002      -6.65409334E-06
  -12.0799999      -7.63011703E-05
  -12.0699997      -1.95160232E-04
  -12.0600004      -3.31448944E-04
  -12.0500002      -4.42009710E-04
  -12.0400000      -4.87495534E-04
  -12.0299997      -4.47500352E-04
  -12.0200005      -3.29928764E-04
  -12.0100002      -1.70640487E-04
  -12.0000000      -2.27505716E-05
  -11.9899998       6.12456934E-05
  -11.9799995       4.85171040E-05
  -11.9700003      -6.06817302E-05
  -11.9600000      -2.30345046E-04
  -11.9499998      -3.98344564E-04
  -11.9399996      -4.95594810E-04
  -11.9300003      -4.68543032E-04
  -11.9200001      -2.97432183E-04
  -11.9099998      -4.09530685E-06
  -11.8999996       3.53433337E-04
  -11.8900003       6.97698270E-04
  -11.8800001       9.54335614E-04
  -11.8699999       1.07281515E-03
  -11.8599997       1.03873608E-03
  -11.8500004       8.74163350E-04
  -11.8400002       6.26792200E-04
  -11.8299999       3.52577510E-04
  -11.8199997       9.84424332E-05
  -11.8100004      -1.08870925E-04
  -11.8000002      -2.64544971E-04
  -11.7900000      -3.78648692E-04
  -11.7799997      -4.64376732E-04
  -11.7700005      -5.27267519E-04
  -11.7600002      -5.60345245E-04
  -11.7500000      -5.47327392E-04
  -11.7399998      -4.72370972E-04
  -11.7299995      -3.31811025E-04
  -11.7200003      -1.42245946E-04
  -11.7100000       5.93760924E-05
  -11.6999998       2.24794450E-04
  -11.6899996       3.09869472E-04
  -11.6800003       2.90764146E-04
  -11.6700001       1.74471468E-04
  -11.6599998      -9.13469478E-07
  -11.6499996      -1.77049427E-04
  -11.6400003      -2.93962279E-04
  -11.6300001      -3.09947849E-04
  -11.6199999      -2.15588589E-04
  -11.6099997      -3.67275461E-05
  -11.6000004       1.74737244E-04
  -11.5900002       3.58873949E-04
  -11.5799999       4.67935810E-04
  -11.5699997       4.81412746E-04
  -11.5600004       4.10606270E-04
  -11.5500002       2.91480421E-04
  -11.5400000       1.69028179E-04
  -11.5299997       7.95559317E-05
  -11.5200005       3.78964760E-05
  -11.5100002       3.43922038E-05
  -11.5000000       4.24246318E-05
  -11.4899998       3.29377071E-05
  -11.4799995      -1.04463270E-05
  -11.4700003      -8.23329319E-05
  -11.4600000      -1.56577182E-04
  -11.4499998      -1.97264977E-04
  -11.4399996      -1.75236084E-04
  -11.4300003      -8.32065125E-05
  -11.4200001       5.71686614E-05
  -11.4099998       1.99903850E-04
  -11.3999996       2.89928226E-04
  -11.3900003       2.83526839E-04
  -11.3800001       1.66154205E-04
  -11.3699999      -3.95422612E-05
  -11.3599997      -2.79121828E-04
  -11.3500004      -4.83725773E-04
  -11.3400002      -5.93313714E-04
  -11.3299999      -5.77239145E-04
  -11.3199997      -4.44479112E-04
  -11.3100004      -2.39655725E-04
  -11.3000002      -2.63450602E-05
  -11.2900000       1.35992406E-04
  -11.2799997       2.12702944E-04
  -11.2700005       2.04446958E-04
  -11.2600002       1.43701691E-04
  -11.2500000       7.89172118E-05
  -11.2399998       5.28243763E-05
  -11.2299995       8.36894324E-05
  -11.2200003       1.57142873E-04
  -11.2100000       2.32007049E-04
  -11.1999998       2.57940294E-04
  -11.1899996       1.97900576E-04
  -11.1800003       4.63224969E-05
  -11.1700001      -1.64629266E-04
  -11.1599998      -3.73838528E-04
  -11.1499996      -5.12291503E-04
  -11.1400003      -5.28718985E-04
  -11.1300001      -4.10078239E-04
  -11.1199999      -1.88791193E-04
  -11.1099997       6.65385887E-05
  -11.1000004       2.74043676E-04
  -11.0900002       3.67075176E-04
  -11.0799999       3.17948608E-04
  -11.0699997       1.48241787E-04
  -11.0600004      -7.82290081E-05
  -11.0500002      -2.77344894E-04
  -11.0400000      -3.73728311E-04
  -11.0299997      -3.26582376E-04
  -11.0200005      -1.43285943E-04
  -11.0100002       1.23761129E-04
  -11.0000000       3.95477487E-04
  -10.9899998       5.92718017E-04
  -10.9799995       6.61593280E-04
  -10.9700003       5.88810188E-04
  -10.9600000       4.02364647E-04
  -10.9499998       1.58435476E-04
  -10.9399996      -7.97530593E-05
  -10.9300003      -2.62821384E-04
  -10.9200001      -3.68323992E-04
  -10.9099998      -4.02013742E-04
  -10.8999996      -3.88107495E-04
  -10.8900003      -3.53624986E-04
  -10.8800001      -3.13894532E-04
  -10.8699999      -2.65422510E-04
  -10.8599997      -1.88975537E-04
  -10.8500004      -6.13322845E-05
  -10.8400002       1.29502398E-04
  -10.8299999       3.72324517E-04
  -10.8199997       6.29482092E-04
  -10.8100004       8.44414695E-04
  -10.8000002       9.57796758E-04
  -10.7900000       9.26687848E-04
  -10.7799997       7.39811396E-04
  -10.7700005       4.23400052E-04
  -10.7600002       3.54114964E-05
  -10.7500000      -3.49961192E-04
  -10.7399998      -6.62239618E-04
  -10.7299995      -8.52488214E-04
  -10.7200003      -9.03497450E-04
  -10.7100000      -8.29746365E-04
  -10.6999998      -6.68230932E-04
  -10.6899996      -4.64242039E-04
  -10.6800003      -2.57462845E-04
  -10.6700001      -7.29926178E-05
  -10.6599998       8.04673546E-05
  -10.6499996       2.05974706E-04
  -10.6400003       3.10325209E-04
  -10.6300001       3.96641728E-04
  -10.6199999       4.60808253E-04
  -10.6099997       4.92989260E-04
  -10.6000004       4.83130425E-04
  -10.5900002       4.27615829E-04
  -10.5799999       3.33815580E-04
  -10.5699997       2.20218353E-04
  -10.5600004       1.11745350E-04
  -10.5500002       3.18848506E-05
  -10.5400000      -5.35757408E-06
  -10.5299997      -5.48985952E-07
  -10.5200005       3.10976029E-05
  -10.5100002       6.48510686E-05
  -10.5000000       7.50521649E-05
  -10.4899998       4.41710108E-05
  -10.4799995      -3.08074668E-05
  -10.4700003      -1.36837873E-04
  -10.4600000      -2.48581957E-04
  -10.4499998      -3.36177094E-04
  -10.4399996      -3.74435069E-04
  -10.4300003      -3.50558927E-04
  -10.4200001      -2.68084521E-04
  -10.4099998      -1.46045670E-04
  -10.3999996      -1.38539535E-05
  -10.3900003       9.64175415E-05
  -10.3800001       1.58079783E-04
  -10.3699999       1.56076567E-04
  -10.3599997       9.00257146E-05
  -10.3500004      -2.63597958E-05
  -10.3400002      -1.68922459E-04
  -10.3299999      -3.08565621E-04
  -10.3199997      -4.17140225E-04
  -10.3100004      -4.72387968E-04
  -10.3000002      -4.61061165E-04
  -10.2900000      -3.79918929E-04
  -10.2799997      -2.34859530E-04
  -10.2700005      -3.88541521E-05
  -10.2600002       1.90488368E-04
  -10.2500000       4.33001260E-04
  -10.2399998       6.67292392E-04
  -10.2299995       8.71397962E-04
  -10.2200003       1.02324679E-03
  -10.2100000       1.10164529E-03
  -10.1999998       1.08838244E-03
  -10.1899996       9.71595524E-04
  -10.1800003       7.49857456E-04
  -10.1700001       4.35793656E-04
  -10.1599998       5.76976418E-05
  -10.1499996      -3.42174957E-04
  -10.1400003      -7.13151705E-04
  -10.1300001      -1.00484036E-03
  -10.1199999      -1.17707672E-03
  -10.1099997      -1.20846590E-03
  -10.1000004      -1.10093551E-03
  -10.0900002      -8.78720195E-04
  -10.0799999      -5.81862289E-04
  -10.0699997      -2.56105297E-04
  -10.0600004       5.76922575E-05
  -10.0500002       3.31300922E-04
  -10.0400000       5.51709789E-04
  -10.0299997       7.18159834E-04
  -10.0200005       8.35337618E-04
  -10.0100002       9.05944675E-04
  -10.0000000       9.26103734E-04
  -9.98999977       8.85888992E-04
  -9.97999954       7.75056891E-04
  -9.97000027       5.91664982E-04
  -9.96000004       3.49681912E-04
  -9.94999981       8.16386091E-05
  -9.93999958      -1.65991296E-04
  -9.93000031      -3.44195956E-04
  -9.92000008      -4.16225434E-04
  -9.90999985      -3.70562280E-04
  -9.89999962      -2.26916440E-04
  -9.89000034      -3.22288470E-05
  -9.88000011       1.52826760E-04
  -9.86999989       2.72745674E-04
  -9.85999966       2.95092788E-04
  -9.85000038       2.20971386E-04
  -9.84000015       8.40392240E-05
  -9.82999992      -6.19015627E-05
  -9.81999969      -1.62497410E-04
  -9.81000042      -1.82593227E-04
  -9.80000019      -1.18891439E-04
  -9.78999996      -7.81180859E-07
  -9.77999973       1.21038982E-04
  -9.77000046       1.93925007E-04
  -9.76000023       1.83354001E-04
  -9.75000000       8.60873843E-05
  -9.73999977      -6.85737614E-05
  -9.72999954      -2.29886238E-04
  -9.72000027      -3.44780827E-04
  -9.71000004      -3.77531018E-04
  -9.69999981      -3.22283420E-04
  -9.68999958      -2.03564501E-04
  -9.68000031      -6.46570625E-05
  -9.67000008       5.13839041E-05
  -9.65999985       1.20267854E-04
  -9.64999962       1.46806648E-04
  -9.64000034       1.62498458E-04
  -9.63000011       2.10927741E-04
  -9.61999989       3.26601963E-04
  -9.60999966       5.15785534E-04
  -9.60000038       7.47489044E-04
  -9.59000015       9.59081808E-04
  -9.57999992       1.07538048E-03
  -9.56999969       1.03469426E-03
  -9.56000042       8.12294020E-04
  -9.55000019       4.32369066E-04
  -9.53999996      -3.64033622E-05
  -9.52999973      -5.00525173E-04
  -9.52000046      -8.69739393E-04
  -9.51000023      -1.08348404E-03
  -9.50000000      -1.12635072E-03
  -9.48999977      -1.02734461E-03
  -9.47999954      -8.43899499E-04
  -9.47000027      -6.37346529E-04
  -9.46000004      -4.49640327E-04
  -9.44999981      -2.90405442E-04
  -9.43999958      -1.39068608E-04
  -9.43000031       3.93093615E-05
  -9.42000008       2.71470490E-04
  -9.40999985       5.56432002E-04
  -9.39999962       8.57628358E-04
  -9.39000034       1.11072219E-03
  -9.38000011       1.24475919E-03
  -9.36999989       1.20881223E-03
  -9.35999966       9.93740396E-04
  -9.35000038       6.40219892E-04
  -9.34000015       2.29255093E-04
  -9.32999992      -1.41989018E-04
  -9.31999969      -3.90536705E-04
  -9.31000042      -4.73172724E-04
  -9.30000019      -3.97980155E-04
  -9.28999996      -2.17838067E-04
  -9.27999973      -8.64637059E-06
  -9.27000046       1.59262287E-04
  -9.26000023       2.45636125E-04
  -9.25000000       2.51630408E-04
  -9.23999977       2.14101616E-04
  -9.22999954       1.85721161E-04
  -9.22000027       2.09280406E-04
  -9.21000004       2.96757615E-04
  -9.19999981       4.21751698E-04
  -9.18999958       5.28539938E-04
  -9.18000031       5.54369297E-04
  -9.17000008       4.56256908E-04
  -9.15999985       2.31634665E-04
  -9.14999962      -7.56127338E-05
  -9.14000034      -3.86638712E-04
  -9.13000011      -6.12875214E-04
  -9.11999989      -6.85928448E-04
  -9.10999966      -5.81166707E-04
  -9.10000038      -3.26304231E-04
  -9.09000015       8.16455304E-06
  -9.07999992       3.33124190E-04
  -9.06999969       5.70718781E-04
  -9.06000042       6.79132820E-04
  -9.05000019       6.63549872E-04
  -9.03999996       5.69860160E-04
  -9.02999973       4.64127719E-04
  -9.02000046       4.05969186E-04
  -9.01000023       4.25955252E-04
  -9.00000000       5.15262829E-04
  -8.98999977       6.30908180E-04
  -8.97999954       7.13918358E-04
  -8.97000027       7.13027315E-04
  -8.96000004       6.04688481E-04
  -8.94999981       4.01947764E-04
  -8.93999958       1.49237443E-04
  -8.93000031      -9.43797568E-05
  -8.92000008      -2.76684528E-04
  -8.90999985      -3.70125839E-04
  -8.89999962      -3.79345351E-04
  -8.89000034      -3.35960911E-04
  -8.88000011      -2.83166999E-04
  -8.86999989      -2.56561470E-04
  -8.85999966      -2.68877629E-04
  -8.85000038      -3.04560381E-04
  -8.84000015      -3.26168782E-04
  -8.82999992      -2.89967458E-04
  -8.81999969      -1.64573183E-04
  -8.81000042       5.45474504E-05
  -8.80000019       3.40253755E-04
  -8.78999996       6.40392595E-04
  -8.77999973       8.93471821E-04
  -8.77000046       1.04763114E-03
  -8.76000023       1.07618177E-03
  -8.75000000       9.84457787E-04
  -8.73999977       8.06055206E-04
  -8.72999954       5.90382493E-04
  -8.72000027       3.86388507E-04
  -8.71000004       2.28346325E-04
  -8.69999981       1.28371015E-04
  -8.68999958       7.75424924E-05
  -8.68000031       5.42253256E-05
  -8.67000008       3.56720302E-05
  -8.65999985       8.14441592E-06
  -8.64999962      -2.82076144E-05
  -8.64000034      -6.11199503E-05
  -8.63000011      -7.33310517E-05
  -8.61999989      -5.17075314E-05
  -8.60999966       5.56300165E-06
  -8.60000038       8.66848422E-05
  -8.59000015       1.69780076E-04
  -8.57999992       2.30806210E-04
  -8.56999969       2.52748316E-04
  -8.56000042       2.32530903E-04
  -8.55000019       1.83004449E-04
  -8.53999996       1.29230160E-04
  -8.52999973       1.00376688E-04
  -8.52000046       1.20082841E-04
  -8.51000023       1.98599155E-04
  -8.50000000       3.29300266E-04
  -8.48999977       4.90572769E-04
  -8.47999954       6.52241579E-04
  -8.47000027       7.84250558E-04
  -8.46000004       8.64723988E-04
  -8.44999981       8.84957262E-04
  -8.43999958       8.50084005E-04
  -8.43000031       7.75671797E-04
  -8.42000008       6.81782141E-04
  -8.40999985       5.86697017E-04
  -8.39999962       5.02377225E-04
  -8.39000034       4.32906818E-04
  -8.38000011       3.76018201E-04
  -8.36999989       3.26707697E-04
  -8.35999966       2.81303277E-04
  -8.35000038       2.40314912E-04
  -8.34000015       2.08945028E-04
  -8.32999992       1.95070563E-04
  -8.31999969       2.05488730E-04
  -8.31000042       2.41894930E-04
  -8.30000019       2.98228581E-04
  -8.28999996       3.60610749E-04
  -8.27999973       4.10242734E-04
  -8.27000046       4.28608357E-04
  -8.26000023       4.03451762E-04
  -8.25000000       3.33594420E-04
  -8.23999977       2.30875856E-04
  -8.22999954       1.18314354E-04
  -8.22000027       2.47454482E-05
  -8.21000004      -2.26443444E-05
  -8.19999981      -5.70443626E-06
  -8.18999958       7.96456516E-05
  -8.18000031       2.22349467E-04
  -8.17000008       3.99504032E-04
  -8.15999985       5.82973240E-04
  -8.14999962       7.47176819E-04
  -8.14000034       8.75492813E-04
  -8.13000011       9.63175262E-04
  -8.11999989       1.01591018E-03
  -8.10999966       1.04469084E-03
  -8.10000038       1.05905870E-03
  -8.09000015       1.06140925E-03
  -8.07999992       1.04471820E-03
  -8.06999969       9.94789647E-04
  -8.06000042       8.96402111E-04
  -8.05000019       7.41149532E-04
  -8.03999996       5.33953193E-04
  -8.02999973       2.95499049E-04
  -8.02000046       5.92040269E-05
  -8.01000023      -1.36731163E-04
  -8.00000000      -2.59759196E-04
  -7.98999977      -2.92419543E-04
  -7.98000002      -2.37455330E-04
  -7.96999979      -1.16679483E-04
  -7.96000004       3.61992061E-05
  -7.94999981       1.86424455E-04
  -7.94000006       3.09006544E-04
  -7.92999983       3.95755138E-04
  -7.92000008       4.56090667E-04
  -7.90999985       5.11422870E-04
  -7.90000010       5.85193397E-04
  -7.88999987       6.92245376E-04
  -7.88000011       8.31437064E-04
  -7.86999989       9.84235201E-04
  -7.86000013       1.11985567E-03
  -7.84999990       1.20513770E-03
  -7.84000015       1.21563999E-03
  -7.82999992       1.14403234E-03
  -7.82000017       1.00286386E-03
  -7.80999994       8.20848043E-04
  -7.80000019       6.34115422E-04
  -7.78999996       4.75635607E-04
  -7.78000021       3.66528897E-04
  -7.76999998       3.12141521E-04
  -7.76000023       3.03893088E-04
  -7.75000000       3.25726665E-04
  -7.73999977       3.62351508E-04
  -7.73000002       4.05921921E-04
  -7.71999979       4.58563212E-04
  -7.71000004       5.29872836E-04
  -7.69999981       6.30533090E-04
  -7.69000006       7.64708035E-04
  -7.67999983       9.24389751E-04
  -7.67000008       1.08813820E-03
  -7.65999985       1.22502155E-03
  -7.65000010       1.30265625E-03
  -7.63999987       1.29672908E-03
  -7.63000011       1.19884673E-03
  -7.61999989       1.02012488E-03
  -7.61000013       7.89361948E-04
  -7.59999990       5.46443684E-04
  -7.59000015       3.33083328E-04
  -7.57999992       1.83685581E-04
  -7.57000017       1.18853553E-04
  -7.55999994       1.42994846E-04
  -7.55000019       2.46076204E-04
  -7.53999996       4.08339052E-04
  -7.53000021       6.06104673E-04
  -7.51999998       8.16820771E-04
  -7.51000023       1.02214515E-03
  -7.50000000       1.20877498E-03
  -7.48999977       1.36755628E-03
  -7.48000002       1.49186072E-03
  -7.46999979       1.57623086E-03
  -7.46000004       1.61591917E-03
  -7.44999981       1.60742062E-03
  -7.44000006       1.54963846E-03