  -16.0000000       0.00000000    
  -15.9899998       0.00000000    
  -15.9799995       0.00000000    
  -15.9700003       0.00000000    
  -15.9600000       0.00000000    
  -15.9499998       0.00000000    
  -15.9399996       0.00000000    
  -15.9300003       0.00000000    
  -15.9200001       2.61266080E-32
  -15.9099998       9.67663658E-32
  -15.8999996      -7.35998266E-31
  -15.8900003      -5.71407578E-30
  -15.8800001      -1.10303848E-30
  -15.8699999       1.72862155E-28
  -15.8599997       1.24895122E-27
  -15.8500004       5.41802227E-27
  -15.8400002       1.74682863E-26
  -15.8299999       4.55996393E-26
  -15.8199997       1.02613252E-25
  -15.8100004       2.13406448E-25
  -15.8000002       4.42001723E-25
  -15.7900000       9.46234909E-25
  -15.7799997       2.02112810E-24
  -15.7700005       3.98050101E-24
  -15.7600002       6.59549130E-24
  -15.7500000       7.84245043E-24
  -15.7399998       2.22514646E-24
  -15.7299995      -1.98502379E-23
  -15.7200003      -6.86029100E-23
  -15.7100000      -1.43772639E-22
  -15.6999998      -2.15365060E-22
  -15.6899996      -2.04294754E-22
  -15.6800003       1.62136664E-23
  -15.6700001       5.68384657E-22
  -15.6599998       1.44577277E-21
  -15.6499996       2.33855733E-21
  -15.6400003       2.50580210E-21
  -15.6300001       8.70920312E-22
  -15.6199999      -3.47282854E-21
  -15.6099997      -1.03049935E-20
  -15.6000004      -1.71705570E-20
  -15.5900002      -1.88801858E-20
  -15.5799999      -8.67112676E-21
  -15.5699997       1.81944353E-20
  -15.5600004       5.88015168E-20
  -15.5500002       9.73399261E-20
  -15.5400000       1.04657192E-19
  -15.5299997       4.74074625E-20
  -15.5200005      -9.13811173E-20
  -15.5100002      -2.85544738E-19
  -15.5000000      -4.47339327E-19
  -15.4899998      -4.38234653E-19
  -15.4799995      -1.26104163E-19
  -15.4700003       5.13769375E-19
  -15.4600000       1.29093549E-18
  -15.4499998       1.75845777E-18
  -15.4399996       1.32403781E-18
  -15.4300003      -4.39252758E-19
  -15.4200001      -3.34003579E-18
  -15.4099998      -6.18001401E-18
  -15.3999996      -6.76077669E-18
  -15.3900003      -2.61107543E-18
  -15.3800001       7.47576307E-18
  -15.3699999       2.14886071E-17
  -15.3599997       3.28239759E-17
  -15.3500004       3.08921783E-17
  -15.3400002       4.90732178E-18
  -15.3299999      -4.90682050E-17
  -15.3199997      -1.19793593E-16
  -15.3100004      -1.75531935E-16
  -15.3000002      -1.67425604E-16
  -15.2900000      -4.61513710E-17
  -15.2799997       2.08226056E-16
  -15.2700005       5.51250471E-16
  -15.2600002       8.50823049E-16
  -15.2500000       8.97806220E-16
  -15.2399998       4.68667565E-16
  -15.2299995      -5.58546125E-16
  -15.2200003      -2.06258261E-15
  -15.2100000      -3.57224795E-15
  -15.1999998      -4.27640762E-15
  -15.1899996      -3.22347600E-15
  -15.1800003       2.70544256E-16
  -15.1700001       6.08393400E-15
  -15.1599998       1.28167969E-14
  -15.1499996       1.76685127E-14
  -15.1400003       1.69467559E-14
  -15.1300001       7.34380276E-15
  -15.1199999      -1.21841014E-14
  -15.1099997      -3.84929041E-14
  -15.1000004      -6.31909686E-14
  -15.0900002      -7.34635063E-14
  -15.0799999      -5.54891352E-14
  -15.0699997      -3.35489951E-16
  -15.0600004       8.90000489E-14
  -15.0500002       1.92008302E-13
  -15.0400000       2.69911128E-13
  -15.0299997       2.72737968E-13
  -15.0200005       1.55349041E-13
  -15.0100002      -9.98634023E-14
  -15.0000000      -4.59993480E-13
  -14.9899998      -8.28207023E-13
  -14.9799995      -1.05068797E-12
  -14.9700003      -9.51545917E-13
  -14.9600000      -3.95293553E-13
  -14.9499998       6.35241859E-13
  -14.9399996       1.97010420E-12
  -14.9300003       3.22527638E-12
  -14.9200001       3.84923300E-12
  -14.9099998       3.26006973E-12
  -14.8999996       1.06220165E-12
  -14.8900003      -2.70505905E-12
  -14.8800001      -7.36942452E-12
  -14.8699999      -1.15786833E-11
  -14.8599997      -1.34930903E-11
  -14.8500004      -1.12535649E-11
  -14.8400002      -3.67393962E-12
  -14.8299999       9.00162930E-12
  -14.8199997       2.45288720E-11
  -14.8100004       3.85742757E-11
  -14.8000002       4.53491827E-11
  -14.7900000       3.90498363E-11
  -14.7799997       1.59300281E-11
  -14.7700005      -2.34659445E-11
  -14.7600002      -7.26340724E-11
  -14.7500000      -1.18826629E-10
  -14.7399998      -1.44821918E-10
  -14.7299995      -1.32970773E-10
  -14.7200003      -7.10450795E-11
  -14.7100000       4.13894127E-11
  -14.6999998       1.88029911E-10
  -14.6899996       3.34544031E-10
  -14.6800003       4.32770098E-10
  -14.6700001       4.31114588E-10
  -14.6599998       2.90061614E-10
  -14.6499996      -3.72453126E-13
  -14.6400003      -4.06196798E-10
  -14.6300001      -8.43781822E-10
  -14.6199999      -1.18796128E-09
  -14.6099997      -1.29623323E-09
  -14.6000004      -1.04707421E-09
  -14.5900002      -3.85227072E-10
  -14.5799999       6.37795095E-10
  -14.5699997       1.84220494E-09
  -14.5600004       2.93045610E-09
  -14.5500002       3.53717300E-09
  -14.5400000       3.31616823E-09
  -14.5299997       2.05016693E-09
  -14.5200005      -2.42572101E-10
  -14.5100002      -3.23762284E-09
  -14.5000000      -6.30191410E-09
  -14.4899998      -8.58098392E-09
  -14.4799995      -9.17737886E-09
  -14.4700003      -7.39517869E-09
  -14.4600000      -2.99902636E-09
  -14.4499998       3.58286467E-09
  -14.4399996       1.11858700E-08
  -14.4300003       1.80234192E-08
  -14.4200001       2.20079137E-08
  -14.4099998       2.12436504E-08
  -14.3999996       1.45996424E-08
  -14.3900003       2.22386287E-09
  -14.3800001      -1.41583802E-08
  -14.3699999      -3.12987467E-08
  -14.3599997      -4.49058284E-08
  -14.3500004      -5.05245303E-08
  -14.3400002      -4.46733530E-08
  -14.3299999      -2.59950230E-08
  -14.3199997       3.88384569E-09
  -14.3100004       4.00784756E-08
  -14.3000002       7.49601341E-08
  -14.2900000       9.94965177E-08
  -14.2799997       1.05245526E-07
  -14.2700005       8.66222294E-08
  -14.2600002       4.29094911E-08
  -14.2500000      -2.05560262E-08
  -14.2399998      -9.24890671E-08
  -14.2299995      -1.57275267E-07
  -14.2200003      -1.97981976E-07
  -14.2100000      -2.00259748E-07
  -14.1999998      -1.56317796E-07
  -14.1899996      -6.79943355E-08
  -14.1800003       5.19976773E-08
  -14.1700001       1.81265591E-07
  -14.1599998       2.91480518E-07
  -14.1499996       3.54160051E-07
  -14.1400003       3.47395371E-07
  -14.1300001       2.62027243E-07
  -14.1199999       1.05689196E-07
  -14.1099997      -9.65699911E-08
  -14.1000004      -3.05716043E-07
  -14.0900002      -4.75938009E-07
  -14.0799999      -5.64404786E-07
  -14.0699997      -5.41555153E-07
  -14.0600004      -3.99522349E-07
  -14.0500002      -1.56449403E-07
  -14.0400000       1.44817520E-07
  -14.0299997       4.43984788E-07
  -14.0200005       6.75432318E-07
  -14.0100002       7.82815164E-07
  -14.0000000       7.32901128E-07
  -13.9899998       5.25247515E-07
  -13.9799995       1.94988559E-07
  -13.9700003      -1.92577176E-07
  -13.9600000      -5.55026077E-07
  -13.9499998      -8.10973177E-07
  -13.9399996      -8.99361225E-07
  -13.9300003      -7.95239089E-07
  -13.9200001      -5.17856847E-07
  -13.9099998      -1.28461863E-07
  -13.8999996       2.82455147E-07
  -13.8900003       6.16076022E-07
  -13.8800001       7.89672413E-07
  -13.8699999       7.58576448E-07
  -13.8599997       5.29880424E-07
  -13.8500004       1.63675153E-07
  -13.8400002      -2.39505852E-07
  -13.8299999      -5.62904006E-07
  -13.8199997      -7.04062131E-07
  -13.8100004      -6.04181366E-07
  -13.8000002      -2.68457939E-07
  -13.7900000       2.28815580E-07
  -13.7799997       7.57195608E-07
  -13.7700005       1.15943908E-06
  -13.7600002       1.29118939E-06
  -13.7500000       1.06165510E-06
  -13.7399998       4.64781237E-07
  -13.7299995      -4.08132962E-07
  -13.7200003      -1.37951747E-06
  -13.7100000      -2.21989467E-06
  -13.6999998      -2.69914517E-06
  -13.6899996      -2.64345044E-06
  -13.6800003      -1.98426551E-06
  -13.6700001      -7.86469514E-07
  -13.6599998       7.53059851E-07
  -13.6499996       2.33862829E-06
  -13.6400003       3.63521372E-06
  -13.6300001       4.34198091E-06
  -13.6199999       4.26325414E-06
  -13.6099997       3.35985374E-06
  -13.6000004       1.76734034E-06
  -13.5900002      -2.25152448E-07
  -13.5799999      -2.23269922E-06
  -13.5699997      -3.85719841E-06
  -13.5600004      -4.77641652E-06
  -13.5500002      -4.81852931E-06
  -13.5400000      -4.00365707E-06
  -13.5299997      -2.54094675E-06
  -13.5200005      -7.80026710E-07
  -13.5100002       8.73233432E-07
  -13.5000000       2.05739616E-06
  -13.4899998       2.54814881E-06
  -13.4799995       2.31914737E-06
  -13.4700003       1.55361818E-06
  -13.4600000       6.00548390E-07
  -13.4499998      -1.17151018E-07
  -13.4399996      -2.22356419E-07
  -13.4300003       4.97605527E-07
  -13.4200001       2.00461795E-06
  -13.4099998       3.98181328E-06
  -13.3999996       5.87790191E-06
  -13.3900003       7.02095485E-06
  -13.3800001       6.78110609E-06
  -13.3699999       4.74714079E-06
  -13.3599997       8.74552256E-07
  -13.3500004      -4.43522595E-06
  -13.3400002      -1.03526218E-05
  -13.3299999      -1.57427639E-05
  -13.3199997      -1.93771648E-05
  -13.3100004      -2.01951771E-05
  -13.3000002      -1.75602436E-05
  -13.2900000      -1.14514523E-05
  -13.2799997      -2.53997609E-06
  -13.2700005       7.87819226E-06
  -13.2600002       1.80913921E-05
  -13.2500000       2.62887133E-05
  -13.2399998       3.09217285E-05
  -13.2299995       3.10343967E-05
  -13.2200003       2.64857081E-05
  -13.2100000       1.80090519E-05
  -13.1999998       7.08602875E-06
  -13.1899996      -4.34627600E-06
  -13.1800003      -1.42962808E-05
  -13.1700001      -2.11410588E-05
  -13.1599998      -2.39762430E-05
  -13.1499996      -2.28102708E-05
  -13.1400003      -1.85534282E-05
  -13.1300001      -1.27984331E-05
  -13.1199999      -7.43841792E-06
  -13.1099997      -4.20826154E-06
  -13.1000004      -4.25651569E-06
  -13.0900002      -7.85137490E-06
  -13.0799999      -1.42953731E-05
  -13.0699997      -2.20755537E-05
  -13.0600004      -2.92197601E-05
  -13.0500002      -3.37786842E-05
  -13.0400000      -3.43200736E-05
  -13.0299997      -3.03146408E-05
  -13.0200005      -2.23153256E-05
  -13.0100002      -1.18783810E-05
  -13.0000000      -1.23537882E-06
  -12.9899998       7.21415427E-06
  -12.9799995       1.14743125E-05
  -12.9700003       1.04540404E-05
  -12.9600000       4.27593204E-06
  -12.9499998      -5.68767291E-06
  -12.9399996      -1.70694784E-05
  -12.9300003      -2.70032760E-05
  -12.9200001      -3.27539019E-05
  -12.9099998      -3.23401255E-05
  -12.8999996      -2.50081594E-05
  -12.8900003      -1.14451850E-05
  -12.8800001       6.31986632E-06
  -12.8699999       2.53106991E-05
  -12.8599997       4.22085577E-05
  -12.8500004       5.40351612E-05
  -12.8400002       5.87634095E-05
  -12.8299999       5.57219573E-05
  -12.8199997       4.57063215E-05
  -12.8100004       3.07751288E-05
  -12.8000002       1.37803354E-05
  -12.7900000      -2.26122256E-06
  -12.7799997      -1.48139643E-05
  -12.7700005      -2.23443640E-05
  -12.7600002      -2.46033560E-05
  -12.7500000      -2.26116827E-05
  -12.7399998      -1.83561187E-05
  -12.7299995      -1.42680619E-05
  -12.7200003      -1.26033838E-05
  -12.7100000      -1.48631325E-05
  -12.6999998      -2.13852400E-05
  -12.6899996      -3.12001321E-05
  -12.6800003      -4.21865188E-05
  -12.6700001      -5.14995372E-05
  -12.6599998      -5.61852175E-05
  -12.6499996      -5.38547320E-05
  -12.6400003      -4.32769848E-05
  -12.6300001      -2.47618173E-05
  -12.6199999      -2.45923758E-07
  -12.6099997       2.69486518E-05
  -12.6000004       5.26482982E-05
  -12.5900002       7.25592690E-05
  -12.5799999       8.30598728E-05
  -12.5699997       8.19004999E-05
  -12.5600004       6.86721469E-05
  -12.5500002       4.49462932E-05
  -12.5400000       1.40513193E-05
  -12.5299997      -1.94781442E-05
  -12.5200005      -5.06772085E-05
  -12.5100002      -7.50043691E-05
  -12.5000000      -8.91087038E-05
  -12.4899998      -9.13640324E-05
  -12.4799995      -8.20714631E-05
  -12.4700003      -6.33010713E-05
  -12.4600000      -3.84182094E-05
  -12.4499998      -1.14043605E-05
  -12.4399996       1.38786590E-05
  -12.4300003       3.43272950E-05
  -12.4200001       4.80138151E-05
  -12.4099998       5.43165515E-05
  -12.3999996       5.37670094E-05
  -12.3900003       4.76844725E-05
  -12.3800001       3.77143588E-05
  -12.3699999       2.54005627E-05
  -12.3599997       1.19014940E-05
  -12.3500004      -2.08927850E-06
  -12.3400002      -1.62204251E-05
  -12.3299999      -3.02215976E-05
  -12.3199997      -4.36079463E-05
  -12.3100004      -5.54650323E-05
  -12.3000002      -6.44048923E-05
  -12.2900000      -6.87328211E-05
  -12.2799997      -6.67994027E-05
  -12.2700005      -5.74525984E-05
  -12.2600002      -4.04663624E-05
  -12.2500000      -1.68180595E-05
  -12.2399998       1.12813341E-05
  -12.2299995       4.06396794E-05
  -12.2200003       6.75805204E-05
  -12.2100000       8.85790796E-05
  -12.1999998       1.00890982E-04
  -12.1899996       1.03023915E-04
  -12.1800003       9.49394816E-05
  -12.1700001       7.79412076E-05
  -12.1599998       5.42867092E-05
  -12.1499996       2.66352890E-05
  -12.1400003      -2.51445181E-06
  -12.1300001      -3.12422271E-05
  -12.1199999      -5.83688525E-05
  -12.1099997      -8.33318045E-05
  -12.1000004      -1.05831110E-04
  -12.0900002      -1.25378254E-04
  -12.0799999      -1.40918841E-04
  -12.0699997      -1.50686144E-04
  -12.0600004      -1.52379551E-04
  -12.0500002      -1.43663958E-04
  -12.0400000      -1.22881247E-04
  -12.0299997      -8.97836508E-05
  -12.0200005      -4.60666379E-05
  -12.0100002       4.48976562E-06
  -12.0000000       5.63742979E-05
  -11.9899998       1.03169463E-04
  -11.9799995       1.38696589E-04
  -11.9700003       1.58232462E-04
  -11.9600000       1.59512492E-04
  -11.9499998       1.43271012E-04
  -11.9399996       1.13171147E-04
  -11.9300003       7.51173211E-05
  -11.9200001       3.60889098E-05
  -11.9099998       2.74541708E-06
  -11.8999996      -1.98955640E-05
  -11.8900003      -2.94274414E-05
  -11.8800001      -2.64756600E-05
  -11.8699999      -1.45006743E-05
  -11.8599997       9.54439429E-07
  -11.8500004       1.34002994E-05
  -11.8400002       1.66877089E-05
  -11.8299999       6.20239916E-06
  -11.8199997      -2.02339179E-05
  -11.8100004      -6.18867125E-05
  -11.8000002      -1.15104398E-04
  -11.7900000      -1.73760200E-04
  -11.7799997      -2.30056918E-04
  -11.7700005      -2.75575614E-04
  -11.7600002      -3.02431552E-04
  -11.7500000      -3.04395682E-04
  -11.7399998      -2.77842715E-04
  -11.7299995      -2.22400820E-04
  -11.7200003      -1.41202356E-04
  -11.7100000      -4.06771069E-05
  -11.6999998       7.01119498E-05
  -11.6899996       1.80520874E-04
  -11.6800003       2.79626722E-04
  -11.6700001       3.57588520E-04
  -11.6599998       4.06857522E-04
  -11.6499996       4.23046178E-04
  -11.6400003       4.05325991E-04
  -11.6300001       3.56311590E-04
  -11.6199999       2.81483197E-04
  -11.6099997       1.88280566E-04
  -11.6000004       8.50494980E-05
  -11.5900002      -1.99718834E-05
  -11.5799999      -1.19472395E-04
  -11.5699997      -2.07598772E-04
  -11.5600004      -2.80175154E-04
  -11.5500002      -3.34650424E-04
  -11.5400000      -3.69857094E-04
  -11.5299997      -3.85681778E-04
  -11.5200005      -3.82742990E-04
  -11.5100002      -3.62147082E-04
  -11.5000000      -3.25362431E-04
  -11.4899998      -2.74215214E-04
  -11.4799995      -2.10979371E-04
  -11.4700003      -1.38506788E-04
  -11.4600000      -6.03273911E-05
  -11.4499998       1.93521973E-05
  -11.4399996       9.58094824E-05
  -11.4300003       1.64149285E-04
  -11.4200001       2.19804118E-04
  -11.4099998       2.59112712E-04
  -11.3999996       2.79854663E-04
  -11.3900003       2.81601999E-04
  -11.3800001       2.65772891E-04
  -11.3699999       2.35334985E-04
  -11.3599997       1.94197855E-04
  -11.3500004       1.46428181E-04
  -11.3400002       9.54877396E-05
  -11.3299999       4.37063391E-05
  -11.3199997      -7.85287466E-06
  -11.3100004      -5.90882373E-05
  -11.3000002      -1.10204754E-04
  -11.2900000      -1.60919823E-04
  -11.2799997      -2.09801277E-04
  -11.2700005      -2.53986538E-04
  -11.2600002      -2.89423973E-04
  -11.2500000      -3.11616139E-04
  -11.2399998      -3.16677499E-04
  -11.2299995      -3.02404485E-04
  -11.2200003      -2.69031327E-04
  -11.2100000      -2.19425841E-04
  -11.1999998      -1.58642215E-04
  -11.1899996      -9.29412126E-05
  -11.1800003      -2.85506630E-05
  -11.1700001       2.94833371E-05
  -11.1599998       7.80373302E-05
  -11.1499996       1.16059266E-04
  -11.1400003       1.44129270E-04
  -11.1300001       1.63618286E-04
  -11.1199999       1.75746871E-04
  -11.1099997       1.80861418E-04
  -11.1000004       1.78159025E-04
  -11.0900002       1.65936537E-04
  -11.0799999       1.42271238E-04
  -11.0699997       1.05910665E-04
  -11.0600004       5.70996926E-05
  -11.0500002      -1.89218690E-06
  -11.0400000      -6.66807828E-05
  -11.0299997      -1.31128560E-04
  -11.0200005      -1.88066988E-04
  -11.0100002      -2.30230697E-04
  -11.0000000      -2.51247402E-04
  -10.9899998      -2.46555079E-04
  -10.9799995      -2.14154483E-04
  -10.9700003      -1.55127258E-04
  -10.9600000      -7.38507006E-05
  -10.9499998       2.21674509E-05
  -10.9399996       1.22903031E-04
  -10.9300003       2.16901070E-04
  -10.9200001       2.92763114E-04
  -10.9099998       3.40846454E-04
  -10.8999996       3.54875461E-04
  -10.8900003       3.33114876E-04
  -10.8800001       2.78799271E-04
  -10.8699999       1.99657545E-04
  -10.8599997       1.06587075E-04
  -10.8500004       1.17547561E-05
  -10.8400002      -7.34402711E-05
  -10.8299999      -1.40072632E-04
  -10.8199997      -1.82701755E-04
  -10.8100004      -1.99539863E-04
  -10.8000002      -1.91883679E-04
  -10.7900000      -1.63120669E-04
  -10.7799997      -1.17706200E-04
  -10.7700005      -6.04437591E-05
  -10.7600002       3.78311779E-06
  -10.7500000       6.99072698E-05
  -10.7399998       1.32464018E-04
  -10.7299995       1.85586177E-04
  -10.7200003       2.23434647E-04
  -10.7100000       2.41083108E-04
  -10.6999998       2.35634783E-04
  -10.6899996       2.07178979E-04
  -10.6800003       1.59173738E-04
  -10.6700001       9.79921315E-05
  -10.6599998       3.16465193E-05
  -10.6499996      -3.19920109E-05
  -10.6400003      -8.69507130E-05
  -10.6300001      -1.30331668E-04
  -10.6199999      -1.62527169E-04
  -10.6099997      -1.86418780E-04
  -10.6000004      -2.05864635E-04
  -10.5900002      -2.24036296E-04
  -10.5799999      -2.42217895E-04
  -10.5699997      -2.59500230E-04
  -10.5600004      -2.73450947E-04
  -10.5500002      -2.81450863E-04
  -10.5400000      -2.82109395E-04
  -10.5299997      -2.76120671E-04
  -10.5200005      -2.66129355E-04
  -10.5100002      -2.55572377E-04
  -10.5000000      -2.46899552E-04
  -10.4899998      -2.39884801E-04
  -10.4799995      -2.30785896E-04
  -10.4700003      -2.12860672E-04
  -10.4600000      -1.78273913E-04
  -10.4499998      -1.20899160E-04
  -10.4399996      -3.91266512E-05
  -10.4300003       6.23108717E-05
  -10.4200001       1.72235799E-04
  -10.4099998       2.74865102E-04
  -10.3999996       3.53182928E-04
  -10.3900003       3.92923423E-04
  -10.3800001       3.86018073E-04
  -10.3699999       3.32511758E-04
  -10.3599997       2.40424808E-04
  -10.3500004       1.23671751E-04
  -10.3400002      -1.27396743E-06
  -10.3299999      -1.18948316E-04
  -10.3199997      -2.17693552E-04
  -10.3100004      -2.91018310E-04
  -10.3000002      -3.37381294E-04
  -10.2900000      -3.58777324E-04
  -10.2799997      -3.58833495E-04
  -10.2700005      -3.41168372E-04
  -10.2600002      -3.08535062E-04
  -10.2500000      -2.62878690E-04
  -10.2399998      -2.06053068E-04
  -10.2299995      -1.40707692E-04
  -10.2200003      -7.08523075E-05
  -10.2100000      -1.80944517E-06
  -10.1999998       6.04322013E-05
  -10.1899996       1.10186411E-04
  -10.1800003       1.42970326E-04
  -10.1700001       1.56026697E-04
  -10.1599998       1.48375169E-04
  -10.1499996       1.20546087E-04
  -10.1400003       7.42968114E-05
  -10.1300001       1.25842498E-05
  -10.1199999      -6.01315842E-05
  -10.1099997      -1.37449999E-04
  -10.1000004      -2.10866114E-04
  -10.0900002      -2.70314602E-04
  -10.0799999      -3.05643538E-04
  -10.0699997      -3.08854855E-04
  -10.0600004      -2.76531937E-04
  -10.0500002      -2.11615057E-04
  -10.0400000      -1.23724370E-04
  -10.0299997      -2.76054870E-05
  -10.0200005       6.01175743E-05
  -10.0100002       1.25059189E-04
  -10.0000000       1.58818497E-04
  -9.98999977       1.61102274E-04
  -9.97999954       1.39415177E-04
  -9.97000027       1.06285588E-04
  -9.96000004       7.48491730E-05
  -9.94999981       5.42341477E-05
  -9.93999958       4.63398574E-05
  -9.93000031       4.51866945E-05
  -9.92000008       3.91608737E-05
  -9.90999985       1.54657519E-05
  -9.89999962      -3.47192799E-05
  -9.89000034      -1.12181704E-04
  -9.88000011      -2.08209400E-04
  -9.86999989      -3.06346308E-04
  -9.85999966      -3.86896252E-04
  -9.85000038      -4.32736066E-04
  -9.84000015      -4.34518384E-04
  -9.82999992      -3.93525232E-04
  -9.81999969      -3.21219704E-04
  -9.81000042      -2.35658823E-04
  -9.80000019      -1.55986345E-04
  -9.78999996      -9.68464155E-05
  -9.77999973      -6.45352047E-05
  -9.77000046      -5.60585140E-05
  -9.76000023      -6.12298682E-05
  -9.75000000      -6.69035799E-05
  -9.73999977      -6.17612677E-05
  -9.72999954      -3.99858436E-05
  -9.72000027      -2.67058545E-06
  -9.71000004       4.32928682E-05
  -9.69999981       8.81718806E-05
  -9.68999958       1.22902944E-04
  -9.68000031       1.41776676E-04
  -9.67000008       1.43373720E-04
  -9.65999985       1.29617372E-04
  -9.64999962       1.03607526E-04
  -9.64000034       6.73872346E-05
  -9.63000011       2.07735338E-05
  -9.61999989      -3.81246864E-05
  -9.60999966      -1.10864341E-04
  -9.60000038      -1.95998393E-04
  -9.59000015      -2.87051953E-04
  -9.57999992      -3.72263486E-04
  -9.56999969      -4.36570001E-04
  -9.56000042      -4.65430116E-04
  -9.55000019      -4.49289713E-04
  -9.53999996      -3.87126347E-04
  -9.52999973      -2.87718198E-04
  -9.52000046      -1.68019862E-04
  -9.51000023      -4.90273378E-05
  -9.50000000       4.95909662E-05
  -9.48999977       1.14364382E-04
  -9.47999954       1.40822463E-04
  -9.47000027       1.33387992E-04
  -9.46000004       1.02544960E-04
  -9.44999981       6.04154302E-05
  -9.43999958       1.64012654E-05
  -9.43000031      -2.55487739E-05
  -9.42000008      -6.71511007E-05
  -9.40999985      -1.13566188E-04
  -9.39999962      -1.69756604E-04
  -9.39000034      -2.36954394E-04
  -9.38000011      -3.10690870E-04
  -9.36999989      -3.81206773E-04
  -9.35999966      -4.36118600E-04
  -9.35000038      -4.64332901E-04
  -9.34000015      -4.59714618E-04
  -9.32999992      -4.23111778E-04
  -9.31999969      -3.61974875E-04
  -9.31000042      -2.87736591E-04
  -9.30000019      -2.11971506E-04
  -9.28999996      -1.42812729E-04
  -9.27999973      -8.29797718E-05
  -9.27000046      -3.01262662E-05
  -9.26000023       2.07044159E-05
  -9.25000000       7.35604190E-05
  -9.23999977       1.28465239E-04
  -9.22999954       1.80016941E-04
  -9.22000027       2.18344227E-04
  -9.21000004       2.32132574E-04
  -9.19999981       2.12611456E-04
  -9.18999958       1.56994691E-04
  -9.18000031       7.00502424E-05
  -9.17000008      -3.68256660E-05
  -9.15999985      -1.48715131E-04
  -9.14999962      -2.51328340E-04
  -9.14000034      -3.34676559E-04
  -9.13000011      -3.94954666E-04
  -9.11999989      -4.34036105E-04
  -9.10999966      -4.56929265E-04
  -9.10000038      -4.68348298E-04
  -9.09000015      -4.69899183E-04
  -9.07999992      -4.59120289E-04
  -9.06999969      -4.30853222E-04
  -9.06000042      -3.80435435E-04
  -9.05000019      -3.07398150E-04
  -9.03999996      -2.18043555E-04
  -9.02999973      -1.25608974E-04
  -9.02000046      -4.75954803E-05
  -9.01000023      -9.30527506E-07
  -9.00000000       3.46489105E-06
  -8.98999977      -3.52227871E-05
  -8.97999954      -1.06512023E-04
  -8.97000027      -1.90986902E-04
  -8.96000004      -2.65619135E-04
  -8.94999981      -3.10408097E-04
  -8.93999958      -3.14190431E-04
  -8.93000031      -2.77709274E-04
  -8.92000008      -2.12942890E-04
  -8.90999985      -1.38958887E-04
  -8.89999962      -7.57292655E-05
  -8.89000034      -3.80081547E-05
  -8.88000011      -3.12986085E-05
  -8.86999989      -5.11565231E-05
  -8.85999966      -8.58816347E-05
  -8.85000038      -1.21460616E-04
  -8.84000015      -1.46880659E-04
  -8.82999992      -1.57878749E-04
  -8.81999969      -1.57838876E-04
  -8.81000042      -1.55645190E-04
  -8.80000019      -1.61437405E-04
  -8.78999996      -1.81978059E-04
  -8.77999973      -2.17455279E-04
  -8.77000046      -2.60980916E-04
  -8.76000023      -3.01012449E-04
  -8.75000000      -3.25816014E-04
  -8.73999977      -3.28302092E-04
  -8.72999954      -3.09393014E-04
  -8.72000027      -2.78581982E-04
  -8.71000004      -2.51337013E-04
  -8.69999981      -2.44128343E-04
  -8.68999958      -2.68720352E-04
  -8.68000031      -3.27663467E-04
  -8.67000008      -4.12545603E-04
  -8.65999985      -5.05658565E-04
  -8.64999962      -5.84614289E-04
  -8.64000034      -6.28492620E-04
  -8.63000011      -6.23631873E-04
  -8.61999989      -5.67327952E-04
  -8.60999966      -4.68412065E-04
  -8.60000038      -3.44677916E-04
  -8.59000015      -2.18085886E-04
  -8.57999992      -1.09278728E-04
  -8.56999969      -3.30237053E-05
  -8.56000042       4.23252141E-06
  -8.55000019       4.27367331E-06
  -8.53999996      -2.51147430E-05
  -8.52999973      -7.35063804E-05
  -8.52000046      -1.31104884E-04
  -8.51000023      -1.90908453E-04
  -8.50000000      -2.49269389E-04
  -8.48999977      -3.04975169E-04
  -8.47999954      -3.57488840E-04
  -8.47000027      -4.05219849E-04
  -8.46000004      -4.44604084E-04
  -8.44999981      -4.70403931E-04
  -8.43999958      -4.77150985E-04
  -8.43000031      -4.61214629E-04
  -8.42000008      -4.22735873E-04
  -8.40999985      -3.66686174E-04
  -8.39999962      -3.02580971E-04
  -8.39000034      -2.42795039E-04
  -8.38000011      -1.99866656E-04
  -8.36999989      -1.83500117E-04
  -8.35999966      -1.98089881E-04
  -8.35000038      -2.41467846E-04
  -8.34000015      -3.05253547E-04
  -8.32999992      -3.76755866E-04
  -8.31999969      -4.41954966E-04
  -8.31000042      -4.88794816E-04
  -8.30000019      -5.09924954E-04
  -8.28999996      -5.04175143E-04
  -8.27999973      -4.76391375E-04
  -8.27000046      -4.35715687E-04
  -8.26000023      -3.92835966E-04
  -8.25000000      -3.57024401E-04
  -8.23999977      -3.33842152E-04
  -8.22999954      -3.24178021E-04
  -8.22000027      -3.24864377E-04
  -8.21000004      -3.30600567E-04
  -8.19999981      -3.36475699E-04
  -8.18999958      -3.40168364E-04
  -8.18000031      -3.42996558E-04
  -8.17000008      -3.49386217E-04
  -8.15999985      -3.64893582E-04
  -8.14999962      -3.93468217E-04
  -8.14000034      -4.34980902E-04
  -8.13000011      -4.84022661E-04
  -8.11999989      -5.30590070E-04
  -8.10999966      -5.62624889E-04
  -8.10000038      -5.69688855E-04
  -8.09000015      -5.46577387E-04
  -8.07999992      -4.95599175E-04
  -8.06999969      -4.26626822E-04
  -8.06000042      -3.54743213E-04
  -8.05000019      -2.96136015E-04
  -8.03999996      -2.63530208E-04
  -8.02999973      -2.62649846E-04
  -8.02000046      -2.90888711E-04
  -8.01000023      -3.38627055E-04
  -8.00000000      -3.92712682E-04
  -7.98999977      -4.40872100E-04
  -7.98000002      -4.75498528E-04
  -7.96999979      -4.95506392E-04
  -7.96000004      -5.05669799E-04
  -7.94999981      -5.13802515E-04
  -7.94000006      -5.26943535E-04
  -7.92999983      -5.48077980E-04
  -7.92000008      -5.74698090E-04
  -7.90999985      -5.99777268E-04
  -7.90000010      -6.14766497E-04
  -7.88999987      -6.13400654E-04
  -7.88000011      -5.94747078E-04
  -7.86999989      -5.64190268E-04
  -7.86000013      -5.31842816E-04
  -7.84999990      -5.08898287E-04
  -7.84000015      -5.03297546E-04
  -7.82999992      -5.16424014E-04
  -7.82000017      -5.42216119E-04
  -7.80999994      -5.69189899E-04
  -7.80000019      -5.84739028E-04
  -7.78999996      -5.80150750E-04
  -7.78000021      -5.54417842E-04
  -7.76999998      -5.15302527E-04
  -7.76000023      -4.77100606E-04
  -7.75000000      -4.55796981E-04
  -7.73999977      -4.63329023E-04
  -7.73000002      -5.03072864E-04
  -7.71999979      -5.68273477E-04
  -7.71000004      -6.44080050E-04
  -7.69999981      -7.12507055E-04
  -7.69000006      -7.58529641E-04
  -7.67999983      -7.75064807E-04
  -7.67000008      -7.64987548E-04
  -7.65999985      -7.39433977E-04
  -7.65000010      -7.13044952E-04
  -7.63999987      -6.97981857E-04
  -7.63000011      -6.99027674E-04
  -7.61999989      -7.11691740E-04
  -7.61000013      -7.24096433E-04
  -7.59999990      -7.21964112E-04
  -7.59000015      -6.94810704E-04
  -7.57999992      -6.40943297E-04
  -7.57000017      -5.69271564E-04
  -7.55999994      -4.97122644E-04
  -7.55000019      -4.44757519E-04
  -7.53999996      -4.28544037E-04
  -7.53000021      -4.55277215E-04
  -7.51999998      -5.19731548E-04
  -7.51000023      -6.06337970E-04
  -7.50000000      -6.94345683E-04
  -7.48999977      -7.64553959E-04
  -7.48000002      -8.05154152E-04
  -7.46999979      -8.14611500E-04
  -7.46000004      -8.00692709E-04
  -7.44999981      -7.76242465E-04
  -7.44000006      -7.53541302E-04