  -16.0000000       0.00000000    
  -15.9899998       0.00000000    
  -15.9799995       0.00000000    
  -15.9700003       0.00000000    
  -15.9600000       0.00000000    
  -15.9499998       0.00000000    
  -15.9399996      -2.16443152E-27
  -15.9300003       1.95657317E-28
  -15.9200001       1.38794936E-25
  -15.9099998       9.86097529E-25
  -15.8999996       3.71142884E-24
  -15.8900003       9.00305889E-24
  -15.8800001       1.48409017E-23
  -15.8699999       1.90674891E-23
  -15.8599997       3.95764700E-23
  -15.8500004       1.53751426E-22
  -15.8400002       5.01655406E-22
  -15.8299999       1.09777853E-21
  -15.8199997       1.25036973E-21
  -15.8100004      -1.39842415E-21
  -15.8000002      -1.15363245E-20
  -15.7900000      -3.48976482E-20
  -15.7799997      -7.28708444E-20
  -15.7700005      -1.12173097E-19
  -15.7600002      -1.13154068E-19
  -15.7500000      -7.18435200E-21
  -15.7399998       2.80825672E-19
  -15.7299995       7.71502620E-19
  -15.7200003       1.33678539E-18
  -15.7100000       1.61267122E-18
  -15.6999998       9.99420916E-19
  -15.6899996      -1.15223561E-18
  -15.6800003      -5.10972377E-18
  -15.6700001      -1.01437506E-17
  -15.6599998      -1.39804227E-17
  -15.6499996      -1.27567041E-17
  -15.6400003      -1.97409155E-18
  -15.6300001       2.12610183E-17
  -15.6199999       5.49683917E-17
  -15.6099997       8.90704576E-17
  -15.6000004       1.04102407E-16
  -15.5900002       7.41122197E-17
  -15.5799999      -2.45586003E-17
  -15.5699997      -1.98739261E-16
  -15.5600004      -4.21235202E-16
  -15.5500002      -6.17529317E-16
  -15.5400000      -6.65641900E-16
  -15.5299997      -4.18780977E-16
  -15.5200005       2.43110500E-16
  -15.5100002       1.33521530E-15
  -15.5000000       2.67863073E-15
  -15.4899998       3.83183772E-15
  -15.4799995       4.08972876E-15
  -15.4700003       2.60407892E-15
  -15.4600000      -1.33176799E-15
  -15.4499998      -7.83174117E-15
  -15.4399996      -1.58749577E-14
  -15.4300003      -2.28594846E-14
  -15.4200001      -2.45563728E-14
  -15.4099998      -1.58345847E-14
  -15.3999996       7.54495445E-15
  -15.3900003       4.60686346E-14
  -15.3800001       9.31160802E-14
  -15.3699999       1.32448346E-13
  -15.3599997       1.38565361E-13
  -15.3500004       8.21263291E-14
  -15.3400002      -5.82688330E-14
  -15.3299999      -2.78980235E-13
  -15.3199997      -5.33614819E-13
  -15.3100004      -7.23415143E-13
  -15.3000002      -7.06922205E-13
  -15.2900000      -3.38468701E-13
  -15.2799997       4.62776356E-13
  -15.2700005       1.62591501E-12
  -15.2600002       2.85443609E-12
  -15.2500000       3.61124021E-12
  -15.2399998       3.21057850E-12
  -15.2299995       1.04434939E-12
  -15.2200003      -3.07755405E-12
  -15.2100000      -8.56176241E-12
  -15.1999998      -1.37986428E-11
  -15.1899996      -1.62557034E-11
  -15.1800003      -1.30558698E-11
  -15.1700001      -2.06869916E-12
  -15.1599998       1.66783046E-11
  -15.1499996       3.97201057E-11
  -15.1400003       5.96574803E-11
  -15.1300001       6.61092917E-11
  -15.1199999       4.85033749E-11
  -15.1099997       4.97670319E-13
  -15.1000004      -7.49993401E-11
  -15.0900002      -1.62039507E-10
  -15.0799999      -2.31324765E-10
  -15.0699997      -2.45287818E-10
  -15.0600004      -1.69166584E-10
  -15.0500002       1.35211269E-11
  -15.0400000       2.85270807E-10
  -15.0299997       5.84884530E-10
  -15.0200005       8.10464973E-10
  -15.0100002       8.39789793E-10
  -15.0000000       5.67957403E-10
  -14.9899998      -4.46236451E-11
  -14.9799995      -9.27845578E-10
  -14.9700003      -1.87960092E-09
  -14.9600000      -2.58334687E-09
  -14.9499998      -2.67554978E-09
  -14.9399996      -1.85838933E-09
  -14.9300003      -3.44857164E-11
  -14.9200001       2.57671817E-09
  -14.9099998       5.39004219E-09
  -14.8999996       7.51633955E-09
  -14.8900003       7.95454014E-09
  -14.8800001       5.89449112E-09
  -14.8699999       1.06524045E-09
  -14.8599997      -5.97522654E-09
  -14.8500004      -1.37283367E-08
  -14.8400002      -1.99203090E-08
  -14.8299999      -2.19823555E-08
  -14.8199997      -1.77899331E-08
  -14.8100004      -6.50110543E-09
  -14.8000002       1.07489084E-08
  -14.7900000       3.05677226E-08
  -14.7799997       4.76581299E-08
  -14.7700005       5.58816282E-08
  -14.7600002       4.99073067E-08
  -14.7500000       2.70985900E-08
  -14.7399998      -1.08824629E-08
  -14.7299995      -5.73289647E-08
  -14.7200003      -1.01066732E-07
  -14.7100000      -1.28537778E-07
  -14.6999998      -1.27159097E-07
  -14.6899996      -8.92805758E-08
  -14.6800003      -1.57148712E-08
  -14.6700001       8.23118071E-08
  -14.6599998       1.83748938E-07
  -14.6499996       2.61287823E-07
  -14.6400003       2.87570288E-07
  -14.6300001       2.42858931E-07
  -14.6199999       1.22301202E-07
  -14.6099997      -5.93682898E-08
  -14.6000004      -2.67567287E-07
  -14.5900002      -4.53051285E-07
  -14.5799999      -5.62208356E-07
  -14.5699997      -5.50618324E-07
  -14.5600004      -3.96759589E-07
  -14.5500002      -1.12118379E-07
  -14.5400000       2.55725752E-07
  -14.5299997       6.29130056E-07
  -14.5200005       9.15468149E-07
  -14.5100002       1.02869535E-06
  -14.5000000       9.12640758E-07
  -14.4899998       5.60049330E-07
  -14.4799995       2.16481659E-08
  -14.4700003      -5.98616452E-07
  -14.4600000      -1.16281888E-06
  -14.4499998      -1.52958796E-06
  -14.4399996      -1.58928367E-06
  -14.4300003      -1.29508237E-06
  -14.4200001      -6.81285940E-07
  -14.4099998       1.37379743E-07
  -14.3999996       9.87266162E-07
  -14.3900003       1.67446228E-06
  -14.3800001       2.03195918E-06
  -14.3699999       1.96351357E-06
  -14.3599997       1.47220237E-06
  -14.3500004       6.64757920E-07
  -14.3400002      -2.71358459E-07
  -14.3299999      -1.11392808E-06
  -14.3199997      -1.66402367E-06
  -14.3100004      -1.80086977E-06
  -14.3000002      -1.51785298E-06
  -14.2900000      -9.27998713E-07
  -14.2799997      -2.34881028E-07
  -14.2700005       3.25543823E-07
  -14.2600002       5.57779003E-07
  -14.2500000       3.74186442E-07
  -14.2399998      -1.63791853E-07
  -14.2299995      -8.46137880E-07
  -14.2200003      -1.36184178E-06
  -14.2100000      -1.38600922E-06
  -14.1999998      -6.86532132E-07
  -14.1899996       7.78079539E-07
  -14.1800003       2.79982305E-06
  -14.1700001       4.92506797E-06
  -14.1599998       6.53122697E-06
  -14.1499996       6.96786901E-06
  -14.1400003       5.73496436E-06
  -14.1300001       2.65643803E-06
  -14.1199999      -1.99853434E-06
  -14.1099997      -7.48816001E-06
  -14.1000004      -1.26886471E-05
  -14.0900002      -1.63002042E-05
  -14.0799999      -1.71356878E-05
  -14.0699997      -1.44327114E-05
  -14.0600004      -8.11456994E-06
  -14.0500002       1.07342407E-06
  -14.0400000       1.16055744E-05
  -14.0299997       2.14121737E-05
  -14.0200005       2.82811670E-05
  -14.0100002       3.03502929E-05
  -14.0000000       2.65820036E-05
  -13.9899998       1.71034953E-05
  -13.9799995       3.31240017E-06
  -13.9700003      -1.23053642E-05
  -13.9600000      -2.66342267E-05
  -13.9499998      -3.65827655E-05
  -13.9399996      -3.97942240E-05
  -13.9300003      -3.52467687E-05
  -13.9200001      -2.35872049E-05
  -13.9099998      -7.09343249E-06
  -13.8999996       1.07563446E-05
  -13.8900003       2.60335692E-05
  -13.8800001       3.52686475E-05
  -13.8699999       3.63073596E-05
  -13.8599997       2.88991105E-05
  -13.8500004       1.48530344E-05
  -13.8400002      -2.30573028E-06
  -13.8299999      -1.81268897E-05
  -13.8199997      -2.83049794E-05
  -13.8100004      -2.97797142E-05
  -13.8000002      -2.15942891E-05
  -13.7900000      -5.28197597E-06
  -13.7799997       1.53460860E-05
  -13.7700005       3.49988914E-05
  -13.7600002       4.81311690E-05
  -13.7500000       5.03235206E-05
  -13.7399998       3.94890449E-05
  -13.7299995       1.65996898E-05
  -13.7200003      -1.42780109E-05
  -13.7100000      -4.66961719E-05
  -13.6999998      -7.31713299E-05
  -13.6899996      -8.68892748E-05
  -13.6800003      -8.33933300E-05
  -13.6700001      -6.18600607E-05
  -13.6599998      -2.56362619E-05
  -13.6499996       1.81398664E-05
  -13.6400003       5.98129191E-05
  -13.6300001       8.91553937E-05
  -13.6199999       9.75949224E-05
  -13.6099997       8.02493814E-05
  -13.6000004       3.73117000E-05
  -13.5900002      -2.55548821E-05
  -13.5799999      -9.79514371E-05
  -13.5699997      -1.66509926E-04
  -13.5600004      -2.17368579E-04
  -13.5500002      -2.38870765E-04
  -13.5400000      -2.23940340E-04
  -13.5299997      -1.71640626E-04
  -13.5200005      -8.75849437E-05
  -13.5100002       1.69027007E-05
  -13.5000000       1.26724713E-04
  -13.4899998       2.25672600E-04
  -13.4799995       2.99301377E-04
  -13.4700003       3.37465841E-04
  -13.4600000       3.36042925E-04
  -13.4499998       2.97528837E-04
  -13.4399996       2.30417761E-04
  -13.4300003       1.47497994E-04
  -13.4200001       6.33971285E-05
  -13.4099998      -8.16071042E-06
  -13.3999996      -5.68758041E-05
  -13.3900003      -7.77032838E-05
  -13.3800001      -7.16463401E-05
  -13.3699999      -4.53483372E-05
  -13.3599997      -9.53848303E-06
  -13.3500004       2.33929877E-05
  -13.3400002       4.22270859E-05
  -13.3299999       3.95767165E-05
  -13.3199997       1.37856741E-05
  -13.3100004      -3.04124023E-05
  -13.3000002      -8.27218610E-05
  -13.2900000      -1.29528155E-04
  -13.2799997      -1.57141520E-04
  -13.2700005      -1.55338814E-04
  -13.2600002      -1.20351644E-04
  -13.2500000      -5.64978582E-05
  -13.2399998       2.40850914E-05
  -13.2299995       1.03712358E-04
  -13.2200003       1.63027144E-04
  -13.2100000       1.85622979E-04
  -13.1999998       1.62287630E-04
  -13.1899996       9.37542573E-05
  -13.1800003      -8.84181827E-06
  -13.1700001      -1.26051425E-04
  -13.1599998      -2.34340187E-04
  -13.1499996      -3.11471405E-04
  -13.1400003      -3.41714476E-04
  -13.1300001      -3.19554820E-04
  -13.1199999      -2.50943354E-04
  -13.1099997      -1.51756234E-04
  -13.1000004      -4.38629686E-05
  -13.0900002       5.01726026E-05
  -13.0799999       1.12388640E-04
  -13.0699997       1.33377107E-04
  -13.0600004       1.13939794E-04
  -13.0500002       6.41333463E-05
  -13.0400000       8.61695426E-08
  -13.0299997      -6.04661000E-05
  -13.0200005      -1.02701451E-04
  -13.0100002      -1.18131444E-04
  -13.0000000      -1.06136933E-04
  -12.9899998      -7.33904235E-05
  -12.9799995      -3.15026555E-05
  -12.9700003       6.34711114E-06
  -12.9600000       2.88607043E-05
  -12.9499998       2.93030807E-05
  -12.9399996       6.86517751E-06
  -12.9300003      -3.34500437E-05
  -12.9200001      -8.22056463E-05
  -12.9099998      -1.27708467E-04
  -12.8999996      -1.58432798E-04
  -12.8900003      -1.65195859E-04
  -12.8800001      -1.42746649E-04
  -12.8699999      -9.06126370E-05
  -12.8599997      -1.31986399E-05
  -12.8500004       8.07779579E-05
  -12.8400002       1.79398936E-04
  -12.8299999       2.69084936E-04
  -12.8199997       3.36437981E-04
  -12.8100004       3.70230264E-04
  -12.8000002       3.63324914E-04
  -12.7900000       3.14250152E-04
  -12.7799997       2.28112767E-04
  -12.7700005       1.16562172E-04
  -12.7600002      -3.38004929E-06
  -12.7500000      -1.11628367E-04
  -12.7399998      -1.88254155E-04
  -12.7299995      -2.17159613E-04
  -12.7200003      -1.89562168E-04
  -12.7100000      -1.06563944E-04
  -12.6999998       1.98611615E-05
  -12.6899996       1.67918406E-04
  -12.6800003       3.09183932E-04
  -12.6700001       4.13597940E-04
  -12.6599998       4.55468748E-04
  -12.6499996       4.19341028E-04
  -12.6400003       3.04428191E-04
  -12.6300001       1.26433981E-04
  -12.6199999      -8.39826025E-05
  -12.6099997      -2.86164286E-04
  -12.6000004      -4.37102921E-04
  -12.5900002      -5.00321097E-04
  -12.5799999      -4.54082008E-04
  -12.5699997      -2.97001854E-04
  -12.5600004      -4.96050015E-05
  -12.5500002       2.48762721E-04
  -12.5400000       5.47166856E-04
  -12.5299997       7.92956736E-04
  -12.5200005       9.42107639E-04
  -12.5100002       9.67738568E-04
  -12.5000000       8.64967995E-04
  -12.4899998       6.51179755E-04
  -12.4799995       3.61883285E-04
  -12.4700003       4.33500463E-05
  -12.4600000      -2.56171654E-04
  -12.4499998      -4.94753069E-04
  -12.4399996      -6.43065723E-04
  -12.4300003      -6.87810709E-04
  -12.4200001      -6.32214244E-04
  -12.4099998      -4.94086125E-04
  -12.3999996      -3.02206405E-04
  -12.3900003      -9.17733487E-05
  -12.3800001       1.00560348E-04
  -12.3699999       2.41738497E-04
  -12.3599997       3.07158538E-04
  -12.3500004       2.84906826E-04
  -12.3400002       1.78694652E-04
  -12.3299999       8.64635240E-06
  -12.3199997      -1.90805309E-04
  -12.3100004      -3.76189011E-04
  -12.3000002      -5.02917042E-04
  -12.2900000      -5.34468854E-04
  -12.2799997      -4.50794643E-04
  -12.2700005      -2.53762148E-04
  -12.2600002       3.19985811E-05
  -12.2500000       3.63387167E-04
  -12.2399998       6.87409542E-04
  -12.2299995       9.51958180E-04
  -12.2200003       1.11606752E-03
  -12.2100000       1.15708681E-03
  -12.1999998       1.07317197E-03
  -12.1899996       8.80932028E-04
  -12.1800003       6.09487121E-04
  -12.1700001       2.93127145E-04
  -12.1599998      -3.51175440E-05
  -12.1499996      -3.47363442E-04
  -12.1400003      -6.21792860E-04
  -12.1300001      -8.41414498E-04
  -12.1199999      -9.92258545E-04
  -12.1099997      -1.06262520E-03
  -12.1000004      -1.04428816E-03
  -12.0900002      -9.35405958E-04
  -12.0799999      -7.43825454E-04
  -12.0699997      -4.88941034E-04
  -12.0600004      -2.00582086E-04
  -12.0500002       8.55525795E-05
  -12.0400000       3.34998214E-04
  -12.0299997       5.22072427E-04
  -12.0200005       6.35332835E-04
  -12.0100002       6.78941375E-04
  -12.0000000       6.69299567E-04
  -11.9899998       6.28035923E-04
  -11.9799995       5.73828525E-04
  -11.9700003       5.16069413E-04
  -11.9600000       4.52767243E-04
  -11.9499998       3.73526826E-04
  -11.9399996       2.66500749E-04
  -11.9300003       1.26621540E-04
  -11.9200001      -3.81872123E-05
  -11.9099998      -2.05479490E-04
  -11.8999996      -3.42414423E-04
  -11.8900003      -4.14419599E-04
  -11.8800001      -3.95535200E-04
  -11.8699999      -2.76888721E-04
  -11.8599997      -7.03642290E-05
  -11.8500004       1.93774176E-04
  -11.8400002       4.74414614E-04
  -11.8299999       7.29639200E-04
  -11.8199997       9.25912347E-04
  -11.8100004       1.04361749E-03
  -11.8000002       1.07772695E-03
  -11.7900000       1.03432813E-03
  -11.7799997       9.25222528E-04
  -11.7700005       7.63273158E-04
  -11.7600002       5.60435932E-04
  -11.7500000       3.28842289E-04
  -11.7399998       8.36080580E-05
  -11.7299995      -1.54981899E-04
  -11.7200003      -3.62135004E-04
  -11.7100000      -5.12990460E-04
  -11.6999998      -5.89852920E-04
  -11.6899996      -5.89532719E-04
  -11.6800003      -5.27427648E-04
  -11.6700001      -4.35751397E-04
  -11.6599998      -3.55355558E-04
  -11.6499996      -3.23164044E-04
  -11.6400003      -3.59307509E-04
  -11.6300001      -4.58696013E-04
  -11.6199999      -5.90601179E-04
  -11.6099997      -7.07138213E-04
  -11.6000004      -7.58288312E-04
  -11.5900002      -7.08523032E-04
  -11.5799999      -5.49222052E-04
  -11.5699997      -3.02360044E-04
  -11.5600004      -1.39764843E-05
  -11.5500002       2.60354951E-04
  -11.5400000       4.72876854E-04
  -11.5299997       5.97572653E-04
  -11.5200005       6.35715725E-04
  -11.5100002       6.11300871E-04
  -11.5000000       5.58517466E-04
  -11.4899998       5.06503682E-04
  -11.4799995       4.67646052E-04
  -11.4700003       4.34213929E-04
  -11.4600000       3.84680869E-04
  -11.4499998       2.97027902E-04
  -11.4399996       1.63272722E-04
  -11.4300003      -1.29813441E-06
  -11.4200001      -1.58808296E-04
  -11.4099998      -2.60075991E-04
  -11.3999996      -2.62776273E-04
  -11.3900003      -1.49596279E-04
  -11.3800001       6.10545467E-05
  -11.3699999       3.16813006E-04
  -11.3599997       5.46089432E-04
  -11.3500004       6.81216188E-04
  -11.3400002       6.81948324E-04
  -11.3299999       5.50639641E-04
  -11.3199997       3.33095988E-04
  -11.3100004       1.04172024E-04
  -11.3000002      -5.72179342E-05
  -11.2900000      -9.49708410E-05
  -11.2799997       5.05483604E-06
  -11.2700005       2.10560771E-04
  -11.2600002       4.54683177E-04
  -11.2500000       6.59945596E-04
  -11.2399998       7.65595236E-04
  -11.2299995       7.48407852E-04
  -11.2200003       6.29496702E-04
  -11.2100000       4.64873825E-04
  -11.1999998       3.23527725E-04
  -11.1899996       2.61353794E-04
  -11.1800003       3.00684391E-04
  -11.1700001       4.22921323E-04
  -11.1599998       5.76743158E-04
  -11.1499996       6.98479183E-04
  -11.1400003       7.36732618E-04
  -11.1300001       6.71882823E-04
  -11.1199999       5.23206836E-04
  -11.1099997       3.41170555E-04
  -11.1000004       1.88084130E-04
  -11.0900002       1.14637500E-04
  -11.0799999       1.41219571E-04
  -11.0699997       2.50912824E-04
  -11.0600004       3.96491145E-04
  -11.0500002       5.18423272E-04
  -11.0400000       5.66841569E-04
  -11.0299997       5.19176363E-04
  -11.0200005       3.87072359E-04
  -11.0100002       2.10463128E-04
  -11.0000000       4.15829782E-05
  -10.9899998      -7.46487276E-05
  -10.9799995      -1.16373885E-04
  -10.9700003      -9.10037124E-05
  -10.9600000      -3.01121254E-05
  -10.9499998       2.43931136E-05
  -10.9399996       3.70826237E-05
  -10.9300003      -7.71322721E-06
  -10.9200001      -1.00902595E-04
  -10.9099998      -2.13184205E-04
  -10.8999996      -3.06700094E-04
  -10.8900003      -3.48826230E-04
  -10.8800001      -3.22758016E-04
  -10.8699999      -2.31293510E-04
  -10.8599997      -9.32396579E-05
  -10.8500004       6.51532464E-05
  -10.8400002       2.19610345E-04
  -10.8299999       3.54151038E-04
  -10.8199997       4.62199561E-04
  -10.8100004       5.42988884E-04
  -10.8000002       5.95936086E-04
  -10.7900000       6.16457721E-04
  -10.7799997       5.95784746E-04
  -10.7700005       5.25188574E-04
  -10.7600002       4.02654550E-04
  -10.7500000       2.38551715E-04
  -10.7399998       5.69698059E-05
  -10.7299995      -1.08871034E-04
  -10.7200003      -2.26104152E-04
  -10.7100000      -2.73188489E-04
  -10.6999998      -2.47925025E-04
  -10.6899996      -1.68907223E-04
  -10.6800003      -6.92460235E-05
  -10.6700001       1.54802165E-05
  -10.6599998       6.06148824E-05
  -10.6499996       6.19243510E-05
  -10.6400003       3.72908180E-05
  -10.6300001       1.96360597E-05
  -10.6199999       4.35748152E-05
  -10.6099997       1.30878892E-04
  -10.6000004       2.80469656E-04
  -10.5900002       4.67036472E-04
  -10.5799999       6.49097608E-04
  -10.5699997       7.83638447E-04
  -10.5600004       8.41828878E-04
  -10.5500002       8.19786568E-04
  -10.5400000       7.40157266E-04
  -10.5299997       6.43740816E-04
  -10.5200005       5.74191916E-04
  -10.5100002       5.61496418E-04
  -10.5000000       6.10444287E-04
  -10.4899998       6.98495714E-04
  -10.4799995       7.83964468E-04
  -10.4700003       8.21630179E-04
  -10.4600000       7.80165079E-04
  -10.4499998       6.55103126E-04
  -10.4399996       4.72683401E-04
  -10.4300003       2.83126661E-04
  -10.4200001       1.45553669E-04
  -10.4099998       1.09526831E-04
  -10.3999996       1.99181668E-04
  -10.3900003       4.04884195E-04
  -10.3800001       6.84798055E-04
  -10.3699999       9.75627219E-04
  -10.3599997       1.20916753E-03
  -10.3500004       1.32991234E-03
  -10.3400002       1.30905781E-03
  -10.3299999       1.15158898E-03
  -10.3199997       8.95103032E-04
  -10.3100004       6.01022795E-04
  -10.3000002       3.40396742E-04
  -10.2900000       1.77396112E-04
  -10.2799997       1.53926390E-04
  -10.2700005       2.78581807E-04
  -10.2600002       5.22543618E-04
  -10.2500000       8.23939219E-04
  -10.2399998       1.10060489E-03
  -10.2299995       1.26924634E-03
  -10.2200003       1.26702385E-03
  -10.2100000       1.07020803E-03
  -10.1999998       7.04396691E-04
  -10.1899996       2.42297989E-04
  -10.1800003      -2.11831721E-04
  -10.1700001      -5.48058248E-04
  -10.1599998      -6.80315716E-04
  -10.1499996      -5.71078388E-04
  -10.1400003      -2.43309536E-04
  -10.1300001       2.24742209E-04
  -10.1199999       7.21074233E-04
  -10.1099997       1.13157299E-03
  -10.1000004       1.37193280E-03
  -10.0900002       1.40960049E-03
  -10.0799999       1.26866181E-03
  -10.0699997       1.01637235E-03
  -10.0600004       7.36463349E-04
  -10.0500002       4.99063812E-04
  -10.0400000       3.38262063E-04
  -10.0299997       2.45412433E-04
  -10.0200005       1.80256553E-04
  -10.0100002       9.49947498E-05
  -10.0000000      -3.87373620E-05
  -9.98999977      -2.11382838E-04
  -9.97999954      -3.73726914E-04
  -9.97000027      -4.53615736E-04
  -9.96000004      -3.85331834E-04
  -9.94999981      -1.40298464E-04
  -9.93999958       2.53486389E-04
  -9.93000031       7.12214969E-04
  -9.92000008       1.11875846E-03
  -9.90999985       1.36000139E-03
  -9.89999962       1.36598176E-03
  -9.89000034       1.13635533E-03
  -9.88000011       7.43736513E-04
  -9.86999989       3.11649434E-04
  -9.85999966      -2.58458422E-05
  -9.85000038      -1.68795130E-04
  -9.84000015      -8.42827940E-05
  -9.82999992       1.84320219E-04
  -9.81999969       5.35232597E-04
  -9.81000042       8.46748939E-04
  -9.80000019       1.02218334E-03
  -9.78999996       1.02468848E-03
  -9.77999973       8.89104267E-04
  -9.77000046       7.06553110E-04
  -9.76000023       5.87678922E-04
  -9.75000000       6.18426187E-04
  -9.73999977       8.25055584E-04
  -9.72999954       1.16164086E-03
  -9.72000027       1.52489182E-03
  -9.71000004       1.79095275E-03
  -9.69999981       1.86065899E-03
  -9.68999958       1.69662083E-03
  -9.68000031       1.33857829E-03
  -9.67000008       8.91495438E-04
  -9.65999985       4.90831502E-04
  -9.64999962       2.57583684E-04
  -9.64000034       2.59108638E-04
  -9.63000011       4.89221769E-04
  -9.61999989       8.73760728E-04
  -9.60999966       1.29850674E-03
  -9.60000038       1.64857728E-03
  -9.59000015       1.84492697E-03
  -9.57999992       1.86551723E-03
  -9.56999969       1.74504495E-03
  -9.56000042       1.55529485E-03
  -9.55000019       1.37504539E-03
  -9.53999996       1.26152381E-03
  -9.52999973       1.23376411E-03
  -9.52000046       1.27278839E-03
  -9.51000023       1.33663823E-03
  -9.50000000       1.38267817E-03
  -9.48999977       1.38736598E-03
  -9.47999954       1.35549949E-03
  -9.47000027       1.31583284E-03
  -9.46000004       1.30577700E-03
  -9.44999981       1.35229970E-03
  -9.43999958       1.45740528E-03
  -9.43000031       1.59438164E-03
  -9.42000008       1.71636953E-03
  -9.40999985       1.77372526E-03
  -9.39999962       1.73317862E-03
  -9.39000034       1.59123400E-03
  -9.38000011       1.37672701E-03
  -9.36999989       1.14180578E-03
  -9.35999966       9.45042761E-04
  -9.35000038       8.33146623E-04
  -9.34000015       8.27843149E-04
  -9.32999992       9.22061561E-04
  -9.31999969       1.08573446E-03
  -9.31000042       1.27792114E-03
  -9.30000019       1.45999913E-03
  -9.28999996       1.60500768E-03
  -9.27999973       1.70050224E-03
  -9.27000046       1.74538360E-03
  -9.26000023       1.74369209E-03
  -9.25000000       1.69926346E-03
  -9.23999977       1.61412894E-03
  -9.22999954       1.49121869E-03
  -9.22000027       1.33941998E-03
  -9.21000004       1.17755414E-03
  -9.19999981       1.03408308E-03
  -9.18999958       9.41259146E-04
  -9.18000031       9.25124099E-04
  -9.17000008       9.95060313E-04
  -9.15999985       1.13740750E-03
  -9.14999962       1.31652295E-03
  -9.14000034       1.48396974E-03
  -9.13000011       1.59330235E-03
  -9.11999989       1.61549915E-03
  -9.10999966       1.54947804E-03
  -9.10000038       1.42365042E-03
  -9.09000015       1.28757209E-03
  -9.07999992       1.19629479E-03
  -9.06999969       1.19267742E-03
  -9.06000042       1.29365537E-03
  -9.05000019       1.48506823E-03
  -9.03999996       1.72662002E-03
  -9.02999973       1.96503755E-03
  -9.02000046       2.15078495E-03
  -9.01000023       2.25268397E-03
  -9.00000000       2.26579024E-03
  -8.98999977       2.21039564E-03
  -8.97999954       2.12311046E-03
  -8.97000027       2.04352313E-03
  -8.96000004       2.00111023E-03
  -8.94999981       2.00662040E-03
  -8.93999958       2.05037440E-03
  -8.93000031       2.10751407E-03
  -8.92000008       2.14805431E-03
  -8.90999985       2.14827526E-03
  -8.89999962       2.09984160E-03
  -8.89000034       2.01394106E-03
  -8.88000011       1.91930309E-03
  -8.86999989       1.85470108E-03
  -8.85999966       1.85800146E-03
  -8.85000038       1.95471593E-03
  -8.84000015       2.14917003E-03
  -8.82999992       2.42083613E-03
  -8.81999969       2.72720144E-03
  -8.81000042       3.01293656E-03
  -8.80000019       3.22340266E-03
  -8.78999996       3.31912190E-03
  -8.77999973       3.28716077E-03
  -8.77000046       3.14580626E-03
  -8.76000023       2.94051482E-03
  -8.75000000       2.73161195E-03
  -8.73999977       2.57693091E-03
  -8.72999954       2.51456210E-03
  -8.72000027       2.55136518E-03
  -8.71000004       2.66145659E-03
  -8.69999981       2.79575889E-03
  -8.68999958       2.89988331E-03
  -8.68000031       2.93440162E-03
  -8.67000008       2.89025297E-03
  -8.65999985       2.79332115E-03
  -8.64999962       2.69584102E-03
  -8.64000034       2.65710754E-03
  -8.63000011       2.72018695E-03
  -8.61999989       2.89330026E-03
  -8.60999966       3.14331194E-03
  -8.60000038       3.40456842E-03
  -8.59000015       3.60061042E-03
  -8.57999992       3.67118861E-03
  -8.56999969       3.59455356E-03
  -8.56000042       3.39631946E-03
  -8.55000019       3.14100483E-03
  -8.53999996       2.90890387E-03
  -8.52999973       2.76677427E-03
  -8.52000046       2.74354755E-03
  -8.51000023       2.82068457E-03
  -8.50000000       2.94131669E-03
  -8.48999977       3.03493557E-03
  -8.47999954       3.04806069E-03
  -8.47000027       2.96849431E-03
  -8.46000004       2.83291214E-03
  -8.44999981       2.71389913E-03
  -8.43999958       2.69075274E-03
  -8.43000031       2.81523564E-03
  -8.42000008       3.08614154E-03
  -8.40999985       3.44369165E-03
  -8.39999962       3.78734502E-03
  -8.39000034       4.01134882E-03
  -8.38000011       4.04492114E-03
  -8.36999989       3.88139975E-03
  -8.35999966       3.58426594E-03
  -8.35000038       3.26651172E-03
  -8.34000015       3.05013754E-03
  -8.32999992       3.02066933E-03
  -8.31999969       3.19411769E-03
  -8.31000042       3.50956921E-03
  -8.30000019       3.85106215E-03
  -8.28999996       4.09110356E-03
  -8.27999973       4.13955934E-03
  -8.27000046       3.97912739E-03
  -8.26000023       3.67338909E-03
  -8.25000000       3.34380846E-03
  -8.23999977       3.12407874E-03
  -8.22999954       3.10919271E-03
  -8.22000027       3.31896660E-03
  -8.21000004       3.69040295E-03
  -8.19999981       4.10219003E-03
  -8.18999958       4.42206534E-03
  -8.18000031       4.55867173E-03
  -8.17000008       4.49751504E-03
  -8.15999985       4.30664141E-03
  -8.14999962       4.10942128E-03
  -8.14000034       4.03479068E-03
  -8.13000011       4.16437630E-03
  -8.11999989       4.49747080E-03
  -8.10999966       4.94806468E-03
  -8.10000038       5.37573360E-03
  -8.09000015       5.63884899E-03
  -8.07999992       5.64960297E-03
  -8.06999969       5.40937390E-03
  -8.06000042       5.01036132E-03
  -8.05000019       4.60244622E-03
  -8.03999996       4.33781650E-03
  -8.02999973       4.31461772E-03
  -8.02000046       4.54141200E-03
  -8.01000023       4.93617216E-03
  -8.00000000       5.36007946E-03
  -7.98999977       5.67280641E-03
  -7.98000002       5.78757282E-03
  -7.96999979       5.70435449E-03
  -7.96000004       5.50822401E-03
  -7.94999981       5.33356704E-03
  -7.94000006       5.30832913E-03
  -7.92999983       5.50037250E-03
  -7.92000008       5.88725507E-03
  -7.90999985       6.36155903E-03
  -7.90000010       6.77000824E-03
  -7.88999987       6.97137928E-03
  -7.88000011       6.89082174E-03
  -7.86999989       6.54962659E-03
  -7.86000013       6.05902029E-03
  -7.84999990       5.58048533E-03
  -7.84000015       5.26794419E-03
  -7.82999992       5.21389535E-03
  -7.82000017       5.41971950E-03
  -7.80999994       5.80066349E-03
  -7.80000019       6.22245483E-03
  -7.78999996       6.55440707E-03
  -7.78000021       6.71797944E-03
  -7.76999998       6.71218848E-03
  -7.76000023       6.60700165E-03
  -7.75000000       6.50873361E-03
  -7.73999977       6.51241653E-03
  -7.73000002       6.66083535E-03
  -7.71999979       6.92664925E-03
  -7.71000004       7.22423429E-03
  -7.69999981       7.44569162E-03
  -7.69000006       7.50582432E-03
  -7.67999983       7.37758446E-03
  -7.67000008       7.10374024E-03
  -7.65999985       6.78044651E-03
  -7.65000010       6.51986105E-03
  -7.63999987       6.40727719E-03
  -7.63000011       6.47009397E-03
  -7.61999989       6.67074835E-03
  -7.61000013       6.92566158E-03
  -7.59999990       7.14166695E-03
  -7.59000015       7.25445244E-03
  -7.57999992       7.25319656E-03
  -7.57000017       7.18173897E-03
  -7.55999994       7.11661950E-03
  -7.55000019       7.13199750E-03
  -7.53999996       7.26674451E-03
  -7.53000021       7.50771817E-03
  -7.51999998       7.79609196E-03
  -7.51000023       8.05362221E-03
  -7.50000000       8.21716152E-03
  -7.48999977       8.26620031E-03
  -7.48000002       8.23128689E-03
  -7.46999979       8.17942712E-03
  -7.46000004       8.18263739E-03
  -7.44999981       8.28335062E-03
  -7.44000006       8.47207569E-03