  -16.0000000       0.00000000    
  -15.9899998       0.00000000    
  -15.9799995       0.00000000    
  -15.9700003       0.00000000    
  -15.9600000       0.00000000    
  -15.9499998      -2.27196012E-19
  -15.9399996      -1.71056515E-18
  -15.9300003      -5.76567800E-18
  -15.9200001      -1.10322005E-17
  -15.9099998      -1.56568531E-17
  -15.8999996      -4.51860347E-17
  -15.8900003      -2.08760865E-16
  -15.8800001      -6.96808213E-16
  -15.8699999      -1.51659280E-15
  -15.8599997      -1.82808091E-15
  -15.8500004       7.26573004E-16
  -15.8400002       9.33880252E-15
  -15.8299999       2.40468588E-14
  -15.8199997       3.39107608E-14
  -15.8100004       9.55172712E-15
  -15.8000002      -9.27984157E-14
  -15.7900000      -3.00899415E-13
  -15.7799997      -5.63412544E-13
  -15.7700005      -6.75241980E-13
  -15.7600002      -2.53950696E-13
  -15.7500000       1.13912373E-12
  -15.7399998       3.66061608E-12
  -15.7299995       6.66857845E-12
  -15.7200003       8.26540572E-12
  -15.7100000       5.34611288E-12
  -15.6999998      -5.34397266E-12
  -15.6899996      -2.49148046E-11
  -15.6800003      -4.92768812E-11
  -15.6700001      -6.67893518E-11
  -15.6599998      -5.88826626E-11
  -15.6499996      -5.85796906E-12
  -15.6400003       1.01521007E-10
  -15.6300001       2.47247084E-10
  -15.6199999       3.78709147E-10
  -15.6099997       4.08235390E-10
  -15.6000004       2.36245801E-10
  -15.5900002      -2.01691622E-10
  -15.5799999      -8.73611850E-10
  -15.5699997      -1.59975655E-09
  -15.5600004      -2.04523265E-09
  -15.5500002      -1.78887716E-09
  -15.5400000      -4.80251172E-10
  -15.5299997       1.94145477E-09
  -15.5200005       5.03908115E-09
  -15.5100002       7.78764964E-09
  -15.5000000       8.71231176E-09
  -15.4899998       6.31278674E-09
  -15.4799995      -2.70985429E-10
  -15.4700003      -1.05312692E-08
  -15.4600000      -2.20980585E-08
  -15.4499998      -3.08092432E-08
  -15.4399996      -3.15823208E-08
  -15.4300003      -2.00848103E-08
  -15.4200001       5.14069720E-09
  -15.4099998       4.07781648E-08
  -15.3999996       7.79353968E-08
  -15.3900003       1.03209004E-07
  -15.3800001       1.01940813E-07
  -15.3699999       6.32449968E-08
  -15.3599997      -1.44592036E-08
  -15.3500004      -1.19318088E-07
  -15.3400002      -2.25350973E-07
  -15.3299999      -2.96619106E-07
  -15.3199997      -2.96344297E-07
  -15.3100004      -1.99290753E-07
  -15.3000002      -4.04412681E-09
  -15.2900000       2.59112539E-07
  -15.2799997       5.28679436E-07
  -15.2700005       7.22896004E-07
  -15.2600002       7.60252135E-07
  -15.2500000       5.85189582E-07
  -15.2399998       1.91869788E-07
  -15.2299995      -3.62062593E-07
  -15.2200003      -9.58256464E-07
  -15.2100000      -1.43949615E-06
  -15.1999998      -1.64755681E-06
  -15.1899996      -1.46844400E-06
  -15.1800003      -8.72644819E-07
  -15.1700001       6.23758041E-08
  -15.1599998       1.15664943E-06
  -15.1499996       2.16147919E-06
  -15.1400003       2.81640928E-06
  -15.1300001       2.91579931E-06
  -15.1199999       2.36730580E-06
  -15.1099997       1.22544395E-06
  -15.1000004      -3.10667275E-07
  -15.0900002      -1.93674941E-06
  -15.0799999      -3.31101387E-06
  -15.0699997      -4.13292719E-06
  -15.0600004      -4.21271261E-06
  -15.0500002      -3.51376616E-06
  -15.0400000      -2.15782393E-06
  -15.0299997      -3.93079404E-07
  -15.0200005       1.46461389E-06
  -15.0100002       3.10089672E-06
  -15.0000000       4.26457018E-06
  -14.9899998       4.80784911E-06
  -14.9799995       4.69872293E-06
  -14.9700003       4.00720592E-06
  -14.9600000       2.87371449E-06
  -14.9499998       1.47071330E-06
  -14.9399996      -3.21591180E-08
  -14.9300003      -1.49282926E-06
  -14.9200001      -2.80912468E-06
  -14.9099998      -3.91976801E-06
  -14.8999996      -4.79658274E-06
  -14.8900003      -5.43031001E-06
  -14.8800001      -5.81195809E-06
  -14.8699999      -5.91196113E-06
  -14.8599997      -5.66141853E-06
  -14.8500004      -4.94244841E-06
  -14.8400002      -3.59661431E-06
  -14.8299999      -1.45908427E-06
  -14.8199997       1.57964860E-06
  -14.8100004       5.49264905E-06
  -14.8000002       1.00357020E-05
  -14.7900000       1.46951479E-05
  -14.7799997       1.86941343E-05
  -14.7700005       2.10779708E-05
  -14.7600002       2.08804322E-05
  -14.7500000       1.73479166E-05
  -14.7399998       1.01748956E-05
  -14.7299995      -3.09958438E-07
  -14.7200003      -1.30661529E-05
  -14.7100000      -2.64122373E-05
  -14.6999998      -3.82517028E-05
  -14.6899996      -4.64215300E-05
  -14.6800003      -4.90967323E-05
  -14.6700001      -4.51654123E-05
  -14.6599998      -3.44910295E-05
  -14.6499996      -1.80015832E-05
  -14.6400003       2.41622570E-06
  -14.6300001       2.41972302E-05
  -14.6199999       4.44956895E-05
  -14.6099997       6.06229078E-05
  -14.6000004       7.04445702E-05
  -14.5900002       7.26727812E-05
  -14.5799999       6.70133959E-05
  -14.5699997       5.41589397E-05
  -14.5600004       3.56430064E-05
  -14.5500002       1.35903838E-05
  -14.5400000      -9.59257341E-06
  -14.5299997      -3.15397119E-05
  -14.5200005      -5.02134135E-05
  -14.5100002      -6.41198785E-05
  -14.5000000      -7.24226193E-05
  -14.4899998      -7.49410028E-05
  -14.4799995      -7.20418466E-05
  -14.4700003      -6.44548345E-05
  -14.4600000      -5.30617253E-05
  -14.4499998      -3.87187247E-05
  -14.4399996      -2.21637838E-05
  -14.4300003      -4.03631566E-06
  -14.4200001       1.49999560E-05
  -14.4099998       3.40794577E-05
  -14.3999996       5.19776841E-05
  -14.3900003       6.70543013E-05
  -14.3800001       7.73521751E-05
  -14.3699999       8.08620098E-05
  -14.3599997       7.59062532E-05
  -14.3500004       6.15503159E-05
  -14.3400002       3.79293670E-05
  -14.3299999       6.39445261E-06
  -14.3199997      -3.05709909E-05
  -14.3100004      -6.96493444E-05
  -14.3000002      -1.07128377E-04
  -14.2900000      -1.39375086E-04
  -14.2799997      -1.63240678E-04
  -14.2700005      -1.76330374E-04
  -14.2600002      -1.77127353E-04
  -14.2500000      -1.65011981E-04
  -14.2399998      -1.40241609E-04
  -14.2299995      -1.03947015E-04
  -14.2200003      -5.81598651E-05
  -14.2100000      -5.83359497E-06
  -14.1999998       4.92187355E-05
  -14.1899996       1.02548176E-04
  -14.1800003       1.49494677E-04
  -14.1700001       1.85779340E-04
  -14.1599998       2.08154088E-04
  -14.1499996       2.14946922E-04
  -14.1400003       2.06343379E-04
  -14.1300001       1.84303353E-04
  -14.1199999       1.52115652E-04
  -14.1099997       1.13704293E-04
  -14.1000004       7.28782034E-05
  -14.0900002       3.27337802E-05
  -14.0799999      -4.63754805E-06
  -14.0699997      -3.80929523E-05
  -14.0600004      -6.71129819E-05
  -14.0500002      -9.13780168E-05
  -14.0400000      -1.10440909E-04
  -14.0299997      -1.23634585E-04
  -14.0200005      -1.30243541E-04
  -14.0100002      -1.29844324E-04
  -14.0000000      -1.22635916E-04
  -13.9899998      -1.09572073E-04
  -13.9799995      -9.21826213E-05
  -13.9700003      -7.21034376E-05
  -13.9600000      -5.04718082E-05
  -13.9499998      -2.74301092E-05
  -13.9399996      -1.97351278E-06
  -13.9300003       2.77270901E-05
  -13.9200001       6.35655888E-05
  -13.9099998       1.06516847E-04
  -13.8999996       1.55751506E-04
  -13.8900003       2.08172918E-04
  -13.8800001       2.58584507E-04
  -13.8699999       3.00497952E-04
  -13.8599997       3.27384274E-04
  -13.8500004       3.34021082E-04
  -13.8400002       3.17558239E-04
  -13.8299999       2.78017425E-04
  -13.8199997       2.18128582E-04
  -13.8100004       1.42617675E-04
  -13.8000002       5.72157405E-05
  -13.7900000      -3.22864689E-05
  -13.7799997      -1.20684563E-04
  -13.7700005      -2.03606061E-04
  -13.7600002      -2.77428684E-04
  -13.7500000      -3.39067512E-04
  -13.7399998      -3.85850755E-04
  -13.7299995      -4.15624294E-04
  -13.7200003      -4.27079591E-04
  -13.7100000      -4.20156721E-04
  -13.6999998      -3.96297779E-04
  -13.6899996      -3.58356367E-04
  -13.6800003      -3.10096133E-04
  -13.6700001      -2.55385705E-04
  -13.6599998      -1.97345100E-04
  -13.6499996      -1.37751806E-04
  -13.6400003      -7.69460603E-05
  -13.6300001      -1.42988492E-05
  -13.6199999       5.09058955E-05
  -13.6099997       1.18493299E-04
  -13.6000004       1.86697944E-04
  -13.5900002       2.52027996E-04
  -13.5799999       3.09779658E-04
  -13.5699997       3.55046883E-04
  -13.5600004       3.83886480E-04
  -13.5500002       3.94235190E-04
  -13.5400000       3.86268890E-04
  -13.5299997       3.62100807E-04
  -13.5200005       3.24961031E-04
  -13.5100002       2.78186111E-04
  -13.5000000       2.24404750E-04
  -13.4899998       1.65207923E-04
  -13.4799995       1.01385769E-04
  -13.4700003       3.35784680E-05
  -13.4600000      -3.69783847E-05
  -13.4499998      -1.07964814E-04
  -13.4399996      -1.75980254E-04
  -13.4300003      -2.37064232E-04
  -13.4200001      -2.87535775E-04
  -13.4099998      -3.24815541E-04
  -13.3999996      -3.47899419E-04
  -13.3900003      -3.57294426E-04
  -13.3800001      -3.54454387E-04
  -13.3699999      -3.40961094E-04
  -13.3599997      -3.17805592E-04
  -13.3500004      -2.85077142E-04
  -13.3400002      -2.42193855E-04
  -13.3299999      -1.88566657E-04
  -13.3199997      -1.24398008E-04
  -13.3100004      -5.12435108E-05
  -13.3000002       2.79386113E-05
  -13.2900000       1.09311972E-04
  -13.2799997       1.89065511E-04
  -13.2700005       2.64326314E-04
  -13.2600002       3.33688076E-04
  -13.2500000       3.97114607E-04
  -13.2399998       4.55243775E-04
  -13.2299995       5.08393743E-04
  -13.2200003       5.55732753E-04
  -13.2100000       5.95040794E-04
  -13.1999998       6.23267842E-04
  -13.1899996       6.37754914E-04
  -13.1800003       6.37668651E-04
  -13.1700001       6.25043991E-04
  -13.1599998       6.04910485E-04
  -13.1499996       5.84279594E-04
  -13.1400003       5.70200616E-04
  -13.1300001       5.67473297E-04
  -13.1199999       5.76798455E-04
  -13.1099997       5.94052486E-04
  -13.1000004       6.11018681E-04
  -13.0900002       6.17409474E-04
  -13.0799999       6.03558787E-04
  -13.0699997       5.62919013E-04
  -13.0600004       4.93562606E-04
  -13.0500002       3.98247124E-04
  -13.0400000       2.83113390E-04
  -13.0299997       1.55571499E-04
  -13.0200005       2.21942300E-05
  -13.0100002      -1.12611553E-04
  -13.0000000      -2.46730400E-04
  -12.9899998      -3.79334029E-04
  -12.9799995      -5.09284495E-04
  -12.9700003      -6.33720134E-04
  -12.9600000      -7.47517683E-04
  -12.9499998      -8.43958231E-04
  -12.9399996      -9.16415651E-04
  -12.9300003      -9.60439385E-04
  -12.9200001      -9.75401548E-04
  -12.9099998      -9.65009152E-04
  -12.8999996      -9.36395430E-04
  -12.8900003      -8.98051541E-04
  -12.8800001      -8.57310661E-04
  -12.8699999      -8.18290049E-04
  -12.8599997      -7.81031267E-04
  -12.8500004      -7.42132659E-04
  -12.8400002      -6.96596340E-04
  -12.8299999      -6.40150742E-04
  -12.8199997      -5.71132230E-04
  -12.8100004      -4.91190527E-04
  -12.8000002      -4.04559541E-04
  -12.7900000      -3.16208956E-04
  -12.7799997      -2.29644444E-04
  -12.7700005      -1.45279730E-04
  -12.7600002      -6.00761341E-05
  -12.7500000       3.13520868E-05
  -12.7399998       1.34563830E-04
  -12.7299995       2.52890022E-04
  -12.7200003       3.85762803E-04
  -12.7100000       5.28470031E-04
  -12.6999998       6.73485221E-04
  -12.6899996       8.12901766E-04
  -12.6800003       9.41052684E-04
  -12.6700001       1.05629954E-03
  -12.6599998       1.16127077E-03
  -12.6499996       1.26142276E-03
  -12.6400003       1.36243715E-03
  -12.6300001       1.46744063E-03
  -12.6199999       1.57512247E-03
  -12.6099997       1.67950499E-03
  -12.6000004       1.77150825E-03
  -12.5900002       1.84177072E-03
  -12.5799999       1.88370852E-03
  -12.5699997       1.89568673E-03
  -12.5600004       1.88150478E-03
  -12.5500002       1.84901257E-03
  -12.5400000       1.80737209E-03
  -12.5299997       1.76396500E-03
  -12.5200005       1.72207365E-03
  -12.5100002       1.68014830E-03
  -12.5000000       1.63287192E-03
  -12.4899998       1.57355843E-03
  -12.4799995       1.49693631E-03
  -12.4700003       1.40125165E-03
  -12.4600000       1.28892367E-03
  -12.4499998       1.16556068E-03
  -12.4399996       1.03779300E-03
  -12.4300003       9.10821196E-04
  -12.4200001       7.86673452E-04
  -12.4099998       6.63856568E-04
  -12.3999996       5.38514054E-04
  -12.3900003       4.06599313E-04
  -12.3800001       2.66151095E-04
  -12.3699999       1.18722252E-04
  -12.3599997      -3.06574148E-05
  -12.3500004      -1.75017340E-04
  -12.3400002      -3.07907729E-04
  -12.3299999      -4.25826671E-04
  -12.3199997      -5.29636629E-04
  -12.3100004      -6.24365057E-04
  -12.3000002      -7.17392424E-04
  -12.2900000      -8.15651845E-04
  -12.2799997      -9.22859472E-04
  -12.2700005      -1.03780034E-03
  -12.2600002      -1.15431997E-03
  -12.2500000      -1.26304710E-03
  -12.2399998      -1.35423755E-03
  -12.2299995      -1.42072293E-03
  -12.2200003      -1.45992159E-03
  -12.2100000      -1.47422776E-03
  -12.1999998      -1.46970234E-03
  -12.1899996      -1.45361619E-03
  -12.1800003      -1.43179949E-03
  -12.1700001      -1.40679372E-03
  -12.1599998      -1.37746253E-03
  -12.1499996      -1.34014548E-03
  -12.1400003      -1.29084347E-03
  -12.1300001      -1.22753787E-03
  -12.1199999      -1.15171319E-03
  -12.1099997      -1.06848357E-03
  -12.1000004      -9.85261402E-04
  -12.0900002      -9.09485680E-04
  -12.0799999      -8.46270297E-04
  -12.0699997      -7.96859036E-04
  -12.0600004      -7.58453563E-04
  -12.0500002      -7.25444639E-04
  -12.0400000      -6.91547757E-04
  -12.0299997      -6.52017072E-04
  -12.0200005      -6.05104200E-04
  -12.0100002      -5.52254380E-04
  -12.0000000      -4.97035100E-04
  -11.9899998      -4.43293888E-04
  -11.9799995      -3.93330614E-04
  -11.9700003      -3.46841174E-04
  -11.9600000      -3.01061547E-04
  -11.9499998      -2.52046477E-04
  -11.9399996      -1.96551031E-04
  -11.9300003      -1.33736423E-04
  -11.9200001      -6.59897050E-05
  -11.9099998       1.50075107E-06
  -11.8999996       6.22759326E-05
  -11.8900003       1.10660614E-04
  -11.8800001       1.43550293E-04
  -11.8699999       1.61243574E-04
  -11.8599997       1.67013626E-04
  -11.8500004       1.65614823E-04
  -11.8400002       1.61343647E-04
  -11.8299999       1.56447539E-04
  -11.8199997       1.50524327E-04
  -11.8100004       1.41146316E-04
  -11.8000002       1.25427527E-04
  -11.7900000       1.01851241E-04
  -11.7799997       7.15484348E-05
  -11.7700005       3.84236300E-05
  -11.7600002       7.99470217E-06
  -11.7500000      -1.46476841E-05
  -11.7399998      -2.69524862E-05
  -11.7299995      -3.02003991E-05
  -11.7200003      -2.93571793E-05
  -11.7100000      -3.14125864E-05
  -11.6999998      -4.27342929E-05
  -11.6899996      -6.63927858E-05
  -11.6800003      -1.00489618E-04
  -11.6700001      -1.38194999E-04
  -11.6599998      -1.69585473E-04
  -11.6499996      -1.84693155E-04
  -11.6400003      -1.76698159E-04
  -11.6300001      -1.44099904E-04
  -11.6199999      -9.10514282E-05
  -11.6099997      -2.57067622E-05
  -11.6000004       4.28255662E-05
  -11.5900002       1.07795437E-04
  -11.5799999       1.67138758E-04
  -11.5699997       2.23922150E-04
  -11.5600004       2.84710724E-04
  -11.5500002       3.56458855E-04
  -11.5400000       4.43115016E-04
  -11.5299997       5.43273578E-04
  -11.5200005       6.49855589E-04
  -11.5100002       7.52051244E-04
  -11.5000000       8.38902779E-04
  -11.4899998       9.03252221E-04
  -11.4799995       9.44583502E-04
  -11.4700003       9.69642191E-04
  -11.4600000       9.90485307E-04
  -11.4499998       1.02055050E-03
  -11.4399996       1.07006461E-03
  -11.4300003       1.14239857E-03
  -11.4200001       1.23267062E-03
  -11.4099998       1.32912956E-03
  -11.3999996       1.41688122E-03
  -11.3900003       1.48268556E-03
  -11.3800001       1.51917653E-03
  -11.3699999       1.52705028E-03
  -11.3599997       1.51449500E-03
  -11.3500004       1.49408530E-03
  -11.3400002       1.47826527E-03
  -11.3299999       1.47500902E-03
  -11.3199997       1.48516381E-03
  -11.3100004       1.50236289E-03
  -11.3000002       1.51547545E-03
  -11.2900000       1.51268218E-03
  -11.2799997       1.48570142E-03
  -11.2700005       1.43270008E-03
  -11.2600002       1.35890138E-03
  -11.2500000       1.27474905E-03
  -11.2399998       1.19233818E-03
  -11.2299995       1.12139492E-03
  -11.2200003       1.06620369E-03
  -11.2100000       1.02448836E-03
  -11.1999998       9.88531858E-04
  -11.1899996       9.48041445E-04
  -11.1800003       8.93681776E-04
  -11.1700001       8.20041518E-04
  -11.1599998       7.27065664E-04
  -11.1499996       6.19590690E-04
  -11.1400003       5.05303266E-04
  -11.1300001       3.91976384E-04
  -11.1199999       2.85023794E-04
  -11.1099997       1.86217949E-04
  -11.1000004       9.39271922E-05
  -11.0900002       4.64902450E-06
  -11.0799999      -8.48566706E-05
  -11.0699997      -1.75692287E-04
  -11.0600004      -2.65920185E-04
  -11.0500002      -3.50932009E-04
  -11.0400000      -4.24892816E-04
  -11.0299997      -4.82663105E-04
  -11.0200005      -5.21459093E-04
  -11.0100002      -5.41642832E-04
  -11.0000000      -5.46395953E-04
  -10.9899998      -5.40461100E-04
  -10.9799995      -5.28488425E-04
  -10.9700003      -5.13628649E-04
  -10.9600000      -4.96898778E-04
  -10.9499998      -4.77502006E-04
  -10.9399996      -4.53896937E-04
  -10.9300003      -4.25113016E-04
  -10.9200001      -3.91708454E-04
  -10.9099998      -3.55926459E-04
  -10.8999996      -3.20933090E-04
  -10.8900003      -2.89409043E-04
  -10.8800001      -2.62056274E-04
  -10.8699999      -2.36662017E-04
  -10.8599997      -2.08188052E-04
  -10.8500004      -1.69991894E-04
  -10.8400002      -1.15854178E-04
  -10.8299999      -4.21616751E-05
  -10.8199997       5.05242715E-05
  -10.8100004       1.57113740E-04
  -10.8000002       2.69065407E-04
  -10.7900000       3.76617274E-04
  -10.7799997       4.71486215E-04
  -10.7700005       5.49150980E-04
  -10.7600002       6.09952142E-04
  -10.7500000       6.58618519E-04
  -10.7399998       7.02356338E-04
  -10.7299995       7.48150400E-04
  -10.7200003       8.00198293E-04
  -10.7100000       8.58388725E-04
  -10.6999998       9.18374397E-04
  -10.6899996       9.73238552E-04
  -10.6800003       1.01618888E-03
  -10.6700001       1.04330981E-03
  -10.6599998       1.05536508E-03
  -10.6499996       1.05793611E-03
  -10.6400003       1.05976744E-03
  -10.6300001       1.06982666E-03
  -10.6199999       1.09408121E-03
  -10.6099997       1.13314227E-03
  -10.6000004       1.18166325E-03
  -10.5900002       1.22979016E-03
  -10.5799999       1.26624410E-03
  -10.5699997       1.28201197E-03
  -10.5600004       1.27338199E-03
  -10.5500002       1.24323787E-03
  -10.5400000       1.20012509E-03
  -10.5299997       1.15538191E-03
  -10.5200005       1.11931481E-03
  -10.5100002       1.09776901E-03
  -10.5000000       1.09031470E-03
  -10.4899998       1.09071855E-03
  -10.4799995       1.08953647E-03
  -10.4700003       1.07790483E-03
  -10.4600000       1.05114374E-03
  -10.4499998       1.01084053E-03
  -10.4399996       9.64619918E-04
  -10.4300003       9.23635380E-04
  -10.4200001       8.98670289E-04
  -10.4099998       8.96242564E-04
  -10.3999996       9.16145102E-04
  -10.3900003       9.51337221E-04
  -10.3800001       9.90255154E-04
  -10.3699999       1.02073152E-03
  -10.3599997       1.03411800E-03
  -10.3500004       1.02813367E-03
  -10.3400002       1.00741338E-03
  -10.3299999       9.81587684E-04
  -10.3199997       9.61615879E-04
  -10.3100004       9.55735624E-04
  -10.3000002       9.66523774E-04
  -10.2900000       9.90134897E-04
  -10.2799997       1.01797550E-03
  -10.2700005       1.04015705E-03
  -10.2600002       1.04942720E-03
  -10.2500000       1.04409363E-03
  -10.2399998       1.02885650E-03
  -10.2299995       1.01322809E-03
  -10.2200003       1.00812025E-03
  -10.2100000       1.02184352E-03
  -10.1999998       1.05696078E-03
  -10.1899996       1.10911881E-03
  -10.1800003       1.16825267E-03
  -10.1700001       1.22169999E-03
  -10.1599998       1.25812925E-03
  -10.1499996       1.27091072E-03
  -10.1400003       1.25984277E-03
  -10.1300001       1.23075314E-03
  -10.1199999       1.19325414E-03
  -10.1099997       1.15754164E-03
  -10.1000004       1.13136217E-03
  -10.0900002       1.11812702E-03
  -10.0799999       1.11663213E-03
  -10.0699997       1.12226140E-03
  -10.0600004       1.12905994E-03
  -10.0500002       1.13185460E-03
  -10.0400000       1.12772523E-03
  -10.0299997       1.11646648E-03
  -10.0200005       1.10011932E-03
  -10.0100002       1.08193036E-03
  -10.0000000       1.06522581E-03
  -9.98999977       1.05255388E-03
  -9.97999954       1.04523823E-03
  -9.97000027       1.04325719E-03
  -9.96000004       1.04527583E-03
  -9.94999981       1.04871241E-03
  -9.93999958       1.04986364E-03
  -9.93000031       1.04425510E-03
  -9.92000008       1.02739513E-03
  -9.90999985       9.95953451E-04
  -9.89999962       9.49148729E-04
  -9.89000034       8.89860501E-04
  -9.88000011       8.24905990E-04
  -9.86999989       7.64088763E-04
  -9.85999966       7.18016643E-04
  -9.85000038       6.95196737E-04
  -9.84000015       6.99306431E-04
  -9.82999992       7.27662351E-04
  -9.81999969       7.71621475E-04
  -9.81000042       8.19019857E-04
  -9.80000019       8.58028012E-04
  -9.78999996       8.81180516E-04
  -9.77999973       8.88149953E-04
  -9.77000046       8.86175956E-04
  -9.76000023       8.87797738E-04
  -9.75000000       9.06536239E-04
  -9.73999977       9.51955386E-04
  -9.72999954       1.02583645E-03
  -9.72000027       1.12093671E-03
  -9.71000004       1.22290337E-03
  -9.69999981       1.31482631E-03
  -9.68999958       1.38293754E-03
  -9.68000031       1.42147730E-03
  -9.67000008       1.43499125E-03
  -9.65999985       1.43718673E-03
  -9.64999962       1.44667085E-03
  -9.64000034       1.48097123E-03
  -9.63000011       1.55089819E-03
  -9.61999989       1.65714417E-03
  -9.60999966       1.79026474E-03
  -9.60000038       1.93398015E-03
  -9.59000015       2.07057665E-03
  -9.57999992       2.18651467E-03
  -9.56999969       2.27632257E-03
  -9.56000042       2.34351307E-03
  -9.55000019       2.39840942E-03
  -9.53999996       2.45379866E-03
  -9.52999973       2.52010371E-03
  -9.52000046       2.60182447E-03
  -9.51000023       2.69641983E-03
  -9.50000000       2.79587344E-03
  -9.48999977       2.89016054E-03
  -9.47999954       2.97120376E-03
  -9.47000027       3.03578330E-03
  -9.46000004       3.08639673E-03
  -9.44999981       3.12985736E-03
  -9.43999958       3.17432778E-03
  -9.43000031       3.22600966E-03
  -9.42000008       3.28679895E-03
  -9.40999985       3.35372309E-03
  -9.39999962       3.42028961E-03
  -9.39000034       3.47907911E-03
  -9.38000011       3.52451648E-03
  -9.36999989       3.55469529E-03
  -9.35999966       3.57163744E-03
  -9.35000038       3.57996509E-03
  -9.34000015       3.58464802E-03
  -9.32999992       3.58880823E-03
  -9.31999969       3.59250163E-03
  -9.31000042       3.59296356E-03
  -9.30000019       3.58617539E-03
  -9.28999996       3.56906792E-03
  -9.27999973       3.54141206E-03
  -9.27000046       3.50657036E-03
  -9.26000023       3.47075216E-03
  -9.25000000       3.44100129E-03
  -9.23999977       3.42265470E-03
  -9.22999954       3.41725000E-03
  -9.22000027       3.42167844E-03
  -9.21000004       3.42894881E-03
  -9.19999981       3.43033881E-03
  -9.18999958       3.41819460E-03
  -9.18000031       3.38844489E-03
  -9.17000008       3.34197679E-03
  -9.15999985       3.28442524E-03
  -9.14999962       3.22451512E-03
  -9.14000034       3.17148934E-03
  -9.13000011       3.13252211E-03
  -9.11999989       3.11085419E-03
  -9.10999966       3.10523692E-03
  -9.10000038       3.11069586E-03
  -9.09000015       3.12030129E-03
  -9.07999992       3.12732160E-03
  -9.06999969       3.12709273E-03
  -9.06000042       3.11810779E-03
  -9.05000019       3.10209370E-03
  -9.03999996       3.08320438E-03
  -9.02999973       3.06664524E-03
  -9.02000046       3.05719022E-03
  -9.01000023       3.05796484E-03
  -9.00000000       3.06977262E-03
  -8.98999977       3.09103983E-03
  -8.97999954       3.11831385E-03
  -8.97000027       3.14711011E-03
  -8.96000004       3.17290169E-03
  -8.94999981       3.19205527E-03
  -8.93999958       3.20249959E-03
  -8.93000031       3.20407492E-03
  -8.92000008       3.19846557E-03
  -8.90999985       3.18878586E-03
  -8.89999962       3.17887799E-03
  -8.89000034       3.17246770E-03
  -8.88000011       3.17236898E-03
  -8.86999989       3.17991641E-03
  -8.85999966       3.19474889E-03
  -8.85000038       3.21501424E-03
  -8.84000015       3.23793152E-03
  -8.82999992       3.26057570E-03
  -8.81999969       3.28068598E-03
  -8.81000042       3.29728285E-03
  -8.80000019       3.31093185E-03
  -8.78999996       3.32360668E-03
  -8.77999973       3.33815231E-03
  -8.77000046       3.35751753E-03
  -8.76000023       3.38391634E-03
  -8.75000000       3.41812638E-03
  -8.73999977       3.45911598E-03
  -8.72999954       3.50410212E-03
  -8.72000027       3.54904658E-03
  -8.71000004       3.58955003E-03
  -8.69999981       3.62193328E-03
  -8.68999958       3.64428037E-03
  -8.68000031       3.65718617E-03
  -8.67000008       3.66395619E-03
  -8.65999985       3.67013481E-03
  -8.64999962       3.68238403E-03
  -8.64000034       3.70694697E-03
  -8.63000011       3.74800456E-03
  -8.61999989       3.80644714E-03
  -8.60999966       3.87939392E-03
  -8.60000038       3.96068860E-03
  -8.59000015       4.04232368E-03
  -8.57999992       4.11648024E-03
  -8.56999969       4.17758804E-03
  -8.56000042       4.22385894E-03
  -8.55000019       4.25780192E-03
  -8.53999996       4.28551110E-03
  -8.52999973       4.31495020E-03
  -8.52000046       4.35370021E-03
  -8.51000023       4.40684520E-03
  -8.50000000       4.47564479E-03
  -8.48999977       4.55735531E-03
  -8.47999954       4.64626309E-03
  -8.47000027       4.73555410E-03
  -8.46000004       4.81944298E-03
  -8.44999981       4.89487685E-03
  -8.43999958       4.96232836E-03
  -8.43000031       5.02549717E-03
  -8.42000008       5.09002805E-03
  -8.40999985       5.16173756E-03
  -8.39999962       5.24488371E-03
  -8.39000034       5.34097757E-03
  -8.38000011       5.44842659E-03
  -8.36999989       5.56303514E-03
  -8.35999966       5.67913055E-03
  -8.35000038       5.79096144E-03
  -8.34000015       5.89395361E-03
  -8.32999992       5.98559203E-03
  -8.31999969       6.06574863E-03
  -8.31000042       6.13648025E-03
  -8.30000019       6.20140042E-03
  -8.28999996       6.26476854E-03
  -8.27999973       6.33052411E-03
  -8.27000046       6.40137913E-03
  -8.26000023       6.47815643E-03
  -8.25000000       6.55951863E-03
  -8.23999977       6.64221030E-03
  -8.22999954       6.72181463E-03
  -8.22000027       6.79391250E-03
  -8.21000004       6.85540587E-03
  -8.19999981       6.90561533E-03
  -8.18999958       6.94677234E-03
  -8.18000031       6.98367599E-03
  -8.17000008       7.02249864E-03
  -8.15999985       7.06895767E-03
  -8.14999962       7.12646078E-03
  -8.14000034       7.19476026E-03
  -8.13000011       7.26964185E-03
  -8.11999989       7.34387524E-03
  -8.10999966       7.40916235E-03
  -8.10000038       7.45853130E-03
  -8.09000015       7.48843746E-03
  -8.07999992       7.49986572E-03
  -8.06999969       7.49801798E-03
  -8.06000042       7.49072386E-03
  -8.05000019       7.48609519E-03
  -8.03999996       7.49018742E-03
  -8.02999973       7.50547415E-03
  -8.02000046       7.53059098E-03
  -8.01000023       7.56138517E-03
  -8.00000000       7.59278378E-03
  -7.98999977       7.62078632E-03
  -7.98000002       7.64380721E-03
  -7.96999979       7.66294636E-03
  -7.96000004       7.68112158E-03
  -7.94999981       7.70151895E-03
  -7.94000006       7.72602670E-03
  -7.92999983       7.75430165E-03
  -7.92000008       7.78384646E-03
  -7.90999985       7.81103130E-03
  -7.90000010       7.83263333E-03
  -7.88999987       7.84719642E-03
  -7.88000011       7.85570033E-03
  -7.86999989       7.86117557E-03
  -7.86000013       7.86753464E-03
  -7.84999990       7.87803903E-03
  -7.84000015       7.89415091E-03
  -7.82999992       7.91523512E-03
  -7.82000017       7.93924555E-03
  -7.80999994       7.96416774E-03
  -7.80000019       7.98953883E-03
  -7.78999996       8.01735558E-03
  -7.78000021       8.05194117E-03
  -7.76999998       8.09860975E-03
  -7.76000023       8.16166960E-03
  -7.75000000       8.24247487E-03
  -7.73999977       8.33827909E-03
  -7.73000002       8.44250247E-03
  -7.71999979       8.54638219E-03
  -7.71000004       8.64152331E-03
  -7.69999981       8.72250460E-03
  -7.69000006       8.78859404E-03
  -7.67999983       8.84396676E-03
  -7.67000008       8.89631175E-03
  -7.65999985       8.95429589E-03
  -7.65000010       9.02470853E-03
  -7.63999987       9.11029987E-03
  -7.63000011       9.20898747E-03
  -7.61999989       9.31474008E-03
  -7.61000013       9.41969361E-03
  -7.59999990       9.51688737E-03
  -7.59000015       9.60260350E-03
  -7.57999992       9.67756286E-03
  -7.57000017       9.74670053E-03
  -7.55999994       9.81751457E-03
  -7.55000019       9.89766512E-03
  -7.53999996       9.99257807E-03
  -7.53000021       1.01037472E-02
  -7.51999998       1.02282288E-02
  -7.51000023       1.03594372E-02
  -7.50000000       1.04888910E-02
  -7.48999977       1.06084095E-02
  -7.48000002       1.07121719E-02
  -7.46999979       1.07980520E-02
  -7.46000004       1.08679794E-02
  -7.44999981       1.09273242E-02
  -7.44000006       1.09834392E-02