  -16.0000000       0.00000000    
  -15.9899998       0.00000000    
  -15.9799995       0.00000000    
  -15.9700003       0.00000000    
  -15.9600000       0.00000000    
  -15.9499998       0.00000000    
  -15.9399996       3.01096313E-26
  -15.9300003       2.67987044E-25
  -15.9200001       1.12417471E-24
  -15.9099998       3.16748460E-24
  -15.8999996       9.59123200E-24
  -15.8900003       4.51645556E-23
  -15.8800001       2.30102825E-22
  -15.8699999       9.79143344E-22
  -15.8599997       3.40141192E-21
  -15.8500004       9.87193290E-21
  -15.8400002       2.43977810E-20
  -15.8299999       5.17212514E-20
  -15.8199997       9.33152918E-20
  -15.8100004       1.38478255E-19
  -15.8000002       1.51407075E-19
  -15.7900000       6.20871234E-20
  -15.7799997      -2.20986186E-19
  -15.7700005      -7.52080523E-19
  -15.7600002      -1.43157326E-18
  -15.7500000      -1.86505323E-18
  -15.7399998      -1.30956650E-18
  -15.7299995       1.11062491E-18
  -15.7200003       5.75641854E-18
  -15.7100000       1.14419560E-17
  -15.6999998       1.44971227E-17
  -15.6899996       8.90915127E-18
  -15.6800003      -1.12750466E-17
  -15.6700001      -4.67414055E-17
  -15.6599998      -8.61643869E-17
  -15.6499996      -1.01862243E-16
  -15.6400003      -5.39526040E-17
  -15.6300001       9.14750915E-17
  -15.6199999       3.30128815E-16
  -15.6099997       5.83815500E-16
  -15.6000004       6.84240891E-16
  -15.5900002       4.05826799E-16
  -15.5799999      -4.31761492E-16
  -15.5699997      -1.80114949E-15
  -15.5600004      -3.30287496E-15
  -15.5500002      -4.10443113E-15
  -15.5400000      -3.10288794E-15
  -15.5299997       6.19141433E-16
  -15.5200005       7.10349146E-15
  -15.5100002       1.48332596E-14
  -15.5000000       2.04565775E-14
  -15.4899998       1.93470728E-14
  -15.4799995       7.23522669E-15
  -15.4700003      -1.72976088E-14
  -15.4600000      -5.02560741E-14
  -15.4499998      -8.08818548E-14
  -15.4399996      -9.28885129E-14
  -15.4300003      -6.90845154E-14
  -15.4200001       1.05569274E-15
  -15.4099998       1.12933446E-13
  -15.3999996       2.40921622E-13
  -15.3900003       3.38841151E-13
  -15.3800001       3.49472485E-13
  -15.3699999       2.22970703E-13
  -15.3599997      -5.96783094E-14
  -15.3500004      -4.65437964E-13
  -15.3400002      -8.99129512E-13
  -15.3299999      -1.21210637E-12
  -15.3199997      -1.23305652E-12
  -15.3100004      -8.17961259E-13
  -15.3000002       9.03917579E-14
  -15.2900000       1.40803460E-12
  -15.2799997       2.87761048E-12
  -15.2700005       4.07468980E-12
  -15.2600002       4.46559890E-12
  -15.2500000       3.52353303E-12
  -15.2399998       8.99357086E-13
  -15.2299995      -3.37322618E-12
  -15.2200003      -8.68282789E-12
  -15.2100000      -1.37291680E-11
  -15.1999998      -1.65911139E-11
  -15.1899996      -1.50671801E-11
  -15.1800003      -7.33341859E-12
  -15.1700001       7.14265843E-12
  -15.1599998       2.66482201E-11
  -15.1499996       4.66072805E-11
  -15.1400003       5.97646654E-11
  -15.1300001       5.75688663E-11
  -15.1199999       3.28588788E-11
  -15.1099997      -1.65476868E-11
  -15.1000004      -8.43809467E-11
  -15.0900002      -1.54067703E-10
  -15.0799999      -2.00103600E-10
  -15.0699997      -1.93693880E-10
  -15.0600004      -1.12436692E-10
  -15.0500002       4.79577281E-11
  -15.0400000       2.63678829E-10
  -15.0299997       4.79316364E-10
  -15.0200005       6.15076712E-10
  -15.0100002       5.86482141E-10
  -15.0000000       3.34128031E-10
  -14.9899998      -1.43839080E-10
  -14.9799995      -7.67796882E-10
  -14.9700003      -1.37362044E-09
  -14.9600000      -1.73960002E-09
  -14.9499998      -1.64441993E-09
  -14.9399996      -9.46165923E-10
  -14.9300003       3.38879952E-10
  -14.9200001       1.98601713E-09
  -14.9099998       3.56788155E-09
  -14.8999996       4.53240290E-09
  -14.8900003       4.34879421E-09
  -14.8800001       2.69233325E-09
  -14.8699999      -3.83331283E-10
  -14.8599997      -4.34806990E-09
  -14.8500004      -8.22522495E-09
  -14.8400002      -1.07751816E-08
  -14.8299999      -1.08140341E-08
  -14.8199997      -7.59976970E-09
  -14.8100004      -1.18002130E-09
  -14.8000002       7.41765405E-09
  -14.7900000       1.62496008E-08
  -14.7799997       2.28125412E-08
  -14.7700005       2.46492586E-08
  -14.7600002       2.00747117E-08
  -14.7500000       8.83186768E-09
  -14.7399998      -7.52893481E-09
  -14.7299995      -2.57099835E-08
  -14.7200003      -4.12290966E-08
  -14.7100000      -4.94156076E-08
  -14.6999998      -4.66350798E-08
  -14.6899996      -3.14431077E-08
  -14.6800003      -5.34352029E-09
  -14.6700001       2.71116178E-08
  -14.6599998       5.90011986E-08
  -14.6499996       8.24232842E-08
  -14.6400003       9.03270987E-08
  -14.6300001       7.83780720E-08
  -14.6199999       4.63893635E-08
  -14.6099997      -1.08790177E-09
  -14.6000004      -5.52569652E-08
  -14.5900002      -1.04648748E-07
  -14.5799999      -1.37510114E-07
  -14.5699997      -1.44517557E-07
  -14.5600004      -1.21199378E-07
  -14.5500002      -6.94615636E-08
  -14.5400000       2.23253194E-09
  -14.5299997       8.01996691E-08
  -14.5200005       1.48215591E-07
  -14.5100002       1.91019836E-07
  -14.5000000       1.97881249E-07
  -14.4899998       1.65370196E-07
  -14.4799995       9.85953932E-08
  -14.4700003       1.04758273E-08
  -14.4600000      -8.09267178E-08
  -14.4499998      -1.56487459E-07
  -14.4399996      -2.00567655E-07
  -14.4300003      -2.04879086E-07
  -14.4200001      -1.70593211E-07
  -14.4099998      -1.08017240E-07
  -14.3999996      -3.37840369E-08
  -14.3900003       3.37860833E-08
  -14.3800001       7.99054618E-08
  -14.3699999       9.75952190E-08
  -14.3599997       8.96534686E-08
  -14.3500004       6.75487684E-08
  -14.3400002       4.73807837E-08
  -14.3299999       4.40049277E-08
  -14.3199997       6.51280061E-08
  -14.3100004       1.07377787E-07
  -14.3000002       1.55908836E-07
  -14.2900000       1.88099477E-07
  -14.2799997       1.80582560E-07
  -14.2700005       1.17642038E-07
  -14.2600002      -1.68812864E-09
  -14.2500000      -1.60376700E-07
  -14.2399998      -3.25574945E-07
  -14.2299995      -4.56188502E-07
  -14.2200003      -5.14025146E-07
  -14.2100000      -4.75333593E-07
  -14.1999998      -3.39088189E-07
  -14.1899996      -1.29075801E-07
  -14.1800003       1.11413861E-07
  -14.1700001       3.31181326E-07
  -14.1599998       4.85724286E-07
  -14.1499996       5.50313530E-07
  -14.1400003       5.27125621E-07
  -14.1300001       4.43635116E-07
  -14.1199999       3.42178907E-07
  -14.1099997       2.63595979E-07
  -14.1000004       2.30164304E-07
  -14.0900002       2.33835223E-07
  -14.0799999       2.34636587E-07
  -14.0699997       1.71215120E-07
  -14.0600004      -1.83497058E-08
  -14.0500002      -3.71011794E-07
  -14.0400000      -8.76320939E-07
  -14.0299997      -1.46492880E-06
  -14.0200005      -2.01346529E-06
  -14.0100002      -2.36683263E-06
  -14.0000000      -2.37386007E-06
  -13.9899998      -1.92788389E-06
  -13.9799995      -1.00154466E-06
  -13.9700003       3.34256299E-07
  -13.9600000       1.91372487E-06
  -13.9499998       3.50270943E-06
  -13.9399996       4.84305838E-06
  -13.9300003       5.70443626E-06
  -13.9200001       5.93080586E-06
  -13.9099998       5.46976844E-06
  -13.8999996       4.37704603E-06
  -13.8900003       2.79468827E-06
  -13.8800001       9.08279844E-07
  -13.8699999      -1.10620886E-06
  -13.8599997      -3.13257874E-06
  -13.8500004      -5.14899739E-06
  -13.8400002      -7.23828452E-06
  -13.8299999      -9.57098473E-06
  -13.8199997      -1.23647415E-05
  -13.8100004      -1.58286402E-05
  -13.8000002      -2.01042403E-05
  -13.7900000      -2.52151640E-05
  -13.7799997      -3.10348660E-05
  -13.7700005      -3.72783325E-05
  -13.7600002      -4.35190959E-05
  -13.7500000      -4.92290783E-05
  -13.7399998      -5.38360073E-05
  -13.7299995      -5.67914467E-05
  -13.7200003      -5.76417442E-05
  -13.7100000      -5.60938570E-05
  -13.6999998      -5.20673530E-05
  -13.6899996      -4.57242386E-05
  -13.6800003      -3.74687370E-05
  -13.6700001      -2.79113046E-05
  -13.6599998      -1.77958555E-05
  -13.6499996      -7.89552996E-06
  -13.6400003       1.10982785E-06
  -13.6300001       8.75415390E-06
  -13.6199999       1.48789732E-05
  -13.6099997       1.96766341E-05
  -13.6000004       2.36659362E-05
  -13.5900002       2.75959665E-05
  -13.5799999       3.22900742E-05
  -13.5699997       3.84580162E-05
  -13.5600004       4.65157136E-05
  -13.5500002       5.64549955E-05
  -13.5400000       6.77980352E-05
  -13.5299997       7.96543318E-05
  -13.5200005       9.08742149E-05
  -13.5100002       1.00268990E-04
  -13.5000000       1.06849591E-04
  -13.4899998       1.10028508E-04
  -13.4799995       1.09736124E-04
  -13.4700003       1.06422158E-04
  -13.4600000       1.00940619E-04
  -13.4499998       9.43453415E-05
  -13.4399996       8.76461490E-05
  -13.4300003       8.15853418E-05
  -13.4200001       7.64893775E-05
  -13.4099998       7.22305776E-05
  -13.3999996       6.83057733E-05
  -13.3900003       6.40080980E-05
  -13.3800001       5.86448659E-05
  -13.3699999       5.17431581E-05
  -13.3599997       4.31889857E-05
  -13.3500004       3.32640302E-05
  -13.3400002       2.25712010E-05
  -13.3299999       1.18692724E-05
  -13.3199997       1.86013665E-06
  -13.3100004      -7.01552472E-06
  -13.3000002      -1.47203546E-05
  -13.2900000      -2.16614808E-05
  -13.2799997      -2.86162158E-05
  -13.2700005      -3.65553096E-05
  -13.2600002      -4.64011137E-05
  -13.2500000      -5.87736904E-05
  -13.2399998      -7.37820737E-05
  -13.2299995      -9.09093505E-05
  -13.2200003      -1.09021727E-04
  -13.2100000      -1.26506027E-04
  -13.1999998      -1.41514902E-04
  -13.1899996      -1.52275592E-04
  -13.1800003      -1.57405710E-04
  -13.1700001      -1.56176378E-04
  -13.1599998      -1.48672276E-04
  -13.1499996      -1.35817769E-04
  -13.1400003      -1.19262208E-04
  -13.1300001      -1.01143654E-04
  -13.1199999      -8.37721454E-05
  -13.1099997      -6.92857357E-05
  -13.1000004      -5.93364239E-05
  -13.0900002      -5.48549760E-05
  -13.0799999      -5.59286491E-05
  -13.0699997      -6.18061677E-05
  -13.0600004      -7.10246968E-05
  -13.0500002      -8.16367683E-05
  -13.0400000      -9.15028213E-05
  -13.0299997      -9.86078594E-05
  -13.0200005      -1.01358506E-04
  -13.0100002      -9.88178363E-05
  -13.0000000      -9.08406873E-05
  -12.9899998      -7.80829942E-05
  -12.9799995      -6.18735794E-05
  -12.9700003      -4.39594187E-05
  -12.9600000      -2.61591886E-05
  -12.9499998      -9.98446649E-06
  -12.9399996       3.69624513E-06
  -12.9300003       1.48734707E-05
  -12.9200001       2.44320836E-05
  -12.9099998       3.39805265E-05
  -12.8999996       4.54950496E-05
  -12.8900003       6.08481423E-05
  -12.8800001       8.13256556E-05
  -12.8699999       1.07247222E-04
  -12.8599997       1.37785333E-04
  -12.8500004       1.71031454E-04
  -12.8400002       2.04294600E-04
  -12.8299999       2.34558669E-04
  -12.8199997       2.58984102E-04
  -12.8100004       2.75334634E-04
  -12.8000002       2.82237830E-04
  -12.7900000       2.79244705E-04
  -12.7799997       2.66716903E-04
  -12.7700005       2.45618896E-04
  -12.7600002       2.17311812E-04
  -12.7500000       1.83425713E-04
  -12.7399998       1.45838247E-04
  -12.7299995       1.06726919E-04
  -12.7200003       6.86149797E-05
  -12.7100000       3.43172651E-05
  -12.6999998       6.72015858E-06
  -12.6899996      -1.16066331E-05
  -12.6800003      -1.88917566E-05
  -12.6700001      -1.46031880E-05
  -12.6599998       3.05199904E-07
  -12.6499996       2.34590934E-05
  -12.6400003       5.14742787E-05
  -12.6300001       8.06375247E-05
  -12.6199999       1.07688225E-04
  -12.6099997       1.30483531E-04
  -12.6000004       1.48348932E-04
  -12.5900002       1.62004799E-04
  -12.5799999       1.73086766E-04
  -12.5699997       1.83409007E-04
  -12.5600004       1.94204942E-04
  -12.5500002       2.05594610E-04
  -12.5400000       2.16456625E-04
  -12.5299997       2.24754069E-04
  -12.5200005       2.28211560E-04
  -12.5100002       2.25121505E-04
  -12.5000000       2.15007691E-04
  -12.4899998       1.98915863E-04
  -12.4799995       1.79218958E-04
  -12.4700003       1.58983370E-04
  -12.4600000       1.41087992E-04
  -12.4499998       1.27372055E-04
  -12.4399996       1.18084121E-04
  -12.4300003       1.11810827E-04
  -12.4200001       1.05913481E-04
  -12.4099998       9.73429414E-05
  -12.3999996       8.35866958E-05
  -12.3900003       6.34677417E-05
  -12.3800001       3.75649615E-05
  -12.3699999       8.14790565E-06
  -12.3599997      -2.13354997E-05
  -12.3500004      -4.70515042E-05
  -12.3400002      -6.56207485E-05
  -12.3299999      -7.47812010E-05
  -12.3199997      -7.37240407E-05
  -12.3100004      -6.30627183E-05
  -12.3000002      -4.45010046E-05
  -12.2900000      -2.03366435E-05
  -12.2799997       7.04854256E-06
  -12.2700005       3.55930715E-05
  -12.2600002       6.37986450E-05
  -12.2500000       9.08161310E-05
  -12.2399998       1.16418734E-04
  -12.2299995       1.40913733E-04
  -12.2200003       1.65022386E-04
  -12.2100000       1.89731101E-04
  -12.1999998       2.16098881E-04
  -12.1899996       2.45010597E-04
  -12.1800003       2.76896928E-04
  -12.1700001       3.11476761E-04
  -12.1599998       3.47604044E-04
  -12.1499996       3.83296428E-04
  -12.1400003       4.15981776E-04
  -12.1300001       4.42932447E-04
  -12.1199999       4.61788994E-04
  -12.1099997       4.71030915E-04
  -12.1000004       4.70254308E-04
  -12.0900002       4.60169162E-04
  -12.0799999       4.42315766E-04
  -12.0699997       4.18589683E-04
  -12.0600004       3.90731147E-04
  -12.0500002       3.59939644E-04
  -12.0400000       3.26728332E-04
  -12.0299997       2.91040866E-04
  -12.0200005       2.52559228E-04
  -12.0100002       2.11062128E-04
  -12.0000000       1.66685044E-04
  -11.9899998       1.19982185E-04
  -11.9799995       7.17822695E-05
  -11.9700003       2.29209672E-05
  -11.9600000      -2.60091765E-05
  -11.9499998      -7.47557860E-05
  -11.9399996      -1.23281599E-04
  -11.9300003      -1.71453707E-04
  -11.9200001      -2.18676287E-04
  -11.9099998      -2.63648079E-04
  -11.8999996      -3.04393878E-04
  -11.8900003      -3.38623824E-04
  -11.8800001      -3.64339736E-04
  -11.8699999      -3.80490441E-04
  -11.8599997      -3.87423759E-04
  -11.8500004      -3.86928266E-04
  -11.8400002      -3.81786638E-04
  -11.8299999      -3.74935742E-04
  -11.8199997      -3.68487614E-04
  -11.8100004      -3.62938998E-04
  -11.8000002      -3.56861157E-04
  -11.7900000      -3.47213063E-04
  -11.7799997      -3.30212439E-04
  -11.7700005      -3.02500761E-04
  -11.7600002      -2.62227317E-04
  -11.7500000      -2.09690421E-04
  -11.7399998      -1.47319603E-04
  -11.7299995      -7.90050835E-05
  -11.7200003      -9.00695250E-06
  -11.7100000       5.91820099E-05
  -11.6999998       1.23631529E-04
  -11.6899996       1.84172517E-04
  -11.6800003       2.41960457E-04
  -11.6700001       2.98602943E-04
  -11.6599998       3.55203665E-04
  -11.6499996       4.11701272E-04
  -11.6400003       4.66761267E-04
  -11.6300001       5.18260873E-04
  -11.6199999       5.64175250E-04
  -11.6099997       6.03510300E-04
  -11.6000004       6.36903278E-04
  -11.5900002       6.66635751E-04
  -11.5799999       6.96018280E-04
  -11.5699997       7.28350424E-04
  -11.5600004       7.65820791E-04
  -11.5500002       8.08740733E-04
  -11.5400000       8.55384627E-04
  -11.5299997       9.02488595E-04
  -11.5200005       9.46216402E-04
  -11.5100002       9.83239617E-04
  -11.5000000       1.01154554E-03
  -11.4899998       1.03070505E-03
  -11.4799995       1.04154740E-03
  -11.4700003       1.04541879E-03
  -11.4600000       1.04335311E-03
  -11.4499998       1.03550090E-03
  -11.4399996       1.02104479E-03
  -11.4300003       9.98613657E-04
  -11.4200001       9.66999272E-04
  -11.4099998       9.25851695E-04
  -11.3999996       8.76036589E-04
  -11.3900003       8.19491572E-04
  -11.3800001       7.58626498E-04
  -11.3699999       6.95521361E-04
  -11.3599997       6.31273666E-04
  -11.3500004       5.65792900E-04
  -11.3400002       4.98164154E-04
  -11.3299999       4.27456369E-04
  -11.3199997       3.53649608E-04
  -11.3100004       2.78280204E-04
  -11.3000002       2.04489013E-04
  -11.2900000       1.36387258E-04
  -11.2799997       7.79258480E-05
  -11.2700005       3.16748083E-05
  -11.2600002      -2.02011097E-06
  -11.2500000      -2.51564816E-05
  -11.2399998      -4.13895832E-05
  -11.2299995      -5.47750096E-05
  -11.2200003      -6.84022234E-05
  -11.2100000      -8.34434468E-05
  -11.1999998      -9.89864711E-05
  -11.1899996      -1.12724461E-04
  -11.1800003      -1.22225509E-04
  -11.1700001      -1.26265048E-04
  -11.1599998      -1.25656108E-04
  -11.1499996      -1.23193124E-04
  -11.1400003      -1.22673227E-04
  -11.1300001      -1.27335210E-04
  -11.1199999      -1.38318326E-04
  -11.1099997      -1.53777102E-04
  -11.1000004      -1.69069332E-04
  -11.0900002      -1.78040427E-04
  -11.0799999      -1.74999994E-04
  -11.0699997      -1.56697235E-04
  -11.0600004      -1.23563819E-04
  -11.0500002      -7.97369066E-05
  -11.0400000      -3.18085513E-05
  -11.0299997       1.32748364E-05
  -11.0200005       5.04189484E-05
  -11.0100002       7.78932663E-05
  -11.0000000       9.76026276E-05
  -10.9899998       1.14027571E-04
  -10.9799995       1.32248242E-04
  -10.9700003       1.55813468E-04
  -10.9600000       1.85276644E-04
  -10.9499998       2.17967085E-04
  -10.9399996       2.49084871E-04
  -10.9300003       2.73697340E-04
  -10.9200001       2.88846291E-04
  -10.9099998       2.94926635E-04
  -10.8999996       2.95762147E-04
  -10.8900003       2.97304388E-04
  -10.8800001       3.05417139E-04
  -10.8699999       3.23579530E-04
  -10.8599997       3.51394468E-04
  -10.8500004       3.84505576E-04
  -10.8400002       4.16001014E-04
  -10.8299999       4.38823801E-04
  -10.8199997       4.48314939E-04
  -10.8100004       4.43955767E-04
  -10.8000002       4.29654756E-04
  -10.7900000       4.12465364E-04
  -10.7799997       4.00189456E-04
  -10.7700005       3.98731761E-04
  -10.7600002       4.10152890E-04
  -10.7500000       4.32100467E-04
  -10.7399998       4.58779803E-04
  -10.7299995       4.83063515E-04
  -10.7200003       4.98933485E-04
  -10.7100000       5.03360876E-04
  -10.6999998       4.96977824E-04
  -10.6899996       4.83377487E-04
  -10.6800003       4.67407721E-04
  -10.6700001       4.53192828E-04
  -10.6599998       4.42685763E-04
  -10.6499996       4.35304333E-04
  -10.6400003       4.28748986E-04
  -10.6300001       4.20608732E-04
  -10.6199999       4.10049892E-04
  -10.6099997       3.98850185E-04
  -10.6000004       3.91309848E-04
  -10.5900002       3.93034046E-04
  -10.5799999       4.09032858E-04
  -10.5699997       4.41867596E-04
  -10.5600004       4.90563456E-04
  -10.5500002       5.50714845E-04
  -10.5400000       6.15753292E-04
  -10.5299997       6.78908953E-04
  -10.5200005       7.35146343E-04
  -10.5100002       7.82378600E-04
  -10.5000000       8.21571099E-04
  -10.4899998       8.55774328E-04
  -10.4799995       8.88538430E-04
  -10.4700003       9.22370062E-04
  -10.4600000       9.57841228E-04
  -10.4499998       9.93652386E-04
  -10.4399996       1.02755532E-03
  -10.4300003       1.05768302E-03
  -10.4200001       1.08366890E-03
  -10.4099998       1.10705860E-03
  -10.3999996       1.13081129E-03
  -10.3900003       1.15808717E-03
  -10.3800001       1.19082571E-03
  -10.3699999       1.22870563E-03
  -10.3599997       1.26893970E-03
  -10.3500004       1.30700844E-03
  -10.3400002       1.33806688E-03
  -10.3299999       1.35847798E-03
  -10.3199997       1.36688992E-03
  -10.3100004       1.36444950E-03
  -10.3000002       1.35411124E-03
  -10.2900000       1.33935513E-03
  -10.2799997       1.32286048E-03
  -10.2700005       1.30568829E-03
  -10.2600002       1.28728768E-03
  -10.2500000       1.26629474E-03
  -10.2399998       1.24173379E-03
  -10.2299995       1.21406396E-03
  -10.2200003       1.18555746E-03
  -10.2100000       1.15978369E-03
  -10.1999998       1.14034617E-03
  -10.1899996       1.12935354E-03
  -10.1800003       1.12625817E-03
  -10.1700001       1.12757285E-03
  -10.1599998       1.12766784E-03
  -10.1499996       1.12041738E-03
  -10.1400003       1.10114668E-03
  -10.1300001       1.06817239E-03
  -10.1199999       1.02338626E-03
  -10.1099997       9.71660193E-04
  -10.1000004       9.19294660E-04
  -10.0900002       8.72071250E-04
  -10.0799999       8.33606871E-04
  -10.0699997       8.04572657E-04
  -10.0600004       7.83003808E-04
  -10.0500002       7.65505421E-04
  -10.0400000       7.48844643E-04
  -10.0299997       7.31285778E-04
  -10.0200005       7.13175221E-04
  -10.0100002       6.96591102E-04
  -10.0000000       6.84264931E-04
  -9.98999977       6.78256562E-04
  -9.97999954       6.78962911E-04
  -9.97000027       6.84871047E-04
  -9.96000004       6.93169248E-04
  -9.94999981       7.00965757E-04
  -9.93999958       7.06622552E-04
  -9.93000031       7.10654655E-04
  -9.92000008       7.15820293E-04
  -9.90999985       7.26342318E-04
  -9.89999962       7.46527920E-04
  -9.89000034       7.79288763E-04
  -9.88000011       8.25094176E-04
  -9.86999989       8.81720975E-04
  -9.85999966       9.44867614E-04
  -9.85000038       1.00939500E-03
  -9.84000015       1.07074692E-03
  -9.82999992       1.12606678E-03
  -9.81999969       1.17468287E-03
  -9.81000042       1.21787202E-03
  -9.80000019       1.25807826E-03
  -9.78999996       1.29792455E-03
  -9.77999973       1.33937749E-03
  -9.77000046       1.38331112E-03
  -9.76000023       1.42953126E-03
  -9.75000000       1.47712615E-03
  -9.73999977       1.52492209E-03
  -9.72999954       1.57182908E-03
  -9.72000027       1.61696400E-03
  -9.71000004       1.65957678E-03
  -9.69999981       1.69891282E-03
  -9.68999958       1.73416117E-03
  -9.68000031       1.76459167E-03
  -9.67000008       1.78984576E-03
  -9.65999985       1.81026652E-03
  -9.64999962       1.82708493E-03
  -9.64000034       1.84233440E-03
  -9.63000011       1.85846514E-03
  -9.61999989       1.87776773E-03
  -9.60999966       1.90179714E-03
  -9.60000038       1.93101540E-03
  -9.59000015       1.96476909E-03
  -9.57999992       2.00159405E-03
  -9.56999969       2.03970820E-03
  -9.56000042       2.07748497E-03
  -9.55000019       2.11371062E-03
  -9.53999996       2.14755535E-03
  -9.52999973       2.17832043E-03
  -9.52000046       2.20514811E-03
  -9.51000023       2.22690171E-03
  -9.50000000       2.24235677E-03
  -9.48999977       2.25070072E-03
  -9.47999954       2.25215475E-03
  -9.47000027       2.24846345E-03
  -9.46000004       2.24296795E-03
  -9.44999981       2.24013091E-03
  -9.43999958       2.24457192E-03
  -9.43000031       2.25987518E-03
  -9.42000008       2.28754175E-03
  -9.40999985       2.32645054E-03
  -9.39999962       2.37303739E-03
  -9.39000034       2.42216722E-03
  -9.38000011       2.46843509E-03
  -9.36999989       2.50750524E-03
  -9.35999966       2.53707799E-03
  -9.35000038       2.55722157E-03
  -9.34000015       2.57002399E-03
  -9.32999992       2.57873395E-03
  -9.31999969       2.58674007E-03
  -9.31000042       2.59671710E-03
  -9.30000019       2.61017890E-03
  -9.28999996       2.62750988E-03
  -9.27999973       2.64834822E-03
  -9.27000046       2.67207506E-03
  -9.26000023       2.69820890E-03
  -9.25000000       2.72652437E-03
  -9.23999977       2.75691715E-03
  -9.22999954       2.78913602E-03
  -9.22000027       2.82255164E-03
  -9.21000004       2.85611046E-03
  -9.19999981       2.88852653E-03
  -9.18999958       2.91862129E-03
  -9.18000031       2.94566061E-03
  -9.17000008       2.96954089E-03
  -9.15999985       2.99072452E-03
  -9.14999962       3.00996192E-03
  -9.14000034       3.02792480E-03
  -9.13000011       3.04494658E-03
  -9.11999989       3.06098862E-03
  -9.10999966       3.07585811E-03
  -9.10000038       3.08958697E-03
  -9.09000015       3.10276798E-03
  -9.07999992       3.11664678E-03
  -9.06999969       3.13287298E-03
  -9.06000042       3.15291667E-03
  -9.05000019       3.17737856E-03
  -9.03999996       3.20543605E-03
  -9.02999973       3.23471217E-03
  -9.02000046       3.26168258E-03
  -9.01000023       3.28256283E-03
  -9.00000000       3.29443300E-03
  -8.98999977       3.29622906E-03
  -8.97999954       3.28925811E-03
  -8.97000027       3.27704637E-03
  -8.96000004       3.26450286E-03
  -8.94999981       3.25667369E-03
  -8.93999958       3.25743016E-03
  -8.93000031       3.26852058E-03
  -8.92000008       3.28924228E-03
  -8.90999985       3.31684551E-03
  -8.89999962       3.34748207E-03
  -8.89000034       3.37741175E-03
  -8.88000011       3.40407970E-03
  -8.86999989       3.42673459E-03
  -8.85999966       3.44645907E-03
  -8.85000038       3.46564106E-03
  -8.84000015       3.48708639E-03
  -8.82999992       3.51310428E-03
  -8.81999969       3.54482187E-03
  -8.81000042       3.58192134E-03
  -8.80000019       3.62286600E-03
  -8.78999996       3.66548984E-03
  -8.77999973       3.70776514E-03
  -8.77000046       3.74849886E-03
  -8.76000023       3.78777413E-03
  -8.75000000       3.82699538E-03
  -8.73999977       3.86856217E-03
  -8.72999954       3.91522516E-03
  -8.72000027       3.96933267E-03
  -8.71000004       4.03214619E-03
  -8.69999981       4.10343707E-03
  -8.68999958       4.18145861E-03
  -8.68000031       4.26334562E-03
  -8.67000008       4.34583193E-03
  -8.65999985       4.42611752E-03
  -8.64999962       4.50263498E-03
  -8.64000034       4.57549002E-03
  -8.63000011       4.64641117E-03
  -8.61999989       4.71821334E-03
  -8.60999966       4.79388656E-03
  -8.60000038       4.87559848E-03
  -8.59000015       4.96390555E-03
  -8.57999992       5.05746249E-03
  -8.56999969       5.15334401E-03
  -8.56000042       5.24789607E-03
  -8.55000019       5.33789117E-03
  -8.53999996       5.42156445E-03
  -8.52999973       5.49922651E-03
  -8.52000046       5.57317957E-03
  -8.51000023       5.64696128E-03
  -8.50000000       5.72415628E-03
  -8.48999977       5.80713013E-03
  -8.47999954       5.89615107E-03
  -8.47000027       5.98919298E-03
  -8.46000004       6.08249987E-03
  -8.44999981       6.17172895E-03
  -8.43999958       6.25330536E-03
  -8.43000031       6.32551638E-03
  -8.42000008       6.38899812E-03
  -8.40999985       6.44643838E-03
  -8.39999962       6.50162762E-03
  -8.39000034       6.55819289E-03
  -8.38000011       6.61843363E-03
  -8.36999989       6.68267114E-03
  -8.35999966       6.74928911E-03
  -8.35000038       6.81543164E-03
  -8.34000015       6.87809289E-03
  -8.32999992       6.93521742E-03
  -8.31999969       6.98641688E-03
  -8.31000042       7.03309663E-03
  -8.30000019       7.07797660E-03
  -8.28999996       7.12420139E-03
  -8.27999973       7.17432983E-03
  -8.27000046       7.22956238E-03
  -8.26000023       7.28940964E-03
  -8.25000000       7.35190650E-03
  -8.23999977       7.41423620E-03
  -8.22999954       7.47354468E-03
  -8.22000027       7.52771273E-03
  -8.21000004       7.57585187E-03
  -8.19999981       7.61844823E-03
  -8.18999958       7.65710510E-03
  -8.18000031       7.69407162E-03
  -8.17000008       7.73162767E-03
  -8.15999985       7.77157769E-03
  -8.14999962       7.81490374E-03
  -8.14000034       7.86166638E-03
  -8.13000011       7.91119039E-03
  -8.11999989       7.96241686E-03
  -8.10999966       8.01438093E-03
  -8.10000038       8.06659553E-03
  -8.09000015       8.11933540E-03
  -8.07999992       8.17361660E-03
  -8.06999969       8.23090598E-03
  -8.06000042       8.29259865E-03
  -8.05000019       8.35941266E-03
  -8.03999996       8.43090098E-03
  -8.02999973       8.50527454E-03
  -8.02000046       8.57969094E-03
  -8.01000023       8.65093246E-03
  -8.00000000       8.71635135E-03
  -7.98999977       8.77478626E-03
  -7.98000002       8.82708468E-03
  -7.96999979       8.87607504E-03
  -7.96000004       8.92584398E-03
  -7.94999981       8.98060109E-03
  -7.94000006       9.04337410E-03
  -7.92999983       9.11508594E-03
  -7.92000008       9.19428468E-03
  -7.90999985       9.27767344E-03
  -7.90000010       9.36130900E-03
  -7.88999987       9.44200531E-03
  -7.88000011       9.51845665E-03
  -7.86999989       9.59166139E-03
  -7.86000013       9.66441445E-03
  -7.84999990       9.74006485E-03
  -7.84000015       9.82097071E-03
  -7.82999992       9.90727078E-03
  -7.82000017       9.99645796E-03
  -7.80999994       1.00840246E-02
  -7.80000019       1.01649631E-02
  -7.78999996       1.02356775E-02
  -7.78000021       1.02955634E-02
  -7.76999998       1.03476839E-02
  -7.76000023       1.03982100E-02
  -7.75000000       1.04547413E-02
  -7.73999977       1.05240988E-02
  -7.73000002       1.06102582E-02
  -7.71999979       1.07131992E-02
  -7.71000004       1.08290147E-02
  -7.69999981       1.09512629E-02
  -7.69000006       1.10730566E-02
  -7.67999983       1.11892158E-02
  -7.67000008       1.12976441E-02
  -7.65999985       1.13996379E-02
  -7.65000010       1.14989644E-02
  -7.63999987       1.16001992E-02
  -7.63000011       1.17069529E-02
  -7.61999989       1.18206013E-02
  -7.61000013       1.19399950E-02
  -7.59999990       1.20621873E-02
  -7.59000015       1.21837864E-02
  -7.57999992       1.23024322E-02
  -7.57000017       1.24177421E-02
  -7.55999994       1.25314472E-02
  -7.55000019       1.26466984E-02
  -7.53999996       1.27668204E-02
  -7.53000021       1.28940735E-02
  -7.51999998       1.30288387E-02
  -7.51000023       1.31696248E-02
  -7.50000000       1.33137079E-02
  -7.48999977       1.34582575E-02
  -7.48000002       1.36013729E-02
  -7.46999979       1.37427039E-02
  -7.46000004       1.38834408E-02
  -7.44999981       1.40257087E-02
  -7.44000006       1.41716599E-02