 -0.1000000        2.7104047E-38
 -9.0000004E-02    8.1312003E-38
 -7.9999998E-02    1.3552038E-37
 -7.0000000E-02    1.8972989E-37
 -5.9999999E-02    2.4393884E-37
 -5.0000001E-02    2.9814719E-37
 -3.9999999E-02    3.5235332E-37
 -2.9999999E-02    4.0656283E-37
 -2.0000000E-02    4.6076895E-37
 -9.9999998E-03    5.1497732E-37
  0.0000000E+00    5.6918681E-37
  9.9999998E-03    6.2339410E-37
  2.0000000E-02    6.7760471E-37
  2.9999999E-02    7.3181537E-37
  3.9999999E-02    7.8602826E-37
  5.0000001E-02    8.4023892E-37
  5.9999999E-02    8.9444724E-37
  7.0000000E-02    9.4866014E-37
  7.9999998E-02    1.0028731E-36
  9.0000004E-02    1.0570770E-36
  0.1000000        1.1112853E-36
  0.1100000        1.1654892E-36
  0.1200000        1.2196930E-36
  0.1300000        1.2739015E-36
  0.1400000        1.3281008E-36
  0.1500000        1.3823091E-36
  0.1600000        1.4365085E-36
  0.1700000        1.4907168E-36
  0.1800000        1.5449252E-36
  0.1900000        1.5991245E-36
  0.2000000        1.6533239E-36
  0.2100000        1.7075413E-36
  0.2200000        1.7617406E-36
  0.2300000        1.8159399E-36
  0.2400000        1.8701574E-36
  0.2500000        1.9243567E-36
  0.2600000        1.9785561E-36
  0.2700000        2.0327554E-36
  0.2800000        2.0869730E-36
  0.2900000        2.1411720E-36
  0.3000000        2.1953625E-36
  0.3100000        2.2495528E-36
  0.3200000        2.3037429E-36
  0.3300000        2.3579424E-36
  0.3400000        2.4121327E-36
  0.3500000        2.4663228E-36
  0.3600000        2.5205224E-36
  0.3700000        2.5747125E-36
  0.3800000        2.6289028E-36
  0.3900000        2.6830933E-36
  0.4000000        2.7372926E-36
  0.4100000        2.7914829E-36
  0.4200000        2.8456730E-36
  0.4300000        2.8998726E-36
  0.4400000        2.9540627E-36
  0.4500000        3.0082530E-36
  0.4600000        3.0624433E-36
  0.4700000        3.1166428E-36
  0.4800000        3.1708418E-36
  0.4900000        3.2250323E-36
  0.5000000        3.2792135E-36
  0.5100000        3.3334129E-36
  0.5200000        3.3875941E-36
  0.5300000        3.4417935E-36
  0.5400000        3.4964991E-36
  0.5500000        3.5413762E-36
  0.5600000        3.5969768E-36
  0.5700000        3.6794605E-36
  0.5800000        3.7681198E-36
  0.5900000        3.8573125E-36
  0.6000000        3.9172718E-36
  0.6100000        3.9779636E-36
  0.6200000        3.9318026E-36
  0.6300000        3.6945338E-36
  0.6400000        3.4230397E-36
  0.6500000        2.9930438E-36
  0.6600000        2.4176392E-36
  0.6700000        2.1135753E-36
  0.6800000        2.2350762E-36
  0.6900000        2.9195215E-36
  0.7000000        4.5505109E-36
  0.7100000        7.3234023E-36
  0.7200000        1.1076159E-35
  0.7300000        1.5217064E-35
  0.7400000        1.8733818E-35
  0.7500000        1.9849327E-35
  0.7600000        1.6222275E-35
  0.7700000        5.6481061E-36
  0.7800000       -1.3277408E-35
  0.7900000       -4.0383606E-35
  0.8000000       -7.3095677E-35
  0.8100000       -1.0540568E-34
  0.8200000       -1.2766197E-34
  0.8300000       -1.2776973E-34
  0.8400000       -9.3232750E-35
  0.8500000       -1.4462669E-35
  0.8600000        1.1045930E-34
  0.8700000        2.7064279E-34
  0.8800000        4.3853869E-34
  0.8900000        5.6962147E-34
  0.9000000        6.0563802E-34
  0.9100000        4.8414751E-34
  0.9200000        1.5409691E-34
  0.9300000       -4.0581954E-34
  0.9400000       -1.1658401E-33
  0.9500000       -2.0291688E-33
  0.9600000       -2.8256717E-33
  0.9700000       -3.3244876E-33
  0.9800000       -3.2677373E-33
  0.9900000       -2.4245899E-33
   1.000000       -6.6111497E-34
   1.010000        1.9856302E-33
   1.020000        5.2461049E-33
   1.030000        8.5912121E-33
   1.040000        1.1252285E-32
   1.050000        1.2316454E-32
   1.060000        1.0890722E-32
   1.070000        6.3151002E-33
   1.080000       -1.6105542E-33
   1.090000       -1.2410058E-32
   1.100000       -2.4791158E-32
   1.110000       -3.6667504E-32
   1.120000       -4.5335414E-32
   1.130000       -4.7854081E-32
   1.140000       -4.1599526E-32
   1.150000       -2.4908046E-32
   1.160000        2.2828313E-33
   1.170000        3.7939271E-32
   1.180000        7.7704996E-32
   1.190000        1.1508022E-31
   1.200000        1.4206459E-31
   1.210000        1.5025229E-31
   1.220000        1.3229183E-31
   1.230000        8.3536759E-32
   1.240000        3.6161883E-33
   1.250000       -1.0235046E-31
   1.260000       -2.2319478E-31
   1.270000       -3.4204441E-31
   1.280000       -4.3769842E-31
   1.290000       -4.8705931E-31
   1.300000       -4.6847254E-31
   1.310000       -3.6565651E-31
   1.320000       -1.7175743E-31
   1.330000        1.0704417E-31
   1.340000        4.4904025E-31
   1.350000        8.1623779E-31
   1.360000        1.1559037E-30
   1.370000        1.4047942E-30
   1.380000        1.4961442E-30
   1.390000        1.3691295E-30
   1.400000        9.8007820E-31
   1.410000        3.1421042E-31
   1.420000       -6.0376376E-31
   1.430000       -1.7021572E-30
   1.440000       -2.8600536E-30
   1.450000       -3.9121964E-30
   1.460000       -4.6623698E-30
   1.470000       -4.9056291E-30
   1.480000       -4.4583601E-30
   1.490000       -3.1936229E-30
   1.500000       -1.0775248E-30
   1.510000        1.7990021E-30
   1.520000        5.1994440E-30
   1.530000        8.7384189E-30
   1.540000        1.1901161E-29
   1.550000        1.4088805E-29
   1.560000        1.4689066E-29
   1.570000        1.3167703E-29
   1.580000        9.1717177E-30
   1.590000        2.6310733E-30
   1.600000       -6.1573030E-30
   1.610000       -1.6480557E-29
   1.620000       -2.7212054E-29
   1.630000       -3.6876488E-29
   1.640000       -4.3783228E-29
   1.650000       -4.6223793E-29
   1.660000       -4.2719275E-29
   1.670000       -3.2292567E-29
   1.680000       -1.4731401E-29
   1.690000        9.1979578E-30
   1.700000        3.7628145E-29
   1.710000        6.7596957E-29
   1.720000        9.5210182E-29
   1.730000        1.1597229E-28
   1.740000        1.2527556E-28
   1.750000        1.1901407E-28
   1.760000        9.4264743E-29
   1.770000        4.9956546E-29
   1.780000       -1.2566443E-29
   1.790000       -8.9186620E-29
   1.800000       -1.7295192E-28
   1.810000       -2.5438325E-28
   1.820000       -3.2218586E-28
   1.830000       -3.6435648E-28
   1.840000       -3.6962026E-28
   1.850000       -3.2907787E-28
   1.860000       -2.3788807E-28
   1.870000       -9.6774724E-29
   1.880000        8.6875618E-29
   1.890000        2.9855020E-28
   1.900000        5.1696924E-28
   1.910000        7.1538639E-28
   1.920000        8.6385325E-28
   1.930000        9.3234712E-28
   1.940000        8.9454198E-28
   1.950000        7.3186522E-28
   1.960000        4.3739328E-28
   1.970000        1.9060701E-29
   1.980000       -4.9834140E-28
   1.990000       -1.0728622E-27
   2.000000       -1.6471368E-27
   2.010000       -2.1523573E-27
   2.020000       -2.5143957E-27
   2.030000       -2.6617407E-27
   2.040000       -2.5346157E-27
   2.050000       -2.0944118E-27
   2.060000       -1.3323464E-27
   2.070000       -2.7618565E-28
   2.080000        1.0061136E-27
   2.090000        2.4068337E-27
   2.100000        3.7836662E-27
   2.110000        4.9698607E-27
   2.120000        5.7890469E-27
   2.130000        6.0738284E-27
   2.140000        5.6866514E-27
   2.150000        4.5409649E-27
   2.160000        2.6202689E-27
   2.170000       -7.4676309E-30
   2.180000       -3.1824588E-27
   2.190000       -6.6548506E-27
   2.200000       -1.0096930E-26
   2.210000       -1.3126179E-26
   2.220000       -1.5338402E-26
   2.230000       -1.6348982E-26
   2.240000       -1.5838973E-26
   2.250000       -1.3601785E-26
   2.260000       -9.5854057E-27
   2.270000       -3.9248080E-27
   2.280000        3.0406233E-27
   2.290000        1.0769009E-26
   2.300000        1.8540171E-26
   2.310000        2.5503137E-26
   2.320000        3.0745669E-26
   2.330000        3.3381980E-26
   2.340000        3.2652226E-26
   2.350000        2.8025153E-26
   2.360000        1.9293641E-26
   2.370000        6.6519918E-27
   2.380000       -9.2560840E-27
   2.390000       -2.7328471E-26
   2.400000       -4.6041743E-26
   2.410000       -6.3538081E-26
   2.420000       -7.7761008E-26
   2.430000       -8.6634202E-26
   2.440000       -8.8272056E-26
   2.450000       -8.1206038E-26
   2.460000       -6.4606827E-26
   2.470000       -3.8479322E-26
   2.480000       -3.8066144E-27
   2.490000        3.7379582E-26
   2.500000        8.2021603E-26
   2.510000        1.2616567E-25
   2.520000        1.6520498E-25
   2.530000        1.9423403E-25
   2.540000        2.0850163E-25
   2.550000        2.0394012E-25
   2.560000        1.7773951E-25
   2.570000        1.2892763E-25
   2.580000        5.8911960E-26
   2.590000       -2.8061844E-26
   2.600000       -1.2457859E-25
   2.610000       -2.1988694E-25
   2.620000       -2.9992341E-25
   2.630000       -3.4754174E-25
   2.640000       -3.4294148E-25
   2.650000       -2.6427743E-25
   2.660000       -8.8406119E-26
   2.670000        2.0828686E-25
   2.680000        6.4904976E-25
   2.690000        1.2559979E-24
   2.700000        2.0495084E-24
   2.710000        3.0478434E-24
   2.720000        4.2670563E-24
   2.730000        5.7212330E-24
   2.740000        7.4230423E-24
   2.750000        9.3845252E-24
   2.760000        1.1618007E-23
   2.770000        1.4136900E-23
   2.780000        1.6956106E-23
   2.790000        2.0091519E-23
   2.800000        2.3558141E-23
   2.810000        2.7366064E-23
   2.820000        3.1513434E-23
   2.830000        3.5975311E-23
   2.840000        4.0687167E-23
   2.850000        4.5521600E-23
   2.860000        5.0256265E-23
   2.870000        5.4531398E-23
   2.880000        5.7794241E-23
   2.890000        5.9227860E-23
   2.900000        5.7661472E-23
   2.910000        5.1459072E-23
   2.920000        3.8382292E-23
   2.930000        1.5423840E-23
   2.940000       -2.1393221E-23
   2.950000       -7.7254512E-23
   2.960000       -1.5883784E-22
   2.970000       -2.7464567E-22
   2.980000       -4.3539175E-22
   2.990000       -6.5444840E-22
   3.000000       -9.4836247E-22
   3.010000       -1.3374452E-21
   3.020000       -1.8464329E-21
   3.030000       -2.5052397E-21
   3.040000       -3.3498000E-21
   3.050000       -4.4229994E-21
   3.060000       -5.7757159E-21
   3.070000       -7.4679586E-21
   3.080000       -9.5701024E-21
   3.090000       -1.2164242E-20
   3.100000       -1.5345674E-20
   3.110000       -1.9224427E-20
   3.120000       -2.3926973E-20
   3.130000       -2.9597996E-20
   3.140000       -3.6402257E-20
   3.150000       -4.4526548E-20
   3.160000       -5.4181729E-20
   3.170000       -6.5604851E-20
   3.180000       -7.9061348E-20
   3.190000       -9.4847172E-20
   3.200000       -1.1329108E-19
   3.210000       -1.3475664E-19
   3.220000       -1.5964468E-19
   3.230000       -1.8839544E-19
   3.240000       -2.2149015E-19
   3.250000       -2.5945350E-19
   3.260000       -3.0285507E-19
   3.270000       -3.5231111E-19
   3.280000       -4.0848565E-19
   3.290000       -4.7209172E-19
   3.300000       -5.4389245E-19
   3.310000       -6.2470055E-19
   3.320000       -7.1537914E-19
   3.330000       -8.1684101E-19
   3.340000       -9.3004724E-19
   3.350000       -1.0560061E-18
   3.360000       -1.1957701E-18
   3.370000       -1.3504353E-18
   3.380000       -1.5211344E-18
   3.390000       -1.7090342E-18
   3.400000       -1.9153309E-18
   3.410000       -2.1412432E-18
   3.420000       -2.3880047E-18
   3.430000       -2.6568568E-18
   3.440000       -2.9490389E-18
   3.450000       -3.2657794E-18
   3.460000       -3.6082814E-18
   3.470000       -3.9777151E-18
   3.480000       -4.3752027E-18
   3.490000       -4.8018012E-18
   3.500000       -5.2584881E-18
   3.510000       -5.7461470E-18
   3.520000       -6.2655457E-18
   3.530000       -6.8173232E-18
   3.540000       -7.4019587E-18
   3.550000       -8.0197634E-18
   3.560000       -8.6708505E-18
   3.570000       -9.3551141E-18
   3.580000       -1.0072202E-17
   3.590000       -1.0821498E-17
   3.600000       -1.1602092E-17
   3.610000       -1.2412762E-17
   3.620000       -1.3251935E-17
   3.630000       -1.4117673E-17
   3.640000       -1.5007644E-17
   3.650000       -1.5919094E-17
   3.660000       -1.6848820E-17
   3.670000       -1.7793150E-17
   3.680000       -1.8747910E-17
   3.690000       -1.9708422E-17
   3.700000       -2.0669467E-17
   3.710000       -2.1625261E-17
   3.720000       -2.2569429E-17
   3.730000       -2.3495020E-17
   3.740000       -2.4394476E-17
   3.750000       -2.5259618E-17
   3.760000       -2.6081604E-17
   3.770000       -2.6851032E-17
   3.780000       -2.7557795E-17
   3.790000       -2.8191179E-17
   3.800000       -2.8739864E-17
   3.810000       -2.9191875E-17
   3.820000       -2.9534653E-17
   3.830000       -2.9755060E-17
   3.840000       -2.9839399E-17
   3.850000       -2.9773446E-17
   3.860000       -2.9542474E-17
   3.870000       -2.9131303E-17
   3.880000       -2.8524380E-17
   3.890000       -2.7705776E-17
   3.900000       -2.6659260E-17
   3.910000       -2.5368404E-17
   3.920000       -2.3816603E-17
   3.930000       -2.1987179E-17
   3.940000       -1.9863487E-17
   3.950000       -1.7428937E-17
   3.960000       -1.4667161E-17
   3.970000       -1.1562082E-17
   3.980000       -8.0980056E-18
   3.990000       -4.2597655E-18
   4.000000       -3.2827089E-20
   4.010000        4.5966083E-18
   4.020000        9.6414518E-18
   4.030000        1.5113609E-17
   4.040000        2.1023867E-17
   4.050000        2.7381748E-17
   4.060000        3.4195362E-17
   4.070000        4.1471296E-17
   4.080000        4.9214474E-17
   4.090000        5.7428033E-17
   4.100000        6.6113185E-17
   4.110000        7.5269095E-17
   4.120000        8.4892765E-17
   4.130000        9.4978989E-17
   4.140000        1.0552009E-16
   4.150000        1.1650602E-16
   4.160000        1.2792414E-16
   4.170000        1.3975923E-16
   4.180000        1.5199335E-16
   4.190000        1.6460594E-16
   4.200000        1.7757376E-16
   4.210000        1.9087075E-16
   4.220000        2.0446830E-16
   4.230000        2.1833509E-16
   4.240000        2.3243720E-16
   4.250000        2.4673850E-16
   4.260000        2.6120040E-16
   4.270000        2.7578225E-16
   4.280000        2.9044151E-16
   4.290000        3.0513390E-16
   4.300000        3.1981399E-16
   4.310000        3.3443505E-16
   4.320000        3.4895005E-16
   4.330000        3.6331149E-16
   4.340000        3.7747219E-16
   4.350000        3.9138576E-16
   4.360000        4.0500737E-16
   4.370000        4.1829425E-16
   4.380000        4.3120629E-16
   4.390000        4.4370664E-16
   4.400000        4.5576312E-16
   4.410000        4.6734911E-16
   4.420000        4.7844354E-16
   4.430000        4.8903310E-16
   4.440000        4.9911263E-16
   4.450000        5.0868648E-16
   4.460000        5.1777012E-16
   4.470000        5.2639117E-16
   4.480000        5.3459034E-16
   4.490000        5.4242354E-16
   4.500000        5.4996362E-16
   4.510000        5.5730141E-16
   4.520000        5.6454735E-16
   4.530000        5.7183454E-16
   4.540000        5.7931839E-16
   4.550000        5.8718124E-16
   4.560000        5.9563193E-16
   4.570000        6.0490911E-16
   4.580000        6.1528362E-16
   4.590000        6.2705997E-16
   4.600000        6.4057925E-16
   4.610000        6.5622072E-16
   4.620000        6.7440488E-16
   4.630000        6.9559600E-16
   4.640000        7.2030380E-16
   4.650000        7.4908730E-16
   4.660000        7.8255601E-16
   4.670000        8.2137325E-16
   4.680000        8.6625917E-16
   4.690000        9.1799303E-16
   4.700000        9.7741482E-16
   4.710000        1.0454302E-15
   4.720000        1.1230107E-15
   4.730000        1.2111991E-15
   4.740000        1.3111091E-15
   4.750000        1.4239298E-15
   4.760000        1.5509285E-15
   4.770000        1.6934529E-15
   4.780000        1.8529309E-15
   4.790000        2.0308782E-15
   4.800000        2.2288950E-15
   4.810000        2.4486727E-15
   4.820000        2.6919925E-15
   4.830000        2.9607302E-15
   4.840000        3.2568550E-15
   4.850000        3.5824335E-15
   4.860000        3.9396299E-15
   4.870000        4.3307054E-15
   4.880000        4.7580272E-15
   4.890000        5.2240592E-15
   4.900000        5.7313637E-15
   4.910000        6.2826098E-15
   4.920000        6.8805647E-15
   4.930000        7.5281002E-15
   4.940000        8.2281822E-15
   4.950000        8.9838822E-15
   4.960000        9.7983662E-15
   4.970000        1.0674899E-14
   4.980000        1.1616834E-14
   4.990000        1.2627620E-14
   5.000000        1.3710787E-14
   5.010000        1.4869963E-14
   5.020000        1.6108854E-14
   5.030000        1.7431218E-14
   5.040000        1.8840910E-14
   5.050000        2.0341840E-14
   5.060000        2.1937982E-14
   5.070000        2.3633347E-14
   5.080000        2.5432017E-14
   5.090000        2.7338075E-14
   5.100000        2.9355648E-14
   5.110000        3.1488897E-14
   5.120000        3.3741961E-14
   5.130000        3.6118996E-14
   5.140000        3.8624137E-14
   5.150000        4.1261492E-14
   5.160000        4.4035132E-14
   5.170000        4.6949071E-14
   5.180000        5.0007253E-14
   5.190000        5.3213530E-14
   5.200000        5.6571674E-14
   5.210000        6.0085292E-14
   5.220000        6.3757911E-14
   5.230000        6.7592904E-14
   5.240000        7.1593413E-14
   5.250000        7.5762422E-14
   5.260000        8.0102720E-14
   5.270000        8.4616830E-14
   5.280000        8.9307061E-14
   5.290000        9.4175346E-14
   5.300000        9.9223371E-14
   5.310000        1.0445248E-13
   5.320000        1.0986370E-13
   5.330000        1.1545757E-13
   5.340000        1.2123429E-13
   5.350000        1.2719363E-13
   5.360000        1.3333484E-13
   5.370000        1.3965666E-13
   5.380000        1.4615735E-13
   5.390000        1.5283464E-13
   5.400000        1.5968550E-13
   5.410000        1.6670642E-13
   5.420000        1.7389328E-13
   5.430000        1.8124110E-13
   5.440000        1.8874419E-13
   5.450000        1.9639624E-13
   5.460000        2.0419018E-13
   5.470000        2.1211787E-13
   5.480000        2.2017040E-13
   5.490000        2.2833807E-13
   5.500000        2.3661010E-13
   5.510000        2.4497486E-13
   5.520000        2.5341968E-13
   5.530000        2.6193075E-13
   5.540000        2.7049326E-13
   5.550000        2.7909139E-13
   5.560000        2.8770801E-13
   5.570000        2.9632481E-13
   5.580000        3.0492235E-13
   5.590000        3.1347995E-13
   5.600000        3.2197560E-13
   5.610000        3.3038578E-13
   5.620000        3.3868606E-13
   5.630000        3.4685029E-13
   5.640000        3.5485113E-13
   5.650000        3.6265966E-13
   5.660000        3.7024550E-13
   5.670000        3.7757682E-13
   5.680000        3.8462023E-13
   5.690000        3.9134096E-13
   5.700000        3.9770262E-13
   5.710000        4.0366695E-13
   5.720000        4.0919468E-13
   5.730000        4.1424435E-13
   5.740000        4.1877344E-13
   5.750000        4.2273720E-13
   5.760000        4.2608964E-13
   5.770000        4.2878304E-13
   5.780000        4.3076800E-13
   5.790000        4.3199347E-13
   5.800000        4.3240693E-13
   5.810000        4.3195390E-13
   5.820000        4.3057859E-13
   5.830000        4.2822321E-13
   5.840000        4.2482841E-13
   5.850000        4.2033388E-13
   5.860000        4.1467678E-13
   5.870000        4.0779392E-13
   5.880000        3.9961941E-13
   5.890000        3.9008678E-13
   5.900000        3.7912753E-13
   5.910000        3.6667213E-13
   5.920000        3.5264966E-13
   5.930000        3.3698760E-13
   5.940000        3.1961272E-13
   5.950000        3.0045047E-13
   5.960000        2.7942489E-13
   5.970000        2.5645930E-13
   5.980000        2.3147586E-13
   5.990000        2.0439654E-13
   6.000000        1.7514154E-13
   6.010000        1.4363127E-13
   6.020000        1.0978495E-13
   6.030000        7.3522074E-14
   6.040000        3.4760806E-14
   6.050000       -6.5801217E-15
   6.060000       -5.0582365E-14
   6.070000       -9.7327433E-14
   6.080000       -1.4689670E-13
   6.090000       -1.9937100E-13
   6.100000       -2.5483118E-13
   6.110000       -3.1335693E-13
   6.120000       -3.7502721E-13
   6.130000       -4.3992007E-13
   6.140000       -5.0811254E-13
   6.150000       -5.7968008E-13
   6.160000       -6.5469646E-13
   6.170000       -7.3323384E-13
   6.180000       -8.1536248E-13
   6.190000       -9.0115041E-13
   6.200000       -9.9066274E-13
   6.210000       -1.0839626E-12
   6.220000       -1.1811099E-12
   6.230000       -1.2821608E-12
   6.240000       -1.3871690E-12
   6.250000       -1.4961847E-12
   6.260000       -1.6092524E-12
   6.270000       -1.7264142E-12
   6.280000       -1.8477078E-12
   6.290000       -1.9731638E-12
   6.300000       -2.1028099E-12
   6.310000       -2.2366679E-12
   6.320000       -2.3747532E-12
   6.330000       -2.5170753E-12
   6.340000       -2.6636373E-12
   6.350000       -2.8144375E-12
   6.360000       -2.9694634E-12
   6.370000       -3.1286989E-12
   6.380000       -3.2921179E-12
   6.390000       -3.4596854E-12
   6.400000       -3.6313595E-12
   6.410000       -3.8070918E-12
   6.420000       -3.9868196E-12
   6.430000       -4.1704747E-12
   6.440000       -4.3579749E-12
   6.450000       -4.5492321E-12
   6.460000       -4.7441460E-12
   6.470000       -4.9426028E-12
   6.480000       -5.1444812E-12
   6.490000       -5.3496443E-12
   6.500000       -5.5579452E-12
   6.510000       -5.7692232E-12
   6.520000       -5.9833063E-12
   6.530000       -6.2000080E-12
   6.540000       -6.4191261E-12
   6.550000       -6.6404482E-12
   6.560000       -6.8637426E-12
   6.570000       -7.0887679E-12
   6.580000       -7.3152638E-12
   6.590000       -7.5429524E-12
   6.600000       -7.7715482E-12
   6.610000       -8.0007390E-12
   6.620000       -8.2301978E-12
   6.630000       -8.4595889E-12
   6.640000       -8.6885490E-12
   6.650000       -8.9167033E-12
   6.660000       -9.1436563E-12
   6.670000       -9.3689952E-12
   6.680000       -9.5922862E-12
   6.690000       -9.8130800E-12
   6.700000       -1.0030908E-11
   6.710000       -1.0245279E-11
   6.720000       -1.0455687E-11
   6.730000       -1.0661596E-11
   6.740000       -1.0862460E-11
   6.750000       -1.1057716E-11
   6.760000       -1.1246769E-11
   6.770000       -1.1429011E-11
   6.780000       -1.1603811E-11
   6.790000       -1.1770518E-11
   6.800000       -1.1928458E-11
   6.810000       -1.2076938E-11
   6.820000       -1.2215253E-11
   6.830000       -1.2342669E-11
   6.840000       -1.2458421E-11
   6.850000       -1.2561740E-11
   6.860000       -1.2651838E-11
   6.870000       -1.2727891E-11
   6.880000       -1.2789072E-11
   6.890000       -1.2834528E-11
   6.900000       -1.2863376E-11
   6.910000       -1.2874740E-11
   6.920000       -1.2867695E-11
   6.930000       -1.2841317E-11
   6.940000       -1.2794671E-11
   6.950000       -1.2726789E-11
   6.960000       -1.2636691E-11
   6.970000       -1.2523377E-11
   6.980000       -1.2385843E-11
   6.990000       -1.2223065E-11
   7.000000       -1.2034004E-11
   7.010000       -1.1817610E-11
   7.020000       -1.1572834E-11
   7.030000       -1.1298581E-11
   7.040000       -1.0993784E-11
   7.050000       -1.0657347E-11
   7.060000       -1.0288174E-11
   7.070000       -9.8851569E-12
   7.080000       -9.4472008E-12
   7.090000       -8.9731746E-12
   7.100000       -8.4619811E-12
   7.110000       -7.9124884E-12
   7.120000       -7.3235914E-12
   7.130000       -6.6941752E-12
   7.140000       -6.0231303E-12
   7.150000       -5.3093636E-12
   7.160000       -4.5517691E-12
   7.170000       -3.7492761E-12
   7.180000       -2.9007996E-12
   7.190000       -2.0052844E-12
   7.200000       -1.0616929E-12
   7.210000       -6.8986876E-14
   7.220000        9.7382215E-13
   7.230000        2.0677245E-12
   7.240000        3.2136750E-12
   7.250000        4.4126087E-12
   7.260000        5.6654182E-12
   7.270000        6.9729825E-12
   7.280000        8.3361191E-12
   7.290000        9.7556347E-12
   7.300000        1.1232270E-11
   7.310000        1.2766743E-11
   7.320000        1.4359711E-11
   7.330000        1.6011791E-11
   7.340000        1.7723541E-11
   7.350000        1.9495461E-11
   7.360000        2.1328002E-11
   7.370000        2.3221548E-11
   7.380000        2.5176408E-11
   7.390000        2.7192830E-11
   7.400000        2.9270999E-11
   7.410000        3.1411006E-11
   7.420000        3.3612869E-11
   7.430000        3.5876538E-11
   7.440000        3.8201855E-11
   7.450000        4.0588588E-11
   7.460000        4.3036394E-11
   7.470000        4.5544849E-11
   7.480000        4.8113444E-11
   7.490000        5.0741512E-11
   7.500000        5.3428310E-11
   7.510000        5.6173011E-11
   7.520000        5.8974638E-11
   7.530000        6.1832060E-11
   7.540000        6.4744099E-11
   7.550000        6.7709408E-11
   7.560000        7.0726522E-11
   7.570000        7.3793811E-11
   7.580000        7.6909597E-11
   7.590000        8.0071894E-11
   7.600000        8.3278738E-11
   7.610000        8.6527958E-11
   7.620000        8.9817181E-11
   7.630000        9.3143979E-11
   7.640000        9.6505699E-11
   7.650000        9.9899512E-11
   7.660000        1.0332243E-10
   7.670000        1.0677139E-10
   7.680000        1.1024298E-10
   7.690000        1.1373379E-10
   7.700000        1.1724011E-10
   7.710000        1.2075811E-10
   7.720000        1.2428381E-10
   7.730000        1.2781297E-10
   7.740000        1.3134123E-10
   7.750000        1.3486398E-10
   7.760000        1.3837644E-10
   7.770000        1.4187365E-10
   7.780000        1.4535047E-10
   7.790000        1.4880151E-10
   7.800000        1.5222133E-10
   7.810000        1.5560410E-10
   7.820000        1.5894391E-10
   7.830000        1.6223460E-10
   7.840000        1.6546980E-10
   7.850000        1.6864299E-10
   7.860000        1.7174734E-10
   7.870000        1.7477611E-10
   7.880000        1.7772199E-10
   7.890000        1.8057777E-10
   7.900000        1.8333592E-10
   7.910000        1.8598853E-10
   7.920000        1.8852789E-10
   7.930000        1.9094583E-10
   7.940000        1.9323411E-10
   7.950000        1.9538414E-10
   7.960000        1.9738738E-10
   7.970000        1.9923488E-10
   7.980000        2.0091773E-10
   7.990000        2.0242688E-10
   8.000000        2.0375285E-10
   8.010000        2.0488609E-10
   8.020000        2.0581699E-10
   8.030000        2.0653589E-10
   8.040000        2.0703267E-10
   8.050000        2.0729732E-10
   8.060000        2.0731955E-10
   8.070000        2.0708910E-10
   8.080000        2.0659564E-10
   8.090000        2.0582863E-10
   8.100000        2.0477726E-10
   8.110000        2.0343092E-10
   8.120000        2.0177877E-10
   8.130000        1.9981007E-10
   8.140000        1.9751357E-10
   8.150000        1.9487874E-10
   8.160000        1.9189446E-10
   8.170000        1.8854945E-10
   8.180000        1.8483302E-10
   8.190000        1.8073412E-10
   8.200000        1.7624160E-10
   8.210000        1.7134469E-10
   8.220000        1.6603220E-10
   8.230000        1.6029349E-10
   8.240000        1.5411757E-10
   8.250000        1.4749399E-10
   8.260000        1.4041208E-10
   8.270000        1.3286151E-10
   8.280000        1.2483192E-10
   8.290000        1.1631309E-10
   8.300000        1.0729512E-10
   8.310000        9.7768363E-11
   8.320000        8.7723086E-11
   8.330000        7.7150057E-11
   8.340000        6.6040187E-11
   8.350000        5.4384618E-11
   8.360000        4.2175045E-11
   8.370000        2.9403351E-11
   8.380000        1.6061676E-11
   8.390000        2.1425379E-12
   8.400000       -1.2361127E-11
   8.410000       -2.7456029E-11
   8.420000       -4.3148290E-11
   8.430000       -5.9443700E-11
   8.440000       -7.6347581E-11
   8.450000       -9.3864798E-11
   8.460000       -1.1199951E-10
   8.470000       -1.3075543E-10
   8.480000       -1.5013582E-10
   8.490000       -1.7014305E-10
   8.500000       -1.9077914E-10
   8.510000       -2.1204534E-10
   8.520000       -2.3394228E-10
   8.530000       -2.5646979E-10
   8.540000       -2.7962721E-10
   8.550000       -3.0341277E-10
   8.560000       -3.2782427E-10
   8.570000       -3.5285838E-10
   8.580000       -3.7851125E-10
   8.590000       -4.0477802E-10
   8.600000       -4.3165302E-10
   8.610000       -4.5912968E-10
   8.620000       -4.8720017E-10
   8.630000       -5.1585630E-10
   8.640000       -5.4508853E-10
   8.650000       -5.7488619E-10
   8.660000       -6.0523797E-10
   8.670000       -6.3613126E-10
   8.680000       -6.6755240E-10
   8.690000       -6.9948686E-10
   8.700000       -7.3191875E-10
   8.710000       -7.6483075E-10
   8.720000       -7.9820500E-10
   8.730000       -8.3202217E-10
   8.740000       -8.6626184E-10
   8.750000       -9.0090185E-10
   8.760000       -9.3591945E-10
   8.770000       -9.7129083E-10
   8.780000       -1.0069897E-09
   8.790000       -1.0429898E-09
   8.800000       -1.0792626E-09
   8.810000       -1.1157788E-09
   8.820000       -1.1525076E-09
   8.830000       -1.1894169E-09
   8.840000       -1.2264726E-09
   8.850000       -1.2636405E-09
   8.860000       -1.3008842E-09
   8.870000       -1.3381655E-09
   8.880000       -1.3754463E-09
   8.890000       -1.4126845E-09
   8.900000       -1.4498399E-09
   8.910000       -1.4868677E-09
   8.920000       -1.5237239E-09
   8.930000       -1.5603632E-09
   8.940000       -1.5967370E-09
   8.950000       -1.6327955E-09
   8.960000       -1.6684901E-09
   8.970000       -1.7037678E-09
   8.980000       -1.7385752E-09