 -0.1000000       -8.4193585E-36
 -9.0000004E-02   -2.5258079E-35
 -7.9999998E-02   -4.2096786E-35
 -7.0000000E-02   -5.8935487E-35
 -5.9999999E-02   -7.5774203E-35
 -5.0000001E-02   -9.2612918E-35
 -3.9999999E-02   -1.0945162E-34
 -2.9999999E-02   -1.2629033E-34
 -2.0000000E-02   -1.4312905E-34
 -9.9999998E-03   -1.5996779E-34
  0.0000000E+00   -1.7680655E-34
  9.9999998E-03   -1.9364527E-34
  2.0000000E-02   -2.1048400E-34
  2.9999999E-02   -2.2732275E-34
  3.9999999E-02   -2.4416147E-34
  5.0000001E-02   -2.6100022E-34
  5.9999999E-02   -2.7783888E-34
  7.0000000E-02   -2.9467758E-34
  7.9999998E-02   -3.1151624E-34
  9.0000004E-02   -3.2835497E-34
  0.1000000       -3.4519367E-34
  0.1100000       -3.6203238E-34
  0.1200000       -3.7887113E-34
  0.1300000       -3.9570983E-34
  0.1400000       -4.1254851E-34
  0.1500000       -4.2938724E-34
  0.1600000       -4.4622597E-34
  0.1700000       -4.6306465E-34
  0.1800000       -4.7990337E-34
  0.1900000       -4.9674210E-34
  0.2000000       -5.1358083E-34
  0.2100000       -5.3041956E-34
  0.2200000       -5.4725824E-34
  0.2300000       -5.6409701E-34
  0.2400000       -5.8093569E-34
  0.2500000       -5.9777442E-34
  0.2600000       -6.1461314E-34
  0.2700000       -6.3145192E-34
  0.2800000       -6.4829051E-34
  0.2900000       -6.6484689E-34
  0.3000000       -6.8104529E-34
  0.3100000       -6.9729953E-34
  0.3200000       -7.1345904E-34
  0.3300000       -7.2908999E-34
  0.3400000       -7.4414036E-34
  0.3500000       -7.5817021E-34
  0.3600000       -7.7077183E-34
  0.3700000       -7.8202599E-34
  0.3800000       -7.9137182E-34
  0.3900000       -7.9746896E-34
  0.4000000       -7.9851010E-34
  0.4100000       -7.9049047E-34
  0.4200000       -7.6532851E-34
  0.4300000       -7.0879669E-34
  0.4400000       -5.9694188E-34
  0.4500000       -3.9480746E-34
  0.4600000       -5.5554374E-35
  0.4700000        4.7697915E-34
  0.4800000        1.2570240E-33
  0.4900000        2.3214954E-33
  0.5000000        3.6641529E-33
  0.5100000        5.2057157E-33
  0.5200000        6.7649568E-33
  0.5300000        8.0447255E-33
  0.5400000        8.6371203E-33
  0.5500000        8.0792212E-33
  0.5600000        5.9656673E-33
  0.5700000        2.1120269E-33
  0.5800000       -3.2484213E-33
  0.5900000       -9.2787860E-33
  0.6000000       -1.4421786E-32
  0.6100000       -1.6482426E-32
  0.6200000       -1.2959487E-32
  0.6300000       -1.6787294E-33
  0.6400000        1.8261823E-32
  0.6500000        4.5348826E-32
  0.6600000        7.4546278E-32
  0.6700000        9.6684710E-32
  0.6800000        9.8566865E-32
  0.6900000        6.4281021E-32
  0.7000000       -2.2049495E-32
  0.7100000       -1.7226147E-31
  0.7200000       -3.8929613E-31
  0.7300000       -6.6256203E-31
  0.7400000       -9.6476780E-31
  0.7500000       -1.2517883E-30
  0.7600000       -1.4668995E-30
  0.7700000       -1.5501115E-30
  0.7800000       -1.4522277E-30
  0.7900000       -1.1520253E-30
  0.8000000       -6.7343813E-31
  0.8100000       -9.8461705E-32
  0.8200000        4.2877402E-31
  0.8300000        7.1096865E-31
  0.8400000        5.2204377E-31
  0.8500000       -3.5363685E-31
  0.8600000       -2.0712771E-30
  0.8700000       -4.6728880E-30
  0.8800000       -8.0425525E-30
  0.8900000       -1.1881980E-29
  0.9000000       -1.5717615E-29
  0.9100000       -1.8946614E-29
  0.9200000       -2.0922919E-29
  0.9300000       -2.1076241E-29
  0.9400000       -1.9048610E-29
  0.9500000       -1.4825571E-29
  0.9600000       -8.8351555E-30
  0.9700000       -1.9878796E-30
  0.9800000        4.3635768E-30
  0.9900000        8.5553750E-30
   1.000000        8.8301819E-30
   1.010000        3.6210981E-30
   1.020000       -8.1343615E-30
   1.030000       -2.6698490E-29
   1.040000       -5.1309530E-29
   1.050000       -8.0080943E-29
   1.060000       -1.1006386E-28
   1.070000       -1.3749378E-28
   1.080000       -1.5821646E-28
   1.090000       -1.6826024E-28
   1.100000       -1.6449425E-28
   1.110000       -1.4528928E-28
   1.120000       -1.1108374E-28
   1.130000       -6.4754880E-29
   1.140000       -1.1706172E-29
   1.150000        4.0393149E-29
   1.160000        8.2243624E-29
   1.170000        1.0390583E-28
   1.180000        9.6072686E-29
   1.190000        5.1500504E-29
   1.200000       -3.3569317E-29
   1.210000       -1.5819436E-28
   1.220000       -3.1592570E-28
   1.230000       -4.9459865E-28
   1.240000       -6.7685859E-28
   1.250000       -8.4148867E-28
   1.260000       -9.6550421E-28
   1.270000       -1.0268762E-27
   1.280000       -1.0076323E-27
   1.290000       -8.9698906E-28
   1.300000       -6.9410910E-28
   1.310000       -4.1005552E-28
   1.320000       -6.8551568E-29
   1.330000        2.9475051E-28
   1.340000        6.3463850E-28
   1.350000        9.0031033E-28
   1.360000        1.0406896E-27
   1.370000        1.0106281E-27
   1.380000        7.7736407E-28
   1.390000        3.2648988E-28
   1.400000       -3.3335170E-28
   1.410000       -1.1677596E-27
   1.420000       -2.1164206E-27
   1.430000       -3.0958361E-27
   1.440000       -4.0049655E-27
   1.450000       -4.7335025E-27
   1.460000       -5.1722039E-27
   1.470000       -5.2244212E-27
   1.480000       -4.8178266E-27
   1.490000       -3.9152253E-27
   1.500000       -2.5233879E-27
   1.510000       -6.9891064E-28
   1.520000        1.4496570E-27
   1.530000        3.7639920E-27
   1.540000        6.0427712E-27
   1.550000        8.0530981E-27
   1.560000        9.5463332E-27
   1.570000        1.0277863E-26
   1.580000        1.0030031E-26
   1.590000        8.6371302E-27
   1.600000        6.0110415E-27
   1.610000        2.1656252E-27
   1.620000       -2.7623475E-27
   1.630000       -8.4983916E-27
   1.640000       -1.4624524E-26
   1.650000       -2.0585409E-26
   1.660000       -2.5709125E-26
   1.670000       -2.9244485E-26
   1.680000       -3.0415725E-26
   1.690000       -2.8493801E-26
   1.700000       -2.2881362E-26
   1.710000       -1.3206296E-26
   1.720000        5.8370887E-28
   1.730000        1.8135310E-26
   1.740000        3.8623767E-26
   1.750000        6.0719585E-26
   1.760000        8.2599666E-26
   1.770000        1.0201364E-25
   1.780000        1.1641320E-25
   1.790000        1.2314779E-25
   1.800000        1.1972570E-25
   1.810000        1.0413196E-25
   1.820000        7.5189340E-26
   1.830000        3.2941466E-26
   1.840000       -2.0968063E-26
   1.850000       -8.2950887E-26
   1.860000       -1.4719592E-25
   1.870000       -2.0549001E-25
   1.880000       -2.4716555E-25
   1.890000       -2.5919692E-25
   1.900000       -2.2645601E-25
   1.910000       -1.3212660E-25
   1.920000        4.1740775E-26
   1.930000        3.1356533E-25
   1.940000        7.0151507E-25
   1.950000        1.2227866E-24
   1.960000        1.8929500E-24
   1.970000        2.7254162E-24
   1.980000        3.7310435E-24
   1.990000        4.9178539E-24
   2.000000        6.2907173E-24
   2.010000        7.8506988E-24
   2.020000        9.5935315E-24
   2.030000        1.1506336E-23
   2.040000        1.3561272E-23
   2.050000        1.5704143E-23
   2.060000        1.7835236E-23
   2.070000        1.9778603E-23
   2.080000        2.1234711E-23
   2.090000        2.1709817E-23
   2.100000        2.0413451E-23
   2.110000        1.6112995E-23
   2.120000        6.9316348E-24
   2.130000       -9.9273475E-24
   2.140000       -3.8550793E-23
   2.150000       -8.4805696E-23
   2.160000       -1.5697912E-22
   2.170000       -2.6660356E-22
   2.180000       -4.2951015E-22
   2.190000       -6.6715772E-22
   2.200000       -1.0082942E-21
   2.210000       -1.4910142E-21
   2.220000       -2.1652864E-21
   2.230000       -3.0960302E-21
   2.240000       -4.3668323E-21
   2.250000       -6.0844086E-21
   2.260000       -8.3839141E-21
   2.270000       -1.1435230E-20
   2.280000       -1.5450344E-20
   2.290000       -2.0691992E-20
   2.300000       -2.7483661E-20
   2.310000       -3.6221182E-20
   2.320000       -4.7386001E-20
   2.330000       -6.1560371E-20
   2.340000       -7.9444604E-20
   2.350000       -1.0187654E-19
   2.360000       -1.2985351E-19
   2.370000       -1.6455696E-19
   2.380000       -2.0737967E-19
   2.390000       -2.5995640E-19
   2.400000       -3.2419705E-19
   2.410000       -4.0232403E-19
   2.420000       -4.9691205E-19
   2.430000       -6.1093290E-19
   2.440000       -7.4780240E-19
   2.450000       -9.1143227E-19
   2.460000       -1.1062861E-18
   2.470000       -1.3374379E-18
   2.480000       -1.6106361E-18
   2.490000       -1.9323708E-18
   2.500000       -2.3099445E-18
   2.510000       -2.7515460E-18
   2.520000       -3.2663307E-18
   2.530000       -3.8644977E-18
   2.540000       -4.5573805E-18
   2.550000       -5.3575260E-18
   2.560000       -6.2787876E-18
   2.570000       -7.3364154E-18
   2.580000       -8.5471423E-18
   2.590000       -9.9292800E-18
   2.600000       -1.1502807E-17
   2.610000       -1.3289453E-17
   2.620000       -1.5312794E-17
   2.630000       -1.7598319E-17
   2.640000       -2.0173521E-17
   2.650000       -2.3067960E-17
   2.660000       -2.6313337E-17
   2.670000       -2.9943528E-17
   2.680000       -3.3994648E-17
   2.690000       -3.8505069E-17
   2.700000       -4.3515447E-17
   2.710000       -4.9068721E-17
   2.720000       -5.5210097E-17
   2.730000       -6.1986996E-17
   2.740000       -6.9449039E-17
   2.750000       -7.7647947E-17
   2.760000       -8.6637402E-17
   2.770000       -9.6472990E-17
   2.780000       -1.0721200E-16
   2.790000       -1.1891322E-16
   2.800000       -1.3163668E-16
   2.810000       -1.4544355E-16
   2.820000       -1.6039565E-16
   2.830000       -1.7655528E-16
   2.840000       -1.9398472E-16
   2.850000       -2.1274582E-16
   2.860000       -2.3289970E-16
   2.870000       -2.5450616E-16
   2.880000       -2.7762299E-16
   2.890000       -3.0230566E-16
   2.900000       -3.2860641E-16
   2.910000       -3.5657387E-16
   2.920000       -3.8625203E-16
   2.930000       -4.1767973E-16
   2.940000       -4.5088972E-16
   2.950000       -4.8590770E-16
   2.960000       -5.2275173E-16
   2.970000       -5.6143096E-16
   2.980000       -6.0194497E-16
   2.990000       -6.4428248E-16
   3.000000       -6.8842058E-16
   3.010000       -7.3432357E-16
   3.020000       -7.8194164E-16
   3.030000       -8.3121021E-16
   3.040000       -8.8204855E-16
   3.050000       -9.3435876E-16
   3.060000       -9.8802465E-16
   3.070000       -1.0429106E-15
   3.080000       -1.0988601E-15
   3.090000       -1.1556956E-15
   3.100000       -1.2132165E-15
   3.110000       -1.2711990E-15
   3.120000       -1.3293939E-15
   3.130000       -1.3875276E-15
   3.140000       -1.4452993E-15
   3.150000       -1.5023816E-15
   3.160000       -1.5584188E-15
   3.170000       -1.6130272E-15
   3.180000       -1.6657944E-15
   3.190000       -1.7162787E-15
   3.200000       -1.7640087E-15
   3.210000       -1.8084842E-15
   3.220000       -1.8491744E-15
   3.230000       -1.8855203E-15
   3.240000       -1.9169338E-15
   3.250000       -1.9427980E-15
   3.260000       -1.9624690E-15
   3.270000       -1.9752758E-15
   3.280000       -1.9805223E-15
   3.290000       -1.9774880E-15
   3.300000       -1.9654298E-15
   3.310000       -1.9435838E-15
   3.320000       -1.9111670E-15
   3.330000       -1.8673801E-15
   3.340000       -1.8114092E-15
   3.350000       -1.7424294E-15
   3.360000       -1.6596065E-15
   3.370000       -1.5621012E-15
   3.380000       -1.4490718E-15
   3.390000       -1.3196766E-15
   3.400000       -1.1730809E-15
   3.410000       -1.0084575E-15
   3.420000       -8.2499188E-16
   3.430000       -6.2188677E-16
   3.440000       -3.9836616E-16
   3.450000       -1.5367937E-16
   3.460000        1.1289436E-16
   3.470000        4.0204138E-16
   3.480000        7.1440876E-16
   3.490000        1.0506005E-15
   3.500000        1.4111731E-15
   3.510000        1.7966308E-15
   3.520000        2.2074221E-15
   3.530000        2.6439352E-15
   3.540000        3.1064952E-15
   3.550000        3.5953626E-15
   3.560000        4.1107254E-15
   3.570000        4.6527024E-15
   3.580000        5.2213381E-15
   3.590000        5.8166015E-15
   3.600000        6.4383902E-15
   3.610000        7.0865241E-15
   3.620000        7.7607505E-15
   3.630000        8.4607470E-15
   3.640000        9.1861240E-15
   3.650000        9.9364258E-15
   3.660000        1.0711143E-14
   3.670000        1.1509715E-14
   3.680000        1.2331536E-14
   3.690000        1.3175975E-14
   3.700000        1.4042380E-14
   3.710000        1.4930092E-14
   3.720000        1.5838466E-14
   3.730000        1.6766885E-14
   3.740000        1.7714781E-14
   3.750000        1.8681656E-14
   3.760000        1.9667111E-14
   3.770000        2.0670872E-14
   3.780000        2.1692824E-14
   3.790000        2.2733041E-14
   3.800000        2.3791809E-14
   3.810000        2.4869699E-14
   3.820000        2.5967581E-14
   3.830000        2.7086675E-14
   3.840000        2.8228620E-14
   3.850000        2.9395503E-14
   3.860000        3.0589934E-14
   3.870000        3.1815106E-14
   3.880000        3.3074844E-14
   3.890000        3.4373695E-14
   3.900000        3.5716987E-14
   3.910000        3.7110933E-14
   3.920000        3.8562686E-14
   3.930000        4.0080437E-14
   3.940000        4.1673499E-14
   3.950000        4.3352430E-14
   3.960000        4.5129119E-14
   3.970000        4.7016864E-14
   3.980000        4.9030543E-14
   3.990000        5.1186686E-14
   4.000000        5.3503602E-14
   4.010000        5.6001529E-14
   4.020000        5.8702744E-14
   4.030000        6.1631689E-14
   4.040000        6.4815158E-14
   4.050000        6.8282355E-14
   4.060000        7.2065157E-14
   4.070000        7.6198196E-14
   4.080000        8.0719021E-14
   4.090000        8.5668275E-14
   4.100000        9.1089876E-14
   4.110000        9.7031168E-14
   4.120000        1.0354309E-13
   4.130000        1.1068039E-13
   4.140000        1.1850171E-13
   4.150000        1.2706993E-13
   4.160000        1.3645225E-13
   4.170000        1.4672034E-13
   4.180000        1.5795062E-13
   4.190000        1.7022439E-13
   4.200000        1.8362810E-13
   4.210000        1.9825346E-13
   4.220000        2.1419760E-13
   4.230000        2.3156339E-13
   4.240000        2.5045954E-13
   4.250000        2.7100083E-13
   4.260000        2.9330829E-13
   4.270000        3.1750928E-13
   4.280000        3.4373787E-13
   4.290000        3.7213472E-13
   4.300000        4.0284770E-13
   4.310000        4.3603150E-13
   4.320000        4.7184815E-13
   4.330000        5.1046727E-13
   4.340000        5.5206572E-13
   4.350000        5.9682803E-13
   4.360000        6.4494688E-13
   4.370000        6.9662245E-13
   4.380000        7.5206285E-13
   4.390000        8.1148445E-13
   4.400000        8.7511156E-13
   4.410000        9.4317696E-13
   4.420000        1.0159210E-12
   4.430000        1.0935927E-12
   4.440000        1.1764492E-12
   4.450000        1.2647556E-12
   4.460000        1.3587845E-12
   4.470000        1.4588178E-12
   4.480000        1.5651440E-12
   4.490000        1.6780601E-12
   4.500000        1.7978704E-12
   4.510000        1.9248865E-12
   4.520000        2.0594268E-12
   4.530000        2.2018177E-12
   4.540000        2.3523904E-12
   4.550000        2.5114845E-12
   4.560000        2.6794435E-12
   4.570000        2.8566173E-12
   4.580000        3.0433603E-12
   4.590000        3.2400328E-12
   4.600000        3.4469970E-12
   4.610000        3.6646216E-12
   4.620000        3.8932742E-12
   4.630000        4.1333265E-12
   4.640000        4.3851520E-12
   4.650000        4.6491244E-12
   4.660000        4.9256168E-12
   4.670000        5.2150020E-12
   4.680000        5.5176506E-12
   4.690000        5.8339293E-12
   4.700000        6.1642011E-12
   4.710000        6.5088260E-12
   4.720000        6.8681554E-12
   4.730000        7.2425321E-12
   4.740000        7.6322924E-12
   4.750000        8.0377632E-12
   4.760000        8.4592576E-12
   4.770000        8.8970767E-12
   4.780000        9.3515083E-12
   4.790000        9.8228222E-12
   4.800000        1.0311273E-11
   4.810000        1.0817091E-11
   4.820000        1.1340491E-11
   4.830000        1.1881661E-11
   4.840000        1.2440765E-11
   4.850000        1.3017943E-11
   4.860000        1.3613304E-11
   4.870000        1.4226923E-11
   4.880000        1.4858847E-11
   4.890000        1.5509080E-11
   4.900000        1.6177601E-11
   4.910000        1.6864338E-11
   4.920000        1.7569182E-11
   4.930000        1.8291981E-11
   4.940000        1.9032524E-11
   4.950000        1.9790565E-11
   4.960000        2.0565799E-11
   4.970000        2.1357865E-11
   4.980000        2.2166350E-11
   4.990000        2.2990776E-11
   5.000000        2.3830601E-11
   5.010000        2.4685224E-11
   5.020000        2.5553967E-11
   5.030000        2.6436089E-11
   5.040000        2.7330766E-11
   5.050000        2.8237104E-11
   5.060000        2.9154120E-11
   5.070000        3.0080761E-11
   5.080000        3.1015881E-11
   5.090000        3.1958245E-11
   5.100000        3.2906535E-11
   5.110000        3.3859325E-11
   5.120000        3.4815092E-11
   5.130000        3.5772232E-11
   5.140000        3.6729023E-11
   5.150000        3.7683637E-11
   5.160000        3.8634144E-11
   5.170000        3.9578500E-11
   5.180000        4.0514550E-11
   5.190000        4.1440022E-11
   5.200000        4.2352517E-11
   5.210000        4.3249532E-11
   5.220000        4.4128427E-11
   5.230000        4.4986452E-11
   5.240000        4.5820708E-11
   5.250000        4.6628184E-11
   5.260000        4.7405729E-11
   5.270000        4.8150071E-11
   5.280000        4.8857782E-11
   5.290000        4.9525335E-11
   5.300000        5.0149027E-11
   5.310000        5.0725049E-11
   5.320000        5.1249418E-11
   5.330000        5.1718050E-11
   5.340000        5.2126695E-11
   5.350000        5.2470979E-11
   5.360000        5.2746377E-11
   5.370000        5.2948219E-11
   5.380000        5.3071714E-11
   5.390000        5.3111911E-11
   5.400000        5.3063755E-11
   5.410000        5.2922017E-11
   5.420000        5.2681342E-11
   5.430000        5.2336257E-11
   5.440000        5.1881159E-11
   5.450000        5.1310282E-11
   5.460000        5.0617791E-11
   5.470000        4.9797666E-11
   5.480000        4.8843821E-11
   5.490000        4.7750019E-11
   5.500000        4.6509935E-11
   5.510000        4.5117111E-11
   5.520000        4.3565020E-11
   5.530000        4.1847012E-11
   5.540000        3.9956361E-11
   5.550000        3.7886250E-11
   5.560000        3.5629798E-11
   5.570000        3.3180028E-11
   5.580000        3.0529919E-11
   5.590000        2.7672383E-11
   5.600000        2.4600297E-11
   5.610000        2.1306495E-11
   5.620000        1.7783776E-11
   5.630000        1.4024915E-11
   5.640000        1.0022700E-11
   5.650000        5.7698997E-12
   5.660000        1.2593018E-12
   5.670000       -3.5162823E-12
   5.680000       -8.5640037E-12
   5.690000       -1.3890967E-11
   5.700000       -1.9504212E-11
   5.710000       -2.5410708E-11
   5.720000       -3.1617334E-11
   5.730000       -3.8130863E-11
   5.740000       -4.4957954E-11
   5.750000       -5.2105122E-11
   5.760000       -5.9578738E-11
   5.770000       -6.7385007E-11
   5.780000       -7.5529957E-11
   5.790000       -8.4019423E-11
   5.800000       -9.2858991E-11
   5.810000       -1.0205402E-10
   5.820000       -1.1160962E-10
   5.830000       -1.2153065E-10
   5.840000       -1.3182164E-10
   5.850000       -1.4248680E-10
   5.860000       -1.5353008E-10
   5.870000       -1.6495498E-10
   5.880000       -1.7676464E-10
   5.890000       -1.8896189E-10
   5.900000       -2.0154901E-10
   5.910000       -2.1452798E-10
   5.920000       -2.2790018E-10
   5.930000       -2.4166660E-10
   5.940000       -2.5582766E-10
   5.950000       -2.7038338E-10
   5.960000       -2.8533298E-10
   5.970000       -3.0067532E-10
   5.980000       -3.1640857E-10
   5.990000       -3.3253034E-10
   6.000000       -3.4903741E-10
   6.010000       -3.6592615E-10
   6.020000       -3.8319203E-10
   6.030000       -4.0082984E-10
   6.040000       -4.1883369E-10
   6.050000       -4.3719683E-10
   6.060000       -4.5591186E-10
   6.070000       -4.7497040E-10
   6.080000       -4.9436327E-10
   6.090000       -5.1408039E-10
   6.100000       -5.3411103E-10
   6.110000       -5.5444316E-10
   6.120000       -5.7506433E-10
   6.130000       -5.9596050E-10
   6.140000       -6.1711719E-10
   6.150000       -6.3851863E-10
   6.160000       -6.6014821E-10
   6.170000       -6.8198808E-10
   6.180000       -7.0401940E-10
   6.190000       -7.2622242E-10
   6.200000       -7.4857609E-10
   6.210000       -7.7105838E-10
   6.220000       -7.9364604E-10
   6.230000       -8.1631474E-10
   6.240000       -8.3903878E-10
   6.250000       -8.6179153E-10
   6.260000       -8.8454483E-10
   6.270000       -9.0727009E-10
   6.280000       -9.2993657E-10
   6.290000       -9.5251296E-10
   6.300000       -9.7496622E-10
   6.310000       -9.9726227E-10
   6.320000       -1.0193660E-09
   6.330000       -1.0412410E-09
   6.340000       -1.0628490E-09
   6.350000       -1.0841512E-09
   6.360000       -1.1051074E-09
   6.370000       -1.1256759E-09
   6.380000       -1.1458137E-09
   6.390000       -1.1654768E-09
   6.400000       -1.1846197E-09
   6.410000       -1.2031960E-09
   6.420000       -1.2211577E-09
   6.430000       -1.2384557E-09
   6.440000       -1.2550397E-09
   6.450000       -1.2708582E-09
   6.460000       -1.2858584E-09
   6.470000       -1.2999866E-09
   6.480000       -1.3131876E-09
   6.490000       -1.3254057E-09
   6.500000       -1.3365832E-09
   6.510000       -1.3466621E-09
   6.520000       -1.3555830E-09
   6.530000       -1.3632855E-09
   6.540000       -1.3697082E-09
   6.550000       -1.3747891E-09
   6.560000       -1.3784648E-09
   6.570000       -1.3806711E-09
   6.580000       -1.3813435E-09
   6.590000       -1.3804164E-09
   6.600000       -1.3778232E-09
   6.610000       -1.3734972E-09
   6.620000       -1.3673700E-09
   6.630000       -1.3593742E-09
   6.640000       -1.3494408E-09
   6.650000       -1.3375002E-09
   6.660000       -1.3234833E-09
   6.670000       -1.3073203E-09
   6.680000       -1.2889405E-09
   6.690000       -1.2682740E-09
   6.700000       -1.2452505E-09
   6.710000       -1.2197994E-09
   6.720000       -1.1918500E-09
   6.730000       -1.1613323E-09
   6.740000       -1.1281761E-09
   6.750000       -1.0923118E-09
   6.760000       -1.0536698E-09
   6.770000       -1.0121812E-09
   6.780000       -9.6777786E-10
   6.790000       -9.2039215E-10
   6.800000       -8.6995711E-10
   6.810000       -8.1640644E-10
   6.820000       -7.5967549E-10
   6.830000       -6.9970024E-10
   6.840000       -6.3641792E-10
   6.850000       -5.6976696E-10
   6.860000       -4.9968729E-10
   6.870000       -4.2612042E-10
   6.880000       -3.4900949E-10
   6.890000       -2.6829938E-10
   6.900000       -1.8393670E-10
   6.910000       -9.5870277E-11
   6.920000       -4.0510121E-12
   6.930000        9.1567927E-11
   6.940000        1.9103107E-10
   6.950000        2.9438038E-10
   6.960000        4.0165518E-10
   6.970000        5.1289201E-10
   6.980000        6.2812455E-10
   6.990000        7.4738343E-10
   7.000000        8.7069607E-10
   7.010000        9.9808672E-10
   7.020000        1.1295759E-09
   7.030000        1.2651807E-09
   7.040000        1.4049149E-09
   7.050000        1.5487878E-09
   7.060000        1.6968046E-09
   7.070000        1.8489672E-09
   7.080000        2.0052726E-09
   7.090000        2.1657134E-09
   7.100000        2.3302780E-09
   7.110000        2.4989497E-09
   7.120000        2.6717077E-09
   7.130000        2.8485254E-09
   7.140000        3.0293710E-09
   7.150000        3.2142085E-09
   7.160000        3.4029959E-09
   7.170000        3.5956860E-09
   7.180000        3.7922252E-09
   7.190000        3.9925552E-09
   7.200000        4.1966106E-09
   7.210000        4.4043227E-09
   7.220000        4.6156132E-09
   7.230000        4.8303996E-09
   7.240000        5.0485918E-09
   7.250000        5.2700950E-09
   7.260000        5.4948082E-09
   7.270000        5.7226206E-09
   7.280000        5.9534164E-09
   7.290000        6.1870749E-09
   7.300000        6.4234644E-09
   7.310000        6.6624484E-09
   7.320000        6.9038855E-09
   7.330000        7.1476229E-09
   7.340000        7.3935027E-09
   7.350000        7.6413604E-09
   7.360000        7.8910212E-09
   7.370000        8.1423046E-09
   7.380000        8.3950233E-09
   7.390000        8.6489838E-09
   7.400000        8.9039807E-09
   7.410000        9.1598009E-09
   7.420000        9.4162296E-09
   7.430000        9.6730401E-09
   7.440000        9.9299955E-09
   7.450000        1.0186855E-08
   7.460000        1.0443370E-08
   7.470000        1.0699281E-08
   7.480000        1.0954325E-08
   7.490000        1.1208228E-08
   7.500000        1.1460710E-08
   7.510000        1.1711482E-08
   7.520000        1.1960248E-08
   7.530000        1.2206703E-08
   7.540000        1.2450541E-08
   7.550000        1.2691440E-08
   7.560000        1.2929073E-08
   7.570000        1.3163105E-08
   7.580000        1.3393203E-08
   7.590000        1.3619013E-08
   7.600000        1.3840182E-08
   7.610000        1.4056350E-08
   7.620000        1.4267150E-08
   7.630000        1.4472205E-08
   7.640000        1.4671135E-08
   7.650000        1.4863551E-08
   7.660000        1.5049062E-08
   7.670000        1.5227267E-08
   7.680000        1.5397763E-08
   7.690000        1.5560138E-08
   7.700000        1.5713976E-08
   7.710000        1.5858856E-08
   7.720000        1.5994351E-08
   7.730000        1.6120033E-08
   7.740000        1.6235466E-08
   7.750000        1.6340213E-08
   7.760000        1.6433830E-08
   7.770000        1.6515873E-08
   7.780000        1.6585888E-08
   7.790000        1.6643426E-08
   7.800000        1.6688031E-08
   7.810000        1.6719246E-08
   7.820000        1.6736614E-08
   7.830000        1.6739673E-08
   7.840000        1.6727959E-08
   7.850000        1.6701014E-08
   7.860000        1.6658371E-08
   7.870000        1.6599568E-08
   7.880000        1.6524144E-08
   7.890000        1.6431636E-08
   7.900000        1.6321582E-08
   7.910000        1.6193523E-08
   7.920000        1.6047004E-08
   7.930000        1.5881566E-08
   7.940000        1.5696763E-08
   7.950000        1.5492144E-08
   7.960000        1.5267265E-08
   7.970000        1.5021683E-08
   7.980000        1.4754968E-08
   7.990000        1.4466691E-08
   8.000000        1.4156421E-08
   8.010000        1.3823746E-08
   8.020000        1.3468254E-08
   8.030000        1.3089541E-08
   8.040000        1.2687215E-08
   8.050000        1.2260888E-08
   8.060000        1.1810181E-08
   8.070000        1.1334731E-08
   8.080000        1.0834177E-08
   8.090000        1.0308172E-08
   8.100000        9.7563841E-09
   8.110000        9.1784846E-09
   8.120000        8.5741680E-09
   8.130000        7.9431324E-09
   8.140000        7.2850970E-09
   8.150000        6.5997909E-09
   8.160000        5.8869594E-09
   8.170000        5.1463616E-09
   8.180000        4.3777764E-09
   8.190000        3.5809957E-09
   8.200000        2.7558296E-09
   8.210000        1.9021065E-09
   8.220000        1.0196741E-09
   8.230000        1.0839884E-10
   8.240000       -8.3183549E-10
   8.250000       -1.8011221E-09
   8.260000       -2.7995353E-09
   8.270000       -3.8271266E-09
   8.280000       -4.8839266E-09
   8.290000       -5.9699428E-09
   8.300000       -7.0851591E-09
   8.310000       -8.2295379E-09
   8.320000       -9.4030144E-09
   8.330000       -1.0605500E-08
   8.340000       -1.1836881E-08
   8.350000       -1.3097018E-08
   8.360000       -1.4385747E-08
   8.370000       -1.5702874E-08
   8.380000       -1.7048176E-08
   8.390000       -1.8421410E-08
   8.400000       -1.9822295E-08
   8.410000       -2.1250530E-08
   8.420000       -2.2705775E-08
   8.430000       -2.4187662E-08
   8.440000       -2.5695808E-08
   8.450000       -2.7229772E-08
   8.460000       -2.8789104E-08
   8.470000       -3.0373322E-08
   8.480000       -3.1981891E-08
   8.490000       -3.3614267E-08
   8.500000       -3.5269860E-08
   8.510000       -3.6948059E-08
   8.520000       -3.8648206E-08
   8.530000       -4.0369613E-08
   8.540000       -4.2111559E-08
   8.550000       -4.3873300E-08
   8.560000       -4.5654033E-08
   8.570000       -4.7452946E-08
   8.580000       -4.9269175E-08
   8.590000       -5.1101836E-08
   8.600000       -5.2949989E-08
   8.610000       -5.4812684E-08
   8.620000       -5.6688915E-08
   8.630000       -5.8577641E-08
   8.640000       -6.0477788E-08
   8.650000       -6.2388274E-08
   8.660000       -6.4307933E-08
   8.670000       -6.6235600E-08
   8.680000       -6.8170060E-08
   8.690000       -7.0110069E-08
   8.700000       -7.2054348E-08
   8.710000       -7.4001548E-08
   8.720000       -7.5950346E-08
   8.730000       -7.7899337E-08
   8.740000       -7.9847105E-08
   8.750000       -8.1792187E-08
   8.760000       -8.3733092E-08
   8.770000       -8.5668283E-08
   8.780000       -8.7596213E-08
   8.790000       -8.9515282E-08
   8.800000       -9.1423871E-08
   8.810000       -9.3320310E-08
   8.820000       -9.5202935E-08
   8.830000       -9.7069979E-08
   8.840000       -9.8919720E-08
   8.850000       -1.0075035E-07
   8.860000       -1.0256008E-07
   8.870000       -1.0434704E-07
   8.880000       -1.0610938E-07
   8.890000       -1.0784518E-07
   8.900000       -1.0955252E-07
   8.910000       -1.1122945E-07
   8.920000       -1.1287398E-07
   8.930000       -1.1448412E-07
   8.940000       -1.1605781E-07
   8.950000       -1.1759305E-07
   8.960000       -1.1908767E-07
   8.970000       -1.2053968E-07
   8.980000       -1.2194688E-07