 -0.1000000        2.7104047E-38
 -9.0000004E-02    8.1312003E-38
 -7.9999998E-02    1.3552038E-37
 -7.0000000E-02    1.8972989E-37
 -5.9999999E-02    2.4393884E-37
 -5.0000001E-02    2.9814719E-37
 -3.9999999E-02    3.5235332E-37
 -2.9999999E-02    4.0656283E-37
 -2.0000000E-02    4.6076895E-37
 -9.9999998E-03    5.1497732E-37
  0.0000000E+00    5.6918681E-37
  9.9999998E-03    6.2339410E-37
  2.0000000E-02    6.7760471E-37
  2.9999999E-02    7.3181537E-37
  3.9999999E-02    7.8602826E-37
  5.0000001E-02    8.4023892E-37
  5.9999999E-02    8.9444724E-37
  7.0000000E-02    9.4866014E-37
  7.9999998E-02    1.0028731E-36
  9.0000004E-02    1.0570770E-36
  0.1000000        1.1112853E-36
  0.1100000        1.1654892E-36
  0.1200000        1.2196930E-36
  0.1300000        1.2739015E-36
  0.1400000        1.3286252E-36
  0.1500000        1.4158243E-36
  0.1600000        1.5633173E-36
  0.1700000        1.8153071E-36
  0.1800000        2.2999996E-36
  0.1900000        3.4096482E-36
  0.2000000        5.6852565E-36
  0.2100000        1.0007377E-35
  0.2200000        1.6961878E-35
  0.2300000        2.4816528E-35
  0.2400000        2.4774703E-35
  0.2500000       -1.0863562E-35
  0.2600000       -1.5313412E-34
  0.2700000       -5.6238951E-34
  0.2800000       -1.5696549E-33
  0.2900000       -3.8074049E-33
  0.3000000       -8.4014954E-33
  0.3100000       -1.7233538E-32
  0.3200000       -3.3252058E-32
  0.3300000       -6.0777254E-32
  0.3400000       -1.0568367E-31
  0.3500000       -1.7523494E-31
  0.3600000       -2.7726148E-31
  0.3700000       -4.1826826E-31
  0.3800000       -5.9997946E-31
  0.3900000       -8.1381580E-31
  0.4000000       -1.0328890E-30
  0.4100000       -1.2014369E-30
  0.4200000       -1.2220436E-30
  0.4300000       -9.4161433E-31
  0.4400000       -1.3791116E-31
  0.4500000        1.4907979E-30
  0.4600000        4.3297937E-30
  0.4700000        8.8423017E-30
  0.4800000        1.5551281E-29
  0.4900000        2.5006858E-29
  0.5000000        3.7739861E-29
  0.5100000        5.4204913E-29
  0.5200000        7.4719829E-29
  0.5300000        9.9411671E-29
  0.5400000        1.2818210E-28
  0.5500000        1.6070567E-28
  0.5600000        1.9647291E-28
  0.5700000        2.3488502E-28
  0.5800000        2.7539895E-28
  0.5900000        3.1771019E-28
  0.6000000        3.6194854E-28
  0.6100000        4.0884907E-28
  0.6200000        4.5985150E-28
  0.6300000        5.1707651E-28
  0.6400000        5.8313528E-28
  0.6500000        6.6073755E-28
  0.6600000        7.5209418E-28
  0.6700000        8.5814084E-28
  0.6800000        9.7764788E-28
  0.6900000        1.1063244E-27
  0.7000000        1.2360528E-27
  0.7100000        1.3544099E-27
  0.7200000        1.4446348E-27
  0.7300000        1.4861597E-27
  0.7400000        1.4557936E-27
  0.7500000        1.3295382E-27
  0.7600000        1.0849449E-27
  0.7700000        7.0379735E-28
  0.7800000        1.7481522E-28
  0.7900000       -5.0401678E-28
  0.8000000       -1.3239378E-27
  0.8100000       -2.2651573E-27
  0.8200000       -3.2982367E-27
  0.8300000       -4.3873805E-27
  0.8400000       -5.4957154E-27
  0.8500000       -6.5924197E-27
  0.8600000       -7.6612754E-27
  0.8700000       -8.7099743E-27
  0.8800000       -9.7792475E-27
  0.8900000       -1.0950743E-26
  0.9000000       -1.2352344E-26
  0.9100000       -1.4159898E-26
  0.9200000       -1.6594222E-26
  0.9300000       -1.9912851E-26
  0.9400000       -2.4396191E-26
  0.9500000       -3.0328614E-26
  0.9600000       -3.7975413E-26
  0.9700000       -4.7557333E-26
  0.9800000       -5.9224959E-26
  0.9900000       -7.3035565E-26
   1.000000       -8.8935420E-26
   1.010000       -1.0675031E-25
   1.020000       -1.2618658E-25
   1.030000       -1.4684484E-25
   1.040000       -1.6824669E-25
   1.050000       -1.8987426E-25
   1.060000       -2.1122101E-25
   1.070000       -2.3185071E-25
   1.080000       -2.5145984E-25
   1.090000       -2.6993925E-25
   1.100000       -2.8742847E-25
   1.110000       -3.0435674E-25
   1.120000       -3.2146646E-25
   1.130000       -3.3981330E-25
   1.140000       -3.6074022E-25
   1.150000       -3.8582494E-25
   1.160000       -4.1680132E-25
   1.170000       -4.5545678E-25
   1.180000       -5.0351325E-25
   1.190000       -5.6249589E-25
   1.200000       -6.3360051E-25
   1.210000       -7.1756661E-25
   1.220000       -8.1456747E-25
   1.230000       -9.2412560E-25
   1.240000       -1.0450620E-24
   1.250000       -1.1754862E-24
   1.260000       -1.3128319E-24
   1.270000       -1.4539433E-24
   1.280000       -1.5952092E-24
   1.290000       -1.7327452E-24
   1.300000       -1.8626213E-24
   1.310000       -1.9811248E-24
   1.320000       -2.0850552E-24
   1.330000       -2.1720301E-24
   1.340000       -2.2407994E-24
   1.350000       -2.2915453E-24
   1.360000       -2.3261530E-24
   1.370000       -2.3484375E-24
   1.380000       -2.3643001E-24
   1.390000       -2.3818085E-24
   1.400000       -2.4111863E-24
   1.410000       -2.4647024E-24
   1.420000       -2.5564625E-24
   1.430000       -2.7021476E-24
   1.440000       -2.9187130E-24
   1.450000       -3.2241386E-24
   1.460000       -3.6373501E-24
   1.470000       -4.1784479E-24
   1.480000       -4.8694802E-24
   1.490000       -5.7360522E-24
   1.500000       -6.8101573E-24
   1.510000       -8.1346745E-24
   1.520000       -9.7701480E-24
   1.530000       -1.1804604E-23
   1.540000       -1.4367221E-23
   1.550000       -1.7646900E-23
   1.560000       -2.1917017E-23
   1.570000       -2.7567647E-23
   1.580000       -3.5147054E-23
   1.590000       -4.5414082E-23
   1.600000       -5.9403713E-23
   1.610000       -7.8507917E-23
   1.620000       -1.0457451E-22
   1.630000       -1.4002671E-22
   1.640000       -1.8800591E-22
   1.650000       -2.5254199E-22
   1.660000       -3.3875341E-22
   1.670000       -4.5308061E-22
   1.680000       -6.0355700E-22
   1.690000       -8.0011963E-22
   1.700000       -1.0549659E-21
   1.710000       -1.3829560E-21
   1.720000       -1.8020687E-21
   1.730000       -2.3339067E-21
   1.740000       -3.0042588E-21
   1.750000       -3.8437278E-21
   1.760000       -4.8883967E-21
   1.770000       -6.1805796E-21
   1.780000       -7.7696380E-21
   1.790000       -9.7128081E-21
   1.800000       -1.2076124E-20
   1.810000       -1.4935404E-20
   1.820000       -1.8377266E-20
   1.830000       -2.2500091E-20
   1.840000       -2.7415215E-20
   1.850000       -3.3248027E-20
   1.860000       -4.0139033E-20
   1.870000       -4.8244883E-20
   1.880000       -5.7739818E-20
   1.890000       -6.8816057E-20
   1.900000       -8.1685533E-20
   1.910000       -9.6580206E-20
   1.920000       -1.1375335E-19
   1.930000       -1.3347990E-19
   1.940000       -1.5605712E-19
   1.950000       -1.8180488E-19
   1.960000       -2.1106543E-19
   1.970000       -2.4420458E-19
   1.980000       -2.8160891E-19
   1.990000       -3.2368730E-19
   2.000000       -3.7086780E-19
   2.010000       -4.2359829E-19
   2.020000       -4.8234204E-19
   2.030000       -5.4757826E-19
   2.040000       -6.1979521E-19
   2.050000       -6.9949024E-19
   2.060000       -7.8716456E-19
   2.070000       -8.8331598E-19
   2.080000       -9.8843761E-19
   2.090000       -1.1030091E-18
   2.100000       -1.2274867E-18
   2.110000       -1.3623040E-18
   2.120000       -1.5078578E-18
   2.130000       -1.6644994E-18
   2.140000       -1.8325233E-18
   2.150000       -2.0121621E-18
   2.160000       -2.2035552E-18
   2.170000       -2.4067647E-18
   2.180000       -2.6217612E-18
   2.190000       -2.8483791E-18
   2.200000       -3.0863196E-18
   2.210000       -3.3351364E-18
   2.220000       -3.5942453E-18
   2.230000       -3.8628627E-18
   2.240000       -4.1400084E-18
   2.250000       -4.4244675E-18
   2.260000       -4.7148174E-18
   2.270000       -5.0093793E-18
   2.280000       -5.3062185E-18
   2.290000       -5.6030634E-18
   2.300000       -5.8974032E-18
   2.310000       -6.1863643E-18
   2.320000       -6.4667558E-18
   2.330000       -6.7349649E-18
   2.340000       -6.9871103E-18
   2.350000       -7.2188631E-18
   2.360000       -7.4254614E-18
   2.370000       -7.6018221E-18
   2.380000       -7.7424395E-18
   2.390000       -7.8412528E-18
   2.400000       -7.8918142E-18
   2.410000       -7.8873210E-18
   2.420000       -7.8204128E-18
   2.430000       -7.6833556E-18
   2.440000       -7.4679330E-18
   2.450000       -7.1657217E-18
   2.460000       -6.7675070E-18
   2.470000       -6.2638223E-18
   2.480000       -5.6449820E-18
   2.490000       -4.9008863E-18
   2.500000       -4.0209725E-18
   2.510000       -2.9942745E-18
   2.520000       -1.8099088E-18
   2.530000       -4.5665762E-19
   2.540000        1.0770090E-18
   2.550000        2.8026209E-18
   2.560000        4.7317713E-18
   2.570000        6.8760733E-18
   2.580000        9.2473068E-18
   2.590000        1.1856502E-17
   2.600000        1.4715000E-17
   2.610000        1.7833584E-17
   2.620000        2.1222758E-17
   2.630000        2.4892368E-17
   2.640000        2.8851537E-17
   2.650000        3.3109409E-17
   2.660000        3.7673944E-17
   2.670000        4.2551352E-17
   2.680000        4.7747727E-17
   2.690000        5.3268274E-17
   2.700000        5.9115548E-17
   2.710000        6.5292536E-17
   2.720000        7.1799204E-17
   2.730000        7.8634522E-17
   2.740000        8.5795716E-17
   2.750000        9.3277419E-17
   2.760000        1.0107317E-16
   2.770000        1.0917383E-16
   2.780000        1.1756846E-16
   2.790000        1.2624293E-16
   2.800000        1.3518184E-16
   2.810000        1.4436561E-16
   2.820000        1.5377333E-16
   2.830000        1.6338035E-16
   2.840000        1.7316052E-16
   2.850000        1.8308322E-16
   2.860000        1.9311560E-16
   2.870000        2.0322229E-16
   2.880000        2.1336384E-16
   2.890000        2.2349870E-16
   2.900000        2.3358170E-16
   2.910000        2.4356520E-16
   2.920000        2.5339809E-16
   2.930000        2.6302718E-16
   2.940000        2.7239555E-16
   2.950000        2.8144448E-16
   2.960000        2.9011241E-16
   2.970000        2.9833557E-16
   2.980000        3.0604777E-16
   2.990000        3.1318090E-16
   3.000000        3.1966560E-16
   3.010000        3.2543091E-16
   3.020000        3.3040471E-16
   3.030000        3.3451457E-16
   3.040000        3.3768758E-16
   3.050000        3.3985061E-16
   3.060000        3.4093156E-16
   3.070000        3.4085927E-16
   3.080000        3.3956421E-16
   3.090000        3.3697731E-16
   3.100000        3.3303472E-16
   3.110000        3.2767536E-16
   3.120000        3.2084012E-16
   3.130000        3.1247601E-16
   3.140000        3.0253513E-16
   3.150000        2.9097586E-16
   3.160000        2.7776262E-16
   3.170000        2.6286601E-16
   3.180000        2.4626853E-16
   3.190000        2.2795970E-16
   3.200000        2.0793731E-16
   3.210000        1.8621123E-16
   3.220000        1.6280647E-16
   3.230000        1.3775240E-16
   3.240000        1.1109737E-16
   3.250000        8.2907115E-17
   3.260000        5.3254679E-17
   3.270000        2.2231817E-17
   3.280000       -1.0052723E-17
   3.290000       -4.3474843E-17
   3.300000       -7.7887757E-17
   3.310000       -1.1313333E-16
   3.320000       -1.4903144E-16
   3.330000       -1.8537456E-16
   3.340000       -2.2194988E-16
   3.350000       -2.5850985E-16
   3.360000       -2.9479224E-16
   3.370000       -3.3051022E-16
   3.380000       -3.6535948E-16
   3.390000       -3.9901845E-16
   3.400000       -4.3113884E-16
   3.410000       -4.6135508E-16
   3.420000       -4.8926947E-16
   3.430000       -5.1447765E-16
   3.440000       -5.3654201E-16
   3.450000       -5.5501813E-16
   3.460000       -5.6944035E-16
   3.470000       -5.7933628E-16
   3.480000       -5.8420154E-16
   3.490000       -5.8352094E-16
   3.500000       -5.7679026E-16
   3.510000       -5.6348359E-16
   3.520000       -5.4304585E-16
   3.530000       -5.1495400E-16
   3.540000       -4.7866229E-16
   3.550000       -4.3363820E-16
   3.560000       -3.7934937E-16
   3.570000       -3.1529269E-16
   3.580000       -2.4094511E-16
   3.590000       -1.5583155E-16
   3.600000       -5.9509021E-17
   3.610000        4.8433483E-17
   3.620000        1.6841764E-16
   3.630000        3.0076104E-16
   3.640000        4.4578661E-16
   3.650000        6.0369981E-16
   3.660000        7.7465287E-16
   3.670000        9.5876305E-16
   3.680000        1.1560678E-15
   3.690000        1.3664498E-15
   3.700000        1.5897861E-15
   3.710000        1.8257086E-15
   3.720000        2.0738272E-15
   3.730000        2.3336143E-15
   3.740000        2.6043699E-15
   3.750000        2.8852778E-15
   3.760000        3.1752275E-15
   3.770000        3.4730769E-15
   3.780000        3.7773633E-15
   3.790000        4.0865604E-15
   3.800000        4.3987679E-15
   3.810000        4.7118723E-15
   3.820000        5.0235995E-15
   3.830000        5.3312914E-15
   3.840000        5.6319911E-15
   3.850000        5.9224421E-15
   3.860000        6.1991868E-15
   3.870000        6.4582959E-15
   3.880000        6.6957345E-15
   3.890000        6.9064847E-15
   3.900000        7.0858283E-15
   3.910000        7.2279795E-15
   3.920000        7.3271950E-15
   3.930000        7.3770912E-15
   3.940000        7.3707714E-15
   3.950000        7.3007625E-15
   3.960000        7.1593164E-15
   3.970000        6.9377843E-15
   3.980000        6.6272633E-15
   3.990000        6.2182311E-15
   4.000000        5.7003124E-15
   4.010000        5.0624466E-15
   4.020000        4.2935744E-15
   4.030000        3.3813125E-15
   4.040000        2.3126801E-15
   4.050000        1.0741836E-15
   4.060000       -3.4890896E-16
   4.070000       -1.9715001E-15
   4.080000       -3.8096878E-15
   4.090000       -5.8799126E-15
   4.100000       -8.2002784E-15
   4.110000       -1.0788636E-14
   4.120000       -1.3663942E-14
   4.130000       -1.6846953E-14
   4.140000       -2.0358588E-14
   4.150000       -2.4220116E-14
   4.160000       -2.8456045E-14
   4.170000       -3.3087892E-14
   4.180000       -3.8142483E-14
   4.190000       -4.3644237E-14
   4.200000       -4.9619800E-14
   4.210000       -5.6097013E-14
   4.220000       -6.3104402E-14
   4.230000       -7.0671164E-14
   4.240000       -7.8826695E-14
   4.250000       -8.7604796E-14
   4.260000       -9.7036576E-14
   4.270000       -1.0715463E-13
   4.280000       -1.1799348E-13
   4.290000       -1.2958832E-13
   4.300000       -1.4197568E-13
   4.310000       -1.5519210E-13
   4.320000       -1.6927452E-13
   4.330000       -1.8426218E-13
   4.340000       -2.0019612E-13
   4.350000       -2.1711523E-13
   4.360000       -2.3506018E-13
   4.370000       -2.5407267E-13
   4.380000       -2.7419709E-13
   4.390000       -2.9547171E-13
   4.400000       -3.1794193E-13
   4.410000       -3.4165116E-13
   4.420000       -3.6664828E-13
   4.430000       -3.9297184E-13
   4.440000       -4.2066865E-13
   4.450000       -4.4978658E-13
   4.460000       -4.8036927E-13
   4.470000       -5.1246258E-13
   4.480000       -5.4611019E-13
   4.490000       -5.8136064E-13
   4.500000       -6.1825420E-13
   4.510000       -6.5683667E-13
   4.520000       -6.9715045E-13
   4.530000       -7.3924260E-13
   4.540000       -7.8315344E-13
   4.550000       -8.2892601E-13
   4.560000       -8.7660006E-13
   4.570000       -9.2621104E-13
   4.580000       -9.7780117E-13
   4.590000       -1.0314082E-12
   4.600000       -1.0870669E-12
   4.610000       -1.1448100E-12
   4.620000       -1.2046693E-12
   4.630000       -1.2666723E-12
   4.640000       -1.3308466E-12
   4.650000       -1.3972127E-12
   4.660000       -1.4657979E-12
   4.670000       -1.5366198E-12
   4.680000       -1.6096896E-12
   4.690000       -1.6850221E-12
   4.700000       -1.7626243E-12
   4.710000       -1.8424949E-12
   4.720000       -1.9246404E-12
   4.730000       -2.0090529E-12
   4.740000       -2.0957214E-12
   4.750000       -2.1846294E-12
   4.760000       -2.2757742E-12
   4.770000       -2.3691149E-12
   4.780000       -2.4646214E-12
   4.790000       -2.5622666E-12
   4.800000       -2.6619967E-12
   4.810000       -2.7637682E-12
   4.820000       -2.8675196E-12
   4.830000       -2.9731981E-12
   4.840000       -3.0807182E-12
   4.850000       -3.1899980E-12
   4.860000       -3.3009494E-12
   4.870000       -3.4134913E-12
   4.880000       -3.5275032E-12
   4.890000       -3.6428803E-12
   4.900000       -3.7594966E-12
   4.910000       -3.8772241E-12
   4.920000       -3.9959026E-12
   4.930000       -4.1153968E-12
   4.940000       -4.2355412E-12
   4.950000       -4.3561517E-12
   4.960000       -4.4770398E-12
   4.970000       -4.5980043E-12
   4.980000       -4.7188403E-12
   4.990000       -4.8393186E-12
   5.000000       -4.9592140E-12
   5.010000       -5.0782742E-12
   5.020000       -5.1962349E-12
   5.030000       -5.3128322E-12
   5.040000       -5.4277572E-12
   5.050000       -5.5407142E-12
   5.060000       -5.6513648E-12
   5.070000       -5.7594168E-12
   5.080000       -5.8645029E-12
   5.090000       -5.9662553E-12
   5.100000       -6.0642858E-12
   5.110000       -6.1582332E-12
   5.120000       -6.2476686E-12
   5.130000       -6.3321826E-12
   5.140000       -6.4113107E-12
   5.150000       -6.4846158E-12
   5.160000       -6.5516052E-12
   5.170000       -6.6118053E-12
   5.180000       -6.6647044E-12
   5.190000       -6.7097760E-12
   5.200000       -6.7464866E-12
   5.210000       -6.7742769E-12
   5.220000       -6.7925813E-12
   5.230000       -6.8007947E-12
   5.240000       -6.7983163E-12
   5.250000       -6.7845330E-12
   5.260000       -6.7588019E-12
   5.270000       -6.7204636E-12
   5.280000       -6.6688517E-12
   5.290000       -6.6032783E-12
   5.300000       -6.5230369E-12
   5.310000       -6.4274133E-12
   5.320000       -6.3156758E-12
   5.330000       -6.1870843E-12
   5.340000       -6.0408623E-12
   5.350000       -5.8762491E-12
   5.360000       -5.6924478E-12
   5.370000       -5.4886503E-12
   5.380000       -5.2640548E-12
   5.390000       -5.0178394E-12
   5.400000       -4.7491750E-12
   5.410000       -4.4571855E-12
   5.420000       -4.1410269E-12
   5.430000       -3.7998159E-12
   5.440000       -3.4327033E-12
   5.450000       -3.0388303E-12
   5.460000       -2.6172953E-12
   5.470000       -2.1671775E-12
   5.480000       -1.6876374E-12
   5.490000       -1.1777465E-12
   5.500000       -6.3656979E-13
   5.510000       -6.3287496E-14
   5.520000        5.4307882E-13
   5.530000        1.1834035E-12
   5.540000        1.8585723E-12
   5.550000        2.5694759E-12
   5.560000        3.3169559E-12
   5.570000        4.1019089E-12
   5.580000        4.9252421E-12
   5.590000        5.7877756E-12
   5.600000        6.6903722E-12
   5.610000        7.6338753E-12
   5.620000        8.6191028E-12
   5.630000        9.6467877E-12
   5.640000        1.0717762E-11
   5.650000        1.1832734E-11
   5.660000        1.2992373E-11
   5.670000        1.4197487E-11
   5.680000        1.5448687E-11
   5.690000        1.6746575E-11
   5.700000        1.8091906E-11
   5.710000        1.9485183E-11
   5.720000        2.0926818E-11
   5.730000        2.2417384E-11
   5.740000        2.3957513E-11
   5.750000        2.5547531E-11
   5.760000        2.7187402E-11
   5.770000        2.8877836E-11
   5.780000        3.0619104E-11
   5.790000        3.2411070E-11
   5.800000        3.4254110E-11
   5.810000        3.6148438E-11
   5.820000        3.8093775E-11
   5.830000        4.0090244E-11
   5.840000        4.2137571E-11
   5.850000        4.4235639E-11
   5.860000        4.6384192E-11
   5.870000        4.8582981E-11
   5.880000        5.0831225E-11
   5.890000        5.3128578E-11
   5.900000        5.5474413E-11
   5.910000        5.7868269E-11
   5.920000        6.0308904E-11
   5.930000        6.2795366E-11
   5.940000        6.5327174E-11
   5.950000        6.7903225E-11
   5.960000        7.0521700E-11
   5.970000        7.3181530E-11
   5.980000        7.5881683E-11
   5.990000        7.8620090E-11
   6.000000        8.1395057E-11
   6.010000        8.4204872E-11
   6.020000        8.7047917E-11
   6.030000        8.9921959E-11
   6.040000        9.2824692E-11
   6.050000        9.5753537E-11
   6.060000        9.8706675E-11
   6.070000        1.0168090E-10
   6.080000        1.0467331E-10
   6.090000        1.0768173E-10
   6.100000        1.1070266E-10
   6.110000        1.1373306E-10
   6.120000        1.1676933E-10
   6.130000        1.1980809E-10
   6.140000        1.2284537E-10
   6.150000        1.2587784E-10
   6.160000        1.2890160E-10
   6.170000        1.3191198E-10
   6.180000        1.3490484E-10
   6.190000        1.3787609E-10
   6.200000        1.4082049E-10
   6.210000        1.4373305E-10
   6.220000        1.4660934E-10
   6.230000        1.4944398E-10
   6.240000        1.5223088E-10
   6.250000        1.5496548E-10
   6.260000        1.5764168E-10
   6.270000        1.6025350E-10
   6.280000        1.6279501E-10
   6.290000        1.6525993E-10
   6.300000        1.6764209E-10
   6.310000        1.6993472E-10
   6.320000        1.7213063E-10
   6.330000        1.7422318E-10
   6.340000        1.7620490E-10
   6.350000        1.7806841E-10
   6.360000        1.7980685E-10
   6.370000        1.8141202E-10
   6.380000        1.8287648E-10
   6.390000        1.8419219E-10
   6.400000        1.8535085E-10
   6.410000        1.8634468E-10
   6.420000        1.8716449E-10
   6.430000        1.8780175E-10
   6.440000        1.8824806E-10
   6.450000        1.8849410E-10
   6.460000        1.8853069E-10
   6.470000        1.8834945E-10
   6.480000        1.8794054E-10
   6.490000        1.8729443E-10
   6.500000        1.8640152E-10
   6.510000        1.8525229E-10
   6.520000        1.8383706E-10
   6.530000        1.8214556E-10
   6.540000        1.8016834E-10
   6.550000        1.7789482E-10
   6.560000        1.7531512E-10
   6.570000        1.7241911E-10
   6.580000        1.6919631E-10
   6.590000        1.6563646E-10
   6.600000        1.6172923E-10
   6.610000        1.5746411E-10
   6.620000        1.5283075E-10
   6.630000        1.4781881E-10
   6.640000        1.4241770E-10
   6.650000        1.3661713E-10
   6.660000        1.3040660E-10
   6.670000        1.2377585E-10
   6.680000        1.1671446E-10
   6.690000        1.0921240E-10
   6.700000        1.0125939E-10
   6.710000        9.2845336E-11
   6.720000        8.3960228E-11
   6.730000        7.4594227E-11
   6.740000        6.4738097E-11
   6.750000        5.4381312E-11
   6.760000        4.3515740E-11
   6.770000        3.2130878E-11
   6.780000        2.0217895E-11
   6.790000        7.7686598E-12
   6.800000       -5.2259221E-12
   6.810000       -1.8774420E-11
   6.820000       -3.2884358E-11
   6.830000       -4.7562555E-11
   6.840000       -6.2817231E-11
   6.850000       -7.8655381E-11
   6.860000       -9.5085925E-11
   6.870000       -1.1211237E-10
   6.880000       -1.2974222E-10
   6.890000       -1.4797986E-10
   6.900000       -1.6683177E-10
   6.910000       -1.8630004E-10
   6.920000       -2.0639271E-10
   6.930000       -2.2711379E-10
   6.940000       -2.4846381E-10
   6.950000       -2.7044419E-10
   6.960000       -2.9306019E-10
   6.970000       -3.1631214E-10
   6.980000       -3.4020281E-10
   6.990000       -3.6473119E-10
   7.000000       -3.8989478E-10
   7.010000       -4.1569509E-10
   7.020000       -4.4213058E-10
   7.030000       -4.6919851E-10
   7.040000       -4.9689475E-10
   7.050000       -5.2521576E-10
   7.060000       -5.5415517E-10
   7.070000       -5.8371097E-10
   7.080000       -6.1387678E-10
   7.090000       -6.4464217E-10
   7.100000       -6.7600014E-10
   7.110000       -7.0794093E-10
   7.120000       -7.4045431E-10
   7.130000       -7.7353057E-10
   7.140000       -8.0715984E-10
   7.150000       -8.4132745E-10
   7.160000       -8.7601698E-10
   7.170000       -9.1121866E-10
   7.180000       -9.4691277E-10
   7.190000       -9.8308406E-10
   7.200000       -1.0197094E-09
   7.210000       -1.0567769E-09
   7.220000       -1.0942621E-09
   7.230000       -1.1321439E-09
   7.240000       -1.1703994E-09
   7.250000       -1.2089983E-09
   7.260000       -1.2479220E-09
   7.270000       -1.2871492E-09
   7.280000       -1.3266422E-09
   7.290000       -1.3663788E-09
   7.300000       -1.4063238E-09
   7.310000       -1.4464493E-09
   7.320000       -1.4867161E-09
   7.330000       -1.5270942E-09
   7.340000       -1.5675479E-09
   7.350000       -1.6080441E-09
   7.360000       -1.6485362E-09
   7.370000       -1.6889892E-09
   7.380000       -1.7293623E-09
   7.390000       -1.7696081E-09
   7.400000       -1.8096875E-09
   7.410000       -1.8495542E-09
   7.420000       -1.8891662E-09
   7.430000       -1.9284641E-09
   7.440000       -1.9673994E-09
   7.450000       -2.0059328E-09
   7.460000       -2.0440070E-09
   7.470000       -2.0815676E-09
   7.480000       -2.1185576E-09
   7.490000       -2.1549182E-09
   7.500000       -2.1906055E-09
   7.510000       -2.2255435E-09
   7.520000       -2.2596747E-09
   7.530000       -2.2929398E-09
   7.540000       -2.3252702E-09
   7.550000       -2.3566074E-09
   7.560000       -2.3868949E-09
   7.570000       -2.4160463E-09
   7.580000       -2.4439972E-09
   7.590000       -2.4706888E-09
   7.600000       -2.4960398E-09
   7.610000       -2.5199833E-09
   7.620000       -2.5424423E-09
   7.630000       -2.5633411E-09
   7.640000       -2.5826015E-09
   7.650000       -2.6001519E-09
   7.660000       -2.6159210E-09
   7.670000       -2.6298208E-09
   7.680000       -2.6417744E-09
   7.690000       -2.6516951E-09
   7.700000       -2.6595153E-09
   7.710000       -2.6651359E-09
   7.720000       -2.6684877E-09
   7.730000       -2.6694749E-09
   7.740000       -2.6680231E-09
   7.750000       -2.6640410E-09
   7.760000       -2.6574498E-09
   7.770000       -2.6481606E-09
   7.780000       -2.6360809E-09
   7.790000       -2.6211269E-09
   7.800000       -2.6032132E-09
   7.810000       -2.5822535E-09
   7.820000       -2.5581541E-09
   7.830000       -2.5308315E-09
   7.840000       -2.5002005E-09
   7.850000       -2.4661693E-09
   7.860000       -2.4286533E-09
   7.870000       -2.3875601E-09
   7.880000       -2.3428117E-09
   7.890000       -2.2943145E-09
   7.900000       -2.2419848E-09
   7.910000       -2.1857349E-09
   7.920000       -2.1254833E-09
   7.930000       -2.0611470E-09
   7.940000       -1.9926407E-09
   7.950000       -1.9198834E-09
   7.960000       -1.8427935E-09
   7.970000       -1.7612917E-09
   7.980000       -1.6753018E-09
   7.990000       -1.5847449E-09
   8.000000       -1.4895459E-09
   8.010000       -1.3896317E-09
   8.020000       -1.2849279E-09
   8.030000       -1.1753667E-09
   8.040000       -1.0608816E-09
   8.050000       -9.4140717E-10
   8.060000       -8.1687745E-10
   8.070000       -6.8723244E-10
   8.080000       -5.5241312E-10
   8.090000       -4.1236420E-10
   8.100000       -2.6703675E-10
   8.110000       -1.1636705E-10
   8.120000        3.9677761E-11
   8.130000        2.0114946E-10
   8.140000        3.6808231E-10
   8.150000        5.4051691E-10
   8.160000        7.1848266E-10
   8.170000        9.0201457E-10
   8.180000        1.0911433E-09
   8.190000        1.2858884E-09
   8.200000        1.4862654E-09
   8.210000        1.6922787E-09
   8.220000        1.9039503E-09
   8.230000        2.1212831E-09
   8.240000        2.3442632E-09
   8.250000        2.5728906E-09
   8.260000        2.8071654E-09
   8.270000        3.0470817E-09
   8.280000        3.2925922E-09
   8.290000        3.5436940E-09
   8.300000        3.8003338E-09
   8.310000        4.0624806E-09
   8.320000        4.3300958E-09
   8.330000        4.6031126E-09
   8.340000        4.8815103E-09
   8.350000        5.1651941E-09
   8.360000        5.4541336E-09
   8.370000        5.7482143E-09
   8.380000        6.0473848E-09
   8.390000        6.3515362E-09
   8.400000        6.6606134E-09
   8.410000        6.9744592E-09
   8.420000        7.2929671E-09
   8.430000        7.6160420E-09
   8.440000        7.9435667E-09
   8.450000        8.2754124E-09
   8.460000        8.6114378E-09
   8.470000        8.9514547E-09
   8.480000        9.2953609E-09
   8.490000        9.6429611E-09
   8.500000        9.9941051E-09
   8.510000        1.0348596E-08
   8.520000        1.0706259E-08
   8.530000        1.1066872E-08
   8.540000        1.1430273E-08
   8.550000        1.1796220E-08
   8.560000        1.2164440E-08
   8.570000        1.2534813E-08
   8.580000        1.2907102E-08
   8.590000        1.3280935E-08
   8.600000        1.3656106E-08
   8.610000        1.4032413E-08
   8.620000        1.4409554E-08
   8.630000        1.4787203E-08
   8.640000        1.5165089E-08
   8.650000        1.5542936E-08
   8.660000        1.5920378E-08
   8.670000        1.6297161E-08
   8.680000        1.6672914E-08
   8.690000        1.7047279E-08
   8.700000        1.7420019E-08
   8.710000        1.7790668E-08
   8.720000        1.8158877E-08
   8.730000        1.8524254E-08
   8.740000        1.8886485E-08
   8.750000        1.9245133E-08
   8.760000        1.9599819E-08
   8.770000        1.9950150E-08
   8.780000        2.0295715E-08
   8.790000        2.0636049E-08
   8.800000        2.0970710E-08
   8.810000        2.1299305E-08
   8.820000        2.1621306E-08
   8.830000        2.1936408E-08
   8.840000        2.2243970E-08
   8.850000        2.2543572E-08
   8.860000        2.2834733E-08
   8.870000        2.3117041E-08
   8.880000        2.3389900E-08
   8.890000        2.3652854E-08
   8.900000        2.3905407E-08
   8.910000        2.4146923E-08
   8.920000        2.4377080E-08
   8.930000        2.4595177E-08
   8.940000        2.4800853E-08
   8.950000        2.4993309E-08
   8.960000        2.5172264E-08
   8.970000        2.5336957E-08
   8.980000        2.5486909E-08