 -0.1000000        8.4193585E-36
 -9.0000004E-02    2.5258079E-35
 -7.9999998E-02    4.2096786E-35
 -7.0000000E-02    5.8935493E-35
 -5.9999999E-02    7.5774208E-35
 -5.0000001E-02    9.2612918E-35
 -3.9999999E-02    1.0945163E-34
 -2.9999999E-02    1.2629034E-34
 -2.0000000E-02    1.4312906E-34
 -9.9999998E-03    1.5996779E-34
  0.0000000E+00    1.7680655E-34
  9.9999998E-03    1.9364527E-34
  2.0000000E-02    2.1048400E-34
  2.9999999E-02    2.2732275E-34
  3.9999999E-02    2.4416150E-34
  5.0000001E-02    2.6100022E-34
  5.9999999E-02    2.7783888E-34
  7.0000000E-02    2.9467758E-34
  7.9999998E-02    3.1151624E-34
  9.0000004E-02    3.2835497E-34
  0.1000000        3.4519367E-34
  0.1100000        3.6203238E-34
  0.1200000        3.7887113E-34
  0.1300000        3.9570983E-34
  0.1400000        4.1254851E-34
  0.1500000        4.2938724E-34
  0.1600000        4.4622597E-34
  0.1700000        4.6306465E-34
  0.1800000        4.7990337E-34
  0.1900000        4.9674210E-34
  0.2000000        5.1358083E-34
  0.2100000        5.3041956E-34
  0.2200000        5.4725824E-34
  0.2300000        5.6409701E-34
  0.2400000        5.8093569E-34
  0.2500000        5.9777442E-34
  0.2600000        6.1461314E-34
  0.2700000        6.3145192E-34
  0.2800000        6.4829051E-34
  0.2900000        6.6512928E-34
  0.3000000        6.8196801E-34
  0.3100000        6.9880660E-34
  0.3200000        7.1564537E-34
  0.3300000        7.3248410E-34
  0.3400000        7.4932278E-34
  0.3500000        7.6616150E-34
  0.3600000        7.8300018E-34
  0.3700000        7.9983877E-34
  0.3800000        8.1667764E-34
  0.3900000        8.3351632E-34
  0.4000000        8.5035500E-34
  0.4100000        8.6719377E-34
  0.4200000        8.8403246E-34
  0.4300000        9.0087095E-34
  0.4400000        9.1770982E-34
  0.4500000        9.3454859E-34
  0.4600000        9.5138718E-34
  0.4700000        9.6822586E-34
  0.4800000        9.8506463E-34
  0.4900000        1.0019033E-33
  0.5000000        1.0187420E-33
  0.5100000        1.0355807E-33
  0.5200000        1.0524194E-33
  0.5300000        1.0692582E-33
  0.5400000        1.0860968E-33
  0.5500000        1.1029354E-33
  0.5600000        1.1197743E-33
  0.5700000        1.1366130E-33
  0.5800000        1.1534516E-33
  0.5900000        1.1702903E-33
  0.6000000        1.1871291E-33
  0.6100000        1.2039679E-33
  0.6200000        1.2208064E-33
  0.6300000        1.2376449E-33
  0.6400000        1.2544839E-33
  0.6500000        1.2713233E-33
  0.6600000        1.2881495E-33
  0.6700000        1.3049900E-33
  0.6800000        1.3218666E-33
  0.6900000        1.3387506E-33
  0.7000000        1.3556250E-33
  0.7100000        1.3724856E-33
  0.7200000        1.3892173E-33
  0.7300000        1.4057661E-33
  0.7400000        1.4221661E-33
  0.7500000        1.4388352E-33
  0.7600000        1.4558099E-33
  0.7700000        1.4730712E-33
  0.7800000        1.4910752E-33
  0.7900000        1.5101398E-33
  0.8000000        1.5302921E-33
  0.8100000        1.5513232E-33
  0.8200000        1.5725662E-33
  0.8300000        1.5927383E-33
  0.8400000        1.6105452E-33
  0.8500000        1.6237469E-33
  0.8600000        1.6292633E-33
  0.8700000        1.6259491E-33
  0.8800000        1.6147176E-33
  0.8900000        1.5988104E-33
  0.9000000        1.5859818E-33
  0.9100000        1.5874566E-33
  0.9200000        1.6162566E-33
  0.9300000        1.6853645E-33
  0.9400000        1.8031503E-33
  0.9500000        1.9683403E-33
  0.9600000        2.1654171E-33
  0.9700000        2.3606893E-33
  0.9800000        2.5022348E-33
  0.9900000        2.5260093E-33
   1.000000        2.3675905E-33
   1.010000        1.9800537E-33
   1.020000        1.3557482E-33
   1.030000        5.4768867E-34
   1.040000       -3.1589652E-34
   1.050000       -1.0293680E-33
   1.060000       -1.3286211E-33
   1.070000       -9.3655409E-34
   1.080000        3.7191978E-34
   1.090000        2.6900525E-33
   1.100000        5.8983636E-33
   1.110000        9.6052457E-33
   1.120000        1.3130441E-32
   1.130000        1.5553343E-32
   1.140000        1.5840959E-32
   1.150000        1.3056655E-32
   1.160000        6.6128133E-33
   1.170000       -3.4592036E-33
   1.180000       -1.6282237E-32
   1.190000       -3.0027545E-32
   1.200000       -4.2006917E-32
   1.210000       -4.8961153E-32
   1.220000       -4.7572900E-32
   1.230000       -3.5173048E-32
   1.240000       -1.0506778E-32
   1.250000        2.5529304E-32
   1.260000        6.9424361E-32
   1.270000        1.1497522E-31
   1.280000        1.5371076E-31
   1.290000        1.7589673E-31
   1.300000        1.7200958E-31
   1.310000        1.3461154E-31
   1.320000        6.0288372E-32
   1.330000       -4.8642644E-32
   1.340000       -1.8299868E-31
   1.350000       -3.2650921E-31
   1.360000       -4.5673711E-31
   1.370000       -5.4724660E-31
   1.380000       -5.7085828E-31
   1.390000       -5.0383197E-31
   1.400000       -3.3055136E-31
   1.410000       -4.8116954E-32
   1.420000        3.2980991E-31
   1.430000        7.7056824E-31
   1.440000        1.2220670E-30
   1.450000        1.6150920E-30
   1.460000        1.8688289E-30
   1.470000        1.8995812E-30
   1.480000        1.6327536E-30
   1.490000        1.0172259E-30
   1.500000        4.0818089E-32
   1.510000       -1.2550809E-30
   1.520000       -2.7645240E-30
   1.530000       -4.3126966E-30
   1.540000       -5.6615374E-30
   1.550000       -6.5277184E-30
   1.560000       -6.6144439E-30
   1.570000       -5.6564096E-30
   1.580000       -3.4745025E-30
   1.590000       -3.3973406E-32
   1.600000        4.5030650E-30
   1.610000        9.7418825E-30
   1.620000        1.5047738E-29
   1.630000        1.9577185E-29
   1.640000        2.2354598E-29
   1.650000        2.2394257E-29
   1.660000        1.8860465E-29
   1.670000        1.1249367E-29
   1.680000       -4.3195590E-31
   1.690000       -1.5520153E-29
   1.700000       -3.2617531E-29
   1.710000       -4.9612160E-29
   1.720000       -6.3818650E-29
   1.730000       -7.2248517E-29
   1.740000       -7.1999705E-29
   1.750000       -6.0733515E-29
   1.760000       -3.7185533E-29
   1.770000       -1.6391360E-30
   1.780000        4.3720758E-29
   1.790000        9.4656718E-29
   1.800000        1.4500188E-28
   1.810000        1.8710301E-28
   1.820000        2.1259212E-28
   1.830000        2.1344814E-28
   1.840000        1.8325893E-28
   1.850000        1.1854420E-28
   1.860000        1.9961424E-29
   1.870000       -1.0680663E-28
   1.880000       -2.5068227E-28
   1.890000       -3.9550895E-28
   1.900000       -5.2116054E-28
   1.910000       -6.0546307E-28
   1.920000       -6.2683574E-28
   1.930000       -5.6743948E-28
   1.940000       -4.1650272E-28
   1.950000       -1.7340190E-28
   1.960000        1.4998289E-28
   1.970000        5.2811662E-28
   1.980000        9.2227450E-28
   1.990000        1.2829026E-27
   2.000000        1.5539483E-27
   2.010000        1.6789851E-27
   2.020000        1.6086730E-27
   2.030000        1.3088301E-27
   2.040000        7.6815923E-28
   2.050000        4.5317030E-30
   2.060000       -9.3128978E-28
   2.070000       -1.9554903E-27
   2.080000       -2.9553214E-27
   2.090000       -3.7977994E-27
   2.100000       -4.3427324E-27
   2.110000       -4.4592289E-27
   2.120000       -4.0442187E-27
   2.130000       -3.0409977E-27
   2.140000       -1.4554348E-27
   2.150000        6.3263428E-28
   2.160000        3.0651618E-27
   2.170000        5.6106110E-27
   2.180000        7.9786902E-27
   2.190000        9.8450503E-27
   2.200000        1.0884662E-26
   2.210000        1.0811309E-26
   2.220000        9.4194098E-27
   2.230000        6.6234988E-27
   2.240000        2.4901706E-27
   2.250000       -2.7426662E-27
   2.260000       -8.6636510E-27
   2.270000       -1.4706113E-26
   2.280000       -2.0187685E-26
   2.290000       -2.4370246E-26
   2.300000       -2.6536483E-26
   2.310000       -2.6076728E-26
   2.320000       -2.2577644E-26
   2.330000       -1.5902729E-26
   2.340000       -6.2539899E-27
   2.350000        5.7952287E-27
   2.360000        1.9304537E-26
   2.370000        3.3013108E-26
   2.380000        4.5429831E-26
   2.390000        5.4963366E-26
   2.400000        6.0083387E-26
   2.410000        5.9499741E-26
   2.420000        5.2341987E-26
   2.430000        3.8319599E-26
   2.440000        1.7842333E-26
   2.450000       -7.9183046E-27
   2.460000       -3.7041269E-26
   2.470000       -6.6951069E-26
   2.480000       -9.4596903E-26
   2.490000       -1.1670790E-25
   2.500000       -1.3010778E-25
   2.510000       -1.3206298E-25
   2.520000       -1.2063219E-25
   2.530000       -9.4980326E-26
   2.540000       -5.5619433E-26
   2.550000       -4.5421062E-27
   2.560000        5.4780504E-26
   2.570000        1.1755281E-25
   2.580000        1.7796410E-25
   2.590000        2.2964133E-25
   2.600000        2.6621625E-25
   2.610000        2.8196433E-25
   2.620000        2.7245922E-25
   2.630000        2.3517972E-25
   2.640000        1.7000330E-25
   2.650000        7.9523367E-26
   2.660000       -3.0859930E-26
   2.670000       -1.5311165E-25
   2.680000       -2.7700976E-25
   2.690000       -3.9085625E-25
   2.700000       -4.8241334E-25
   2.710000       -5.4000167E-25
   2.720000       -5.5367302E-25
   2.730000       -5.1635709E-25
   2.740000       -4.2487309E-25
   2.750000       -2.8069796E-25
   2.760000       -9.0396305E-26
   2.770000        1.3436164E-25
   2.780000        3.7723624E-25
   2.790000        6.1811684E-25
   2.800000        8.3444385E-25
   2.810000        1.0028812E-24
   2.820000        1.1012255E-24
   2.830000        1.1104082E-24
   2.840000        1.0164272E-24
   2.850000        8.1204144E-25
   2.860000        4.9806291E-25
   2.870000        8.4109915E-26
   2.880000       -4.1128050E-25
   2.890000       -9.6123273E-25
   2.900000       -1.5318072E-24
   2.910000       -2.0839027E-24
   2.920000       -2.5756709E-24
   2.930000       -2.9652672E-24
   2.940000       -3.2137371E-24
   2.950000       -3.2877879E-24
   2.960000       -3.1622115E-24
   2.970000       -2.8217718E-24
   2.980000       -2.2623038E-24
   2.990000       -1.4909549E-24
   3.000000       -5.2549851E-25
   3.010000        6.0728761E-25
   3.020000        1.8740199E-24
   3.030000        3.2377362E-24
   3.040000        4.6612612E-24
   3.050000        6.1105678E-24
   3.060000        7.5578452E-24
   3.070000        8.9838170E-24
   3.080000        1.0379042E-23
   3.090000        1.1743763E-23
   3.100000        1.3086190E-23
   3.110000        1.4418972E-23
   3.120000        1.5753740E-23
   3.130000        1.7093847E-23
   3.140000        1.8425211E-23
   3.150000        1.9705476E-23
   3.160000        2.0851271E-23
   3.170000        2.1724876E-23
   3.180000        2.2118682E-23
   3.190000        2.1738149E-23
   3.200000        2.0183298E-23
   3.210000        1.6927705E-23
   3.220000        1.1294197E-23
   3.230000        2.4269004E-24
   3.240000       -1.0743526E-23
   3.250000       -2.9540569E-23
   3.260000       -5.5596165E-23
   3.270000       -9.0912452E-23
   3.280000       -1.3793784E-22
   3.290000       -1.9967150E-22
   3.300000       -2.7978029E-22
   3.310000       -3.8273426E-22
   3.320000       -5.1398749E-22
   3.330000       -6.8017253E-22
   3.340000       -8.8935063E-22
   3.350000       -1.1512882E-21
   3.360000       -1.4777535E-21
   3.370000       -1.8829050E-21
   3.380000       -2.3836869E-21
   3.390000       -3.0002778E-21
   3.400000       -3.7566121E-21
   3.410000       -4.6808955E-21
   3.420000       -5.8063026E-21
   3.430000       -7.1715380E-21
   3.440000       -8.8216365E-21
   3.450000       -1.0808513E-20
   3.460000       -1.3192146E-20
   3.470000       -1.6041031E-20
   3.480000       -1.9433503E-20
   3.490000       -2.3458136E-20
   3.500000       -2.8215234E-20
   3.510000       -3.3817654E-20
   3.520000       -4.0391569E-20
   3.530000       -4.8077867E-20
   3.540000       -5.7032972E-20
   3.550000       -6.7430342E-20
   3.560000       -7.9460870E-20
   3.570000       -9.3334142E-20
   3.580000       -1.0927962E-19
   3.590000       -1.2754724E-19
   3.600000       -1.4840800E-19
   3.610000       -1.7215600E-19
   3.620000       -1.9910632E-19
   3.630000       -2.2959851E-19
   3.640000       -2.6399606E-19
   3.650000       -3.0268503E-19
   3.660000       -3.4607479E-19
   3.670000       -3.9459757E-19
   3.680000       -4.4870914E-19
   3.690000       -5.0888596E-19
   3.700000       -5.7562444E-19
   3.710000       -6.4943976E-19
   3.720000       -7.3086468E-19
   3.730000       -8.2044317E-19
   3.740000       -9.1873245E-19
   3.750000       -1.0262964E-18
   3.760000       -1.1437040E-18
   3.770000       -1.2715236E-18
   3.780000       -1.4103151E-18
   3.790000       -1.5606358E-18
   3.800000       -1.7230172E-18
   3.810000       -1.8979742E-18
   3.820000       -2.0859849E-18
   3.830000       -2.2874942E-18
   3.840000       -2.5028984E-18
   3.850000       -2.7325428E-18
   3.860000       -2.9767046E-18
   3.870000       -3.2355854E-18
   3.880000       -3.5093022E-18
   3.890000       -3.7978720E-18
   3.900000       -4.1012165E-18
   3.910000       -4.4191446E-18
   3.920000       -4.7513077E-18
   3.930000       -5.0972350E-18
   3.940000       -5.4562909E-18
   3.950000       -5.8276760E-18
   3.960000       -6.2104125E-18
   3.970000       -6.6033179E-18
   3.980000       -7.0050047E-18
   3.990000       -7.4138685E-18
   4.000000       -7.8280808E-18
   4.010000       -8.2455506E-18
   4.020000       -8.6639642E-18
   4.030000       -9.0807044E-18
   4.040000       -9.4929001E-18
   4.050000       -9.8973856E-18
   4.060000       -1.0290695E-17
   4.070000       -1.0669097E-17
   4.080000       -1.1028510E-17
   4.090000       -1.1364576E-17
   4.100000       -1.1672605E-17
   4.110000       -1.1947606E-17
   4.120000       -1.2184280E-17
   4.130000       -1.2377013E-17
   4.140000       -1.2519867E-17
   4.150000       -1.2606650E-17
   4.160000       -1.2630878E-17
   4.170000       -1.2585753E-17
   4.180000       -1.2464281E-17
   4.190000       -1.2259232E-17
   4.200000       -1.1963087E-17
   4.210000       -1.1568251E-17
   4.220000       -1.1066868E-17
   4.230000       -1.0451021E-17
   4.240000       -9.7126381E-18
   4.250000       -8.8436708E-18
   4.260000       -7.8359671E-18
   4.270000       -6.6814794E-18
   4.280000       -5.3721907E-18
   4.290000       -3.9002091E-18
   4.300000       -2.2578617E-18
   4.310000       -4.3767367E-19
   4.320000        1.5675062E-18
   4.330000        3.7644911E-18
   4.340000        6.1596712E-18
   4.350000        8.7589262E-18
   4.360000        1.1567577E-17
   4.370000        1.4590371E-17
   4.380000        1.7831286E-17
   4.390000        2.1293584E-17
   4.400000        2.4979725E-17
   4.410000        2.8891156E-17
   4.420000        3.3028385E-17
   4.430000        3.7390982E-17
   4.440000        4.1977226E-17
   4.450000        4.6784320E-17
   4.460000        5.1808185E-17
   4.470000        5.7043493E-17
   4.480000        6.2483516E-17
   4.490000        6.8120176E-17
   4.500000        7.3943965E-17
   4.510000        7.9943922E-17
   4.520000        8.6107490E-17
   4.530000        9.2420797E-17
   4.540000        9.8868346E-17
   4.550000        1.0543295E-16
   4.560000        1.1209605E-16
   4.570000        1.1883782E-16
   4.580000        1.2563690E-16
   4.590000        1.3247050E-16
   4.600000        1.3931490E-16
   4.610000        1.4614488E-16
   4.620000        1.5293406E-16
   4.630000        1.5965553E-16
   4.640000        1.6628109E-16
   4.650000        1.7278281E-16
   4.660000        1.7913147E-16
   4.670000        1.8529833E-16
   4.680000        1.9125444E-16
   4.690000        1.9697119E-16
   4.700000        2.0242115E-16
   4.710000        2.0757711E-16
   4.720000        2.1241441E-16
   4.730000        2.1690883E-16
   4.740000        2.2103898E-16
   4.750000        2.2478682E-16
   4.760000        2.2813684E-16
   4.770000        2.3107752E-16
   4.780000        2.3360089E-16
   4.790000        2.3570457E-16
   4.800000        2.3739226E-16
   4.810000        2.3867194E-16
   4.820000        2.3956066E-16
   4.830000        2.4008207E-16
   4.840000        2.4026741E-16
   4.850000        2.4015864E-16
   4.860000        2.3980771E-16
   4.870000        2.3927611E-16
   4.880000        2.3863875E-16
   4.890000        2.3798174E-16
   4.900000        2.3740727E-16
   4.910000        2.3702946E-16
   4.920000        2.3697994E-16
   4.930000        2.3740692E-16
   4.940000        2.3847612E-16
   4.950000        2.4037382E-16
   4.960000        2.4330415E-16
   4.970000        2.4749419E-16
   4.980000        2.5319358E-16
   4.990000        2.6067391E-16
   5.000000        2.7023358E-16
   5.010000        2.8219416E-16
   5.020000        2.9690763E-16
   5.030000        3.1475257E-16
   5.040000        3.3613772E-16
   5.050000        3.6150172E-16
   5.060000        3.9131461E-16
   5.070000        4.2608147E-16
   5.080000        4.6633838E-16
   5.090000        5.1265684E-16
   5.100000        5.6564664E-16
   5.110000        6.2595301E-16
   5.120000        6.9425769E-16
   5.130000        7.7128443E-16
   5.140000        8.5779281E-16
   5.150000        9.5458665E-16
   5.160000        1.0625058E-15
   5.170000        1.1824329E-15
   5.180000        1.3152941E-15
   5.190000        1.4620577E-15
   5.200000        1.6237306E-15
   5.210000        1.8013642E-15
   5.220000        1.9960543E-15
   5.230000        2.2089336E-15
   5.240000        2.4411811E-15
   5.250000        2.6940137E-15
   5.260000        2.9686893E-15
   5.270000        3.2665044E-15
   5.280000        3.5887990E-15
   5.290000        3.9369460E-15
   5.300000        4.3123519E-15
   5.310000        4.7164611E-15
   5.320000        5.1507493E-15
   5.330000        5.6167284E-15
   5.340000        6.1159201E-15
   5.350000        6.6498736E-15
   5.360000        7.2201732E-15
   5.370000        7.8284233E-15
   5.380000        8.4762223E-15
   5.390000        9.1651904E-15
   5.400000        9.8969718E-15
   5.410000        1.0673189E-14
   5.420000        1.1495474E-14
   5.430000        1.2365435E-14
   5.440000        1.3284663E-14
   5.450000        1.4254773E-14
   5.460000        1.5277332E-14
   5.470000        1.6353843E-14
   5.480000        1.7485801E-14
   5.490000        1.8674652E-14
   5.500000        1.9921780E-14
   5.510000        2.1228523E-14
   5.520000        2.2596137E-14
   5.530000        2.4025761E-14
   5.540000        2.5518551E-14
   5.550000        2.7075459E-14
   5.560000        2.8697388E-14
   5.570000        3.0385057E-14
   5.580000        3.2139113E-14
   5.590000        3.3959973E-14
   5.600000        3.5848132E-14
   5.610000        3.7803653E-14
   5.620000        3.9826520E-14
   5.630000        4.1916472E-14
   5.640000        4.4073232E-14
   5.650000        4.6296131E-14
   5.660000        4.8584214E-14
   5.670000        5.0936523E-14
   5.680000        5.3351556E-14
   5.690000        5.5827843E-14
   5.700000        5.8363403E-14
   5.710000        6.0955859E-14
   5.720000        6.3602972E-14
   5.730000        6.6301497E-14
   5.740000        6.9048357E-14
   5.750000        7.1839927E-14
   5.760000        7.4672114E-14
   5.770000        7.7540669E-14
   5.780000        8.0440706E-14
   5.790000        8.3367077E-14
   5.800000        8.6313952E-14
   5.810000        8.9275084E-14
   5.820000        9.2243995E-14
   5.830000        9.5213334E-14
   5.840000        9.8175489E-14
   5.850000        1.0112224E-13
   5.860000        1.0404460E-13
   5.870000        1.0693357E-13
   5.880000        1.0977903E-13
   5.890000        1.1257031E-13
   5.900000        1.1529676E-13
   5.910000        1.1794626E-13
   5.920000        1.2050635E-13
   5.930000        1.2296404E-13
   5.940000        1.2530576E-13
   5.950000        1.2751664E-13
   5.960000        1.2958234E-13
   5.970000        1.3148662E-13
   5.980000        1.3321284E-13
   5.990000        1.3474385E-13
   6.000000        1.3606176E-13
   6.010000        1.3714808E-13
   6.020000        1.3798314E-13
   6.030000        1.3854654E-13
   6.040000        1.3881760E-13
   6.050000        1.3877482E-13
   6.060000        1.3839563E-13
   6.070000        1.3765689E-13
   6.080000        1.3653456E-13
   6.090000        1.3500407E-13
   6.100000        1.3304009E-13
   6.110000        1.3061638E-13
   6.120000        1.2770640E-13
   6.130000        1.2428239E-13
   6.140000        1.2031607E-13
   6.150000        1.1577868E-13
   6.160000        1.1064064E-13
   6.170000        1.0487176E-13
   6.180000        9.8440922E-14
   6.190000        9.1317213E-14
   6.200000        8.3468199E-14
   6.210000        7.4861490E-14
   6.220000        6.5464215E-14
   6.230000        5.5243079E-14
   6.240000        4.4163563E-14
   6.250000        3.2191856E-14
   6.260000        1.9293030E-14
   6.270000        5.4323213E-15
   6.280000       -9.4255378E-15
   6.290000       -2.5315990E-14
   6.300000       -4.2274818E-14
   6.310000       -6.0337423E-14
   6.320000       -7.9539626E-14
   6.330000       -9.9917260E-14
   6.340000       -1.2150585E-13
   6.350000       -1.4434073E-13
   6.360000       -1.6845732E-13
   6.370000       -1.9389016E-13
   6.380000       -2.2067416E-13
   6.390000       -2.4884307E-13
   6.400000       -2.7843003E-13
   6.410000       -3.0946838E-13
   6.420000       -3.4198946E-13
   6.430000       -3.7602506E-13
   6.440000       -4.1160632E-13
   6.450000       -4.4876174E-13
   6.460000       -4.8751861E-13
   6.470000       -5.2790563E-13
   6.480000       -5.6994736E-13
   6.490000       -6.1366710E-13
   6.500000       -6.5908856E-13
   6.510000       -7.0623238E-13
   6.520000       -7.5511770E-13
   6.530000       -8.0576095E-13
   6.540000       -8.5817746E-13
   6.550000       -9.1237890E-13
   6.560000       -9.6837620E-13
   6.570000       -1.0261775E-12
   6.580000       -1.0857879E-12
   6.590000       -1.1472130E-12
   6.600000       -1.2104466E-12
   6.610000       -1.2754879E-12
   6.620000       -1.3423328E-12
   6.630000       -1.4109692E-12
   6.640000       -1.4813820E-12
   6.650000       -1.5535554E-12
   6.660000       -1.6274689E-12
   6.670000       -1.7030958E-12
   6.680000       -1.7804085E-12
   6.690000       -1.8593729E-12
   6.700000       -1.9399525E-12
   6.710000       -2.0221062E-12
   6.720000       -2.1057849E-12
   6.730000       -2.1909410E-12
   6.740000       -2.2775137E-12
   6.750000       -2.3654405E-12
   6.760000       -2.4546548E-12
   6.770000       -2.5450768E-12
   6.780000       -2.6366372E-12
   6.790000       -2.7292467E-12
   6.800000       -2.8228158E-12
   6.810000       -2.9172428E-12
   6.820000       -3.0124364E-12
   6.830000       -3.1082723E-12
   6.840000       -3.2046356E-12
   6.850000       -3.3014114E-12
   6.860000       -3.3984714E-12
   6.870000       -3.4956653E-12
   6.880000       -3.5928623E-12
   6.890000       -3.6898982E-12
   6.900000       -3.7866303E-12
   6.910000       -3.8828702E-12
   6.920000       -3.9784630E-12
   6.930000       -4.0732114E-12
   6.940000       -4.1669207E-12
   6.950000       -4.2594114E-12
   6.960000       -4.3504679E-12
   6.970000       -4.4398782E-12
   6.980000       -4.5274175E-12
   6.990000       -4.6128461E-12
   7.000000       -4.6959307E-12
   7.010000       -4.7764271E-12
   7.020000       -4.8540620E-12
   7.030000       -4.9285871E-12
   7.040000       -4.9997181E-12
   7.050000       -5.0671702E-12
   7.060000       -5.1306654E-12
   7.070000       -5.1898811E-12
   7.080000       -5.2445270E-12
   7.090000       -5.2942650E-12
   7.100000       -5.3387780E-12
   7.110000       -5.3777430E-12
   7.120000       -5.4107998E-12
   7.130000       -5.4375979E-12
   7.140000       -5.4577831E-12
   7.150000       -5.4709826E-12
   7.160000       -5.4767983E-12
   7.170000       -5.4748467E-12
   7.180000       -5.4647736E-12
   7.190000       -5.4461301E-12
   7.200000       -5.4185228E-12
   7.210000       -5.3815416E-12
   7.220000       -5.3347335E-12
   7.230000       -5.2776876E-12
   7.240000       -5.2099566E-12
   7.250000       -5.1310809E-12
   7.260000       -5.0406341E-12
   7.270000       -4.9381302E-12
   7.280000       -4.8231315E-12
   7.290000       -4.6951466E-12
   7.300000       -4.5536994E-12
   7.310000       -4.3983202E-12
   7.320000       -4.2285056E-12
   7.330000       -4.0437757E-12
   7.340000       -3.8436429E-12
   7.350000       -3.6275835E-12
   7.360000       -3.3951318E-12
   7.370000       -3.1457697E-12
   7.380000       -2.8789881E-12
   7.390000       -2.5942846E-12
   7.400000       -2.2911560E-12
   7.410000       -1.9691054E-12
   7.420000       -1.6276021E-12
   7.430000       -1.2661709E-12
   7.440000       -8.8428689E-13
   7.450000       -4.8147472E-13
   7.460000       -5.7209628E-14
   7.470000        3.8897295E-13
   7.480000        8.5758142E-13
   7.490000        1.3490857E-12
   7.500000        1.8639615E-12
   7.510000        2.4026894E-12
   7.520000        2.9657043E-12
   7.530000        3.5534737E-12
   7.540000        4.1664341E-12
   7.550000        4.8050127E-12
   7.560000        5.4696217E-12
   7.570000        6.1606644E-12
   7.580000        6.8785385E-12
   7.590000        7.6236170E-12
   7.600000        8.3962542E-12
   7.610000        9.1967814E-12
   7.620000        1.0025522E-11
   7.630000        1.0882772E-11
   7.640000        1.1768809E-11
   7.650000        1.2683899E-11
   7.660000        1.3628260E-11
   7.670000        1.4602103E-11
   7.680000        1.5605607E-11
   7.690000        1.6638923E-11
   7.700000        1.7702173E-11
   7.710000        1.8795463E-11
   7.720000        1.9918853E-11
   7.730000        2.1072326E-11
   7.740000        2.2255883E-11
   7.750000        2.3469459E-11
   7.760000        2.4713039E-11
   7.770000        2.5986430E-11
   7.780000        2.7289478E-11
   7.790000        2.8621964E-11
   7.800000        2.9983627E-11
   7.810000        3.1374202E-11
   7.820000        3.2793279E-11
   7.830000        3.4240489E-11
   7.840000        3.5715247E-11
   7.850000        3.7217205E-11
   7.860000        3.8745701E-11
   7.870000        4.0300215E-11
   7.880000        4.1879958E-11
   7.890000        4.3484324E-11
   7.900000        4.5112275E-11
   7.910000        4.6763139E-11
   7.920000        4.8435846E-11
   7.930000        5.0129425E-11
   7.940000        5.1842728E-11
   7.950000        5.3574794E-11
   7.960000        5.5324217E-11
   7.970000        5.7089864E-11
   7.980000        5.8870332E-11
   7.990000        6.0664002E-11
   8.000000        6.2469564E-11
   8.010000        6.4285056E-11
   8.020000        6.6109077E-11
   8.030000        6.7939605E-11
   8.040000        6.9775033E-11
   8.050000        7.1613139E-11
   8.060000        7.3451842E-11
   8.070000        7.5289198E-11
   8.080000        7.7123058E-11
   8.090000        7.8950922E-11
   8.100000        8.0770307E-11
   8.110000        8.2578798E-11
   8.120000        8.4373654E-11
   8.130000        8.6152155E-11
   8.140000        8.7911241E-11
   8.150000        8.9648108E-11
   8.160000        9.1359975E-11
   8.170000        9.3043587E-11
   8.180000        9.4695460E-11
   8.190000        9.6312791E-11
   8.200000        9.7891549E-11
   8.210000        9.9428583E-11
   8.220000        1.0091990E-10
   8.230000        1.0236198E-10
   8.240000        1.0375036E-10
   8.250000        1.0508136E-10
   8.260000        1.0635099E-10
   8.270000        1.0755501E-10
   8.280000        1.0868934E-10
   8.290000        1.0974908E-10
   8.300000        1.1073003E-10
   8.310000        1.1162710E-10
   8.320000        1.1243603E-10
   8.330000        1.1315155E-10
   8.340000        1.1376897E-10
   8.350000        1.1428326E-10
   8.360000        1.1468921E-10
   8.370000        1.1498157E-10
   8.380000        1.1515463E-10
   8.390000        1.1520342E-10
   8.400000        1.1512227E-10
   8.410000        1.1490521E-10
   8.420000        1.1454702E-10
   8.430000        1.1404173E-10
   8.440000        1.1338357E-10
   8.450000        1.1256642E-10
   8.460000        1.1158399E-10
   8.470000        1.1043069E-10
   8.480000        1.0910002E-10
   8.490000        1.0758606E-10
   8.500000        1.0588215E-10
   8.510000        1.0398236E-10
   8.520000        1.0187950E-10
   8.530000        9.9568333E-11
   8.540000        9.7041694E-11
   8.550000        9.4293087E-11
   8.560000        9.1315899E-11
   8.570000        8.8104336E-11
   8.580000        8.4651224E-11
   8.590000        8.0950101E-11
   8.600000        7.6994335E-11
   8.610000        7.2777770E-11
   8.620000        6.8293260E-11
   8.630000        6.3535205E-11
   8.640000        5.8496603E-11
   8.650000        5.3171335E-11
   8.660000        4.7552757E-11
   8.670000        4.1634748E-11
   8.680000        3.5411177E-11
   8.690000        2.8875935E-11
   8.700000        2.2022542E-11
   8.710000        1.4845578E-11
   8.720000        7.3387485E-12
   8.730000       -5.0328291E-13
   8.740000       -8.6860250E-12
   8.750000       -1.7214986E-11
   8.760000       -2.6095416E-11
   8.770000       -3.5332473E-11
   8.780000       -4.4930875E-11
   8.790000       -5.4895359E-11
   8.800000       -6.5230363E-11
   8.810000       -7.5940275E-11
   8.820000       -8.7028849E-11
   8.830000       -9.8500208E-11
   8.840000       -1.1035783E-10
   8.850000       -1.2260470E-10
   8.860000       -1.3524379E-10
   8.870000       -1.4827756E-10
   8.880000       -1.6170869E-10
   8.890000       -1.7553875E-10
   8.900000       -1.8976955E-10
   8.910000       -2.0440213E-10
   8.920000       -2.1943766E-10
   8.930000       -2.3487617E-10
   8.940000       -2.5071789E-10
   8.950000       -2.6696220E-10
   8.960000       -2.8360858E-10
   8.970000       -3.0065567E-10
   8.980000       -3.1810121E-10