 -0.1000000       -8.4193585E-36
 -9.0000004E-02   -2.5258079E-35
 -7.9999998E-02   -4.2096786E-35
 -7.0000000E-02   -5.8935487E-35
 -5.9999999E-02   -7.5774203E-35
 -5.0000001E-02   -9.2612918E-35
 -3.9999999E-02   -1.0945162E-34
 -2.9999999E-02   -1.2629033E-34
 -2.0000000E-02   -1.4312905E-34
 -9.9999998E-03   -1.5996779E-34
  0.0000000E+00   -1.7680655E-34
  9.9999998E-03   -1.9364527E-34
  2.0000000E-02   -2.1048400E-34
  2.9999999E-02   -2.2732275E-34
  3.9999999E-02   -2.4416147E-34
  5.0000001E-02   -2.6100022E-34
  5.9999999E-02   -2.7783888E-34
  7.0000000E-02   -2.9467758E-34
  7.9999998E-02   -3.1151624E-34
  9.0000004E-02   -3.2835497E-34
  0.1000000       -3.4519367E-34
  0.1100000       -3.6203238E-34
  0.1200000       -3.7887113E-34
  0.1300000       -3.9570983E-34
  0.1400000       -4.1254851E-34
  0.1500000       -4.2938724E-34
  0.1600000       -4.4622597E-34
  0.1700000       -4.6307158E-34
  0.1800000       -4.7978564E-34
  0.1900000       -4.9672612E-34
  0.2000000       -5.1422721E-34
  0.2100000       -5.3239664E-34
  0.2200000       -5.5227870E-34
  0.2300000       -5.7481104E-34
  0.2400000       -6.0008344E-34
  0.2500000       -6.2536970E-34
  0.2600000       -6.4030830E-34
  0.2700000       -6.1718413E-34
  0.2800000       -4.9165841E-34
  0.2900000       -1.3268181E-34
  0.3000000        7.0318320E-34
  0.3100000        2.4340798E-33
  0.3200000        5.7252871E-33
  0.3300000        1.1555300E-32
  0.3400000        2.1244050E-32
  0.3500000        3.6382059E-32
  0.3600000        5.8618588E-32
  0.3700000        8.9201983E-32
  0.3800000        1.2822516E-31
  0.3900000        1.7351221E-31
  0.4000000        2.1923487E-31
  0.4100000        2.5440571E-31
  0.4200000        2.6147348E-31
  0.4300000        2.1556742E-31
  0.4400000        8.4755388E-32
  0.4500000       -1.6838816E-31
  0.4600000       -5.8379121E-31
  0.4700000       -1.2000726E-30
  0.4800000       -2.0512563E-30
  0.4900000       -3.1661946E-30
  0.5000000       -4.5738662E-30
  0.5100000       -6.3180403E-30
  0.5200000       -8.4844955E-30
  0.5300000       -1.1242771E-29
  0.5400000       -1.4901979E-29
  0.5500000       -1.9976612E-29
  0.5600000       -2.7254214E-29
  0.5700000       -3.7852748E-29
  0.5800000       -5.3252601E-29
  0.5900000       -7.5288068E-29
  0.6000000       -1.0608547E-28
  0.6100000       -1.4794250E-28
  0.6200000       -2.0315366E-28
  0.6300000       -2.7380067E-28
  0.6400000       -3.6154005E-28
  0.6500000       -4.6743350E-28
  0.6600000       -5.9187313E-28
  0.6700000       -7.3465354E-28
  0.6800000       -8.9523165E-28
  0.6900000       -1.0731937E-27
  0.7000000       -1.2689179E-27
  0.7100000       -1.4843824E-27
  0.7200000       -1.7240312E-27
  0.7300000       -1.9955720E-27
  0.7400000       -2.3105605E-27
  0.7500000       -2.6846204E-27
  0.7600000       -3.1371625E-27
  0.7700000       -3.6905140E-27
  0.7800000       -4.3684351E-27
  0.7900000       -5.1940955E-27
  0.8000000       -6.1876751E-27
  0.8100000       -7.3638602E-27
  0.8200000       -8.7295933E-27
  0.8300000       -1.0282500E-26
  0.8400000       -1.2010412E-26
  0.8500000       -1.3892352E-26
  0.8600000       -1.5901263E-26
  0.8700000       -1.8008557E-26
  0.8800000       -2.0190300E-26
  0.8900000       -2.2434619E-26
  0.9000000       -2.4749590E-26
  0.9100000       -2.7170631E-26
  0.9200000       -2.9766255E-26
  0.9300000       -3.2640944E-26
  0.9400000       -3.5934044E-26
  0.9500000       -3.9813816E-26
  0.9600000       -4.4466317E-26
  0.9700000       -5.0079263E-26
  0.9800000       -5.6821910E-26
  0.9900000       -6.4822630E-26
   1.000000       -7.4146744E-26
   1.010000       -8.4777396E-26
   1.020000       -9.6602939E-26
   1.030000       -1.0941390E-25
   1.040000       -1.2291207E-25
   1.050000       -1.3673366E-25
   1.060000       -1.5048614E-25
   1.070000       -1.6379817E-25
   1.080000       -1.7637827E-25
   1.090000       -1.8807736E-25
   1.100000       -1.9894838E-25
   1.110000       -2.0929449E-25
   1.120000       -2.1969791E-25
   1.130000       -2.3102152E-25
   1.140000       -2.4437698E-25
   1.150000       -2.6105673E-25
   1.160000       -2.8242995E-25
   1.170000       -3.0980732E-25
   1.180000       -3.4428501E-25
   1.190000       -3.8658057E-25
   1.200000       -4.3688039E-25
   1.210000       -4.9471582E-25
   1.220000       -5.5889148E-25
   1.230000       -6.2748052E-25
   1.240000       -6.9790283E-25
   1.250000       -7.6709101E-25
   1.260000       -8.3174102E-25
   1.270000       -8.8863534E-25
   1.280000       -9.3501011E-25
   1.290000       -9.6893280E-25
   1.300000       -9.8964080E-25
   1.310000       -9.9779210E-25
   1.320000       -9.9556849E-25
   1.330000       -9.8658189E-25
   1.340000       -9.7553892E-25
   1.350000       -9.6763404E-25
   1.360000       -9.6766155E-25
   1.370000       -9.7886456E-25
   1.380000       -1.0015597E-24
   1.390000       -1.0316148E-24
   1.400000       -1.0588732E-24
   1.410000       -1.0656498E-24
   1.420000       -1.0254303E-24
   1.430000       -9.0191217E-25
   1.440000       -6.4851338E-25
   1.450000       -2.0845253E-25
   1.460000        4.8453888E-25
   1.470000        1.5048597E-24
   1.480000        2.9330931E-24
   1.490000        4.8535866E-24
   1.500000        7.3517198E-24
   1.510000        1.0511082E-23
   1.520000        1.4410741E-23
   1.530000        1.9122765E-23
   1.540000        2.4709948E-23
   1.550000        3.1223465E-23
   1.560000        3.8699727E-23
   1.570000        4.7155057E-23
   1.580000        5.6575924E-23
   1.590000        6.6901141E-23
   1.600000        7.7990992E-23
   1.610000        8.9576014E-23
   1.620000        1.0117553E-22
   1.630000        1.1197246E-22
   1.640000        1.2062761E-22
   1.650000        1.2501047E-22
   1.660000        1.2181868E-22
   1.670000        1.0605057E-22
   1.680000        7.0287172E-23
   1.690000        3.7300089E-24
   1.700000       -1.0906925E-22
   1.710000       -2.8986534E-22
   1.720000       -5.6885318E-22
   1.730000       -9.8738607E-22
   1.740000       -1.6014053E-21
   1.750000       -2.4857236E-21
   1.760000       -3.7393301E-21
   1.770000       -5.4919102E-21
   1.780000       -7.9117798E-21
   1.790000       -1.1215496E-20
   1.800000       -1.5679396E-20
   1.810000       -2.1653354E-20
   1.820000       -2.9577096E-20
   1.830000       -3.9999453E-20
   1.840000       -5.3600822E-20
   1.850000       -7.1219475E-20
   1.860000       -9.3881872E-20
   1.870000       -1.2283764E-19
   1.880000       -1.5959982E-19
   1.890000       -2.0599050E-19
   1.900000       -2.6419293E-19
   1.910000       -3.3681001E-19
   1.920000       -4.2693064E-19
   1.930000       -5.3820341E-19
   1.940000       -6.7491925E-19
   1.950000       -8.4210290E-19
   1.960000       -1.0456141E-18
   1.970000       -1.2922591E-18
   1.980000       -1.5899128E-18
   1.990000       -1.9476516E-18
   2.000000       -2.3758999E-18
   2.010000       -2.8865859E-18
   2.020000       -3.4933128E-18
   2.030000       -4.2115380E-18
   2.040000       -5.0587703E-18
   2.050000       -6.0547776E-18
   2.060000       -7.2218104E-18
   2.070000       -8.5848295E-18
   2.080000       -1.0171751E-17
   2.090000       -1.2013707E-17
   2.100000       -1.4145316E-17
   2.110000       -1.6604958E-17
   2.120000       -1.9435058E-17
   2.130000       -2.2682384E-17
   2.140000       -2.6398353E-17
   2.150000       -3.0639329E-17
   2.160000       -3.5466937E-17
   2.170000       -4.0948365E-17
   2.180000       -4.7156687E-17
   2.190000       -5.4171138E-17
   2.200000       -6.2077430E-17
   2.210000       -7.0968027E-17
   2.220000       -8.0942416E-17
   2.230000       -9.2107342E-17
   2.240000       -1.0457700E-16
   2.250000       -1.1847335E-16
   2.260000       -1.3392619E-16
   2.270000       -1.5107330E-16
   2.280000       -1.7006050E-16
   2.290000       -1.9104174E-16
   2.300000       -2.1417915E-16
   2.310000       -2.3964272E-16
   2.320000       -2.6761042E-16
   2.330000       -2.9826804E-16
   2.340000       -3.3180856E-16
   2.350000       -3.6843215E-16
   2.360000       -4.0834556E-16
   2.370000       -4.5176153E-16
   2.380000       -4.9889822E-16
   2.390000       -5.4997839E-16
   2.400000       -6.0522865E-16
   2.410000       -6.6487856E-16
   2.420000       -7.2915910E-16
   2.430000       -7.9830192E-16
   2.440000       -8.7253780E-16
   2.450000       -9.5209489E-16
   2.460000       -1.0371979E-15
   2.470000       -1.1280654E-15
   2.480000       -1.2249081E-15
   2.490000       -1.3279273E-15
   2.500000       -1.4373126E-15
   2.510000       -1.5532390E-15
   2.520000       -1.6758650E-15
   2.530000       -1.8053296E-15
   2.540000       -1.9417496E-15
   2.550000       -2.0852179E-15
   2.560000       -2.2357983E-15
   2.570000       -2.3935237E-15
   2.580000       -2.5583933E-15
   2.590000       -2.7303688E-15
   2.600000       -2.9093699E-15
   2.610000       -3.0952735E-15
   2.620000       -3.2879070E-15
   2.630000       -3.4870474E-15
   2.640000       -3.6924152E-15
   2.650000       -3.9036742E-15
   2.660000       -4.1204235E-15
   2.670000       -4.3421984E-15
   2.680000       -4.5684625E-15
   2.690000       -4.7986081E-15
   2.700000       -5.0319513E-15
   2.710000       -5.2677271E-15
   2.720000       -5.5050899E-15
   2.730000       -5.7431074E-15
   2.740000       -5.9807590E-15
   2.750000       -6.2169347E-15
   2.760000       -6.4504282E-15
   2.770000       -6.6799436E-15
   2.780000       -6.9040834E-15
   2.790000       -7.1213584E-15
   2.800000       -7.3301757E-15
   2.810000       -7.5288456E-15
   2.820000       -7.7155799E-15
   2.830000       -7.8884907E-15
   2.840000       -8.0455924E-15
   2.850000       -8.1848048E-15
   2.860000       -8.3039553E-15
   2.870000       -8.4007762E-15
   2.880000       -8.4729146E-15
   2.890000       -8.5179319E-15
   2.900000       -8.5333089E-15
   2.910000       -8.5164504E-15
   2.920000       -8.4646942E-15
   2.930000       -8.3753127E-15
   2.940000       -8.2455235E-15
   2.950000       -8.0724925E-15
   2.960000       -7.8533473E-15
   2.970000       -7.5851809E-15
   2.980000       -7.2650634E-15
   2.990000       -6.8900510E-15
   3.000000       -6.4571960E-15
   3.010000       -5.9635609E-15
   3.020000       -5.4062212E-15
   3.030000       -4.7822841E-15
   3.040000       -4.0888944E-15
   3.050000       -3.3232520E-15
   3.060000       -2.4826182E-15
   3.070000       -1.5643322E-15
   3.080000       -5.6581568E-16
   3.090000        5.1541081E-16
   3.100000        1.6817183E-15
   3.110000        2.9353605E-15
   3.120000        4.2784621E-15
   3.130000        5.7130140E-15
   3.140000        7.2408637E-15
   3.150000        8.8637077E-15
   3.160000        1.0583091E-14
   3.170000        1.2400405E-14
   3.180000        1.4316880E-14
   3.190000        1.6333589E-14
   3.200000        1.8451459E-14
   3.210000        2.0671272E-14
   3.220000        2.2993668E-14
   3.230000        2.5419176E-14
   3.240000        2.7948204E-14
   3.250000        3.0581084E-14
   3.260000        3.3318099E-14
   3.270000        3.6159494E-14
   3.280000        3.9105502E-14
   3.290000        4.2156427E-14
   3.300000        4.5312651E-14
   3.310000        4.8574697E-14
   3.320000        5.1943303E-14
   3.330000        5.5419475E-14
   3.340000        5.9004545E-14
   3.350000        6.2700279E-14
   3.360000        6.6508946E-14
   3.370000        7.0433453E-14
   3.380000        7.4477398E-14
   3.390000        7.8645227E-14
   3.400000        8.2942347E-14
   3.410000        8.7375277E-14
   3.420000        9.1951769E-14
   3.430000        9.6680991E-14
   3.440000        1.0157374E-13
   3.450000        1.0664253E-13
   3.460000        1.1190183E-13
   3.470000        1.1736835E-13
   3.480000        1.2306113E-13
   3.490000        1.2900197E-13
   3.500000        1.3521541E-13
   3.510000        1.4172928E-13
   3.520000        1.4857481E-13
   3.530000        1.5578700E-13
   3.540000        1.6340485E-13
   3.550000        1.7147185E-13
   3.560000        1.8003618E-13
   3.570000        1.8915108E-13
   3.580000        1.9887539E-13
   3.590000        2.0927375E-13
   3.600000        2.2041710E-13
   3.610000        2.3238318E-13
   3.620000        2.4525683E-13
   3.630000        2.5913063E-13
   3.640000        2.7410523E-13
   3.650000        2.9028993E-13
   3.660000        3.0780313E-13
   3.670000        3.2677306E-13
   3.680000        3.4733807E-13
   3.690000        3.6964727E-13
   3.700000        3.9386143E-13
   3.710000        4.2015282E-13
   3.720000        4.4870683E-13
   3.730000        4.7972179E-13
   3.740000        5.1340984E-13
   3.750000        5.4999798E-13
   3.760000        5.8972792E-13
   3.770000        6.3285748E-13
   3.780000        6.7966103E-13
   3.790000        7.3043004E-13
   3.800000        7.8547406E-13
   3.810000        8.4512101E-13
   3.820000        9.0971848E-13
   3.830000        9.7963391E-13
   3.840000        1.0552553E-12
   3.850000        1.1369926E-12
   3.860000        1.2252775E-12
   3.870000        1.3205646E-12
   3.880000        1.4233325E-12
   3.890000        1.5340834E-12
   3.900000        1.6533447E-12
   3.910000        1.7816693E-12
   3.920000        1.9196368E-12
   3.930000        2.0678533E-12
   3.940000        2.2269521E-12
   3.950000        2.3975949E-12
   3.960000        2.5804725E-12
   3.970000        2.7763037E-12
   3.980000        2.9858371E-12
   3.990000        3.2098523E-12
   4.000000        3.4491578E-12
   4.010000        3.7045944E-12
   4.020000        3.9770344E-12
   4.030000        4.2673777E-12
   4.040000        4.5765605E-12
   4.050000        4.9055491E-12
   4.060000        5.2553400E-12
   4.070000        5.6269633E-12
   4.080000        6.0214802E-12
   4.090000        6.4399844E-12
   4.100000        6.8835992E-12
   4.110000        7.3534798E-12
   4.120000        7.8508120E-12
   4.130000        8.3768140E-12
   4.140000        8.9327278E-12
   4.150000        9.5198294E-12
   4.160000        1.0139422E-11
   4.170000        1.0792835E-11
   4.180000        1.1481423E-11
   4.190000        1.2206563E-11
   4.200000        1.2969663E-11
   4.210000        1.3772150E-11
   4.220000        1.4615465E-11
   4.230000        1.5501074E-11
   4.240000        1.6430461E-11
   4.250000        1.7405117E-11
   4.260000        1.8426552E-11
   4.270000        1.9496290E-11
   4.280000        2.0615848E-11
   4.290000        2.1786760E-11
   4.300000        2.3010560E-11
   4.310000        2.4288776E-11
   4.320000        2.5622936E-11
   4.330000        2.7014556E-11
   4.340000        2.8465145E-11
   4.350000        2.9976188E-11
   4.360000        3.1549159E-11
   4.370000        3.3185499E-11
   4.380000        3.4886632E-11
   4.390000        3.6653937E-11
   4.400000        3.8488754E-11
   4.410000        4.0392380E-11
   4.420000        4.2366072E-11
   4.430000        4.4411023E-11
   4.440000        4.6528364E-11
   4.450000        4.8719161E-11
   4.460000        5.0984404E-11
   4.470000        5.3325011E-11
   4.480000        5.5741800E-11
   4.490000        5.8235493E-11
   4.500000        6.0806721E-11
   4.510000        6.3455997E-11
   4.520000        6.6183732E-11
   4.530000        6.8990175E-11
   4.540000        7.1875485E-11
   4.550000        7.4839641E-11
   4.560000        7.7882485E-11
   4.570000        8.1003718E-11
   4.580000        8.4202818E-11
   4.590000        8.7479128E-11
   4.600000        9.0831800E-11
   4.610000        9.4259753E-11
   4.620000        9.7761722E-11
   4.630000        1.0133622E-10
   4.640000        1.0498152E-10
   4.650000        1.0869563E-10
   4.660000        1.1247637E-10
   4.670000        1.1632124E-10
   4.680000        1.2022747E-10
   4.690000        1.2419202E-10
   4.700000        1.2821154E-10
   4.710000        1.3228235E-10
   4.720000        1.3640050E-10
   4.730000        1.4056163E-10
   4.740000        1.4476112E-10
   4.750000        1.4899390E-10
   4.760000        1.5325463E-10
   4.770000        1.5753748E-10
   4.780000        1.6183628E-10
   4.790000        1.6614445E-10
   4.800000        1.7045494E-10
   4.810000        1.7476040E-10
   4.820000        1.7905288E-10
   4.830000        1.8332402E-10
   4.840000        1.8756503E-10
   4.850000        1.9176664E-10
   4.860000        1.9591903E-10
   4.870000        2.0001190E-10
   4.880000        2.0403444E-10
   4.890000        2.0797529E-10
   4.900000        2.1182264E-10
   4.910000        2.1556398E-10
   4.920000        2.1918641E-10
   4.930000        2.2267628E-10
   4.940000        2.2601952E-10
   4.950000        2.2920141E-10
   4.960000        2.3220663E-10
   4.970000        2.3501923E-10
   4.980000        2.3762267E-10
   4.990000        2.3999985E-10
   5.000000        2.4213287E-10
   5.010000        2.4400346E-10
   5.020000        2.4559244E-10
   5.030000        2.4688024E-10
   5.040000        2.4784649E-10
   5.050000        2.4847016E-10
   5.060000        2.4872968E-10
   5.070000        2.4860272E-10
   5.080000        2.4806640E-10
   5.090000        2.4709712E-10
   5.100000        2.4567059E-10
   5.110000        2.4376201E-10
   5.120000        2.4134580E-10
   5.130000        2.3839586E-10
   5.140000        2.3488536E-10
   5.150000        2.3078696E-10
   5.160000        2.2607256E-10
   5.170000        2.2071360E-10
   5.180000        2.1468081E-10
   5.190000        2.0794441E-10
   5.200000        2.0047407E-10
   5.210000        1.9223885E-10
   5.220000        1.8320734E-10
   5.230000        1.7334753E-10
   5.240000        1.6262704E-10
   5.250000        1.5101290E-10
   5.260000        1.3847178E-10
   5.270000        1.2496992E-10
   5.280000        1.1047313E-10
   5.290000        9.4946891E-11
   5.300000        7.8356321E-11
   5.310000        6.0666305E-11
   5.320000        4.1841405E-11
   5.330000        2.1845994E-11
   5.340000        6.4423271E-13
   5.350000       -2.1799824E-11
   5.360000       -4.5522256E-11
   5.370000       -7.0559156E-11
   5.380000       -9.6946638E-11
   5.390000       -1.2472079E-10
   5.400000       -1.5391757E-10
   5.410000       -1.8457279E-10
   5.420000       -2.1672203E-10
   5.430000       -2.5040059E-10
   5.440000       -2.8564359E-10
   5.450000       -3.2248546E-10
   5.460000       -3.6096037E-10
   5.470000       -4.0110198E-10
   5.480000       -4.4294318E-10
   5.490000       -4.8651638E-10
   5.500000       -5.3185301E-10
   5.510000       -5.7898386E-10
   5.520000       -6.2793853E-10
   5.530000       -6.7874600E-10
   5.540000       -7.3143397E-10
   5.550000       -7.8602880E-10
   5.560000       -8.4255580E-10
   5.570000       -9.0103891E-10
   5.580000       -9.6150043E-10
   5.590000       -1.0239612E-09
   5.600000       -1.0884406E-09
   5.610000       -1.1549560E-09
   5.620000       -1.2235228E-09
   5.630000       -1.2941549E-09
   5.640000       -1.3668636E-09
   5.650000       -1.4416581E-09
   5.660000       -1.5185456E-09
   5.670000       -1.5975307E-09
   5.680000       -1.6786152E-09
   5.690000       -1.7617988E-09
   5.700000       -1.8470779E-09
   5.710000       -1.9344459E-09
   5.720000       -2.0238939E-09
   5.730000       -2.1154098E-09
   5.740000       -2.2089766E-09
   5.750000       -2.3045763E-09
   5.760000       -2.4021851E-09
   5.770000       -2.5017772E-09
   5.780000       -2.6033220E-09
   5.790000       -2.7067859E-09
   5.800000       -2.8121308E-09
   5.810000       -2.9193135E-09
   5.820000       -3.0282872E-09
   5.830000       -3.1390008E-09
   5.840000       -3.2513985E-09
   5.850000       -3.3654204E-09
   5.860000       -3.4809999E-09
   5.870000       -3.5980665E-09
   5.880000       -3.7165451E-09
   5.890000       -3.8363539E-09
   5.900000       -3.9574073E-09
   5.910000       -4.0796131E-09
   5.920000       -4.2028736E-09
   5.930000       -4.3270858E-09
   5.940000       -4.4521400E-09
   5.950000       -4.5779203E-09
   5.960000       -4.7043054E-09
   5.970000       -4.8311679E-09
   5.980000       -4.9583733E-09
   5.990000       -5.0857807E-09
   6.000000       -5.2132427E-09
   6.010000       -5.3406035E-09
   6.020000       -5.4677036E-09
   6.030000       -5.5943747E-09
   6.040000       -5.7204419E-09
   6.050000       -5.8457212E-09
   6.060000       -5.9700254E-09
   6.070000       -6.0931575E-09
   6.080000       -6.2149113E-09
   6.090000       -6.3350774E-09
   6.100000       -6.4534347E-09
   6.110000       -6.5697576E-09
   6.120000       -6.6838117E-09
   6.130000       -6.7953541E-09
   6.140000       -6.9041364E-09
   6.150000       -7.0098993E-09
   6.160000       -7.1123791E-09
   6.170000       -7.2113004E-09
   6.180000       -7.3063839E-09
   6.190000       -7.3973423E-09
   6.200000       -7.4838757E-09
   6.210000       -7.5656814E-09
   6.220000       -7.6424485E-09
   6.230000       -7.7138544E-09
   6.240000       -7.7795743E-09
   6.250000       -7.8392723E-09
   6.260000       -7.8926083E-09
   6.270000       -7.9392297E-09
   6.280000       -7.9787812E-09
   6.290000       -8.0108968E-09
   6.300000       -8.0352054E-09
   6.310000       -8.0513303E-09
   6.320000       -8.0588842E-09
   6.330000       -8.0574765E-09
   6.340000       -8.0467091E-09
   6.350000       -8.0261771E-09
   6.360000       -7.9954683E-09
   6.370000       -7.9541689E-09
   6.380000       -7.9018561E-09
   6.390000       -7.8381026E-09
   6.400000       -7.7624724E-09
   6.410000       -7.6745339E-09
   6.420000       -7.5738402E-09
   6.430000       -7.4599464E-09
   6.440000       -7.3324036E-09
   6.450000       -7.1907560E-09
   6.460000       -7.0345481E-09
   6.470000       -6.8633210E-09
   6.480000       -6.6766099E-09
   6.490000       -6.4739529E-09
   6.500000       -6.2548837E-09
   6.510000       -6.0189360E-09
   6.520000       -5.7656404E-09
   6.530000       -5.4945319E-09
   6.540000       -5.2051417E-09
   6.550000       -4.8970028E-09
   6.560000       -4.5696500E-09
   6.570000       -4.2226209E-09
   6.580000       -3.8554546E-09
   6.590000       -3.4676935E-09
   6.600000       -3.0588838E-09
   6.610000       -2.6285760E-09
   6.620000       -2.1763265E-09
   6.630000       -1.7016966E-09
   6.640000       -1.2042533E-09
   6.650000       -6.8357203E-10
   6.660000       -1.3923578E-10
   6.670000        4.2916487E-10
   6.680000        1.0220279E-09
   6.690000        1.6397431E-09
   6.700000        2.2826887E-09
   6.710000        2.9512310E-09
   6.720000        3.6457242E-09
   6.730000        4.3665076E-09
   6.740000        5.1139084E-09
   6.750000        5.8882357E-09
   6.760000        6.6897852E-09
   6.770000        7.5188353E-09
   6.780000        8.3756433E-09
   6.790000        9.2604520E-09
   6.800000        1.0173479E-08
   6.810000        1.1114929E-08
   6.820000        1.2084977E-08
   6.830000        1.3083776E-08
   6.840000        1.4111460E-08
   6.850000        1.5168133E-08
   6.860000        1.6253880E-08
   6.870000        1.7368748E-08
   6.880000        1.8512765E-08
   6.890000        1.9685926E-08
   6.900000        2.0888196E-08
   6.910000        2.2119512E-08
   6.920000        2.3379773E-08
   6.930000        2.4668847E-08
   6.940000        2.5986571E-08
   6.950000        2.7332737E-08
   6.960000        2.8707113E-08
   6.970000        3.0109423E-08
   6.980000        3.1539336E-08
   6.990000        3.2996510E-08
   7.000000        3.4480543E-08
   7.010000        3.5991000E-08
   7.020000        3.7527389E-08
   7.030000        3.9089191E-08
   7.040000        4.0675822E-08
   7.050000        4.2286672E-08
   7.060000        4.3921062E-08
   7.070000        4.5578282E-08
   7.080000        4.7257565E-08
   7.090000        4.8958089E-08
   7.100000        5.0678981E-08
   7.110000        5.2419317E-08
   7.120000        5.4178123E-08
   7.130000        5.5954377E-08
   7.140000        5.7746966E-08
   7.150000        5.9554768E-08
   7.160000        6.1376561E-08
   7.170000        6.3211104E-08
   7.180000        6.5057051E-08
   7.190000        6.6913046E-08
   7.200000        6.8777631E-08
   7.210000        7.0649286E-08
   7.220000        7.2526461E-08
   7.230000        7.4407531E-08
   7.240000        7.6290796E-08
   7.250000        7.8174487E-08
   7.260000        8.0056793E-08
   7.270000        8.1935802E-08
   7.280000        8.3809581E-08
   7.290000        8.5676106E-08
   7.300000        8.7533273E-08
   7.310000        8.9378929E-08
   7.320000        9.1210850E-08
   7.330000        9.3026735E-08
   7.340000        9.4824244E-08
   7.350000        9.6600935E-08
   7.360000        9.8354320E-08
   7.370000        1.0008183E-07
   7.380000        1.0178081E-07
   7.390000        1.0344860E-07
   7.400000        1.0508242E-07
   7.410000        1.0667942E-07
   7.420000        1.0823670E-07
   7.430000        1.0975130E-07
   7.440000        1.1122020E-07
   7.450000        1.1264028E-07
   7.460000        1.1400838E-07
   7.470000        1.1532125E-07
   7.480000        1.1657564E-07
   7.490000        1.1776820E-07
   7.500000        1.1889547E-07
   7.510000        1.1995400E-07
   7.520000        1.2094026E-07
   7.530000        1.2185066E-07
   7.540000        1.2268157E-07
   7.550000        1.2342926E-07
   7.560000        1.2408999E-07
   7.570000        1.2465998E-07
   7.580000        1.2513534E-07
   7.590000        1.2551219E-07
   7.600000        1.2578656E-07
   7.610000        1.2595450E-07
   7.620000        1.2601194E-07
   7.630000        1.2595486E-07
   7.640000        1.2577908E-07
   7.650000        1.2548055E-07
   7.660000        1.2505504E-07
   7.670000        1.2449838E-07
   7.680000        1.2380632E-07
   7.690000        1.2297461E-07
   7.700000        1.2199902E-07
   7.710000        1.2087524E-07
   7.720000        1.1959899E-07
   7.730000        1.1816599E-07
   7.740000        1.1657192E-07
   7.750000        1.1481244E-07
   7.760000        1.1288327E-07
   7.770000        1.1078011E-07
   7.780000        1.0849865E-07
   7.790000        1.0603464E-07
   7.800000        1.0338382E-07
   7.810000        1.0054192E-07
   7.820000        9.7504774E-08
   7.830000        9.4268188E-08
   7.840000        9.0828024E-08
   7.850000        8.7180176E-08
   7.860000        8.3320600E-08
   7.870000        7.9245325E-08
   7.880000        7.4950393E-08
   7.890000        7.0431923E-08
   7.900000        6.5686137E-08
   7.910000        6.0709262E-08
   7.920000        5.5497686E-08
   7.930000        5.0047809E-08
   7.940000        4.4356167E-08
   7.950000        3.8419369E-08
   7.960000        3.2234155E-08
   7.970000        2.5797355E-08
   7.980000        1.9105912E-08
   7.990000        1.2156891E-08
   8.000000        4.9475202E-09
   8.010000       -2.5248861E-09
   8.020000       -1.0262842E-08
   8.030000       -1.8268725E-08
   8.040000       -2.6544749E-08
   8.050000       -3.5092977E-08
   8.060000       -4.3915289E-08
   8.070000       -5.3013387E-08
   8.080000       -6.2388800E-08
   8.090000       -7.2042866E-08
   8.100000       -8.1976744E-08
   8.110000       -9.2191335E-08
   8.120000       -1.0268739E-07
   8.130000       -1.1346537E-07
   8.140000       -1.2452558E-07
   8.150000       -1.3586806E-07
   8.160000       -1.4749260E-07
   8.170000       -1.5939875E-07
   8.180000       -1.7158582E-07
   8.190000       -1.8405282E-07
   8.200000       -1.9679854E-07
   8.210000       -2.0982144E-07
   8.220000       -2.2311970E-07
   8.230000       -2.3669124E-07
   8.240000       -2.5053367E-07
   8.250000       -2.6464431E-07
   8.260000       -2.7902007E-07
   8.270000       -2.9365768E-07
   8.280000       -3.0855338E-07
   8.290000       -3.2370326E-07
   8.300000       -3.3910291E-07
   8.310000       -3.5474770E-07
   8.320000       -3.7063248E-07
   8.330000       -3.8675191E-07
   8.340000       -4.0310016E-07
   8.350000       -4.1967107E-07
   8.360000       -4.3645807E-07
   8.370000       -4.5345425E-07
   8.380000       -4.7065231E-07
   8.390000       -4.8804441E-07
   8.400000       -5.0562249E-07
   8.410000       -5.2337799E-07
   8.420000       -5.4130203E-07
   8.430000       -5.5938506E-07
   8.440000       -5.7761736E-07
   8.450000       -5.9598864E-07
   8.460000       -6.1448816E-07
   8.470000       -6.3310489E-07
   8.480000       -6.5182707E-07
   8.490000       -6.7064281E-07
   8.500000       -6.8953960E-07
   8.510000       -7.0850467E-07
   8.520000       -7.2752442E-07
   8.530000       -7.4658504E-07
   8.540000       -7.6567210E-07
   8.550000       -7.8477109E-07
   8.560000       -8.0386644E-07
   8.570000       -8.2294264E-07
   8.580000       -8.4198336E-07
   8.590000       -8.6097202E-07
   8.600000       -8.7989145E-07
   8.610000       -8.9872395E-07
   8.620000       -9.1745147E-07
   8.630000       -9.3605553E-07
   8.640000       -9.5451719E-07
   8.650000       -9.7281657E-07
   8.660000       -9.9093393E-07
   8.670000       -1.0088489E-06
   8.680000       -1.0265406E-06
   8.690000       -1.0439876E-06
   8.700000       -1.0611678E-06
   8.710000       -1.0780594E-06
   8.720000       -1.0946395E-06
   8.730000       -1.1108849E-06
   8.740000       -1.1267721E-06
   8.750000       -1.1422771E-06
   8.760000       -1.1573752E-06
   8.770000       -1.1720419E-06
   8.780000       -1.1862519E-06
   8.790000       -1.1999795E-06
   8.800000       -1.2131984E-06
   8.810000       -1.2258824E-06
   8.820000       -1.2380046E-06
   8.830000       -1.2495381E-06
   8.840000       -1.2604551E-06
   8.850000       -1.2707277E-06
   8.860000       -1.2803280E-06
   8.870000       -1.2892273E-06
   8.880000       -1.2973968E-06
   8.890000       -1.3048076E-06
   8.900000       -1.3114303E-06
   8.910000       -1.3172350E-06
   8.920000       -1.3221922E-06
   8.930000       -1.3262717E-06
   8.940000       -1.3294432E-06
   8.950000       -1.3316763E-06
   8.960000       -1.3329405E-06
   8.970000       -1.3332046E-06
   8.980000       -1.3324380E-06