 -0.1000000        2.7104047E-38
 -9.0000004E-02    8.1312003E-38
 -7.9999998E-02    1.3552038E-37
 -7.0000000E-02    1.8972989E-37
 -5.9999999E-02    2.4393884E-37
 -5.0000001E-02    2.9814719E-37
 -3.9999999E-02    3.5235332E-37
 -2.9999999E-02    4.0656283E-37
 -2.0000000E-02    4.6076895E-37
 -9.9999998E-03    5.1497732E-37
  0.0000000E+00    5.6918681E-37
  9.9999998E-03    6.2339410E-37
  2.0000000E-02    6.7760471E-37
  2.9999999E-02    7.3181537E-37
  3.9999999E-02    7.8602826E-37
  5.0000001E-02    8.4023892E-37
  5.9999999E-02    8.9444724E-37
  7.0000000E-02    9.4866014E-37
  7.9999998E-02    1.0028731E-36
  9.0000004E-02    1.0570770E-36
  0.1000000        1.1112853E-36
  0.1100000        1.1654892E-36
  0.1200000        1.2196930E-36
  0.1300000        1.2739015E-36
  0.1400000        1.3275762E-36
  0.1500000        1.2733317E-36
  0.1600000        1.1105213E-36
  0.1700000        7.5045829E-37
  0.1800000       -1.3609513E-37
  0.1900000       -2.3085399E-36
  0.2000000       -7.3995841E-36
  0.2100000       -1.8110007E-35
  0.2200000       -3.8742549E-35
  0.2300000       -7.4215668E-35
  0.2400000       -1.2574264E-34
  0.2500000       -1.7952284E-34
  0.2600000       -1.7862796E-34
  0.2700000        3.5030736E-35
  0.2800000        8.2906156E-34
  0.2900000        2.9659467E-33
  0.3000000        7.8938699E-33
  0.3100000        1.8166262E-32
  0.3200000        3.7994008E-32
  0.3300000        7.3848035E-32
  0.3400000        1.3498785E-31
  0.3500000        2.3359461E-31
  0.3600000        3.8400422E-31
  0.3700000        6.0037542E-31
  0.3800000        8.9185772E-31
  0.3900000        1.2542495E-30
  0.4000000        1.6571854E-30
  0.4100000        2.0262188E-30
  0.4200000        2.2199043E-30
  0.4300000        2.0030911E-30
  0.4400000        1.0191759E-30
  0.4500000       -1.2341201E-30
  0.4600000       -5.4190519E-30
  0.4700000       -1.2354497E-29
  0.4800000       -2.2986690E-29
  0.4900000       -3.8326686E-29
  0.5000000       -5.9350011E-29
  0.5100000       -8.6858923E-29
  0.5200000       -1.2131432E-28
  0.5300000       -1.6265293E-28
  0.5400000       -2.1011308E-28
  0.5500000       -2.6210043E-28
  0.5600000       -3.1612804E-28
  0.5700000       -3.6886448E-28
  0.5800000       -4.1631682E-28
  0.5900000       -4.5415913E-28
  0.6000000       -4.7819632E-28
  0.6100000       -4.8492817E-28
  0.6200000       -4.7214606E-28
  0.6300000       -4.3947290E-28
  0.6400000       -3.8873586E-28
  0.6500000       -3.2405671E-28
  0.6600000       -2.5155430E-28
  0.6700000       -1.7858547E-28
  0.6800000       -1.1249842E-28
  0.6900000       -5.8938981E-29
  0.7000000       -1.9822521E-29
  0.7100000        8.8380872E-30
  0.7200000        3.8995956E-29
  0.7300000        9.2230017E-29
  0.7400000        2.0069707E-28
  0.7500000        4.0710365E-28
  0.7600000        7.6349896E-28
  0.7700000        1.3288080E-27
  0.7800000        2.1651813E-27
  0.7900000        3.3333988E-27
  0.8000000        4.8877460E-27
  0.8100000        6.8709338E-27
  0.8200000        9.3097343E-27
  0.8300000        1.2212044E-26
  0.8400000        1.5566067E-26
  0.8500000        1.9342128E-26
  0.8600000        2.3497459E-26
  0.8700000        2.7983944E-26
  0.8800000        3.2758484E-26
  0.8900000        3.7795269E-26
  0.9000000        4.3098886E-26
  0.9100000        4.8716879E-26
  0.9200000        5.4750336E-26
  0.9300000        6.1360905E-26
  0.9400000        6.8772875E-26
  0.9500000        7.7269413E-26
  0.9600000        8.7182368E-26
  0.9700000        9.8875721E-26
  0.9800000        1.1272361E-25
  0.9900000        1.2908434E-25
   1.000000        1.4827262E-25
   1.010000        1.7053261E-25
   1.020000        1.9601453E-25
   1.030000        2.2475794E-25
   1.040000        2.5668385E-25
   1.050000        2.9159819E-25
   1.060000        3.2920677E-25
   1.070000        3.6914288E-25
   1.080000        4.1100538E-25
   1.090000        4.5440577E-25
   1.100000        4.9902089E-25
   1.110000        5.4464678E-25
   1.120000        5.9125021E-25
   1.130000        6.3901278E-25
   1.140000        6.8836298E-25
   1.150000        7.3999437E-25
   1.160000        7.9486552E-25
   1.170000        8.5418046E-25
   1.180000        9.1935092E-25
   1.190000        9.9193806E-25
   1.200000        1.0735801E-24
   1.210000        1.1659032E-24
   1.220000        1.2704231E-24
   1.230000        1.3884414E-24
   1.240000        1.5209395E-24
   1.250000        1.6684749E-24
   1.260000        1.8310882E-24
   1.270000        2.0082221E-24
   1.280000        2.1986624E-24
   1.290000        2.4005004E-24
   1.300000        2.6111322E-24
   1.310000        2.8272854E-24
   1.320000        3.0450924E-24
   1.330000        3.2601998E-24
   1.340000        3.4679173E-24
   1.350000        3.6634081E-24
   1.360000        3.8419001E-24
   1.370000        3.9989158E-24
   1.380000        4.1305002E-24
   1.390000        4.2334240E-24
   1.400000        4.3053334E-24
   1.410000        4.3448341E-24
   1.420000        4.3514877E-24
   1.430000        4.3257054E-24
   1.440000        4.2685674E-24
   1.450000        4.1815895E-24
   1.460000        4.0665724E-24
   1.470000        3.9256377E-24
   1.480000        3.7617270E-24
   1.490000        3.5798950E-24
   1.500000        3.3898935E-24
   1.510000        3.2107106E-24
   1.520000        3.0779031E-24
   1.530000        3.0548605E-24
   1.540000        3.2494183E-24
   1.550000        3.8375839E-24
   1.560000        5.0965065E-24
   1.570000        7.4493934E-24
   1.580000        1.1525478E-23
   1.590000        1.8238848E-23
   1.600000        2.8890601E-23
   1.610000        4.5299438E-23
   1.620000        6.9966863E-23
   1.630000        1.0628395E-22
   1.640000        1.5878734E-22
   1.650000        2.3347370E-22
   1.660000        3.3818285E-22
   1.670000        4.8306060E-22
   1.680000        6.8111402E-22
   1.690000        9.4887290E-22
   1.700000        1.3071738E-21
   1.710000        1.7820786E-21
   1.720000        2.4059536E-21
   1.730000        3.2187256E-21
   1.740000        4.2693211E-21
   1.750000        5.6173407E-21
   1.760000        7.3349441E-21
   1.770000        9.5090551E-21
   1.780000        1.2243802E-20
   1.790000        1.5663277E-20
   1.800000        1.9914653E-20
   1.810000        2.5171704E-20
   1.820000        3.1638647E-20
   1.830000        3.9554387E-20
   1.840000        4.9197407E-20
   1.850000        6.0890846E-20
   1.860000        7.5008260E-20
   1.870000        9.1979751E-20
   1.880000        1.1229884E-19
   1.890000        1.3652986E-19
   1.900000        1.6531544E-19
   1.910000        1.9938549E-19
   1.920000        2.3956593E-19
   1.930000        2.8678827E-19
   1.940000        3.4209990E-19
   1.950000        4.0667508E-19
   1.960000        4.8182568E-19
   1.970000        5.6901310E-19
   1.980000        6.6986296E-19
   1.990000        7.8617355E-19
   2.000000        9.1993165E-19
   2.010000        1.0733277E-18
   2.020000        1.2487664E-18
   2.030000        1.4488836E-18
   2.040000        1.6765585E-18
   2.050000        1.9349277E-18
   2.060000        2.2274020E-18
   2.070000        2.5576807E-18
   2.080000        2.9297612E-18
   2.090000        3.3479544E-18
   2.100000        3.8169017E-18
   2.110000        4.3415770E-18
   2.120000        4.9273077E-18
   2.130000        5.5797774E-18
   2.140000        6.3050448E-18
   2.150000        7.1095322E-18
   2.160000        8.0000475E-18
   2.170000        8.9837778E-18
   2.180000        1.0068303E-17
   2.190000        1.1261581E-17
   2.200000        1.2571943E-17
   2.210000        1.4008097E-17
   2.220000        1.5579108E-17
   2.230000        1.7294404E-17
   2.240000        1.9163720E-17
   2.250000        2.1197110E-17
   2.260000        2.3404915E-17
   2.270000        2.5797725E-17
   2.280000        2.8386317E-17
   2.290000        3.1181731E-17
   2.300000        3.4195028E-17
   2.310000        3.7437457E-17
   2.320000        4.0920215E-17
   2.330000        4.4654482E-17
   2.340000        4.8651342E-17
   2.350000        5.2921811E-17
   2.360000        5.7476486E-17
   2.370000        6.2325723E-17
   2.380000        6.7479383E-17
   2.390000        7.2946881E-17
   2.400000        7.8736907E-17
   2.410000        8.4857508E-17
   2.420000        9.1315803E-17
   2.430000        9.8118047E-17
   2.440000        1.0526918E-16
   2.450000        1.1277316E-16
   2.460000        1.2063243E-16
   2.470000        1.2884791E-16
   2.480000        1.3741892E-16
   2.490000        1.4634289E-16
   2.500000        1.5561536E-16
   2.510000        1.6522983E-16
   2.520000        1.7517739E-16
   2.530000        1.8544675E-16
   2.540000        1.9602422E-16
   2.550000        2.0689317E-16
   2.560000        2.1803421E-16
   2.570000        2.2942472E-16
   2.580000        2.4103892E-16
   2.590000        2.5284786E-16
   2.600000        2.6481890E-16
   2.610000        2.7691580E-16
   2.620000        2.8909891E-16
   2.630000        3.0132419E-16
   2.640000        3.1354412E-16
   2.650000        3.2570656E-16
   2.660000        3.3775595E-16
   2.670000        3.4963159E-16
   2.680000        3.6126924E-16
   2.690000        3.7259987E-16
   2.700000        3.8355012E-16
   2.710000        3.9404272E-16
   2.720000        4.0399554E-16
   2.730000        4.1332241E-16
   2.740000        4.2193234E-16
   2.750000        4.2973033E-16
   2.760000        4.3661759E-16
   2.770000        4.4249091E-16
   2.780000        4.4724351E-16
   2.790000        4.5076499E-16
   2.800000        4.5294076E-16
   2.810000        4.5365348E-16
   2.820000        4.5278204E-16
   2.830000        4.5020331E-16
   2.840000        4.4579085E-16
   2.850000        4.3941650E-16
   2.860000        4.3094972E-16
   2.870000        4.2025820E-16
   2.880000        4.0720857E-16
   2.890000        3.9166682E-16
   2.900000        3.7349759E-16
   2.910000        3.5256616E-16
   2.920000        3.2873759E-16
   2.930000        3.0187735E-16
   2.940000        2.7185234E-16
   2.950000        2.3853112E-16
   2.960000        2.0178313E-16
   2.970000        1.6148081E-16
   2.980000        1.1749884E-16
   2.990000        6.9714868E-17
   3.000000        1.8009710E-17
   3.010000       -3.7732750E-17
   3.020000       -9.7624776E-17
   3.030000       -1.6177465E-16
   3.040000       -2.3028692E-16
   3.050000       -3.0326183E-16
   3.060000       -3.8079618E-16
   3.070000       -4.6298339E-16
   3.080000       -5.4991221E-16
   3.090000       -6.4166917E-16
   3.100000       -7.3833686E-16
   3.110000       -8.3999770E-16
   3.120000       -9.4673105E-16
   3.130000       -1.0586169E-15
   3.140000       -1.1757346E-15
   3.150000       -1.2981651E-15
   3.160000       -1.4259954E-15
   3.170000       -1.5593139E-15
   3.180000       -1.6982178E-15
   3.190000       -1.8428129E-15
   3.200000       -1.9932172E-15
   3.210000       -2.1495617E-15
   3.220000       -2.3119940E-15
   3.230000       -2.4806825E-15
   3.240000       -2.6558218E-15
   3.250000       -2.8376328E-15
   3.260000       -3.0263663E-15
   3.270000       -3.2223173E-15
   3.280000       -3.4258169E-15
   3.290000       -3.6372421E-15
   3.300000       -3.8570259E-15
   3.310000       -4.0856660E-15
   3.320000       -4.3237229E-15
   3.330000       -4.5718366E-15
   3.340000       -4.8307183E-15
   3.350000       -5.1011890E-15
   3.360000       -5.3841505E-15
   3.370000       -5.6806235E-15
   3.380000       -5.9917472E-15
   3.390000       -6.3187989E-15
   3.400000       -6.6631843E-15
   3.410000       -7.0264780E-15
   3.420000       -7.4104177E-15
   3.430000       -7.8169113E-15
   3.440000       -8.2480689E-15
   3.450000       -8.7062171E-15
   3.460000       -9.1939040E-15
   3.470000       -9.7139102E-15
   3.480000       -1.0269293E-14
   3.490000       -1.0863364E-14
   3.500000       -1.1499750E-14
   3.510000       -1.2182379E-14
   3.520000       -1.2915513E-14
   3.530000       -1.3703776E-14
   3.540000       -1.4552162E-14
   3.550000       -1.5466068E-14
   3.560000       -1.6451323E-14
   3.570000       -1.7514175E-14
   3.580000       -1.8661379E-14
   3.590000       -1.9900148E-14
   3.600000       -2.1238243E-14
   3.610000       -2.2683954E-14
   3.620000       -2.4246171E-14
   3.630000       -2.5934375E-14
   3.640000       -2.7758662E-14
   3.650000       -2.9729803E-14
   3.660000       -3.1859284E-14
   3.670000       -3.4159297E-14
   3.680000       -3.6642747E-14
   3.690000       -3.9323369E-14
   3.700000       -4.2215716E-14
   3.710000       -4.5335189E-14
   3.720000       -4.8698045E-14
   3.730000       -5.2321462E-14
   3.740000       -5.6223614E-14
   3.750000       -6.0423549E-14
   3.760000       -6.4941433E-14
   3.770000       -6.9798327E-14
   3.780000       -7.5016579E-14
   3.790000       -8.0619512E-14
   3.800000       -8.6631630E-14
   3.810000       -9.3078499E-14
   3.820000       -9.9987117E-14
   3.830000       -1.0738554E-13
   3.840000       -1.1530309E-13
   3.850000       -1.2377047E-13
   3.860000       -1.3281963E-13
   3.870000       -1.4248394E-13
   3.880000       -1.5279801E-13
   3.890000       -1.6379803E-13
   3.900000       -1.7552156E-13
   3.910000       -1.8800761E-13
   3.920000       -2.0129626E-13
   3.930000       -2.1542954E-13
   3.940000       -2.3045102E-13
   3.950000       -2.4640541E-13
   3.960000       -2.6333932E-13
   3.970000       -2.8130048E-13
   3.980000       -3.0033826E-13
   3.990000       -3.2050363E-13
   4.000000       -3.4184922E-13
   4.010000       -3.6442851E-13
   4.020000       -3.8829755E-13
   4.030000       -4.1351292E-13
   4.040000       -4.4013285E-13
   4.050000       -4.6821737E-13
   4.060000       -4.9782796E-13
   4.070000       -5.2902696E-13
   4.080000       -5.6187845E-13
   4.090000       -5.9644764E-13
   4.100000       -6.3280094E-13
   4.110000       -6.7100595E-13
   4.120000       -7.1113086E-13
   4.130000       -7.5324648E-13
   4.140000       -7.9742322E-13
   4.150000       -8.4373247E-13
   4.160000       -8.9224721E-13
   4.170000       -9.4304024E-13
   4.180000       -9.9618469E-13
   4.190000       -1.0517566E-12
   4.200000       -1.1098286E-12
   4.210000       -1.1704754E-12
   4.220000       -1.2337725E-12
   4.230000       -1.2997943E-12
   4.240000       -1.3686155E-12
   4.250000       -1.4403109E-12
   4.260000       -1.5149534E-12
   4.270000       -1.5926137E-12
   4.280000       -1.6733657E-12
   4.290000       -1.7572779E-12
   4.300000       -1.8444204E-12
   4.310000       -1.9348620E-12
   4.320000       -2.0286665E-12
   4.330000       -2.1258965E-12
   4.340000       -2.2266121E-12
   4.350000       -2.3308733E-12
   4.360000       -2.4387339E-12
   4.370000       -2.5502465E-12
   4.380000       -2.6654564E-12
   4.390000       -2.7844105E-12
   4.400000       -2.9071463E-12
   4.410000       -3.0336985E-12
   4.420000       -3.1640990E-12
   4.430000       -3.2983709E-12
   4.440000       -3.4365312E-12
   4.450000       -3.5785942E-12
   4.460000       -3.7245641E-12
   4.470000       -3.8744381E-12
   4.480000       -4.0282057E-12
   4.490000       -4.1858513E-12
   4.500000       -4.3473510E-12
   4.510000       -4.5126658E-12
   4.520000       -4.6817567E-12
   4.530000       -4.8545612E-12
   4.540000       -5.0310259E-12
   4.550000       -5.2110594E-12
   4.560000       -5.3945837E-12
   4.570000       -5.5815001E-12
   4.580000       -5.7716887E-12
   4.590000       -5.9650271E-12
   4.600000       -6.1613770E-12
   4.610000       -6.3605744E-12
   4.620000       -6.5624602E-12
   4.630000       -6.7668449E-12
   4.640000       -6.9735177E-12
   4.650000       -7.1822756E-12
   4.660000       -7.3928736E-12
   4.670000       -7.6050511E-12
   4.680000       -7.8185392E-12
   4.690000       -8.0330438E-12
   4.700000       -8.2482502E-12
   4.710000       -8.4638199E-12
   4.720000       -8.6794088E-12
   4.730000       -8.8946290E-12
   4.740000       -9.1090833E-12
   4.750000       -9.3223372E-12
   4.760000       -9.5339561E-12
   4.770000       -9.7434526E-12
   4.780000       -9.9503357E-12
   4.790000       -1.0154077E-11
   4.800000       -1.0354117E-11
   4.810000       -1.0549894E-11
   4.820000       -1.0740788E-11
   4.830000       -1.0926170E-11
   4.840000       -1.1105371E-11
   4.850000       -1.1277694E-11
   4.860000       -1.1442419E-11
   4.870000       -1.1598794E-11
   4.880000       -1.1746023E-11
   4.890000       -1.1883307E-11
   4.900000       -1.2009786E-11
   4.910000       -1.2124584E-11
   4.920000       -1.2226772E-11
   4.930000       -1.2315413E-11
   4.940000       -1.2389533E-11
   4.950000       -1.2448108E-11
   4.960000       -1.2490091E-11
   4.970000       -1.2514411E-11
   4.980000       -1.2519945E-11
   4.990000       -1.2505547E-11
   5.000000       -1.2470028E-11
   5.010000       -1.2412174E-11
   5.020000       -1.2330724E-11
   5.030000       -1.2224393E-11
   5.040000       -1.2091874E-11
   5.050000       -1.1931795E-11
   5.060000       -1.1742788E-11
   5.070000       -1.1523423E-11
   5.080000       -1.1272248E-11
   5.090000       -1.0987776E-11
   5.100000       -1.0668483E-11
   5.110000       -1.0312833E-11
   5.120000       -9.9192460E-12
   5.130000       -9.4861176E-12
   5.140000       -9.0118165E-12
   5.150000       -8.4946728E-12
   5.160000       -7.9330049E-12
   5.170000       -7.3250971E-12
   5.180000       -6.6692212E-12
   5.190000       -5.9636016E-12
   5.200000       -5.2064707E-12
   5.210000       -4.3960243E-12
   5.220000       -3.5304426E-12
   5.230000       -2.6079093E-12
   5.240000       -1.6265630E-12
   5.250000       -5.8454717E-13
   5.260000        5.2000597E-13
   5.270000        1.6889725E-12
   5.280000        2.9242314E-12
   5.290000        4.2276668E-12
   5.300000        5.6011667E-12
   5.310000        7.0466077E-12
   5.320000        8.5658702E-12
   5.330000        1.0160824E-11
   5.340000        1.1833319E-11
   5.350000        1.3585202E-11
   5.360000        1.5418306E-11
   5.370000        1.7334424E-11
   5.380000        1.9335334E-11
   5.390000        2.1422782E-11
   5.400000        2.3598493E-11
   5.410000        2.5864146E-11
   5.420000        2.8221359E-11
   5.430000        3.0671760E-11
   5.440000        3.3216884E-11
   5.450000        3.5858188E-11
   5.460000        3.8597125E-11
   5.470000        4.1435067E-11
   5.480000        4.4373300E-11
   5.490000        4.7413067E-11
   5.500000        5.0555494E-11
   5.510000        5.3801654E-11
   5.520000        5.7152533E-11
   5.530000        6.0608990E-11
   5.540000        6.4171807E-11
   5.550000        6.7841642E-11
   5.560000        7.1619051E-11
   5.570000        7.5504519E-11
   5.580000        7.9498304E-11
   5.590000        8.3600647E-11
   5.600000        8.7811515E-11
   5.610000        9.2130879E-11
   5.620000        9.6558456E-11
   5.630000        1.0109385E-10
   5.640000        1.0573641E-10
   5.650000        1.1048553E-10
   5.660000        1.1534024E-10
   5.670000        1.2029940E-10
   5.680000        1.2536169E-10
   5.690000        1.3052566E-10
   5.700000        1.3578964E-10
   5.710000        1.4115162E-10
   5.720000        1.4660960E-10
   5.730000        1.5216119E-10
   5.740000        1.5780376E-10
   5.750000        1.6353448E-10
   5.760000        1.6935017E-10
   5.770000        1.7524762E-10
   5.780000        1.8122309E-10
   5.790000        1.8727288E-10
   5.800000        1.9339280E-10
   5.810000        1.9957826E-10
   5.820000        2.0582468E-10
   5.830000        2.1212698E-10
   5.840000        2.1847983E-10
   5.850000        2.2487777E-10
   5.860000        2.3131429E-10
   5.870000        2.3778346E-10
   5.880000        2.4427893E-10
   5.890000        2.5079358E-10
   5.900000        2.5731989E-10
   5.910000        2.6385033E-10
   5.920000        2.7037675E-10
   5.930000        2.7689104E-10
   5.940000        2.8338432E-10
   5.950000        2.8984729E-10
   5.960000        2.9627073E-10
   5.970000        3.0264494E-10
   5.980000        3.0895916E-10
   5.990000        3.1520322E-10
   6.000000        3.2136566E-10
   6.010000        3.2743538E-10
   6.020000        3.3340053E-10
   6.030000        3.3924888E-10
   6.040000        3.4496764E-10
   6.050000        3.5054415E-10
   6.060000        3.5596462E-10
   6.070000        3.6121534E-10
   6.080000        3.6628217E-10
   6.090000        3.7115003E-10
   6.100000        3.7580461E-10
   6.110000        3.8022996E-10
   6.120000        3.8441017E-10
   6.130000        3.8832898E-10
   6.140000        3.9196960E-10
   6.150000        3.9531542E-10
   6.160000        3.9834838E-10
   6.170000        4.0105133E-10
   6.180000        4.0340561E-10
   6.190000        4.0539236E-10
   6.200000        4.0699277E-10
   6.210000        4.0818773E-10
   6.220000        4.0895728E-10
   6.230000        4.0928180E-10
   6.240000        4.0914042E-10
   6.250000        4.0851258E-10
   6.260000        4.0737730E-10
   6.270000        4.0571360E-10
   6.280000        4.0349921E-10
   6.290000        4.0071221E-10
   6.300000        3.9733097E-10
   6.310000        3.9333273E-10
   6.320000        3.8869460E-10
   6.330000        3.8339426E-10
   6.340000        3.7740808E-10
   6.350000        3.7071321E-10
   6.360000        3.6328582E-10
   6.370000        3.5510250E-10
   6.380000        3.4613953E-10
   6.390000        3.3637296E-10
   6.400000        3.2577954E-10
   6.410000        3.1433459E-10
   6.420000        3.0201452E-10
   6.430000        2.8879515E-10
   6.440000        2.7465269E-10
   6.450000        2.5956320E-10
   6.460000        2.4350283E-10
   6.470000        2.2644793E-10
   6.480000        2.0837473E-10
   6.490000        1.8925987E-10
   6.500000        1.6908036E-10
   6.510000        1.4781346E-10
   6.520000        1.2543594E-10
   6.530000        1.0192559E-10
   6.540000        7.7260358E-11
   6.550000        5.1418699E-11
   6.560000        2.4379271E-11
   6.570000       -3.8786127E-12
   6.580000       -3.3375219E-11
   6.590000       -6.4130361E-11
   6.600000       -9.6163175E-11
   6.610000       -1.2949213E-10
   6.620000       -1.6413508E-10
   6.630000       -2.0010921E-10
   6.640000       -2.3743083E-10
   6.650000       -2.7611557E-10
   6.660000       -3.1617794E-10
   6.670000       -3.5763190E-10
   6.680000       -4.0049045E-10
   6.690000       -4.4476495E-10
   6.700000       -4.9046672E-10
   6.710000       -5.3760529E-10
   6.720000       -5.8618921E-10
   6.730000       -6.3622585E-10
   6.740000       -6.8772110E-10
   6.750000       -7.4067985E-10
   6.760000       -7.9510520E-10
   6.770000       -8.5099922E-10
   6.780000       -9.0836283E-10
   6.790000       -9.6719455E-10
   6.800000       -1.0274913E-09
   6.810000       -1.0892496E-09
   6.820000       -1.1524632E-09
   6.830000       -1.2171244E-09
   6.840000       -1.2832240E-09
   6.850000       -1.3507503E-09
   6.860000       -1.4196895E-09
   6.870000       -1.4900259E-09
   6.880000       -1.5617437E-09
   6.890000       -1.6348221E-09
   6.900000       -1.7092403E-09
   6.910000       -1.7849744E-09
   6.920000       -1.8619968E-09
   6.930000       -1.9402804E-09
   6.940000       -2.0197946E-09
   6.950000       -2.1005058E-09
   6.960000       -2.1823794E-09
   6.970000       -2.2653754E-09
   6.980000       -2.3494537E-09
   6.990000       -2.4345699E-09
   7.000000       -2.5206794E-09
   7.010000       -2.6077331E-09
   7.020000       -2.6956790E-09
   7.030000       -2.7844609E-09
   7.040000       -2.8740246E-09
   7.050000       -2.9643081E-09
   7.060000       -3.0552487E-09
   7.070000       -3.1467797E-09
   7.080000       -3.2388319E-09
   7.090000       -3.3313321E-09
   7.100000       -3.4242060E-09
   7.110000       -3.5173753E-09
   7.120000       -3.6107579E-09
   7.130000       -3.7042687E-09
   7.140000       -3.7978198E-09
   7.150000       -3.8913184E-09
   7.160000       -3.9846682E-09
   7.170000       -4.0777719E-09
   7.180000       -4.1705266E-09
   7.190000       -4.2628341E-09
   7.200000       -4.3545816E-09
   7.210000       -4.4456572E-09
   7.220000       -4.5359472E-09
   7.230000       -4.6253339E-09
   7.240000       -4.7136930E-09
   7.250000       -4.8008997E-09
   7.260000       -4.8868252E-09
   7.270000       -4.9713416E-09
   7.280000       -5.0543107E-09
   7.290000       -5.1355928E-09
   7.300000       -5.2150493E-09
   7.310000       -5.2925353E-09
   7.320000       -5.3679012E-09
   7.330000       -5.4409894E-09
   7.340000       -5.5116494E-09
   7.350000       -5.5797291E-09
   7.360000       -5.6450586E-09
   7.370000       -5.7074776E-09
   7.380000       -5.7668208E-09
   7.390000       -5.8229142E-09
   7.400000       -5.8755840E-09
   7.410000       -5.9246634E-09
   7.420000       -5.9699632E-09
   7.430000       -6.0113057E-09
   7.440000       -6.0485110E-09
   7.450000       -6.0813918E-09
   7.460000       -6.1097563E-09
   7.470000       -6.1334133E-09
   7.480000       -6.1521681E-09
   7.490000       -6.1658274E-09
   7.500000       -6.1741985E-09
   7.510000       -6.1770726E-09
   7.520000       -6.1742571E-09
   7.530000       -6.1655441E-09
   7.540000       -6.1507368E-09
   7.550000       -6.1296226E-09
   7.560000       -6.1019976E-09
   7.570000       -6.0676566E-09
   7.580000       -6.0263892E-09
   7.590000       -5.9779848E-09
   7.600000       -5.9222365E-09
   7.610000       -5.8589298E-09
   7.620000       -5.7878577E-09
   7.630000       -5.7088081E-09
   7.640000       -5.6215756E-09
   7.650000       -5.5259526E-09
   7.660000       -5.4217235E-09
   7.670000       -5.3086819E-09
   7.680000       -5.1866205E-09
   7.690000       -5.0553335E-09
   7.700000       -4.9146172E-09
   7.710000       -4.7642761E-09
   7.720000       -4.6041033E-09
   7.730000       -4.4338986E-09
   7.740000       -4.2534638E-09
   7.750000       -4.0626138E-09
   7.760000       -3.8611554E-09
   7.770000       -3.6489001E-09
   7.780000       -3.4256626E-09
   7.790000       -3.1912715E-09
   7.800000       -2.9455423E-09
   7.810000       -2.6883085E-09
   7.820000       -2.4194016E-09
   7.830000       -2.1386624E-09
   7.840000       -1.8459337E-09
   7.850000       -1.5410627E-09
   7.860000       -1.2239092E-09
   7.870000       -8.9433205E-10
   7.880000       -5.5219834E-10
   7.890000       -1.9738206E-10
   7.900000        1.7023258E-10
   7.910000        5.5075572E-10
   7.920000        9.4429098E-10
   7.930000        1.3509320E-09
   7.940000        1.7707663E-09
   7.950000        2.2038720E-09
   7.960000        2.6503162E-09
   7.970000        3.1101572E-09
   7.980000        3.5834440E-09
   7.990000        4.0702153E-09
   8.000000        4.5704986E-09
   8.010000        5.0843112E-09
   8.020000        5.6116582E-09
   8.030000        6.1525345E-09
   8.040000        6.7069208E-09
   8.050000        7.2747874E-09
   8.060000        7.8560909E-09
   8.070000        8.4507787E-09
   8.080000        9.0587768E-09
   8.090000        9.6800035E-09
   8.100000        1.0314365E-08
   8.110000        1.0961744E-08
   8.120000        1.1622020E-08
   8.130000        1.2295051E-08
   8.140000        1.2980672E-08
   8.150000        1.3678720E-08
   8.160000        1.4389002E-08
   8.170000        1.5111317E-08
   8.180000        1.5845439E-08
   8.190000        1.6591121E-08
   8.200000        1.7348114E-08
   8.210000        1.8116149E-08
   8.220000        1.8894928E-08
   8.230000        1.9684142E-08
   8.240000        2.0483453E-08
   8.250000        2.1292538E-08
   8.260000        2.2111015E-08
   8.270000        2.2938487E-08
   8.280000        2.3774561E-08
   8.290000        2.4618794E-08
   8.300000        2.5470760E-08
   8.310000        2.6329987E-08
   8.320000        2.7195982E-08
   8.330000        2.8068239E-08
   8.340000        2.8946225E-08
   8.350000        2.9829412E-08
   8.360000        3.0717182E-08
   8.370000        3.1608984E-08
   8.380000        3.2504200E-08
   8.390000        3.3402188E-08
   8.400000        3.4302278E-08
   8.410000        3.5203822E-08
   8.420000        3.6106094E-08
   8.430000        3.7008377E-08
   8.440000        3.7909942E-08
   8.450000        3.8809972E-08
   8.460000        3.9707700E-08
   8.470000        4.0602309E-08
   8.480000        4.1492985E-08
   8.490000        4.2378868E-08
   8.500000        4.3259064E-08
   8.510000        4.4132683E-08
   8.520000        4.4998774E-08
   8.530000        4.5856439E-08
   8.540000        4.6704692E-08
   8.550000        4.7542525E-08
   8.560000        4.8368989E-08
   8.570000        4.9182994E-08
   8.580000        4.9983530E-08
   8.590000        5.0769515E-08
   8.600000        5.1539832E-08
   8.610000        5.2293384E-08
   8.620000        5.3029073E-08
   8.630000        5.3745683E-08
   8.640000        5.4442097E-08
   8.650000        5.5117120E-08
   8.660000        5.5769561E-08
   8.670000        5.6398168E-08
   8.680000        5.7001692E-08
   8.690000        5.7578909E-08
   8.700000        5.8128503E-08
   8.710000        5.8649242E-08
   8.720000        5.9139786E-08
   8.730000        5.9598772E-08
   8.740000        6.0024973E-08
   8.750000        6.0417022E-08
   8.760000        6.0773537E-08
   8.770000        6.1093111E-08
   8.780000        6.1374422E-08
   8.790000        6.1616056E-08
   8.800000        6.1816628E-08
   8.810000        6.1974710E-08
   8.820000        6.2088901E-08
   8.830000        6.2157717E-08
   8.840000        6.2179872E-08
   8.850000        6.2153809E-08
   8.860000        6.2078165E-08
   8.870000        6.1951447E-08
   8.880000        6.1772269E-08
   8.890000        6.1539104E-08
   8.900000        6.1250603E-08
   8.910000        6.0905307E-08
   8.920000        6.0501797E-08
   8.930000        6.0038630E-08
   8.940000        5.9514289E-08
   8.950000        5.8927490E-08
   8.960000        5.8276733E-08
   8.970000        5.7560641E-08
   8.980000        5.6777896E-08