 -0.1000000        2.7103906E-38
 -9.0000004E-02    8.1312563E-38
 -7.9999998E-02    1.3552095E-37
 -7.0000000E-02    1.8973160E-37
 -5.9999999E-02    2.4394221E-37
 -5.0000001E-02    2.9815286E-37
 -3.9999999E-02    3.5236235E-37
 -2.9999999E-02    4.0657188E-37
 -2.0000000E-02    4.6078478E-37
 -9.9999998E-03    5.1498409E-37
  0.0000000E+00    5.6919246E-37
  9.9999998E-03    6.2339634E-37
  2.0000000E-02    6.7760023E-37
  2.9999999E-02    7.3179958E-37
  3.9999999E-02    7.8600790E-37
  5.0000001E-02    8.4021632E-37
  5.9999999E-02    8.9441558E-37
  7.0000000E-02    9.4862399E-37
  7.9999998E-02    1.0028143E-36
  9.0000004E-02    1.0570136E-36
  0.1000000        1.1112039E-36
  0.1100000        1.1653942E-36
  0.1200000        1.2195845E-36
  0.1300000        1.2737747E-36
  0.1400000        1.3279741E-36
  0.1500000        1.3821644E-36
  0.1600000        1.4363548E-36
  0.1700000        1.4905451E-36
  0.1800000        1.5447444E-36
  0.1900000        1.5989256E-36
  0.2000000        1.6531248E-36
  0.2100000        1.7073243E-36
  0.2200000        1.7615056E-36
  0.2300000        1.8157047E-36
  0.2400000        1.8698860E-36
  0.2500000        1.9241036E-36
  0.2600000        1.9782847E-36
  0.2700000        2.0324842E-36
  0.2800000        2.0866835E-36
  0.2900000        2.1408646E-36
  0.3000000        2.1950640E-36
  0.3100000        2.2492454E-36
  0.3200000        2.3034446E-36
  0.3300000        2.3576441E-36
  0.3400000        2.4118254E-36
  0.3500000        2.4660245E-36
  0.3600000        2.5202058E-36
  0.3700000        2.5744051E-36
  0.3800000        2.6286045E-36
  0.3900000        2.6827855E-36
  0.4000000        2.7369851E-36
  0.4100000        2.7911752E-36
  0.4200000        2.8453655E-36
  0.4300000        2.8995740E-36
  0.4400000        2.9537822E-36
  0.4500000        3.0079547E-36
  0.4600000        3.0621448E-36
  0.4700000        3.1163622E-36
  0.4800000        3.1705437E-36
  0.4900000        3.2247249E-36
  0.5000000        3.2789060E-36
  0.5100000        3.3331234E-36
  0.5200000        3.3873049E-36
  0.5300000        3.4414857E-36
  0.5400000        3.4957035E-36
  0.5500000        3.5498846E-36
  0.5600000        3.6059107E-36
  0.5700000        3.6249357E-36
  0.5800000        3.7175281E-36
  0.5900000        3.8674489E-36
  0.6000000        3.9621395E-36
  0.6100000        4.1120240E-36
  0.6200000        4.3171752E-36
  0.6300000        4.5223622E-36
  0.6400000        4.7477678E-36
  0.6500000        5.0076963E-36
  0.6600000        5.2972483E-36
  0.6700000        5.6604035E-36
  0.6800000        6.2174611E-36
  0.6900000        7.0065619E-36
  0.7000000        7.8162238E-36
  0.7100000        8.6376780E-36
  0.7200000        9.4190194E-36
  0.7300000        9.8837379E-36
  0.7400000        9.8614219E-36
  0.7500000        9.1617674E-36
  0.7600000        7.8136926E-36
  0.7700000        5.9781852E-36
  0.7800000        4.1975458E-36
  0.7900000        3.5771199E-36
  0.8000000        5.3431829E-36
  0.8100000        1.0786157E-35
  0.8200000        2.1098931E-35
  0.8300000        3.6478124E-35
  0.8400000        5.5519396E-35
  0.8500000        7.5148579E-35
  0.8600000        9.0432428E-35
  0.8700000        9.4841789E-35
  0.8800000        8.2000684E-35
  0.8900000        4.6603834E-35
  0.9000000       -1.2371989E-35
  0.9100000       -8.7760279E-35
  0.9200000       -1.6448551E-34
  0.9300000       -2.2010487E-34
  0.9400000       -2.2605987E-34
  0.9500000       -1.5275185E-34
  0.9600000        1.9102443E-35
  0.9700000        2.9019186E-34
  0.9800000        6.3541306E-34
  0.9900000        9.9409950E-34
   1.000000        1.2764734E-33
   1.010000        1.3771443E-33
   1.020000        1.1957892E-33
   1.030000        6.6338404E-34
   1.040000       -2.2385263E-34
   1.050000       -1.3725111E-33
   1.060000       -2.5838301E-33
   1.070000       -3.5713293E-33
   1.080000       -3.9991313E-33
   1.090000       -3.5485008E-33
   1.100000       -2.0079997E-33
   1.110000        6.3968249E-34
   1.120000        4.1474986E-33
   1.130000        7.9801446E-33
   1.140000        1.1351343E-32
   1.150000        1.3345371E-32
   1.160000        1.3093987E-32
   1.170000        9.9890799E-33
   1.180000        3.8891102E-33
   1.190000       -4.7170726E-33
   1.200000       -1.4668374E-32
   1.210000       -2.4223368E-32
   1.220000       -3.1286864E-32
   1.230000       -3.3765073E-32
   1.240000       -2.9991528E-32
   1.250000       -1.9138977E-32
   1.260000       -1.5344940E-33
   1.270000        2.1165829E-32
   1.280000        4.6057514E-32
   1.290000        6.9284924E-32
   1.300000        8.6537708E-32
   1.310000        9.3707835E-32
   1.320000        8.7577227E-32
   1.330000        6.6458477E-32
   1.340000        3.0696862E-32
   1.350000       -1.7051579E-32
   1.360000       -7.1812302E-32
   1.370000       -1.2658212E-31
   1.380000       -1.7288563E-31
   1.390000       -2.0159065E-31
   1.400000       -2.0397258E-31
   1.410000       -1.7295303E-31
   1.420000       -1.0444415E-31
   1.430000        1.3547437E-33
   1.440000        1.3885667E-31
   1.450000        2.9639641E-31
   1.460000        4.5621255E-31
   1.470000        5.9533758E-31
   1.480000        6.8752981E-31
   1.490000        7.0629366E-31
   1.500000        6.2887547E-31
   1.510000        4.4085933E-31
   1.520000        1.4077512E-31
   1.530000       -2.5595550E-31
   1.540000       -7.1464099E-31
   1.550000       -1.1813246E-30
   1.560000       -1.5857129E-30
   1.570000       -1.8475027E-30
   1.580000       -1.8859940E-30
   1.590000       -1.6323876E-30
   1.600000       -1.0435637E-30
   1.610000       -1.1556410E-31
   1.620000        1.1052293E-30
   1.630000        2.5157885E-30
   1.640000        3.9573704E-30
   1.650000        5.2253553E-30
   1.660000        6.0889682E-30
   1.670000        6.3207223E-30
   1.680000        5.7332437E-30
   1.690000        4.2195553E-30
   1.700000        1.7914526E-30
   1.710000       -1.3909144E-30
   1.720000       -5.0051470E-30
   1.730000       -8.5750421E-30
   1.740000       -1.1505243E-29
   1.750000       -1.3142803E-29
   1.760000       -1.2862597E-29
   1.770000       -1.0167555E-29
   1.780000       -4.7920647E-30
   1.790000        3.2079169E-30
   1.800000        1.3394390E-29
   1.810000        2.4932653E-29
   1.820000        3.6632485E-29
   1.830000        4.7051705E-29
   1.840000        5.4656802E-29
   1.850000        5.8026145E-29
   1.860000        5.6074359E-29
   1.870000        4.8270536E-29
   1.880000        3.4814623E-29
   1.890000        1.6743060E-29
   1.900000       -4.0621030E-30
   1.910000       -2.4977310E-29
   1.920000       -4.2859461E-29
   1.930000       -5.4371181E-29
   1.940000       -5.6379210E-29
   1.950000       -4.6395719E-29
   1.960000       -2.3002275E-29
   1.970000        1.3790275E-29
   1.980000        6.2304670E-29
   1.990000        1.1912227E-28
   2.000000        1.7920645E-28
   2.010000        2.3623336E-28
   2.020000        2.8313115E-28
   2.030000        3.1278215E-28
   2.040000        3.1883970E-28
   2.050000        2.9658125E-28
   2.060000        2.4370645E-28
   2.070000        1.6097634E-28
   2.080000        5.2595865E-29
   2.090000       -7.3749172E-29
   2.100000       -2.0724128E-28
   2.110000       -3.3471870E-28
   2.120000       -4.4185195E-28
   2.130000       -5.1468080E-28
   2.140000       -5.4132700E-28
   2.150000       -5.1376054E-28
   2.160000       -4.2943100E-28
   2.170000       -2.9252967E-28
   2.180000       -1.1469477E-28
   2.190000        8.4988773E-29
   2.200000        2.8082266E-28
   2.210000        4.4217233E-28
   2.220000        5.3589993E-28
   2.230000        5.2952476E-28
   2.240000        3.9469021E-28
   2.250000        1.1073423E-28
   2.260000       -3.3198607E-28
   2.270000       -9.2946140E-28
   2.280000       -1.6623874E-27
   2.290000       -2.4958165E-27
   2.300000       -3.3803676E-27
   2.310000       -4.2550718E-27
   2.320000       -5.0517682E-27
   2.330000       -5.7008701E-27
   2.340000       -6.1382292E-27
   2.350000       -6.3124992E-27
   2.360000       -6.1925246E-27
   2.370000       -5.7739476E-27
   2.380000       -5.0843888E-27
   2.390000       -4.1864143E-27
   2.400000       -3.1777594E-27
   2.410000       -2.1881802E-27
   2.420000       -1.3725623E-27
   2.430000       -9.0005630E-28
   2.440000       -9.3962809E-28
   2.450000       -1.6423358E-27
   2.460000       -3.1205007E-27
   2.470000       -5.4255087E-27
   2.480000       -8.5247468E-27
   2.490000       -1.2278939E-26
   2.500000       -1.6421721E-26
   2.510000       -2.0541853E-26
   2.520000       -2.4069823E-26
   2.530000       -2.6269780E-26
   2.540000       -2.6236894E-26
   2.550000       -2.2900822E-26
   2.560000       -1.5034466E-26
   2.570000       -1.2676182E-27
   2.580000        1.9896243E-26
   2.590000        5.0060250E-26
   2.600000        9.0916201E-26
   2.610000        1.4422775E-25
   2.620000        2.1181453E-25
   2.630000        2.9554583E-25
   2.640000        3.9733657E-25
   2.650000        5.1914349E-25
   2.660000        6.6296181E-25
   2.670000        8.3080740E-25
   2.680000        1.0246828E-24
   2.690000        1.2464945E-24
   2.700000        1.4978899E-24
   2.710000        1.7799944E-24
   2.720000        2.0929971E-24
   2.730000        2.4355008E-24
   2.740000        2.8035458E-24
   2.750000        3.1892327E-24
   2.760000        3.5788426E-24
   2.770000        3.9501405E-24
   2.780000        4.2688561E-24
   2.790000        4.4840167E-24
   2.800000        4.5217937E-24
   2.810000        4.2776523E-24
   2.820000        3.6063463E-24
   2.830000        2.3092659E-24
   2.840000        1.1877548E-25
   2.850000       -3.3212724E-24
   2.860000       -8.4791929E-24
   2.870000       -1.5964353E-23
   2.880000       -2.6561985E-23
   2.890000       -4.1274616E-23
   2.900000       -6.1371668E-23
   2.910000       -8.8447249E-23
   2.920000       -1.2448946E-22
   2.930000       -1.7195861E-22
   2.940000       -2.3387906E-22
   2.950000       -3.1394672E-22
   2.960000       -4.1664965E-22
   2.970000       -5.4740782E-22
   2.980000       -7.1272591E-22
   2.990000       -9.2037626E-22
   3.000000       -1.1795915E-21
   3.010000       -1.5012918E-21
   3.020000       -1.8983222E-21
   3.030000       -2.3857385E-21
   3.040000       -2.9810994E-21
   3.050000       -3.7047958E-21
   3.060000       -4.5804214E-21
   3.070000       -5.6351457E-21
   3.080000       -6.9001315E-21
   3.090000       -8.4110520E-21
   3.100000       -1.0208519E-20
   3.110000       -1.2338603E-20
   3.120000       -1.4853463E-20
   3.130000       -1.7811806E-20
   3.140000       -2.1279678E-20
   3.150000       -2.5331067E-20
   3.160000       -3.0048405E-20
   3.170000       -3.5523559E-20
   3.180000       -4.1858418E-20
   3.190000       -4.9165654E-20
   3.200000       -5.7569438E-20
   3.210000       -6.7206182E-20
   3.220000       -7.8225779E-20
   3.230000       -9.0791654E-20
   3.240000       -1.0508220E-19
   3.250000       -1.2129113E-19
   3.260000       -1.3962813E-19
   3.270000       -1.6032054E-19
   3.280000       -1.8361252E-19
   3.290000       -2.0976650E-19
   3.300000       -2.3906399E-19
   3.310000       -2.7180589E-19
   3.320000       -3.0831211E-19
   3.330000       -3.4892311E-19
   3.340000       -3.9399799E-19
   3.350000       -4.4391826E-19
   3.360000       -4.9908268E-19
   3.370000       -5.5991168E-19
   3.380000       -6.2684486E-19
   3.390000       -7.0033831E-19
   3.400000       -7.8087029E-19
   3.410000       -8.6893338E-19
   3.420000       -9.6503223E-19
   3.430000       -1.0696905E-18
   3.440000       -1.1834395E-18
   3.450000       -1.3068224E-18
   3.460000       -1.4403920E-18
   3.470000       -1.5847017E-18
   3.480000       -1.7403082E-18
   3.490000       -1.9077666E-18
   3.500000       -2.0876262E-18
   3.510000       -2.2804207E-18
   3.520000       -2.4866813E-18
   3.530000       -2.7069111E-18
   3.540000       -2.9415924E-18
   3.550000       -3.1911759E-18
   3.560000       -3.4560721E-18
   3.570000       -3.7366598E-18
   3.580000       -4.0332595E-18
   3.590000       -4.3461368E-18
   3.600000       -4.6755011E-18
   3.610000       -5.0214839E-18
   3.620000       -5.3841289E-18
   3.630000       -5.7634066E-18
   3.640000       -6.1591889E-18
   3.650000       -6.5712299E-18
   3.660000       -6.9991780E-18
   3.670000       -7.4425733E-18
   3.680000       -7.9008007E-18
   3.690000       -8.3731209E-18
   3.700000       -8.8586254E-18
   3.710000       -9.3562680E-18
   3.720000       -9.8648187E-18
   3.730000       -1.0382858E-17
   3.740000       -1.0908797E-17
   3.750000       -1.1440870E-17
   3.760000       -1.1977046E-17
   3.770000       -1.2515153E-17
   3.780000       -1.3052768E-17
   3.790000       -1.3587235E-17
   3.800000       -1.4115687E-17
   3.810000       -1.4635005E-17
   3.820000       -1.5141836E-17
   3.830000       -1.5632600E-17
   3.840000       -1.6103438E-17
   3.850000       -1.6550278E-17
   3.860000       -1.6968768E-17
   3.870000       -1.7354335E-17
   3.880000       -1.7702170E-17
   3.890000       -1.8007194E-17
   3.900000       -1.8264120E-17
   3.910000       -1.8467404E-17
   3.920000       -1.8611337E-17
   3.930000       -1.8689926E-17
   3.940000       -1.8697035E-17
   3.950000       -1.8626352E-17
   3.960000       -1.8471352E-17
   3.970000       -1.8225378E-17
   3.980000       -1.7881648E-17
   3.990000       -1.7433271E-17
   4.000000       -1.6873242E-17
   4.010000       -1.6194517E-17
   4.020000       -1.5389986E-17
   4.030000       -1.4452531E-17
   4.040000       -1.3375033E-17
   4.050000       -1.2150441E-17
   4.060000       -1.0771772E-17
   4.070000       -9.2321206E-18
   4.080000       -7.5247437E-18
   4.090000       -5.6430381E-18
   4.100000       -3.5806457E-18
   4.110000       -1.3314264E-18
   4.120000        1.1105306E-18
   4.130000        3.7508393E-18
   4.140000        6.5946652E-18
   4.150000        9.6469501E-18
   4.160000        1.2912150E-17
   4.170000        1.6394420E-17
   4.180000        2.0097377E-17
   4.190000        2.4024180E-17
   4.200000        2.8177477E-17
   4.210000        3.2559500E-17
   4.220000        3.7171872E-17
   4.230000        4.2016070E-17
   4.240000        4.7092669E-17
   4.250000        5.2401726E-17
   4.260000        5.7943228E-17
   4.270000        6.3716373E-17
   4.280000        6.9720228E-17
   4.290000        7.5953021E-17
   4.300000        8.2413321E-17
   4.310000        8.9099131E-17
   4.320000        9.6008174E-17
   4.330000        1.0313841E-16
   4.340000        1.1048763E-16
   4.350000        1.1805395E-16
   4.360000        1.2583581E-16
   4.370000        1.3383205E-16
   4.380000        1.4204203E-16
   4.390000        1.5046630E-16
   4.400000        1.5910701E-16
   4.410000        1.6796686E-16
   4.420000        1.7705007E-16
   4.430000        1.8636361E-16
   4.440000        1.9591602E-16
   4.450000        2.0571844E-16
   4.460000        2.1578552E-16
   4.470000        2.2613490E-16
   4.480000        2.3678803E-16
   4.490000        2.4777090E-16
   4.500000        2.5911400E-16
   4.510000        2.7085382E-16
   4.520000        2.8303233E-16
   4.530000        2.9569732E-16
   4.540000        3.0890460E-16
   4.550000        3.2271831E-16
   4.560000        3.3721046E-16
   4.570000        3.5246264E-16
   4.580000        3.6856754E-16
   4.590000        3.8562612E-16
   4.600000        4.0375443E-16
   4.610000        4.2307972E-16
   4.620000        4.4374370E-16
   4.630000        4.6590269E-16
   4.640000        4.8972973E-16
   4.650000        5.1541309E-16
   4.660000        5.4316030E-16
   4.670000        5.7319995E-16
   4.680000        6.0577933E-16
   4.690000        6.4116736E-16
   4.700000        6.7965744E-16
   4.710000        7.2156736E-16
   4.720000        7.6724059E-16
   4.730000        8.1704867E-16
   4.740000        8.7139234E-16
   4.750000        9.3070170E-16
   4.760000        9.9543894E-16
   4.770000        1.0661032E-15
   4.780000        1.1432232E-15
   4.790000        1.2273686E-15
   4.800000        1.3191477E-15
   4.810000        1.4192072E-15
   4.820000        1.5282379E-15
   4.830000        1.6469722E-15
   4.840000        1.7761918E-15
   4.850000        1.9167231E-15
   4.860000        2.0694404E-15
   4.870000        2.2352717E-15
   4.880000        2.4151921E-15
   4.890000        2.6102385E-15
   4.900000        2.8214983E-15
   4.910000        3.0501237E-15
   4.920000        3.2973193E-15
   4.930000        3.5643506E-15
   4.940000        3.8525528E-15
   4.950000        4.1633173E-15
   4.960000        4.4981100E-15
   4.970000        4.8584569E-15
   4.980000        5.2459541E-15
   4.990000        5.6622662E-15
   5.000000        6.1091464E-15
   5.010000        6.5884069E-15
   5.020000        7.1019101E-15
   5.030000        7.6516391E-15
   5.040000        8.2396206E-15
   5.050000        8.8679699E-15
   5.060000        9.5388692E-15
   5.070000        1.0254585E-14
   5.080000        1.1017471E-14
   5.090000        1.1829940E-14
   5.100000        1.2694478E-14
   5.110000        1.3613658E-14
   5.120000        1.4590159E-14
   5.130000        1.5626662E-14
   5.140000        1.6726007E-14
   5.150000        1.7891023E-14
   5.160000        1.9124676E-14
   5.170000        2.0430021E-14
   5.180000        2.1810114E-14
   5.190000        2.3268153E-14
   5.200000        2.4807257E-14
   5.210000        2.6430787E-14
   5.220000        2.8142043E-14
   5.230000        2.9944414E-14
   5.240000        3.1841358E-14
   5.250000        3.3836344E-14
   5.260000        3.5932910E-14
   5.270000        3.8134596E-14
   5.280000        4.0444925E-14
   5.290000        4.2867612E-14
   5.300000        4.5406319E-14
   5.310000        4.8064586E-14
   5.320000        5.0846080E-14
   5.330000        5.3754483E-14
   5.340000        5.6793430E-14
   5.350000        5.9966585E-14
   5.360000        6.3277474E-14
   5.370000        6.6729669E-14
   5.380000        7.0326740E-14
   5.390000        7.4071927E-14
   5.400000        7.7968861E-14
   5.410000        8.2020626E-14
   5.420000        8.6230461E-14
   5.430000        9.0601429E-14
   5.440000        9.5136552E-14
   5.450000        9.9838737E-14
   5.460000        1.0471050E-13
   5.470000        1.0975431E-13
   5.480000        1.1497266E-13
   5.490000        1.2036775E-13
   5.500000        1.2594132E-13
   5.510000        1.3169537E-13
   5.520000        1.3763095E-13
   5.530000        1.4374972E-13
   5.540000        1.5005225E-13
   5.550000        1.5653918E-13
   5.560000        1.6321078E-13
   5.570000        1.7006699E-13
   5.580000        1.7710731E-13
   5.590000        1.8433108E-13
   5.600000        1.9173694E-13
   5.610000        1.9932325E-13
   5.620000        2.0708790E-13
   5.630000        2.1502814E-13
   5.640000        2.2314080E-13
   5.650000        2.3142255E-13
   5.660000        2.3986875E-13
   5.670000        2.4847507E-13
   5.680000        2.5723588E-13
   5.690000        2.6614512E-13
   5.700000        2.7519615E-13
   5.710000        2.8438162E-13
   5.720000        2.9369367E-13
   5.730000        3.0312311E-13
   5.740000        3.1266068E-13
   5.750000        3.2229577E-13
   5.760000        3.3201737E-13
   5.770000        3.4181322E-13
   5.780000        3.5167073E-13
   5.790000        3.6157584E-13
   5.800000        3.7151402E-13
   5.810000        3.8146911E-13
   5.820000        3.9142498E-13
   5.830000        4.0136340E-13
   5.840000        4.1126634E-13
   5.850000        4.2111361E-13
   5.860000        4.3088393E-13
   5.870000        4.4055607E-13
   5.880000        4.5010642E-13
   5.890000        4.5951079E-13
   5.900000        4.6874337E-13
   5.910000        4.7777797E-13
   5.920000        4.8658641E-13
   5.930000        4.9513957E-13
   5.940000        5.0340727E-13
   5.950000        5.1135734E-13
   5.960000        5.1895673E-13
   5.970000        5.2617139E-13
   5.980000        5.3296554E-13
   5.990000        5.3930216E-13
   6.000000        5.4514260E-13
   6.010000        5.5044711E-13
   6.020000        5.5517478E-13
   6.030000        5.5928260E-13
   6.040000        5.6272706E-13
   6.050000        5.6546261E-13
   6.060000        5.6744236E-13
   6.070000        5.6861845E-13
   6.080000        5.6894094E-13
   6.090000        5.6835894E-13
   6.100000        5.6682030E-13
   6.110000        5.6427091E-13
   6.120000        5.6065596E-13
   6.130000        5.5591903E-13
   6.140000        5.5000232E-13
   6.150000        5.4284648E-13
   6.160000        5.3439127E-13
   6.170000        5.2457480E-13
   6.180000        5.1333438E-13
   6.190000        5.0060574E-13
   6.200000        4.8632338E-13
   6.210000        4.7042172E-13
   6.220000        4.5283205E-13
   6.230000        4.3348764E-13
   6.240000        4.1231737E-13
   6.250000        3.8925165E-13
   6.260000        3.6421842E-13
   6.270000        3.3714589E-13
   6.280000        3.0796085E-13
   6.290000        2.7658903E-13
   6.300000        2.4295765E-13
   6.310000        2.0699254E-13
   6.320000        1.6861557E-13
   6.330000        1.2775252E-13
   6.340000        8.4329814E-14
   6.350000        3.8268535E-14
   6.360000       -1.0507151E-14
   6.370000       -6.2073427E-14
   6.380000       -1.1650374E-13
   6.390000       -1.7387562E-13
   6.400000       -2.3426598E-13
   6.410000       -2.9774748E-13
   6.420000       -3.6439436E-13
   6.430000       -4.3428070E-13
   6.440000       -5.0748191E-13
   6.450000       -5.8406345E-13
   6.460000       -6.6410338E-13
   6.470000       -7.4766658E-13
   6.480000       -8.3481843E-13
   6.490000       -9.2562817E-13
   6.500000       -1.0201615E-12
   6.510000       -1.1184794E-12
   6.520000       -1.2206435E-12
   6.530000       -1.3267111E-12
   6.540000       -1.4367387E-12
   6.550000       -1.5507712E-12
   6.560000       -1.6688702E-12
   6.570000       -1.7910755E-12
   6.580000       -1.9174298E-12
   6.590000       -2.0479790E-12
   6.600000       -2.1827518E-12
   6.610000       -2.3217866E-12
   6.620000       -2.4651162E-12
   6.630000       -2.6127546E-12
   6.640000       -2.7647218E-12
   6.650000       -2.9210430E-12
   6.660000       -3.0817196E-12
   6.670000       -3.2467488E-12
   6.680000       -3.4161406E-12
   6.690000       -3.5898901E-12
   6.700000       -3.7679781E-12
   6.710000       -3.9503925E-12
   6.720000       -4.1371082E-12
   6.730000       -4.3280826E-12
   6.740000       -4.5232793E-12
   6.750000       -4.7226650E-12
   6.760000       -4.9261728E-12
   6.770000       -5.1337454E-12
   6.780000       -5.3453136E-12
   6.790000       -5.5608031E-12
   6.800000       -5.7801233E-12
   6.810000       -6.0031823E-12
   6.820000       -6.2298712E-12
   6.830000       -6.4600855E-12
   6.840000       -6.6936903E-12
   6.850000       -6.9305685E-12
   6.860000       -7.1705736E-12
   6.870000       -7.4135541E-12
   6.880000       -7.6593523E-12
   6.890000       -7.9077855E-12
   6.900000       -8.1586656E-12
   6.910000       -8.4118042E-12
   6.920000       -8.6669821E-12
   6.930000       -8.9239935E-12
   6.940000       -9.1826147E-12
   6.950000       -9.4425934E-12
   6.960000       -9.7036615E-12
   6.970000       -9.9655770E-12
   6.980000       -1.0228041E-11
   6.990000       -1.0490768E-11
   7.000000       -1.0753445E-11
   7.010000       -1.1015758E-11
   7.020000       -1.1277388E-11
   7.030000       -1.1537972E-11
   7.040000       -1.1797157E-11
   7.050000       -1.2054573E-11
   7.060000       -1.2309823E-11
   7.070000       -1.2562503E-11
   7.080000       -1.2812211E-11
   7.090000       -1.3058505E-11
   7.100000       -1.3300955E-11
   7.110000       -1.3539093E-11
   7.120000       -1.3772448E-11
   7.130000       -1.4000529E-11
   7.140000       -1.4222831E-11
   7.150000       -1.4438844E-11
   7.160000       -1.4648038E-11
   7.170000       -1.4849861E-11
   7.180000       -1.5043758E-11
   7.190000       -1.5229153E-11
   7.200000       -1.5405458E-11
   7.210000       -1.5572068E-11
   7.220000       -1.5728367E-11
   7.230000       -1.5873726E-11
   7.240000       -1.6007501E-11
   7.250000       -1.6129037E-11
   7.260000       -1.6237657E-11
   7.270000       -1.6332682E-11
   7.280000       -1.6413412E-11
   7.290000       -1.6479141E-11
   7.300000       -1.6529137E-11
   7.310000       -1.6562675E-11
   7.320000       -1.6579009E-11
   7.330000       -1.6577378E-11
   7.340000       -1.6557014E-11
   7.350000       -1.6517140E-11
   7.360000       -1.6456973E-11
   7.370000       -1.6375706E-11
   7.380000       -1.6272546E-11
   7.390000       -1.6146666E-11
   7.400000       -1.5997245E-11
   7.410000       -1.5823448E-11
   7.420000       -1.5624434E-11
   7.430000       -1.5399362E-11
   7.440000       -1.5147387E-11
   7.450000       -1.4867645E-11
   7.460000       -1.4559291E-11
   7.470000       -1.4221465E-11
   7.480000       -1.3853305E-11
   7.490000       -1.3453942E-11
   7.500000       -1.3022505E-11
   7.510000       -1.2558100E-11
   7.520000       -1.2059911E-11
   7.530000       -1.1527043E-11
   7.540000       -1.0958669E-11
   7.550000       -1.0353860E-11
   7.560000       -9.7118407E-12
   7.570000       -9.0317094E-12
   7.580000       -8.3126952E-12
   7.590000       -7.5538733E-12
   7.600000       -6.7545184E-12
   7.610000       -5.9137543E-12
   7.620000       -5.0308616E-12
   7.630000       -4.1049369E-12
   7.640000       -3.1352319E-12
   7.650000       -2.1210468E-12
   7.660000       -1.0616384E-12
   7.670000        4.3769435E-14
   7.680000        1.1958544E-12
   7.690000        2.3952396E-12
   7.700000        3.6426357E-12
   7.710000        4.9387530E-12
   7.720000        6.2840406E-12
   7.730000        7.6792401E-12
   7.740000        9.1248120E-12
   7.750000        1.0621281E-11
   7.760000        1.2169084E-11
   7.770000        1.3768789E-11
   7.780000        1.5420767E-11
   7.790000        1.7125360E-11
   7.800000        1.8883122E-11
   7.810000        2.0694132E-11
   7.820000        2.2558750E-11
   7.830000        2.4477149E-11
   7.840000        2.6449551E-11
   7.850000        2.8476084E-11
   7.860000        3.0556838E-11
   7.870000        3.2691745E-11
   7.880000        3.4880984E-11
   7.890000        3.7124220E-11
   7.900000        3.9421636E-11
   7.910000        4.1772766E-11
   7.920000        4.4177571E-11
   7.930000        4.6635570E-11
   7.940000        4.9146496E-11
   7.950000        5.1709765E-11
   7.960000        5.4325083E-11
   7.970000        5.6991672E-11
   7.980000        5.9708946E-11
   7.990000        6.2476253E-11
   8.000000        6.5292848E-11
   8.010000        6.8157861E-11
   8.020000        7.1070198E-11
   8.030000        7.4029026E-11
   8.040000        7.7032956E-11
   8.050000        8.0081143E-11
   8.060000        8.3171851E-11
   8.070000        8.6304144E-11
   8.080000        8.9476378E-11
   8.090000        9.2687129E-11
   8.100000        9.5934552E-11
   8.110000        9.9217114E-11
   8.120000        1.0253286E-10
   8.130000        1.0588012E-10
   8.140000        1.0925665E-10
   8.150000        1.1266041E-10
   8.160000        1.1608903E-10
   8.170000        1.1954057E-10
   8.180000        1.2301256E-10
   8.190000        1.2650203E-10
   8.200000        1.3000666E-10
   8.210000        1.3352393E-10
   8.220000        1.3705063E-10
   8.230000        1.4058392E-10
   8.240000        1.4412074E-10
   8.250000        1.4765794E-10
   8.260000        1.5119239E-10
   8.270000        1.5472049E-10
   8.280000        1.5823887E-10
   8.290000        1.6174380E-10
   8.300000        1.6523154E-10
   8.310000        1.6869825E-10
   8.320000        1.7214025E-10
   8.330000        1.7555317E-10
   8.340000        1.7893270E-10
   8.350000        1.8227475E-10
   8.360000        1.8557493E-10
   8.370000        1.8882883E-10
   8.380000        1.9203161E-10
   8.390000        1.9517850E-10
   8.400000        1.9826477E-10
   8.410000        2.0128541E-10
   8.420000        2.0423527E-10
   8.430000        2.0710916E-10
   8.440000        2.0990178E-10
   8.450000        2.1260771E-10
   8.460000        2.1522148E-10
   8.470000        2.1773736E-10
   8.480000        2.2014972E-10
   8.490000        2.2245265E-10
   8.500000        2.2464026E-10
   8.510000        2.2670654E-10
   8.520000        2.2864530E-10
   8.530000        2.3045033E-10
   8.540000        2.3211535E-10
   8.550000        2.3363392E-10
   8.560000        2.3499955E-10
   8.570000        2.3620569E-10
   8.580000        2.3724572E-10
   8.590000        2.3811284E-10
   8.600000        2.3880048E-10
   8.610000        2.3930144E-10
   8.620000        2.3960903E-10
   8.630000        2.3971608E-10
   8.640000        2.3961566E-10
   8.650000        2.3930066E-10
   8.660000        2.3876398E-10
   8.670000        2.3799820E-10
   8.680000        2.3699606E-10
   8.690000        2.3575064E-10
   8.700000        2.3425420E-10
   8.710000        2.3249948E-10
   8.720000        2.3047927E-10
   8.730000        2.2818619E-10
   8.740000        2.2561313E-10
   8.750000        2.2275223E-10
   8.760000        2.1959655E-10
   8.770000        2.1613845E-10
   8.780000        2.1237070E-10
   8.790000        2.0828672E-10
   8.800000        2.0387715E-10
   8.810000        1.9913650E-10
   8.820000        1.9405698E-10
   8.830000        1.8863114E-10
   8.840000        1.8285269E-10
   8.850000        1.7671466E-10
   8.860000        1.7020915E-10
   8.870000        1.6332961E-10
   8.880000        1.5606956E-10
   8.890000        1.4842194E-10
   8.900000        1.4038051E-10
   8.910000        1.3193865E-10
   8.920000        1.2309032E-10
   8.930000        1.1382974E-10
   8.940000        1.0414939E-10
   8.950000        9.4044376E-11
   8.960000        8.3508589E-11
   8.970000        7.2537455E-11
   8.980000        6.1125043E-11