 -0.1000000        8.4193585E-36
 -9.0000004E-02    2.5258079E-35
 -7.9999998E-02    4.2096786E-35
 -7.0000000E-02    5.8935493E-35
 -5.9999999E-02    7.5774208E-35
 -5.0000001E-02    9.2612918E-35
 -3.9999999E-02    1.0945163E-34
 -2.9999999E-02    1.2629034E-34
 -2.0000000E-02    1.4312906E-34
 -9.9999998E-03    1.5996779E-34
  0.0000000E+00    1.7680655E-34
  9.9999998E-03    1.9364527E-34
  2.0000000E-02    2.1048400E-34
  2.9999999E-02    2.2732275E-34
  3.9999999E-02    2.4416150E-34
  5.0000001E-02    2.6100022E-34
  5.9999999E-02    2.7783888E-34
  7.0000000E-02    2.9467758E-34
  7.9999998E-02    3.1151624E-34
  9.0000004E-02    3.2835497E-34
  0.1000000        3.4519367E-34
  0.1100000        3.6203238E-34
  0.1200000        3.7887113E-34
  0.1300000        3.9570983E-34
  0.1400000        4.1254851E-34
  0.1500000        4.2938724E-34
  0.1600000        4.4622597E-34
  0.1700000        4.6306465E-34
  0.1800000        4.7990337E-34
  0.1900000        4.9674210E-34
  0.2000000        5.1358083E-34
  0.2100000        5.3041956E-34
  0.2200000        5.4725824E-34
  0.2300000        5.6409701E-34
  0.2400000        5.8093569E-34
  0.2500000        5.9777442E-34
  0.2600000        6.1461314E-34
  0.2700000        6.3145192E-34
  0.2800000        6.4829051E-34
  0.2900000        6.6512928E-34
  0.3000000        6.8196801E-34
  0.3100000        6.9880660E-34
  0.3200000        7.1564537E-34
  0.3300000        7.3248410E-34
  0.3400000        7.4932278E-34
  0.3500000        7.6616150E-34
  0.3600000        7.8300018E-34
  0.3700000        7.9983877E-34
  0.3800000        8.1667764E-34
  0.3900000        8.3351632E-34
  0.4000000        8.5035500E-34
  0.4100000        8.6719377E-34
  0.4200000        8.8403246E-34
  0.4300000        9.0087095E-34
  0.4400000        9.1770982E-34
  0.4500000        9.3454859E-34
  0.4600000        9.5138718E-34
  0.4700000        9.6822586E-34
  0.4800000        9.8506463E-34
  0.4900000        1.0019033E-33
  0.5000000        1.0187420E-33
  0.5100000        1.0355807E-33
  0.5200000        1.0524194E-33
  0.5300000        1.0692582E-33
  0.5400000        1.0860968E-33
  0.5500000        1.1029354E-33
  0.5600000        1.1197743E-33
  0.5700000        1.1366130E-33
  0.5800000        1.1534516E-33
  0.5900000        1.1702903E-33
  0.6000000        1.1871291E-33
  0.6100000        1.2039679E-33
  0.6200000        1.2208064E-33
  0.6300000        1.2376449E-33
  0.6400000        1.2544839E-33
  0.6500000        1.2713226E-33
  0.6600000        1.2881613E-33
  0.6700000        1.3049999E-33
  0.6800000        1.3218386E-33
  0.6900000        1.3386776E-33
  0.7000000        1.3555161E-33
  0.7100000        1.3723547E-33
  0.7200000        1.3891936E-33
  0.7300000        1.4060323E-33
  0.7400000        1.4228708E-33
  0.7500000        1.4397103E-33
  0.7600000        1.4565366E-33
  0.7700000        1.4733772E-33
  0.7800000        1.4902534E-33
  0.7900000        1.5071380E-33
  0.8000000        1.5240235E-33
  0.8100000        1.5408990E-33
  0.8200000        1.5577519E-33
  0.8300000        1.5744683E-33
  0.8400000        1.5910378E-33
  0.8500000        1.6074964E-33
  0.8600000        1.6239025E-33
  0.8700000        1.6405368E-33
  0.8800000        1.6579657E-33
  0.8900000        1.6760759E-33
  0.9000000        1.6947853E-33
  0.9100000        1.7145098E-33
  0.9200000        1.7349114E-33
  0.9300000        1.7553721E-33
  0.9400000        1.7745356E-33
  0.9500000        1.7912504E-33
  0.9600000        1.8043638E-33
  0.9700000        1.8125840E-33
  0.9800000        1.8153051E-33
  0.9900000        1.8131745E-33
   1.000000        1.8096267E-33
   1.010000        1.8097656E-33
   1.020000        1.8202626E-33
   1.030000        1.8488223E-33
   1.040000        1.9019181E-33
   1.050000        1.9829067E-33
   1.060000        2.0888086E-33
   1.070000        2.2081404E-33
   1.080000        2.3197492E-33
   1.090000        2.3947386E-33
   1.100000        2.3999029E-33
   1.110000        2.3037478E-33
   1.120000        2.0872704E-33
   1.130000        1.7538479E-33
   1.140000        1.3379597E-33
   1.150000        9.1051120E-34
   1.160000        5.7552249E-34
   1.170000        4.6010125E-34
   1.180000        6.9095030E-34
   1.190000        1.3630151E-33
   1.200000        2.5046925E-33
   1.210000        4.0442740E-33
   1.220000        5.7908904E-33
   1.230000        7.4328536E-33
   1.240000        8.5635094E-33
   1.250000        8.7385706E-33
   1.260000        7.5668033E-33
   1.270000        4.8143040E-33
   1.280000        4.9773356E-34
   1.290000       -5.0260818E-33
   1.300000       -1.1028567E-32
   1.310000       -1.6451337E-32
   1.320000       -2.0014926E-32
   1.330000       -2.0403589E-32
   1.340000       -1.6516035E-32
   1.350000       -7.7414576E-33
   1.360000        5.8031353E-33
   1.370000        2.3089379E-32
   1.380000        4.2119582E-32
   1.390000        5.9999700E-32
   1.400000        7.3228696E-32
   1.410000        7.8169275E-32
   1.420000        7.1548562E-32
   1.430000        5.1039042E-32
   1.440000        1.5857610E-32
   1.450000       -3.2677312E-32
   1.460000       -9.0751285E-32
   1.470000       -1.5202855E-31
   1.480000       -2.0780105E-31
   1.490000       -2.4751684E-31
   1.500000       -2.5982584E-31
   1.510000       -2.3394021E-31
   1.520000       -1.6141593E-31
   1.530000       -3.8233110E-32
   1.540000        1.3301612E-31
   1.550000        3.4116601E-31
   1.560000        5.6514693E-31
   1.570000        7.7380282E-31
   1.580000        9.2738502E-31
   1.590000        9.8106599E-31
   1.600000        8.9083118E-31
   1.610000        6.2145711E-31
   1.620000        1.5580592E-31
   1.630000       -4.9561240E-31
   1.640000       -1.2866563E-30
   1.650000       -2.1312388E-30
   1.660000       -2.9047524E-30
   1.670000       -3.4529934E-30
   1.680000       -3.6093353E-30
   1.690000       -3.2198122E-30
   1.700000       -2.1740458E-30
   1.710000       -4.3810552E-31
   1.720000        1.9158009E-30
   1.730000        4.6891816E-30
   1.740000        7.5528472E-30
   1.750000        1.0063542E-29
   1.760000        1.1704591E-29
   1.770000        1.1950144E-29
   1.780000        1.0348929E-29
   1.790000        6.6184349E-30
   1.800000        7.3699715E-31
   1.810000       -6.9818180E-30
   1.820000       -1.5848887E-29
   1.830000       -2.4808161E-29
   1.840000       -3.2505217E-29
   1.850000       -3.7419675E-29
   1.860000       -3.8056583E-29
   1.870000       -3.3181567E-29
   1.880000       -2.2074707E-29
   1.890000       -4.7691137E-30
   1.900000        1.7765318E-29
   1.910000        4.3533152E-29
   1.920000        6.9555303E-29
   1.930000        9.2066174E-29
   1.940000        1.0687302E-28
   1.950000        1.0986311E-28
   1.960000        9.7619069E-29
   1.970000        6.8078253E-29
   1.980000        2.1151193E-29
   1.990000       -4.0799261E-29
   2.000000       -1.1271776E-28
   2.010000       -1.8694397E-28
   2.020000       -2.5368855E-28
   2.030000       -3.0191658E-28
   2.040000       -3.2060460E-28
   2.050000       -3.0027653E-28
   2.060000       -2.3466477E-28
   2.070000       -1.2229193E-28
   2.080000        3.2262023E-29
   2.090000        2.1765038E-28
   2.100000        4.1582137E-28
   2.110000        6.0300510E-28
   2.120000        7.5168261E-28
   2.130000        8.3347266E-28
   2.140000        8.2273252E-28
   2.150000        7.0053814E-28
   2.160000        4.5858371E-28
   2.170000        1.0247158E-28
   2.180000       -3.4616402E-28
   2.190000       -8.4920491E-28
   2.200000       -1.3536516E-27
   2.210000       -1.7954663E-27
   2.220000       -2.1055872E-27
   2.230000       -2.2177474E-27
   2.240000       -2.0774377E-27
   2.250000       -1.6510841E-27
   2.260000       -9.3431465E-28
   2.270000        4.1895723E-29
   2.280000        1.2083581E-27
   2.290000        2.4590349E-27
   2.300000        3.6572223E-27
   2.310000        4.6466457E-27
   2.320000        5.2669627E-27
   2.330000        5.3725488E-27
   2.340000        4.8528319E-27
   2.350000        3.6519622E-27
   2.360000        1.7853365E-27
   2.370000       -6.4958964E-28
   2.380000       -3.4704356E-27
   2.390000       -6.4166678E-27
   2.400000       -9.1668048E-27
   2.410000       -1.1365714E-26
   2.420000       -1.2660444E-26
   2.430000       -1.2741704E-26
   2.440000       -1.1387097E-26
   2.450000       -8.5012558E-27
   2.460000       -4.1477856E-27
   2.470000        1.4319962E-27
   2.480000        7.8177156E-27
   2.490000        1.4428796E-26
   2.500000        2.0564436E-26
   2.510000        2.5463285E-26
   2.520000        2.8379031E-26
   2.530000        2.8665668E-26
   2.540000        2.5864305E-26
   2.550000        1.9782077E-26
   2.560000        1.0553212E-26
   2.570000       -1.3269660E-27
   2.580000       -1.5002600E-26
   2.590000       -2.9297157E-26
   2.600000       -4.2793596E-26
   2.610000       -5.3951541E-26
   2.620000       -6.1253872E-26
   2.630000       -6.3370774E-26
   2.640000       -5.9326075E-26
   2.650000       -4.8648627E-26
   2.660000       -3.1490538E-26
   2.670000       -8.6959520E-27
   2.680000        1.8193108E-26
   2.690000        4.7002367E-26
   2.700000        7.5064115E-26
   2.710000        9.9423899E-26
   2.720000        1.1710194E-25
   2.730000        1.2538922E-25
   2.740000        1.2215203E-25
   2.750000        1.0611550E-25
   2.760000        7.7094803E-26
   2.770000        3.6145221E-26
   2.780000       -1.4392906E-26
   2.790000       -7.0970734E-26
   2.800000       -1.2903455E-25
   2.810000       -1.8335037E-25
   2.820000       -2.2843087E-25
   2.830000       -2.5903409E-25
   2.840000       -2.7069301E-25
   2.850000       -2.6022882E-25
   2.860000       -2.2619635E-25
   2.870000       -1.6921315E-25
   2.880000       -9.2128803E-26
   2.890000       -2.7573723E-30
   2.900000        1.0012569E-25
   2.910000        1.9967428E-25
   2.920000        2.8914035E-25
   2.930000        3.5886915E-25
   2.940000        3.9990936E-25
   2.950000        4.0488715E-25
   2.960000        3.6881671E-25
   2.970000        2.8976954E-25
   2.980000        1.6932666E-25
   2.990000        1.2751256E-26
   3.000000       -1.7115784E-25
   3.010000       -3.7055092E-25
   3.020000       -5.7133695E-25
   3.030000       -7.5827489E-25
   3.040000       -9.1627614E-25
   3.050000       -1.0318218E-24
   3.060000       -1.0943760E-24
   3.070000       -1.0976726E-24
   3.080000       -1.0407464E-24
   3.090000       -9.2858908E-25
   3.100000       -7.7234211E-25
   3.110000       -5.8895256E-25
   3.120000       -4.0027258E-25
   3.130000       -2.3161789E-25
   3.140000       -1.0984983E-25
   3.150000       -6.1092384E-26
   3.160000       -1.0823572E-25
   3.170000       -2.6839649E-25
   3.180000       -5.5054509E-25
   3.190000       -9.5350870E-25
   3.200000       -1.4645194E-24
   3.210000       -2.0584992E-24
   3.220000       -2.6982165E-24
   3.230000       -3.3353508E-24
   3.240000       -3.9125178E-24
   3.250000       -4.3661779E-24
   3.260000       -4.6303410E-24
   3.270000       -4.6408297E-24
   3.280000       -4.3399849E-24
   3.290000       -3.6814557E-24
   3.300000       -2.6348313E-24
   3.310000       -1.1898924E-24
   3.320000        6.3973528E-25
   3.330000        2.8138199E-24
   3.340000        5.2635821E-24
   3.350000        7.8907697E-24
   3.360000        1.0567486E-23
   3.370000        1.3136673E-23
   3.380000        1.5412981E-23
   3.390000        1.7183391E-23
   3.400000        1.8207560E-23
   3.410000        1.8216706E-23
   3.420000        1.6910481E-23
   3.430000        1.3951824E-23
   3.440000        8.9580189E-24
   3.450000        1.4880404E-24
   3.460000       -8.9752484E-24
   3.470000       -2.3048206E-23
   3.480000       -4.1476240E-23
   3.490000       -6.5169308E-23
   3.500000       -9.5247009E-23
   3.510000       -1.3309344E-22
   3.520000       -1.8042011E-22
   3.530000       -2.3934005E-22
   3.540000       -3.1245311E-22
   3.550000       -4.0294644E-22
   3.560000       -5.1470092E-22
   3.570000       -6.5243593E-22
   3.580000       -8.2183645E-22
   3.590000       -1.0297446E-21
   3.600000       -1.2843216E-21
   3.610000       -1.5952939E-21
   3.620000       -1.9741566E-21
   3.630000       -2.4344477E-21
   3.640000       -2.9920579E-21
   3.650000       -3.6655200E-21
   3.660000       -4.4764183E-21
   3.670000       -5.4497304E-21
   3.680000       -6.6142691E-21
   3.690000       -8.0031930E-21
   3.700000       -9.6543028E-21
   3.710000       -1.1610871E-20
   3.720000       -1.3921833E-20
   3.730000       -1.6642577E-20
   3.740000       -1.9835660E-20
   3.750000       -2.3571029E-20
   3.760000       -2.7926939E-20
   3.770000       -3.2990448E-20
   3.780000       -3.8858283E-20
   3.790000       -4.5636995E-20
   3.800000       -5.3443771E-20
   3.810000       -6.2407107E-20
   3.820000       -7.2667468E-20
   3.830000       -8.4377114E-20
   3.840000       -9.7700881E-20
   3.850000       -1.1281624E-19
   3.860000       -1.2991409E-19
   3.870000       -1.4919910E-19
   3.880000       -1.7088802E-19
   3.890000       -1.9521125E-19
   3.900000       -2.2241181E-19
   3.910000       -2.5274462E-19
   3.920000       -2.8647785E-19
   3.930000       -3.2388766E-19
   3.940000       -3.6526236E-19
   3.950000       -4.1089685E-19
   3.960000       -4.6109472E-19
   3.970000       -5.1616448E-19
   3.980000       -5.7641590E-19
   3.990000       -6.4216078E-19
   4.000000       -7.1370808E-19
   4.010000       -7.9136193E-19
   4.020000       -8.7541920E-19
   4.030000       -9.6616402E-19
   4.040000       -1.0638630E-18
   4.050000       -1.1687674E-18
   4.060000       -1.2810961E-18
   4.070000       -1.4010406E-18
   4.080000       -1.5287623E-18
   4.090000       -1.6643722E-18
   4.100000       -1.8079424E-18
   4.110000       -1.9594852E-18
   4.120000       -2.1189514E-18
   4.130000       -2.2862327E-18
   4.140000       -2.4611365E-18
   4.150000       -2.6433971E-18
   4.160000       -2.8326581E-18
   4.170000       -3.0284648E-18
   4.180000       -3.2302530E-18
   4.190000       -3.4373484E-18
   4.200000       -3.6489650E-18
   4.210000       -3.8641763E-18
   4.220000       -4.0819291E-18
   4.230000       -4.3010162E-18
   4.240000       -4.5200900E-18
   4.250000       -4.7376550E-18
   4.260000       -4.9520441E-18
   4.270000       -5.1614151E-18
   4.280000       -5.3637542E-18
   4.290000       -5.5568807E-18
   4.300000       -5.7384269E-18
   4.310000       -5.9058425E-18
   4.320000       -6.0563720E-18
   4.330000       -6.1871042E-18
   4.340000       -6.2949280E-18
   4.350000       -6.3765476E-18
   4.360000       -6.4284904E-18
   4.370000       -6.4471119E-18
   4.380000       -6.4285685E-18
   4.390000       -6.3688908E-18
   4.400000       -6.2639369E-18
   4.410000       -6.1094328E-18
   4.420000       -5.9009795E-18
   4.430000       -5.6340310E-18
   4.440000       -5.3039797E-18
   4.450000       -4.9061401E-18
   4.460000       -4.4357473E-18
   4.470000       -3.8880065E-18
   4.480000       -3.2581267E-18
   4.490000       -2.5413232E-18
   4.500000       -1.7328627E-18
   4.510000       -8.2808033E-19
   4.520000        1.7756158E-19
   4.530000        1.2884779E-18
   4.540000        2.5088831E-18
   4.550000        3.8427751E-18
   4.560000        5.2939067E-18
   4.570000        6.8657079E-18
   4.580000        8.5612647E-18
   4.590000        1.0383316E-17
   4.600000        1.2334117E-17
   4.610000        1.4415493E-17
   4.620000        1.6628704E-17
   4.630000        1.8974446E-17
   4.640000        2.1452851E-17
   4.650000        2.4063361E-17
   4.660000        2.6804679E-17
   4.670000        2.9674827E-17
   4.680000        3.2670994E-17
   4.690000        3.5789633E-17
   4.700000        3.9026213E-17
   4.710000        4.2375397E-17
   4.720000        4.5830855E-17
   4.730000        4.9385432E-17
   4.740000        5.3030896E-17
   4.750000        5.6758030E-17
   4.760000        6.0556781E-17
   4.770000        6.4415896E-17
   4.780000        6.8323358E-17
   4.790000        7.2265999E-17
   4.800000        7.6229743E-17
   4.810000        8.0199482E-17
   4.820000        8.4159533E-17
   4.830000        8.8093233E-17
   4.840000        9.1982881E-17
   4.850000        9.5810411E-17
   4.860000        9.9556997E-17
   4.870000        1.0320325E-16
   4.880000        1.0672967E-16
   4.890000        1.1011600E-16
   4.900000        1.1334217E-16
   4.910000        1.1638811E-16
   4.920000        1.1923430E-16
   4.930000        1.2186067E-16
   4.940000        1.2424858E-16
   4.950000        1.2637970E-16
   4.960000        1.2823711E-16
   4.970000        1.2980519E-16
   4.980000        1.3106988E-16
   4.990000        1.3201863E-16
   5.000000        1.3264164E-16
   5.010000        1.3293144E-16
   5.020000        1.3288384E-16
   5.030000        1.3249768E-16
   5.040000        1.3177511E-16
   5.050000        1.3072327E-16
   5.060000        1.2935358E-16
   5.070000        1.2768191E-16
   5.080000        1.2573042E-16
   5.090000        1.2352667E-16
   5.100000        1.2110540E-16
   5.110000        1.1850773E-16
   5.120000        1.1578304E-16
   5.130000        1.1298846E-16
   5.140000        1.1018998E-16
   5.150000        1.0746279E-16
   5.160000        1.0489256E-16
   5.170000        1.0257488E-16
   5.180000        1.0061647E-16
   5.190000        9.9136617E-17
   5.200000        9.8266251E-17
   5.210000        9.8149499E-17
   5.220000        9.8945300E-17
   5.230000        1.0082463E-16
   5.240000        1.0397667E-16
   5.250000        1.0860337E-16
   5.260000        1.1492427E-16
   5.270000        1.2317521E-16
   5.280000        1.3360957E-16
   5.290000        1.4649857E-16
   5.300000        1.6213211E-16
   5.310000        1.8081941E-16
   5.320000        2.0288893E-16
   5.330000        2.2868910E-16
   5.340000        2.5858841E-16
   5.350000        2.9297530E-16
   5.360000        3.3226212E-16
   5.370000        3.7687937E-16
   5.380000        4.2728029E-16
   5.390000        4.8393936E-16
   5.400000        5.4735401E-16
   5.410000        6.1804267E-16
   5.420000        6.9654494E-16
   5.430000        7.8342151E-16
   5.440000        8.7925630E-16
   5.450000        9.8465272E-16
   5.460000        1.1002325E-15
   5.470000        1.2266404E-15
   5.480000        1.3645422E-15
   5.490000        1.5146198E-15
   5.500000        1.6775651E-15
   5.510000        1.8540992E-15
   5.520000        2.0449535E-15
   5.530000        2.2508734E-15
   5.540000        2.4726109E-15
   5.550000        2.7109406E-15
   5.560000        2.9666437E-15
   5.570000        3.2404931E-15
   5.580000        3.5332810E-15
   5.590000        3.8458074E-15
   5.600000        4.1788650E-15
   5.610000        4.5332449E-15
   5.620000        4.9097346E-15
   5.630000        5.3091068E-15
   5.640000        5.7321354E-15
   5.650000        6.1795687E-15
   5.660000        6.6521258E-15
   5.670000        7.1505276E-15
   5.680000        7.6754661E-15
   5.690000        8.2275995E-15
   5.700000        8.8075358E-15
   5.710000        9.4158393E-15
   5.720000        1.0053065E-14
   5.730000        1.0719698E-14
   5.740000        1.1416141E-14
   5.750000        1.2142781E-14
   5.760000        1.2899885E-14
   5.770000        1.3687716E-14
   5.780000        1.4506410E-14
   5.790000        1.5356030E-14
   5.800000        1.6236527E-14
   5.810000        1.7147769E-14
   5.820000        1.8089542E-14
   5.830000        1.9061453E-14
   5.840000        2.0063002E-14
   5.850000        2.1093631E-14
   5.860000        2.2152602E-14
   5.870000        2.3238977E-14
   5.880000        2.4351738E-14
   5.890000        2.5489602E-14
   5.900000        2.6651258E-14
   5.910000        2.7835129E-14
   5.920000        2.9039454E-14
   5.930000        3.0262258E-14
   5.940000        3.1501365E-14
   5.950000        3.2754378E-14
   5.960000        3.4018741E-14
   5.970000        3.5291645E-14
   5.980000        3.6569895E-14
   5.990000        3.7850111E-14
   6.000000        3.9128789E-14
   6.010000        4.0401957E-14
   6.020000        4.1665435E-14
   6.030000        4.2914863E-14
   6.040000        4.4145419E-14
   6.050000        4.5351974E-14
   6.060000        4.6529153E-14
   6.070000        4.7671228E-14
   6.080000        4.8772120E-14
   6.090000        4.9825514E-14
   6.100000        5.0824454E-14
   6.110000        5.1761929E-14
   6.120000        5.2630297E-14
   6.130000        5.3421717E-14
   6.140000        5.4128116E-14
   6.150000        5.4740639E-14
   6.160000        5.5250126E-14
   6.170000        5.5647412E-14
   6.180000        5.5922362E-14
   6.190000        5.6064772E-14
   6.200000        5.6064091E-14
   6.210000        5.5908996E-14
   6.220000        5.5588099E-14
   6.230000        5.5089315E-14
   6.240000        5.4400420E-14
   6.250000        5.3508396E-14
   6.260000        5.2400226E-14
   6.270000        5.1062107E-14
   6.280000        4.9480128E-14
   6.290000        4.7639671E-14
   6.300000        4.5525853E-14
   6.310000        4.3123372E-14
   6.320000        4.0416733E-14
   6.330000        3.7389667E-14
   6.340000        3.4025690E-14
   6.350000        3.0308045E-14
   6.360000        2.6219585E-14
   6.370000        2.1742609E-14
   6.380000        1.6859357E-14
   6.390000        1.1551615E-14
   6.400000        5.8009585E-15
   6.410000       -4.1146576E-16
   6.420000       -7.1045735E-15
   6.430000       -1.4297720E-14
   6.440000       -2.2010280E-14
   6.450000       -3.0261909E-14
   6.460000       -3.9072468E-14
   6.470000       -4.8461811E-14
   6.480000       -5.8450024E-14
   6.490000       -6.9057458E-14
   6.500000       -8.0303995E-14
   6.510000       -9.2209965E-14
   6.520000       -1.0479536E-13
   6.530000       -1.1808013E-13
   6.540000       -1.3208423E-13
   6.550000       -1.4682765E-13
   6.560000       -1.6232965E-13
   6.570000       -1.7860945E-13
   6.580000       -1.9568674E-13
   6.590000       -2.1357915E-13
   6.600000       -2.3230574E-13
   6.610000       -2.5188348E-13
   6.620000       -2.7233004E-13
   6.630000       -2.9366220E-13
   6.640000       -3.1589588E-13
   6.650000       -3.3904642E-13
   6.660000       -3.6312888E-13
   6.670000       -3.8815568E-13
   6.680000       -4.1414089E-13
   6.690000       -4.4109608E-13
   6.700000       -4.6903204E-13
   6.710000       -4.9795790E-13
   6.720000       -5.2788275E-13
   6.730000       -5.5881254E-13
   6.740000       -5.9075379E-13
   6.750000       -6.2371169E-13
   6.760000       -6.5768934E-13
   6.770000       -6.9268696E-13
   6.780000       -7.2870497E-13
   6.790000       -7.6574034E-13
   6.800000       -8.0379133E-13
   6.810000       -8.4284863E-13
   6.820000       -8.8290611E-13
   6.830000       -9.2395297E-13
   6.840000       -9.6597676E-13
   6.850000       -1.0089626E-12
   6.860000       -1.0528966E-12
   6.870000       -1.0977558E-12
   6.880000       -1.1435189E-12
   6.890000       -1.1901584E-12
   6.900000       -1.2376514E-12
   6.910000       -1.2859649E-12
   6.920000       -1.3350668E-12
   6.930000       -1.3849182E-12
   6.940000       -1.4354822E-12
   6.950000       -1.4867124E-12
   6.960000       -1.5385656E-12
   6.970000       -1.5909929E-12
   6.980000       -1.6439364E-12
   6.990000       -1.6973445E-12
   7.000000       -1.7511532E-12
   7.010000       -1.8053006E-12
   7.020000       -1.8597118E-12
   7.030000       -1.9143240E-12
   7.040000       -1.9690603E-12
   7.050000       -2.0238295E-12
   7.060000       -2.0785522E-12
   7.070000       -2.1331396E-12
   7.080000       -2.1875043E-12
   7.090000       -2.2415466E-12
   7.100000       -2.2951569E-12
   7.110000       -2.3482319E-12
   7.120000       -2.4006645E-12
   7.130000       -2.4523317E-12
   7.140000       -2.5031164E-12
   7.150000       -2.5528900E-12
   7.160000       -2.6015295E-12
   7.170000       -2.6488952E-12
   7.180000       -2.6948428E-12
   7.190000       -2.7392244E-12
   7.200000       -2.7819034E-12
   7.210000       -2.8227130E-12
   7.220000       -2.8615005E-12
   7.230000       -2.8980965E-12
   7.240000       -2.9323336E-12
   7.250000       -2.9640346E-12
   7.260000       -2.9930166E-12
   7.270000       -3.0191071E-12
   7.280000       -3.0421069E-12
   7.290000       -3.0618216E-12
   7.300000       -3.0780467E-12
   7.310000       -3.0905825E-12
   7.320000       -3.0992236E-12
   7.330000       -3.1037466E-12
   7.340000       -3.1039325E-12
   7.350000       -3.0995653E-12
   7.360000       -3.0904155E-12
   7.370000       -3.0762539E-12
   7.380000       -3.0568371E-12
   7.390000       -3.0319297E-12
   7.400000       -3.0012861E-12
   7.410000       -2.9646552E-12
   7.420000       -2.9217791E-12
   7.430000       -2.8724020E-12
   7.440000       -2.8162772E-12
   7.450000       -2.7531319E-12
   7.460000       -2.6827063E-12
   7.470000       -2.6047213E-12
   7.480000       -2.5189180E-12
   7.490000       -2.4250116E-12
   7.500000       -2.3227206E-12
   7.510000       -2.2117802E-12
   7.520000       -2.0919091E-12
   7.530000       -1.9628171E-12
   7.540000       -1.8242311E-12
   7.550000       -1.6758562E-12
   7.560000       -1.5174105E-12
   7.570000       -1.3486157E-12
   7.580000       -1.1691736E-12
   7.590000       -9.7880818E-13
   7.600000       -7.7722453E-13
   7.610000       -5.6414362E-13
   7.620000       -3.3928145E-13
   7.630000       -1.0236189E-13
   7.640000        1.4690472E-13
   7.650000        4.0878618E-13
   7.660000        6.8356676E-13
   7.670000        9.7150185E-13
   7.680000        1.2728718E-12
   7.690000        1.5879361E-12
   7.700000        1.9169542E-12
   7.710000        2.2601792E-12
   7.720000        2.6178617E-12
   7.730000        2.9902400E-12
   7.740000        3.3775517E-12
   7.750000        3.7800258E-12
   7.760000        4.1978825E-12
   7.770000        4.6313309E-12
   7.780000        5.0805857E-12
   7.790000        5.5458329E-12
   7.800000        6.0272616E-12
   7.810000        6.5250457E-12
   7.820000        7.0393500E-12
   7.830000        7.5703220E-12
   7.840000        8.1181017E-12
   7.850000        8.6828131E-12
   7.860000        9.2645874E-12
   7.870000        9.8635093E-12
   7.880000        1.0479664E-11
   7.890000        1.1113123E-11
   7.900000        1.1763921E-11
   7.910000        1.2432099E-11
   7.920000        1.3117669E-11
   7.930000        1.3820648E-11
   7.940000        1.4540985E-11
   7.950000        1.5278692E-11
   7.960000        1.6033693E-11
   7.970000        1.6805824E-11
   7.980000        1.7595050E-11
   7.990000        1.8401244E-11
   8.000000        1.9224239E-11
   8.010000        2.0063838E-11
   8.020000        2.0919821E-11
   8.030000        2.1792020E-11
   8.040000        2.2680122E-11
   8.050000        2.3583900E-11
   8.060000        2.4502992E-11
   8.070000        2.5437038E-11
   8.080000        2.6385668E-11
   8.090000        2.7348509E-11
   8.100000        2.8325120E-11
   8.110000        2.9314894E-11
   8.120000        3.0317505E-11
   8.130000        3.1332315E-11
   8.140000        3.2358817E-11
   8.150000        3.3396341E-11
   8.160000        3.4444225E-11
   8.170000        3.5501820E-11
   8.180000        3.6568248E-11
   8.190000        3.7642851E-11
   8.200000        3.8724867E-11
   8.210000        3.9813267E-11
   8.220000        4.0907326E-11
   8.230000        4.2006065E-11
   8.240000        4.3108347E-11
   8.250000        4.4213296E-11
   8.260000        4.5319731E-11
   8.270000        4.6426644E-11
   8.280000        4.7532731E-11
   8.290000        4.8636848E-11
   8.300000        4.9737645E-11
   8.310000        5.0833938E-11
   8.320000        5.1924066E-11
   8.330000        5.3006800E-11
   8.340000        5.4080528E-11
   8.350000        5.5143716E-11
   8.360000        5.6195014E-11
   8.370000        5.7232538E-11
   8.380000        5.8254714E-11
   8.390000        5.9259660E-11
   8.400000        6.0245635E-11
   8.410000        6.1210835E-11
   8.420000        6.2153123E-11
   8.430000        6.3070750E-11
   8.440000        6.3961489E-11
   8.450000        6.4823279E-11
   8.460000        6.5653885E-11
   8.470000        6.6451185E-11
   8.480000        6.7212971E-11
   8.490000        6.7936719E-11
   8.500000        6.8619985E-11
   8.510000        6.9260653E-11
   8.520000        6.9855670E-11
   8.530000        7.0402940E-11
   8.540000        7.0899488E-11
   8.550000        7.1342869E-11
   8.560000        7.1730101E-11
   8.570000        7.2058567E-11
   8.580000        7.2325125E-11
   8.590000        7.2527220E-11
   8.600000        7.2661641E-11
   8.610000        7.2725125E-11
   8.620000        7.2714806E-11
   8.630000        7.2627529E-11
   8.640000        7.2459712E-11
   8.650000        7.2208552E-11
   8.660000        7.1870634E-11
   8.670000        7.1442130E-11
   8.680000        7.0920131E-11
   8.690000        7.0301147E-11
   8.700000        6.9581250E-11
   8.710000        6.8757194E-11
   8.720000        6.7825225E-11
   8.730000        6.6781664E-11
   8.740000        6.5622757E-11
   8.750000        6.4345182E-11
   8.760000        6.2944386E-11
   8.770000        6.1417045E-11
   8.780000        5.9759572E-11
   8.790000        5.7967874E-11
   8.800000        5.6038080E-11
   8.810000        5.3966009E-11
   8.820000        5.1747891E-11
   8.830000        4.9379705E-11
   8.840000        4.6857782E-11
   8.850000        4.4178095E-11
   8.860000        4.1336188E-11
   8.870000        3.8328559E-11
   8.880000        3.5150924E-11
   8.890000        3.1799525E-11
   8.900000        2.8270332E-11
   8.910000        2.4559244E-11
   8.920000        2.0662671E-11
   8.930000        1.6576329E-11
   8.940000        1.2296632E-11
   8.950000        7.8195566E-12
   8.960000        3.1414298E-12
   8.970000       -1.7416387E-12
   8.980000       -6.8332787E-12