 -0.1000000        2.7103906E-38
 -9.0000004E-02    8.1312563E-38
 -7.9999998E-02    1.3552095E-37
 -7.0000000E-02    1.8973160E-37
 -5.9999999E-02    2.4394221E-37
 -5.0000001E-02    2.9815286E-37
 -3.9999999E-02    3.5236235E-37
 -2.9999999E-02    4.0657188E-37
 -2.0000000E-02    4.6078478E-37
 -9.9999998E-03    5.1498409E-37
  0.0000000E+00    5.6919246E-37
  9.9999998E-03    6.2339634E-37
  2.0000000E-02    6.7760023E-37
  2.9999999E-02    7.3179958E-37
  3.9999999E-02    7.8600790E-37
  5.0000001E-02    8.4021632E-37
  5.9999999E-02    8.9441558E-37
  7.0000000E-02    9.4862399E-37
  7.9999998E-02    1.0028143E-36
  9.0000004E-02    1.0570136E-36
  0.1000000        1.1112039E-36
  0.1100000        1.1653942E-36
  0.1200000        1.2195845E-36
  0.1300000        1.2737747E-36
  0.1400000        1.3279741E-36
  0.1500000        1.3821644E-36
  0.1600000        1.4363548E-36
  0.1700000        1.4905451E-36
  0.1800000        1.5447444E-36
  0.1900000        1.5989256E-36
  0.2000000        1.6531248E-36
  0.2100000        1.7073243E-36
  0.2200000        1.6648619E-36
  0.2300000        1.4998675E-36
  0.2400000        1.3318442E-36
  0.2500000        1.0147501E-36
  0.2600000        3.3630894E-37
  0.2700000       -1.0061962E-36
  0.2800000       -3.5442242E-36
  0.2900000       -8.1089767E-36
  0.3000000       -1.6028283E-35
  0.3100000       -2.8931556E-35
  0.3200000       -4.8879822E-35
  0.3300000       -7.8100252E-35
  0.3400000       -1.1830285E-34
  0.3500000       -1.6963945E-34
  0.3600000       -2.2934652E-34
  0.3700000       -2.9071626E-34
  0.3800000       -3.4123545E-34
  0.3900000       -3.6106581E-34
  0.4000000       -3.2415917E-34
  0.4100000       -1.9776267E-34
  0.4200000        5.4070571E-35
  0.4300000        4.6547827E-34
  0.4400000        1.0780663E-33
  0.4500000        1.9462107E-33
  0.4600000        3.1601289E-33
  0.4700000        4.8983728E-33
  0.4800000        7.5074137E-33
  0.4900000        1.1600824E-32
  0.5000000        1.8187741E-32
  0.5100000        2.8854942E-32
  0.5200000        4.5925512E-32
  0.5300000        7.2562373E-32
  0.5400000        1.1283788E-31
  0.5500000        1.7171339E-31
  0.5600000        2.5494338E-31
  0.5700000        3.6888221E-31
  0.5800000        5.2031983E-31
  0.5900000        7.1641740E-31
  0.6000000        9.6485601E-31
  0.6100000        1.2744064E-30
  0.6200000        1.6559887E-30
  0.6300000        2.1243133E-30
  0.6400000        2.6999892E-30
  0.6500000        3.4119124E-30
  0.6600000        4.2995130E-30
  0.6700000        5.4143383E-30
  0.6800000        6.8204341E-30
  0.6900000        8.5929826E-30
  0.7000000        1.0814884E-29
  0.7100000        1.3571429E-29
  0.7200000        1.6943710E-29
  0.7300000        2.1001909E-29
  0.7400000        2.5800200E-29
  0.7500000        3.1375186E-29
  0.7600000        3.7749834E-29
  0.7700000        4.4944118E-29
  0.7800000        5.2992745E-29
  0.7900000        6.1968710E-29
  0.8000000        7.2009877E-29
  0.8100000        8.3344239E-29
  0.8200000        9.6308191E-29
  0.8300000        1.1135242E-28
  0.8400000        1.2903026E-28
  0.8500000        1.4996639E-28
  0.8600000        1.7480631E-28
  0.8700000        2.0415127E-28
  0.8800000        2.3848791E-28
  0.8900000        2.7812400E-28
  0.9000000        3.2314476E-28
  0.9100000        3.7340293E-28
  0.9200000        4.2855278E-28
  0.9300000        4.8813214E-28
  0.9400000        5.5169111E-28
  0.9500000        6.1895344E-28
  0.9600000        6.8999271E-28
  0.9700000        7.6539716E-28
  0.9800000        8.4639411E-28
  0.9900000        9.3490629E-28
   1.000000        1.0335192E-27
   1.010000        1.1453505E-27
   1.020000        1.2738188E-27
   1.030000        1.4223345E-27
   1.040000        1.5939404E-27
   1.050000        1.7909431E-27
   1.060000        2.0145884E-27
   1.070000        2.2648277E-27
   1.080000        2.5402174E-27
   1.090000        2.8379891E-27
   1.100000        3.1543000E-27
   1.110000        3.4846756E-27
   1.120000        3.8246010E-27
   1.130000        4.1702396E-27
   1.140000        4.5192066E-27
   1.150000        4.8713189E-27
   1.160000        5.2292495E-27
   1.170000        5.5989773E-27
   1.180000        5.9899557E-27
   1.190000        6.4149271E-27
   1.200000        6.8892964E-27
   1.210000        7.4300806E-27
   1.220000        8.0544463E-27
   1.230000        8.7778849E-27
   1.240000        9.6122016E-27
   1.250000        1.0563499E-26
   1.260000        1.1630415E-26
   1.270000        1.2802860E-26
   1.280000        1.4061574E-26
   1.290000        1.5378715E-26
   1.300000        1.6719605E-26
   1.310000        1.8045719E-26
   1.320000        1.9318749E-26
   1.330000        2.0505442E-26
   1.340000        2.1582829E-26
   1.350000        2.2543200E-26
   1.360000        2.3398132E-26
   1.370000        2.4181061E-26
   1.380000        2.4947597E-26
   1.390000        2.5773281E-26
   1.400000        2.6748615E-26
   1.410000        2.7971405E-26
   1.420000        2.9537014E-26
   1.430000        3.1527248E-26
   1.440000        3.3998928E-26
   1.450000        3.6973723E-26
   1.460000        4.0430434E-26
   1.470000        4.4301239E-26
   1.480000        4.8473124E-26
   1.490000        5.2795280E-26
   1.500000        5.7093001E-26
   1.510000        6.1187596E-26
   1.520000        6.4921736E-26
   1.530000        6.8188600E-26
   1.540000        7.0962679E-26
   1.550000        7.3329915E-26
   1.560000        7.5514320E-26
   1.570000        7.7898406E-26
   1.580000        8.1035490E-26
   1.590000        8.5651411E-26
   1.600000        9.2635671E-26
   1.610000        1.0302206E-25
   1.620000        1.1796082E-25
   1.630000        1.3868484E-25
   1.640000        1.6647298E-25
   1.650000        2.0261642E-25
   1.660000        2.4839048E-25
   1.670000        3.0503368E-25
   1.680000        3.7372532E-25
   1.690000        4.5556481E-25
   1.700000        5.5151899E-25
   1.710000        6.6230873E-25
   1.720000        7.8819166E-25
   1.730000        9.2854007E-25
   1.740000        1.0811322E-24
   1.750000        1.2409897E-24
   1.760000        1.3985743E-24
   1.770000        1.5370820E-24
   1.780000        1.6285190E-24
   1.790000        1.6281578E-24
   1.800000        1.4668538E-24
   1.810000        1.0406097E-24
   1.820000        1.9671265E-25
   1.830000       -1.2845360E-24
   1.840000       -3.7135217E-24
   1.850000       -7.5216972E-24
   1.860000       -1.3299742E-23
   1.870000       -2.1845871E-23
   1.880000       -3.4225516E-23
   1.890000       -5.1844721E-23
   1.900000       -7.6540618E-23
   1.910000       -1.1068926E-22
   1.920000       -1.5733636E-22
   1.930000       -2.2035473E-22
   1.940000       -3.0463251E-22
   1.950000       -4.1628422E-22
   1.960000       -5.6291014E-22
   1.970000       -7.5390389E-22
   1.980000       -1.0007881E-21
   1.990000       -1.3176237E-21
   2.000000       -1.7214578E-21
   2.010000       -2.2328636E-21
   2.020000       -2.8765079E-21
   2.030000       -3.6818855E-21
   2.040000       -4.6840177E-21
   2.050000       -5.9243164E-21
   2.060000       -7.4515386E-21
   2.070000       -9.3228910E-21
   2.080000       -1.1605198E-20
   2.090000       -1.4376034E-20
   2.100000       -1.7725387E-20
   2.110000       -2.1756958E-20
   2.120000       -2.6590159E-20
   2.130000       -3.2361403E-20
   2.140000       -3.9226811E-20
   2.150000       -4.7364213E-20
   2.160000       -5.6974171E-20
   2.170000       -6.8284664E-20
   2.180000       -8.1551885E-20
   2.190000       -9.7063628E-20
   2.200000       -1.1514200E-19
   2.210000       -1.3614712E-19
   2.220000       -1.6047936E-19
   2.230000       -1.8858303E-19
   2.240000       -2.2095051E-19
   2.250000       -2.5812533E-19
   2.260000       -3.0070520E-19
   2.270000       -3.4934670E-19
   2.280000       -4.0476677E-19
   2.290000       -4.6775234E-19
   2.300000       -5.3915575E-19
   2.310000       -6.1990668E-19
   2.320000       -7.1100961E-19
   2.330000       -8.1354950E-19
   2.340000       -9.2869770E-19
   2.350000       -1.0577162E-18
   2.360000       -1.2019483E-18
   2.370000       -1.3628409E-18
   2.380000       -1.5419323E-18
   2.390000       -1.7408705E-18
   2.400000       -1.9613701E-18
   2.410000       -2.2052757E-18
   2.420000       -2.4745391E-18
   2.430000       -2.7712091E-18
   2.440000       -3.0974119E-18
   2.450000       -3.4553944E-18
   2.460000       -3.8474817E-18
   2.470000       -4.2761093E-18
   2.480000       -4.7438200E-18
   2.490000       -5.2532102E-18
   2.500000       -5.8069816E-18
   2.510000       -6.4078750E-18
   2.520000       -7.0587118E-18
   2.530000       -7.7623563E-18
   2.540000       -8.5217048E-18
   2.550000       -9.3397219E-18
   2.560000       -1.0219325E-17
   2.570000       -1.1163541E-17
   2.580000       -1.2175185E-17
   2.590000       -1.3257172E-17
   2.600000       -1.4412375E-17
   2.610000       -1.5643459E-17
   2.620000       -1.6953087E-17
   2.630000       -1.8343810E-17
   2.640000       -1.9817893E-17
   2.650000       -2.1377550E-17
   2.660000       -2.3024629E-17
   2.670000       -2.4760947E-17
   2.680000       -2.6587673E-17
   2.690000       -2.8505971E-17
   2.700000       -3.0516602E-17
   2.710000       -3.2619831E-17
   2.720000       -3.4815496E-17
   2.730000       -3.7103071E-17
   2.740000       -3.9481327E-17
   2.750000       -4.1948599E-17
   2.760000       -4.4502456E-17
   2.770000       -4.7140113E-17
   2.780000       -4.9857792E-17
   2.790000       -5.2651406E-17
   2.800000       -5.5515572E-17
   2.810000       -5.8444215E-17
   2.820000       -6.1430502E-17
   2.830000       -6.4466831E-17
   2.840000       -6.7544651E-17
   2.850000       -7.0654042E-17
   2.860000       -7.3784219E-17
   2.870000       -7.6923860E-17
   2.880000       -8.0059827E-17
   2.890000       -8.3178285E-17
   2.900000       -8.6264006E-17
   2.910000       -8.9300731E-17
   2.920000       -9.2270985E-17
   2.930000       -9.5156601E-17
   2.940000       -9.7937278E-17
   2.950000       -1.0059238E-16
   2.960000       -1.0309959E-16
   2.970000       -1.0543575E-16
   2.980000       -1.0757571E-16
   2.990000       -1.0949409E-16
   3.000000       -1.1116389E-16
   3.010000       -1.1255730E-16
   3.020000       -1.1364482E-16
   3.030000       -1.1439701E-16
   3.040000       -1.1478207E-16
   3.050000       -1.1476840E-16
   3.060000       -1.1432300E-16
   3.070000       -1.1341252E-16
   3.080000       -1.1200223E-16
   3.090000       -1.1005758E-16
   3.100000       -1.0754268E-16
   3.110000       -1.0442198E-16
   3.120000       -1.0065909E-16
   3.130000       -9.6217841E-17
   3.140000       -9.1061289E-17
   3.150000       -8.5152831E-17
   3.160000       -7.8456314E-17
   3.170000       -7.0935476E-17
   3.180000       -6.2554482E-17
   3.190000       -5.3277803E-17
   3.200000       -4.3070792E-17
   3.210000       -3.1899545E-17
   3.220000       -1.9730749E-17
   3.230000       -6.5321307E-18
   3.240000        7.7276933E-18
   3.250000        2.3078329E-17
   3.260000        3.9549279E-17
   3.270000        5.7167981E-17
   3.280000        7.5961379E-17
   3.290000        9.5953646E-17
   3.300000        1.1716900E-16
   3.310000        1.3962957E-16
   3.320000        1.6335758E-16
   3.330000        1.8837180E-16
   3.340000        2.1469048E-16
   3.350000        2.4233321E-16
   3.360000        2.7131609E-16
   3.370000        3.0165443E-16
   3.380000        3.3336885E-16
   3.390000        3.6647219E-16
   3.400000        4.0098283E-16
   3.410000        4.3691916E-16
   3.420000        4.7430160E-16
   3.430000        5.1315156E-16
   3.440000        5.5349257E-16
   3.450000        5.9535315E-16
   3.460000        6.3876655E-16
   3.470000        6.8376994E-16
   3.480000        7.3040673E-16
   3.490000        7.7872879E-16
   3.500000        8.2879585E-16
   3.510000        8.8067646E-16
   3.520000        9.3445225E-16
   3.530000        9.9022323E-16
   3.540000        1.0480953E-15
   3.550000        1.1081918E-15
   3.560000        1.1706576E-15
   3.570000        1.2356600E-15
   3.580000        1.3033832E-15
   3.590000        1.3740451E-15
   3.600000        1.4478896E-15
   3.610000        1.5251850E-15
   3.620000        1.6062321E-15
   3.630000        1.6913808E-15
   3.640000        1.7810147E-15
   3.650000        1.8755565E-15
   3.660000        1.9754873E-15
   3.670000        2.0813281E-15
   3.680000        2.1936555E-15
   3.690000        2.3131178E-15
   3.700000        2.4404152E-15
   3.710000        2.5763221E-15
   3.720000        2.7216839E-15
   3.730000        2.8774234E-15
   3.740000        3.0445547E-15
   3.750000        3.2241812E-15
   3.760000        3.4174963E-15
   3.770000        3.6257779E-15
   3.780000        3.8504589E-15
   3.790000        4.0930335E-15
   3.800000        4.3551571E-15
   3.810000        4.6386002E-15
   3.820000        4.9452541E-15
   3.830000        5.2771546E-15
   3.840000        5.6365117E-15
   3.850000        6.0256878E-15
   3.860000        6.4471726E-15
   3.870000        6.9036607E-15
   3.880000        7.3980010E-15
   3.890000        7.9332962E-15
   3.900000        8.5128116E-15
   3.910000        9.1399598E-15
   3.920000        9.8184663E-15
   3.930000        1.0552212E-14
   3.940000        1.1345348E-14
   3.950000        1.2202286E-14
   3.960000        1.3127599E-14
   3.970000        1.4126234E-14
   3.980000        1.5203305E-14
   3.990000        1.6364336E-14
   4.000000        1.7615050E-14
   4.010000        1.8961441E-14
   4.020000        2.0409892E-14
   4.030000        2.1967088E-14
   4.040000        2.3639981E-14
   4.050000        2.5435895E-14
   4.060000        2.7362495E-14
   4.070000        2.9427937E-14
   4.080000        3.1640536E-14
   4.090000        3.4008973E-14
   4.100000        3.6542458E-14
   4.110000        3.9250551E-14
   4.120000        4.2143023E-14
   4.130000        4.5230404E-14
   4.140000        4.8523218E-14
   4.150000        5.2032678E-14
   4.160000        5.5770370E-14
   4.170000        5.9748085E-14
   4.180000        6.3978567E-14
   4.190000        6.8474503E-14
   4.200000        7.3248936E-14
   4.210000        7.8315691E-14
   4.220000        8.3688956E-14
   4.230000        8.9383463E-14
   4.240000        9.5413640E-14
   4.250000        1.0179520E-13
   4.260000        1.0854404E-13
   4.270000        1.1567623E-13
   4.280000        1.2320872E-13
   4.290000        1.3115843E-13
   4.300000        1.3954282E-13
   4.310000        1.4837995E-13
   4.320000        1.5768780E-13
   4.330000        1.6748536E-13
   4.340000        1.7779121E-13
   4.350000        1.8862554E-13
   4.360000        2.0000737E-13
   4.370000        2.1195663E-13
   4.380000        2.2449309E-13
   4.390000        2.3763779E-13
   4.400000        2.5141155E-13
   4.410000        2.6583480E-13
   4.420000        2.8092966E-13
   4.430000        2.9671702E-13
   4.440000        3.1321777E-13
   4.450000        3.3045271E-13
   4.460000        3.4844285E-13
   4.470000        3.6721193E-13
   4.480000        3.8677988E-13
   4.490000        4.0716733E-13
   4.500000        4.2839685E-13
   4.510000        4.5048888E-13
   4.520000        4.7346388E-13
   4.530000        4.9734121E-13
   4.540000        5.2214233E-13
   4.550000        5.4788433E-13
   4.560000        5.7458660E-13
   4.570000        6.0226769E-13
   4.580000        6.3094712E-13
   4.590000        6.6064011E-13
   4.600000        6.9136293E-13
   4.610000        7.2313265E-13
   4.620000        7.5595807E-13
   4.630000        7.8985646E-13
   4.640000        8.2483803E-13
   4.650000        8.6091686E-13
   4.660000        8.9809464E-13
   4.670000        9.3638227E-13
   4.680000        9.7578868E-13
   4.690000        1.0163180E-12
   4.700000        1.0579678E-12
   4.710000        1.1007438E-12
   4.720000        1.1446380E-12
   4.730000        1.1896487E-12
   4.740000        1.2357760E-12
   4.750000        1.2830032E-12
   4.760000        1.3313174E-12
   4.770000        1.3807083E-12
   4.780000        1.4311576E-12
   4.790000        1.4826473E-12
   4.800000        1.5351564E-12
   4.810000        1.5886499E-12
   4.820000        1.6431030E-12
   4.830000        1.6984766E-12
   4.840000        1.7547374E-12
   4.850000        1.8118431E-12
   4.860000        1.8697455E-12
   4.870000        1.9283954E-12
   4.880000        1.9877325E-12
   4.890000        2.0477092E-12
   4.900000        2.1082474E-12
   4.910000        2.1692763E-12
   4.920000        2.2307327E-12
   4.930000        2.2925253E-12
   4.940000        2.3545727E-12
   4.950000        2.4167870E-12
   4.960000        2.4790619E-12
   4.970000        2.5412864E-12
   4.980000        2.6033585E-12
   4.990000        2.6651682E-12
   5.000000        2.7265809E-12
   5.010000        2.7874675E-12
   5.020000        2.8476915E-12
   5.030000        2.9071066E-12
   5.040000        2.9655516E-12
   5.050000        3.0228771E-12
   5.060000        3.0789184E-12
   5.070000        3.1334952E-12
   5.080000        3.1864194E-12
   5.090000        3.2374982E-12
   5.100000        3.2865282E-12
   5.110000        3.3333065E-12
   5.120000        3.3776007E-12
   5.130000        3.4192057E-12
   5.140000        3.4578620E-12
   5.150000        3.4933289E-12
   5.160000        3.5253662E-12
   5.170000        3.5537046E-12
   5.180000        3.5780558E-12
   5.190000        3.5981448E-12
   5.200000        3.6136866E-12
   5.210000        3.6243669E-12
   5.220000        3.6298816E-12
   5.230000        3.6299089E-12
   5.240000        3.6241069E-12
   5.250000        3.6121453E-12
   5.260000        3.5936698E-12
   5.270000        3.5683225E-12
   5.280000        3.5357238E-12
   5.290000        3.4954919E-12
   5.300000        3.4472425E-12
   5.310000        3.3905756E-12
   5.320000        3.3250820E-12
   5.330000        3.2503358E-12
   5.340000        3.1659178E-12
   5.350000        3.0713873E-12
   5.360000        2.9662908E-12
   5.370000        2.8501851E-12
   5.380000        2.7226058E-12
   5.390000        2.5830820E-12
   5.400000        2.4311310E-12
   5.410000        2.2662701E-12
   5.420000        2.0880010E-12
   5.430000        1.8958277E-12
   5.440000        1.6892362E-12
   5.450000        1.4677167E-12
   5.460000        1.2307513E-12
   5.470000        9.7781494E-13
   5.480000        7.0837851E-13
   5.490000        4.2190543E-13
   5.500000        1.1786196E-13
   5.510000       -2.0429300E-13
   5.520000       -5.4509766E-13
   5.530000       -9.0510032E-13
   5.540000       -1.2848458E-12
   5.550000       -1.6848773E-12
   5.560000       -2.1057318E-12
   5.570000       -2.5479764E-12
   5.580000       -3.0121205E-12
   5.590000       -3.4987304E-12
   5.600000       -4.0083358E-12
   5.610000       -4.5414536E-12
   5.620000       -5.0986173E-12
   5.630000       -5.6803273E-12
   5.640000       -6.2871258E-12
   5.650000       -6.9194784E-12
   5.660000       -7.5778784E-12
   5.670000       -8.2628531E-12
   5.680000       -8.9748226E-12
   5.690000       -9.7142511E-12
   5.700000       -1.0481589E-11
   5.710000       -1.1277216E-11
   5.720000       -1.2101543E-11
   5.730000       -1.2955009E-11
   5.740000       -1.3837952E-11
   5.750000       -1.4750656E-11
   5.760000       -1.5693480E-11
   5.770000       -1.6666788E-11
   5.780000       -1.7670712E-11
   5.790000       -1.8705574E-11
   5.800000       -1.9771532E-11
   5.810000       -2.0868850E-11
   5.820000       -2.1997584E-11
   5.830000       -2.3157835E-11
   5.840000       -2.4349777E-11
   5.850000       -2.5573332E-11
   5.860000       -2.6828553E-11
   5.870000       -2.8115258E-11
   5.880000       -2.9433601E-11
   5.890000       -3.0783185E-11
   5.900000       -3.2163910E-11
   5.910000       -3.3575639E-11
   5.920000       -3.5017975E-11
   5.930000       -3.6490526E-11
   5.940000       -3.7992918E-11
   5.950000       -3.9524665E-11
   5.960000       -4.1085323E-11
   5.970000       -4.2674347E-11
   5.980000       -4.4290877E-11
   5.990000       -4.5934315E-11
   6.000000       -4.7603897E-11
   6.010000       -4.9298728E-11
   6.020000       -5.1017801E-11
   6.030000       -5.2760272E-11
   6.040000       -5.4524867E-11
   6.050000       -5.6310540E-11
   6.060000       -5.8115908E-11
   6.070000       -5.9939685E-11
   6.080000       -6.1780449E-11
   6.090000       -6.3636867E-11
   6.100000       -6.5507190E-11
   6.110000       -6.7389691E-11
   6.120000       -6.9282954E-11
   6.130000       -7.1184517E-11
   6.140000       -7.3092775E-11
   6.150000       -7.5005419E-11
   6.160000       -7.6920387E-11
   6.170000       -7.8835487E-11
   6.180000       -8.0748443E-11
   6.190000       -8.2656194E-11
   6.200000       -8.4556688E-11
   6.210000       -8.6447169E-11
   6.220000       -8.8324598E-11
   6.230000       -9.0186109E-11
   6.240000       -9.2028628E-11
   6.250000       -9.3849366E-11
   6.260000       -9.5644541E-11
   6.270000       -9.7411003E-11
   6.280000       -9.9145289E-11
   6.290000       -1.0084360E-10
   6.300000       -1.0250233E-10
   6.310000       -1.0411760E-10
   6.320000       -1.0568513E-10
   6.330000       -1.0720137E-10
   6.340000       -1.0866163E-10
   6.350000       -1.1006150E-10
   6.360000       -1.1139702E-10
   6.370000       -1.1266331E-10
   6.380000       -1.1385563E-10
   6.390000       -1.1496932E-10
   6.400000       -1.1599897E-10
   6.410000       -1.1694029E-10
   6.420000       -1.1778757E-10
   6.430000       -1.1853558E-10
   6.440000       -1.1917888E-10
   6.450000       -1.1971238E-10
   6.460000       -1.2013010E-10
   6.470000       -1.2042602E-10
   6.480000       -1.2059485E-10
   6.490000       -1.2063044E-10
   6.500000       -1.2052677E-10
   6.510000       -1.2027752E-10
   6.520000       -1.1987669E-10
   6.530000       -1.1931783E-10
   6.540000       -1.1859488E-10
   6.550000       -1.1770096E-10
   6.560000       -1.1662950E-10
   6.570000       -1.1537374E-10
   6.580000       -1.1392751E-10
   6.590000       -1.1228338E-10
   6.600000       -1.1043477E-10
   6.610000       -1.0837483E-10
   6.620000       -1.0609676E-10
   6.630000       -1.0359334E-10
   6.640000       -1.0085737E-10
   6.650000       -9.7882015E-11
   6.660000       -9.4660349E-11
   6.670000       -9.1184935E-11
   6.680000       -8.7448791E-11
   6.690000       -8.3444876E-11
   6.700000       -7.9166007E-11
   6.710000       -7.4605065E-11
   6.720000       -6.9755146E-11
   6.730000       -6.4609068E-11
   6.740000       -5.9159899E-11
   6.750000       -5.3400548E-11
   6.760000       -4.7324179E-11
   6.770000       -4.0924018E-11
   6.780000       -3.4193263E-11
   6.790000       -2.7125333E-11
   6.800000       -1.9713545E-11
   6.810000       -1.1951558E-11
   6.820000       -3.8329739E-12
   6.830000        4.6483655E-12
   6.840000        1.3498421E-11
   6.850000        2.2723202E-11
   6.860000        3.2328317E-11
   6.870000        4.2319426E-11
   6.880000        5.2701857E-11
   6.890000        6.3480526E-11
   6.900000        7.4660556E-11
   6.910000        8.6246711E-11
   6.920000        9.8243143E-11
   6.930000        1.1065412E-10
   6.940000        1.2348354E-10
   6.950000        1.3673475E-10
   6.960000        1.5041093E-10
   6.970000        1.6451514E-10
   6.980000        1.7905014E-10
   6.990000        1.9401793E-10
   7.000000        2.0942072E-10
   7.010000        2.2525948E-10
   7.020000        2.4153637E-10
   7.030000        2.5825042E-10
   7.040000        2.7540298E-10
   7.050000        2.9299410E-10
   7.060000        3.1102140E-10
   7.070000        3.2948416E-10
   7.080000        3.4838180E-10
   7.090000        3.6771133E-10
   7.100000        3.8747067E-10
   7.110000        4.0765594E-10
   7.120000        4.2826315E-10
   7.130000        4.4928866E-10
   7.140000        4.7072524E-10
   7.150000        4.9257032E-10
   7.160000        5.1481425E-10
   7.170000        5.3745369E-10
   7.180000        5.6047755E-10
   7.190000        5.8387939E-10
   7.200000        6.0764815E-10
   7.210000        6.3177635E-10
   7.220000        6.5625133E-10
   7.230000        6.8106432E-10
   7.240000        7.0620138E-10
   7.250000        7.3165107E-10
   7.260000        7.5739892E-10
   7.270000        7.8342915E-10
   7.280000        8.0972734E-10
   7.290000        8.3627993E-10
   7.300000        8.6306612E-10
   7.310000        8.9007113E-10
   7.320000        9.1727548E-10
   7.330000        9.4465646E-10
   7.340000        9.7219632E-10
   7.350000        9.9987307E-10
   7.360000        1.0276657E-09
   7.370000        1.0555488E-09
   7.380000        1.0834972E-09
   7.390000        1.1114872E-09
   7.400000        1.1394944E-09
   7.410000        1.1674880E-09
   7.420000        1.1954416E-09
   7.430000        1.2233254E-09
   7.440000        1.2511104E-09
   7.450000        1.2787637E-09
   7.460000        1.3062528E-09
   7.470000        1.3335446E-09
   7.480000        1.3606087E-09
   7.490000        1.3874034E-09
   7.500000        1.4138978E-09
   7.510000        1.4400521E-09
   7.520000        1.4658299E-09
   7.530000        1.4911881E-09
   7.540000        1.5160844E-09
   7.550000        1.5404843E-09
   7.560000        1.5643415E-09
   7.570000        1.5876144E-09
   7.580000        1.6102598E-09
   7.590000        1.6322261E-09
   7.600000        1.6534719E-09
   7.610000        1.6739469E-09
   7.620000        1.6936108E-09
   7.630000        1.7124058E-09
   7.640000        1.7302907E-09
   7.650000        1.7472052E-09
   7.660000        1.7630989E-09
   7.670000        1.7779196E-09
   7.680000        1.7916157E-09
   7.690000        1.8041340E-09
   7.700000        1.8154118E-09
   7.710000        1.8254001E-09
   7.720000        1.8340410E-09
   7.730000        1.8412811E-09
   7.740000        1.8470565E-09
   7.750000        1.8513073E-09
   7.760000        1.8539779E-09
   7.770000        1.8550076E-09
   7.780000        1.8543325E-09
   7.790000        1.8518971E-09
   7.800000        1.8476379E-09
   7.810000        1.8414947E-09
   7.820000        1.8334008E-09
   7.830000        1.8232977E-09
   7.840000        1.8111190E-09
   7.850000        1.7968000E-09
   7.860000        1.7802787E-09
   7.870000        1.7614927E-09
   7.880000        1.7403785E-09
   7.890000        1.7168778E-09
   7.900000        1.6909207E-09
   7.910000        1.6624427E-09
   7.920000        1.6313814E-09
   7.930000        1.5976801E-09
   7.940000        1.5612677E-09
   7.950000        1.5220828E-09
   7.960000        1.4800684E-09
   7.970000        1.4351582E-09
   7.980000        1.3872933E-09
   7.990000        1.3364151E-09
   8.000000        1.2824576E-09
   8.010000        1.2253690E-09
   8.020000        1.1650882E-09
   8.030000        1.1015584E-09
   8.040000        1.0347231E-09
   8.050000        9.6452935E-10
   8.060000        8.9092145E-10
   8.070000        8.1384599E-10
   8.080000        7.3325535E-10
   8.090000        6.4909483E-10
   8.100000        5.6131816E-10
   8.110000        4.6988019E-10
   8.120000        3.7473458E-10
   8.130000        2.7583996E-10
   8.140000        1.7315450E-10
   8.150000        6.6638334E-11
   8.160000       -4.3744949E-11
   8.170000       -1.5802899E-10
   8.180000       -2.7624678E-10
   8.190000       -3.9842921E-10
   8.200000       -5.2460253E-10
   8.210000       -6.5479244E-10
   8.220000       -7.8901996E-10
   8.230000       -9.2730407E-10
   8.240000       -1.0696609E-09
   8.250000       -1.2161059E-09
   8.260000       -1.3666472E-09
   8.270000       -1.5212944E-09
   8.280000       -1.6800468E-09
   8.290000       -1.8429079E-09
   8.300000       -2.0098732E-09
   8.310000       -2.1809370E-09
   8.320000       -2.3560811E-09
   8.330000       -2.5352977E-09
   8.340000       -2.7185629E-09
   8.350000       -2.9058540E-09
   8.360000       -3.0971516E-09
   8.370000       -3.2924159E-09
   8.380000       -3.4916119E-09
   8.390000       -3.6947008E-09
   8.400000       -3.9016386E-09
   8.410000       -4.1123798E-09
   8.420000       -4.3268540E-09
   8.430000       -4.5450084E-09
   8.440000       -4.7667865E-09
   8.450000       -4.9921050E-09
   8.460000       -5.2209002E-09
   8.470000       -5.4530731E-09
   8.480000       -5.6885634E-09
   8.490000       -5.9272738E-09
   8.500000       -6.1690906E-09
   8.510000       -6.4139223E-09
   8.520000       -6.6616548E-09
   8.530000       -6.9121713E-09
   8.540000       -7.1653603E-09
   8.550000       -7.4210984E-09
   8.560000       -7.6792404E-09
   8.570000       -7.9396507E-09
   8.580000       -8.2022016E-09
   8.590000       -8.4667136E-09
   8.600000       -8.7330330E-09
   8.610000       -9.0010097E-09
   8.620000       -9.2704742E-09
   8.630000       -9.5412407E-09
   8.640000       -9.8131094E-09
   8.650000       -1.0085936E-08
   8.660000       -1.0359487E-08
   8.670000       -1.0633555E-08
   8.680000       -1.0907943E-08
   8.690000       -1.1182406E-08
   8.700000       -1.1456757E-08
   8.710000       -1.1730753E-08
   8.720000       -1.2004173E-08
   8.730000       -1.2276739E-08
   8.740000       -1.2548232E-08
   8.750000       -1.2818363E-08
   8.760000       -1.3086897E-08
   8.770000       -1.3353555E-08
   8.780000       -1.3618030E-08
   8.790000       -1.3880066E-08
   8.800000       -1.4139333E-08
   8.810000       -1.4395595E-08
   8.820000       -1.4648525E-08
   8.830000       -1.4897792E-08
   8.840000       -1.5143105E-08
   8.850000       -1.5384130E-08
   8.860000       -1.5620531E-08
   8.870000       -1.5851962E-08
   8.880000       -1.6078122E-08
   8.890000       -1.6298587E-08
   8.900000       -1.6513061E-08
   8.910000       -1.6721193E-08
   8.920000       -1.6922563E-08
   8.930000       -1.7116871E-08
   8.940000       -1.7303663E-08
   8.950000       -1.7482582E-08
   8.960000       -1.7653299E-08
   8.970000       -1.7815299E-08
   8.980000       -1.7968315E-08