 -0.1000000       -8.4193592E-36
 -9.0000004E-02   -2.5258079E-35
 -7.9999998E-02   -4.2096797E-35
 -7.0000000E-02   -5.8935521E-35
 -5.9999999E-02   -7.5774231E-35
 -5.0000001E-02   -9.2612941E-35
 -3.9999999E-02   -1.0945166E-34
 -2.9999999E-02   -1.2629037E-34
 -2.0000000E-02   -1.4312909E-34
 -9.9999998E-03   -1.5996779E-34
  0.0000000E+00   -1.7680652E-34
  9.9999998E-03   -1.9364522E-34
  2.0000000E-02   -2.1048395E-34
  2.9999999E-02   -2.2732265E-34
  3.9999999E-02   -2.4416136E-34
  5.0000001E-02   -2.6100008E-34
  5.9999999E-02   -2.7783881E-34
  7.0000000E-02   -2.9467752E-34
  7.9999998E-02   -3.1151622E-34
  9.0000004E-02   -3.2835497E-34
  0.1000000       -3.4519367E-34
  0.1100000       -3.6203238E-34
  0.1200000       -3.7887113E-34
  0.1300000       -3.9570983E-34
  0.1400000       -4.1254856E-34
  0.1500000       -4.2938724E-34
  0.1600000       -4.4622597E-34
  0.1700000       -4.6306469E-34
  0.1800000       -4.7990337E-34
  0.1900000       -4.9674210E-34
  0.2000000       -5.1358083E-34
  0.2100000       -5.3041956E-34
  0.2200000       -5.4725824E-34
  0.2300000       -5.6409701E-34
  0.2400000       -5.8093569E-34
  0.2500000       -5.9777442E-34
  0.2600000       -6.1461310E-34
  0.2700000       -6.3145183E-34
  0.2800000       -6.4829051E-34
  0.2900000       -6.6512919E-34
  0.3000000       -6.8196791E-34
  0.3100000       -6.9880660E-34
  0.3200000       -7.1564537E-34
  0.3300000       -7.3248410E-34
  0.3400000       -7.4932278E-34
  0.3500000       -7.6616150E-34
  0.3600000       -7.8300018E-34
  0.3700000       -7.9983887E-34
  0.3800000       -8.1667764E-34
  0.3900000       -8.3351632E-34
  0.4000000       -8.5035500E-34
  0.4100000       -8.6719368E-34
  0.4200000       -8.8403246E-34
  0.4300000       -9.0087114E-34
  0.4400000       -9.1770982E-34
  0.4500000       -9.3454859E-34
  0.4600000       -9.5138718E-34
  0.4700000       -9.6822595E-34
  0.4800000       -9.8506463E-34
  0.4900000       -1.0019034E-33
  0.5000000       -1.0187421E-33
  0.5100000       -1.0355808E-33
  0.5200000       -1.0524196E-33
  0.5300000       -1.0692582E-33
  0.5400000       -1.0860970E-33
  0.5500000       -1.1029358E-33
  0.5600000       -1.1197744E-33
  0.5700000       -1.1366131E-33
  0.5800000       -1.1534519E-33
  0.5900000       -1.1702906E-33
  0.6000000       -1.1871293E-33
  0.6100000       -1.2039679E-33
  0.6200000       -1.2208067E-33
  0.6300000       -1.2376455E-33
  0.6400000       -1.2544842E-33
  0.6500000       -1.2713228E-33
  0.6600000       -1.2881615E-33
  0.6700000       -1.3050002E-33
  0.6800000       -1.3218389E-33
  0.6900000       -1.3386777E-33
  0.7000000       -1.3555164E-33
  0.7100000       -1.3723550E-33
  0.7200000       -1.3891939E-33
  0.7300000       -1.4060326E-33
  0.7400000       -1.4228711E-33
  0.7500000       -1.4397100E-33
  0.7600000       -1.4565486E-33
  0.7700000       -1.4733872E-33
  0.7800000       -1.4902261E-33
  0.7900000       -1.5070648E-33
  0.8000000       -1.5239034E-33
  0.8100000       -1.5407422E-33
  0.8200000       -1.5575809E-33
  0.8300000       -1.5744197E-33
  0.8400000       -1.5912584E-33
  0.8500000       -1.6080968E-33
  0.8600000       -1.6249358E-33
  0.8700000       -1.6417744E-33
  0.8800000       -1.6586132E-33
  0.8900000       -1.6754518E-33
  0.9000000       -1.6922905E-33
  0.9100000       -1.7091293E-33
  0.9200000       -1.7259679E-33
  0.9300000       -1.7428067E-33
  0.9400000       -1.7596452E-33
  0.9500000       -1.7764840E-33
  0.9600000       -1.7933228E-33
  0.9700000       -1.8101614E-33
  0.9800000       -1.8270002E-33
  0.9900000       -1.8438389E-33
   1.000000       -1.8606775E-33
   1.010000       -1.8775161E-33
   1.020000       -1.8943551E-33
   1.030000       -1.9111937E-33
   1.040000       -1.9280322E-33
   1.050000       -1.9448712E-33
   1.060000       -1.9617098E-33
   1.070000       -1.9785486E-33
   1.080000       -1.9953873E-33
   1.090000       -2.0122257E-33
   1.100000       -2.0290645E-33
   1.110000       -2.0459035E-33
   1.120000       -2.0627421E-33
   1.130000       -2.0795806E-33
   1.140000       -2.0964196E-33
   1.150000       -2.1132584E-33
   1.160000       -2.1300975E-33
   1.170000       -2.1469363E-33
   1.180000       -2.1637752E-33
   1.190000       -2.1806142E-33
   1.200000       -2.1974530E-33
   1.210000       -2.2142919E-33
   1.220000       -2.2311309E-33
   1.230000       -2.2479697E-33
   1.240000       -2.2648088E-33
   1.250000       -2.2816476E-33
   1.260000       -2.2984863E-33
   1.270000       -2.3153253E-33
   1.280000       -2.3321641E-33
   1.290000       -2.3490030E-33
   1.300000       -2.3658420E-33
   1.310000       -2.3826809E-33
   1.320000       -2.3995197E-33
   1.330000       -2.4163587E-33
   1.340000       -2.4331976E-33
   1.350000       -2.4500366E-33
   1.360000       -2.4668752E-33
   1.370000       -2.4837141E-33
   1.380000       -2.5005535E-33
   1.390000       -2.5173920E-33
   1.400000       -2.5342310E-33
   1.410000       -2.5510700E-33
   1.420000       -2.5679089E-33
   1.430000       -2.5847477E-33
   1.440000       -2.6015866E-33
   1.450000       -2.6184256E-33
   1.460000       -2.6352642E-33
   1.470000       -2.6521035E-33
   1.480000       -2.6689421E-33
   1.490000       -2.6857811E-33
   1.500000       -2.7026200E-33
   1.510000       -2.7194590E-33
   1.520000       -2.7362978E-33
   1.530000       -2.7531367E-33
   1.540000       -2.7699758E-33
   1.550000       -2.7868146E-33
   1.560000       -2.8036536E-33
   1.570000       -2.8204925E-33
   1.580000       -2.8373315E-33
   1.590000       -2.8541701E-33
   1.600000       -2.8710090E-33
   1.610000       -2.8878480E-33
   1.620000       -2.9046868E-33
   1.630000       -2.9215259E-33
   1.640000       -2.9383647E-33
   1.650000       -2.9552036E-33
   1.660000       -2.9720426E-33
   1.670000       -2.9888815E-33
   1.680000       -3.0057201E-33
   1.690000       -3.0225591E-33
   1.700000       -3.0393984E-33
   1.710000       -3.0562368E-33
   1.720000       -3.0730760E-33
   1.730000       -3.0899151E-33
   1.740000       -3.1067541E-33
   1.750000       -3.1235926E-33
   1.760000       -3.1404316E-33
   1.770000       -3.1572706E-33
   1.780000       -3.1741092E-33
   1.790000       -3.1909485E-33
   1.800000       -3.2077871E-33
   1.810000       -3.2246260E-33
   1.820000       -3.2414650E-33
   1.830000       -3.2583039E-33
   1.840000       -3.2751429E-33
   1.850000       -3.2919815E-33
   1.860000       -3.3088208E-33
   1.870000       -3.3256594E-33
   1.880000       -3.3424984E-33
   1.890000       -3.3593377E-33
   1.900000       -3.3761766E-33
   1.910000       -3.3930152E-33
   1.920000       -3.4098542E-33
   1.930000       -3.4266931E-33
   1.940000       -3.4435321E-33
   1.950000       -3.4603710E-33
   1.960000       -3.4772100E-33
   1.970000       -3.4940490E-33
   1.980000       -3.5108879E-33
   1.990000       -3.5277269E-33
   2.000000       -3.5445655E-33
   2.010000       -3.5614048E-33
   2.020000       -3.5782437E-33
   2.030000       -3.5950823E-33
   2.040000       -3.6119213E-33
   2.050000       -3.6287602E-33
   2.060000       -3.6455996E-33
   2.070000       -3.6624382E-33
   2.080000       -3.6792771E-33
   2.090000       -3.6961161E-33
   2.100000       -3.7129547E-33
   2.110000       -3.7297940E-33
   2.120000       -3.7466326E-33
   2.130000       -3.7634715E-33
   2.140000       -3.7803105E-33
   2.150000       -3.7971494E-33
   2.160000       -3.8139880E-33
   2.170000       -3.8308270E-33
   2.180000       -3.8476663E-33
   2.190000       -3.8645049E-33
   2.200000       -3.8813439E-33
   2.210000       -3.8981828E-33
   2.220000       -3.9150218E-33
   2.230000       -3.9318607E-33
   2.240000       -3.9486993E-33
   2.250000       -3.9655386E-33
   2.260000       -3.9823776E-33
   2.270000       -3.9992166E-33
   2.280000       -4.0160555E-33
   2.290000       -4.0328941E-33
   2.300000       -4.0497334E-33
   2.310000       -4.0665724E-33
   2.320000       -4.0834110E-33
   2.330000       -4.1002499E-33
   2.340000       -4.1170889E-33
   2.350000       -4.1339278E-33
   2.360000       -4.1507664E-33
   2.370000       -4.1676054E-33
   2.380000       -4.1844440E-33
   2.390000       -4.2012829E-33
   2.400000       -4.2181219E-33
   2.410000       -4.2349612E-33
   2.420000       -4.2517994E-33
   2.430000       -4.2686388E-33
   2.440000       -4.2854777E-33
   2.450000       -4.3023163E-33
   2.460000       -4.3191553E-33
   2.470000       -4.3359942E-33
   2.480000       -4.3528332E-33
   2.490000       -4.3696721E-33
   2.500000       -4.3865111E-33
   2.510000       -4.4033500E-33
   2.520000       -4.4201890E-33
   2.530000       -4.4370280E-33
   2.540000       -4.4538665E-33
   2.550000       -4.4707059E-33
   2.560000       -4.4875448E-33
   2.570000       -4.5043838E-33
   2.580000       -4.5212224E-33
   2.590000       -4.5380613E-33
   2.600000       -4.5549007E-33
   2.610000       -4.5717389E-33
   2.620000       -4.5885782E-33
   2.630000       -4.6054172E-33
   2.640000       -4.6222557E-33
   2.650000       -4.6390951E-33
   2.660000       -4.6559337E-33
   2.670000       -4.6727726E-33
   2.680000       -4.6896116E-33
   2.690000       -4.7064505E-33
   2.700000       -4.7232891E-33
   2.710000       -4.7401281E-33
   2.720000       -4.7569674E-33
   2.730000       -4.7738060E-33
   2.740000       -4.7906453E-33
   2.750000       -4.8074839E-33
   2.760000       -4.8243229E-33
   2.770000       -4.8411618E-33
   2.780000       -4.8580008E-33
   2.790000       -4.8748397E-33
   2.800000       -4.8916787E-33
   2.810000       -4.9085176E-33
   2.820000       -4.9253566E-33
   2.830000       -4.9421956E-33
   2.840000       -4.9590345E-33
   2.850000       -4.9758727E-33
   2.860000       -4.9927124E-33
   2.870000       -5.0095514E-33
   2.880000       -5.0263896E-33
   2.890000       -5.0432293E-33
   2.900000       -5.0600675E-33
   2.910000       -5.0769065E-33
   2.920000       -5.0937462E-33
   2.930000       -5.1105844E-33
   2.940000       -5.1274230E-33
   2.950000       -5.1442623E-33
   2.960000       -5.1611013E-33
   2.970000       -5.1779409E-33
   2.980000       -5.1947792E-33
   2.990000       -5.2116178E-33
   3.000000       -5.2284571E-33
   3.010000       -5.2452960E-33
   3.020000       -5.2621350E-33
   3.030000       -5.2789739E-33
   3.040000       -5.2958129E-33
   3.050000       -5.3126515E-33
   3.060000       -5.3294908E-33
   3.070000       -5.3463298E-33
   3.080000       -5.3631684E-33
   3.090000       -5.3800077E-33
   3.100000       -5.3968463E-33
   3.110000       -5.4136852E-33
   3.120000       -5.4305246E-33
   3.130000       -5.4473631E-33
   3.140000       -5.4642021E-33
   3.150000       -5.4810411E-33
   3.160000       -5.4978800E-33
   3.170000       -5.5147190E-33
   3.180000       -5.5315579E-33
   3.190000       -5.5483969E-33
   3.200000       -5.5652351E-33
   3.210000       -5.5820748E-33
   3.220000       -5.5989138E-33
   3.230000       -5.6157520E-33
   3.240000       -5.6325917E-33
   3.250000       -5.6494299E-33
   3.260000       -5.6662688E-33
   3.270000       -5.6831085E-33
   3.280000       -5.6999468E-33
   3.290000       -5.7167865E-33
   3.300000       -5.7336247E-33
   3.310000       -5.7504636E-33
   3.320000       -5.7673033E-33
   3.330000       -5.7841415E-33
   3.340000       -5.8009805E-33
   3.350000       -5.8178195E-33
   3.360000       -5.8346584E-33
   3.370000       -5.8514974E-33
   3.380000       -5.8683363E-33
   3.390000       -5.8851753E-33
   3.400000       -5.9020139E-33
   3.410000       -5.9188532E-33
   3.420000       -5.9356922E-33
   3.430000       -5.9525311E-33
   3.440000       -5.9693701E-33
   3.450000       -5.9862087E-33
   3.460000       -6.0030476E-33
   3.470000       -6.0198869E-33
   3.480000       -6.0367259E-33
   3.490000       -6.0535645E-33
   3.500000       -6.0704034E-33
   3.510000       -6.0872424E-33
   3.520000       -6.1040814E-33
   3.530000       -6.1209207E-33
   3.540000       -6.1377593E-33
   3.550000       -6.1545975E-33
   3.560000       -6.1714372E-33
   3.570000       -6.1882761E-33
   3.580000       -6.2051158E-33
   3.590000       -6.2219540E-33
   3.600000       -6.2387923E-33
   3.610000       -6.2556320E-33
   3.620000       -6.2724709E-33
   3.630000       -6.2893099E-33
   3.640000       -6.3061488E-33
   3.650000       -6.3229871E-33
   3.660000       -6.3398260E-33
   3.670000       -6.3566657E-33
   3.680000       -6.3735047E-33
   3.690000       -6.3903429E-33
   3.700000       -6.4071818E-33
   3.710000       -6.4240208E-33
   3.720000       -6.4408597E-33
   3.730000       -6.4576987E-33
   3.740000       -6.4745377E-33
   3.750000       -6.4913759E-33
   3.760000       -6.5082156E-33
   3.770000       -6.5250545E-33
   3.780000       -6.5418928E-33
   3.790000       -6.5587324E-33
   3.800000       -6.5755707E-33
   3.810000       -6.5924096E-33
   3.820000       -6.6092486E-33
   3.830000       -6.6260875E-33
   3.840000       -6.6429258E-33
   3.850000       -6.6597654E-33
   3.860000       -6.6766044E-33
   3.870000       -6.6934426E-33
   3.880000       -6.7102816E-33
   3.890000       -6.7271205E-33
   3.900000       -6.7439595E-33
   3.910000       -6.7607992E-33
   3.920000       -6.7776374E-33
   3.930000       -6.7944764E-33
   3.940000       -6.8113153E-33
   3.950000       -6.8281543E-33
   3.960000       -6.8449932E-33
   3.970000       -6.8618322E-33
   3.980000       -6.8786711E-33
   3.990000       -6.8955101E-33
   4.000000       -6.9123491E-33
   4.010000       -6.9291880E-33
   4.020000       -6.9460270E-33
   4.030000       -6.9628659E-33
   4.040000       -6.9797042E-33
   4.050000       -6.9965438E-33
   4.060000       -7.0133828E-33
   4.070000       -7.0302210E-33
   4.080000       -7.0470607E-33
   4.090000       -7.0638997E-33
   4.100000       -7.0807386E-33
   4.110000       -7.0975769E-33
   4.120000       -7.1144158E-33
   4.130000       -7.1312548E-33
   4.140000       -7.1480945E-33
   4.150000       -7.1646498E-33
   4.160000       -7.1808489E-33
   4.170000       -7.1971104E-33
   4.180000       -7.2135026E-33
   4.190000       -7.2298126E-33
   4.200000       -7.2457641E-33
   4.210000       -7.2615737E-33
   4.220000       -7.2772306E-33
   4.230000       -7.2925164E-33
   4.240000       -7.3077832E-33
   4.250000       -7.3228221E-33
   4.260000       -7.3373527E-33
   4.270000       -7.3518943E-33
   4.280000       -7.3662339E-33
   4.290000       -7.3801201E-33
   4.300000       -7.3934782E-33
   4.310000       -7.4060861E-33
   4.320000       -7.4181841E-33
   4.330000       -7.4295563E-33
   4.340000       -7.4400153E-33
   4.350000       -7.4495250E-33
   4.360000       -7.4578637E-33
   4.370000       -7.4648380E-33
   4.380000       -7.4702556E-33
   4.390000       -7.4742045E-33
   4.400000       -7.4762756E-33
   4.410000       -7.4758921E-33
   4.420000       -7.4728586E-33
   4.430000       -7.4670053E-33
   4.440000       -7.4578762E-33
   4.450000       -7.4450442E-33
   4.460000       -7.4281170E-33
   4.470000       -7.4061478E-33
   4.480000       -7.3784862E-33
   4.490000       -7.3447591E-33
   4.500000       -7.3040605E-33
   4.510000       -7.2554781E-33
   4.520000       -7.1979163E-33
   4.530000       -7.1301270E-33
   4.540000       -7.0513035E-33
   4.550000       -6.9597288E-33
   4.560000       -6.8539417E-33
   4.570000       -6.7330575E-33
   4.580000       -6.5948613E-33
   4.590000       -6.4371562E-33
   4.600000       -6.2576869E-33
   4.610000       -6.0540799E-33
   4.620000       -5.8231749E-33
   4.630000       -5.5614526E-33
   4.640000       -5.2669663E-33
   4.650000       -4.9359573E-33
   4.660000       -4.5636191E-33
   4.670000       -4.1455116E-33
   4.680000       -3.6768512E-33
   4.690000       -3.1522281E-33
   4.700000       -2.5661769E-33
   4.710000       -1.9123502E-33
   4.720000       -1.1839642E-33
   4.730000       -3.7497101E-34
   4.740000        5.2243083E-34
   4.750000        1.5198383E-33
   4.760000        2.6267911E-33
   4.770000        3.8541811E-33
   4.780000        5.2143592E-33
   4.790000        6.7150894E-33
   4.800000        8.3699532E-33
   4.810000        1.0192186E-32
   4.820000        1.2195313E-32
   4.830000        1.4395577E-32
   4.840000        1.6808613E-32
   4.850000        1.9442043E-32
   4.860000        2.2304736E-32
   4.870000        2.5414205E-32
   4.880000        2.8795785E-32
   4.890000        3.2485289E-32
   4.900000        3.6509165E-32
   4.910000        4.0888437E-32
   4.920000        4.5646350E-32
   4.930000        5.0818925E-32
   4.940000        5.6444882E-32
   4.950000        6.2543305E-32
   4.960000        6.9146727E-32
   4.970000        7.6294632E-32
   4.980000        8.4029644E-32
   4.990000        9.2396048E-32
   5.000000        1.0143005E-31
   5.010000        1.1116950E-31
   5.020000        1.2166385E-31
   5.030000        1.3297431E-31
   5.040000        1.4514069E-31
   5.050000        1.5821955E-31
   5.060000        1.7228032E-31
   5.070000        1.8737763E-31
   5.080000        2.0357204E-31
   5.090000        2.2091728E-31
   5.100000        2.3948375E-31
   5.110000        2.5933956E-31
   5.120000        2.8054821E-31
   5.130000        3.0318748E-31
   5.140000        3.2733782E-31
   5.150000        3.5307969E-31
   5.160000        3.8047891E-31
   5.170000        4.0961069E-31
   5.180000        4.4056221E-31
   5.190000        4.7342457E-31
   5.200000        5.0827873E-31
   5.210000        5.4519588E-31
   5.220000        5.8426334E-31
   5.230000        6.2557430E-31
   5.240000        6.6920259E-31
   5.250000        7.1521129E-31
   5.260000        7.6368558E-31
   5.270000        8.1471228E-31
   5.280000        8.6835338E-31
   5.290000        9.2467799E-31
   5.300000        9.8375909E-31
   5.310000        1.0456575E-30
   5.320000        1.1104277E-30
   5.330000        1.1781149E-30
   5.340000        1.2487520E-30
   5.350000        1.3223722E-30
   5.360000        1.3990125E-30
   5.370000        1.4786934E-30
   5.380000        1.5614219E-30
   5.390000        1.6471868E-30
   5.400000        1.7359402E-30
   5.410000        1.8276340E-30
   5.420000        1.9221977E-30
   5.430000        2.0195484E-30
   5.440000        2.1195875E-30
   5.450000        2.2221705E-30
   5.460000        2.3271363E-30
   5.470000        2.4342745E-30
   5.480000        2.5433727E-30
   5.490000        2.6542023E-30
   5.500000        2.7664584E-30
   5.510000        2.8798212E-30
   5.520000        2.9939395E-30
   5.530000        3.1084069E-30
   5.540000        3.2227767E-30
   5.550000        3.3365322E-30
   5.560000        3.4491099E-30
   5.570000        3.5598987E-30
   5.580000        3.6682101E-30
   5.590000        3.7733211E-30
   5.600000        3.8744395E-30
   5.610000        3.9706815E-30
   5.620000        4.0611043E-30
   5.630000        4.1446791E-30
   5.640000        4.2202929E-30
   5.650000        4.2867589E-30
   5.660000        4.3427862E-30
   5.670000        4.3869859E-30
   5.680000        4.4178696E-30
   5.690000        4.4338379E-30
   5.700000        4.4331936E-30
   5.710000        4.4141126E-30
   5.720000        4.3746381E-30
   5.730000        4.3127071E-30
   5.740000        4.2261245E-30
   5.750000        4.1125371E-30
   5.760000        3.9694706E-30
   5.770000        3.7942896E-30
   5.780000        3.5841853E-30
   5.790000        3.3361880E-30
   5.800000        3.0471580E-30
   5.810000        2.7137792E-30
   5.820000        2.3325790E-30
   5.830000        1.8998565E-30
   5.840000        1.4117077E-30
   5.850000        8.6405182E-31
   5.860000        2.5257003E-31
   5.870000       -4.2730847E-31
   5.880000       -1.1803607E-30
   5.890000       -2.0115977E-30
   5.900000       -2.9263208E-30
   5.910000       -3.9300786E-30
   5.920000       -5.0286983E-30
   5.930000       -6.2283036E-30
   5.940000       -7.5352927E-30
   5.950000       -8.9564086E-30
   5.960000       -1.0498717E-29
   5.970000       -1.2169595E-29
   5.980000       -1.3976829E-29
   5.990000       -1.5928556E-29
   6.000000       -1.8033319E-29
   6.010000       -2.0300061E-29
   6.020000       -2.2738159E-29
   6.030000       -2.5357453E-29
   6.040000       -2.8168248E-29
   6.050000       -3.1181381E-29
   6.060000       -3.4408201E-29
   6.070000       -3.7860617E-29
   6.080000       -4.1551147E-29
   6.090000       -4.5492921E-29
   6.100000       -4.9699730E-29
   6.110000       -5.4186051E-29
   6.120000       -5.8967118E-29
   6.130000       -6.4058922E-29
   6.140000       -6.9478320E-29
   6.150000       -7.5243062E-29
   6.160000       -8.1371822E-29
   6.170000       -8.7884276E-29
   6.180000       -9.4801151E-29
   6.190000       -1.0214433E-28
   6.200000       -1.0993692E-28
   6.210000       -1.1820326E-28
   6.220000       -1.2696915E-28
   6.230000       -1.3626170E-28
   6.240000       -1.4610977E-28
   6.250000       -1.5654377E-28
   6.260000       -1.6759590E-28
   6.270000       -1.7930026E-28
   6.280000       -1.9169302E-28
   6.290000       -2.0481242E-28
   6.300000       -2.1869905E-28
   6.310000       -2.3339606E-28
   6.320000       -2.4894907E-28
   6.330000       -2.6540653E-28
   6.340000       -2.8281985E-28
   6.350000       -3.0124368E-28
   6.360000       -3.2073609E-28
   6.370000       -3.4135861E-28
   6.380000       -3.6317673E-28
   6.390000       -3.8625996E-28
   6.400000       -4.1068212E-28
   6.410000       -4.3652175E-28
   6.420000       -4.6386225E-28
   6.430000       -4.9279217E-28
   6.440000       -5.2340565E-28
   6.450000       -5.5580263E-28
   6.460000       -5.9008933E-28
   6.470000       -6.2637853E-28
   6.480000       -6.6478975E-28
   6.490000       -7.0545028E-28
   6.500000       -7.4849505E-28
   6.510000       -7.9406708E-28
   6.520000       -8.4231817E-28
   6.530000       -8.9340924E-28
   6.540000       -9.4751102E-28
   6.550000       -1.0048041E-27
   6.560000       -1.0654801E-27
   6.570000       -1.1297416E-27
   6.580000       -1.1978035E-27
   6.590000       -1.2698926E-27
   6.600000       -1.3462487E-27
   6.610000       -1.4271255E-27
   6.620000       -1.5127907E-27
   6.630000       -1.6035273E-27
   6.640000       -1.6996336E-27
   6.650000       -1.8014247E-27
   6.660000       -1.9092319E-27
   6.670000       -2.0234043E-27
   6.680000       -2.1443104E-27
   6.690000       -2.2723366E-27
   6.700000       -2.4078893E-27
   6.710000       -2.5513961E-27
   6.720000       -2.7033061E-27
   6.730000       -2.8640899E-27
   6.740000       -3.0342410E-27
   6.750000       -3.2142773E-27
   6.760000       -3.4047395E-27
   6.770000       -3.6061952E-27
   6.780000       -3.8192354E-27
   6.790000       -4.0444795E-27
   6.800000       -4.2825733E-27
   6.810000       -4.5341895E-27
   6.820000       -4.8000306E-27
   6.830000       -5.0808254E-27
   6.840000       -5.3773351E-27
   6.850000       -5.6903499E-27
   6.860000       -6.0206866E-27
   6.870000       -6.3691963E-27
   6.880000       -6.7367597E-27
   6.890000       -7.1242891E-27
   6.900000       -7.5327249E-27
   6.910000       -7.9630447E-27
   6.920000       -8.4162484E-27
   6.930000       -8.8933713E-27
   6.940000       -9.3954790E-27
   6.950000       -9.9236645E-27
   6.960000       -1.0479053E-26
   6.970000       -1.1062794E-26
   6.980000       -1.1676065E-26
   6.990000       -1.2320068E-26
   7.000000       -1.2996037E-26
   7.010000       -1.3705219E-26
   7.020000       -1.4448886E-26
   7.030000       -1.5228327E-26
   7.040000       -1.6044845E-26
   7.050000       -1.6899767E-26
   7.060000       -1.7794423E-26
   7.070000       -1.8730145E-26
   7.080000       -1.9708277E-26
   7.090000       -2.0730158E-26
   7.100000       -2.1797124E-26
   7.110000       -2.2910502E-26
   7.120000       -2.4071601E-26
   7.130000       -2.5281701E-26
   7.140000       -2.6542076E-26
   7.150000       -2.7853951E-26
   7.160000       -2.9218514E-26
   7.170000       -3.0636899E-26
   7.180000       -3.2110186E-26
   7.190000       -3.3639392E-26
   7.200000       -3.5225459E-26
   7.210000       -3.6869232E-26
   7.220000       -3.8571471E-26
   7.230000       -4.0332822E-26
   7.240000       -4.2153812E-26
   7.250000       -4.4034832E-26
   7.260000       -4.5976132E-26
   7.270000       -4.7977781E-26
   7.280000       -5.0039681E-26
   7.290000       -5.2161529E-26
   7.300000       -5.4342840E-26
   7.310000       -5.6582873E-26
   7.320000       -5.8880633E-26
   7.330000       -6.1234853E-26
   7.340000       -6.3643979E-26
   7.350000       -6.6106156E-26
   7.360000       -6.8619164E-26
   7.370000       -7.1180454E-26
   7.380000       -7.3787042E-26
   7.390000       -7.6435562E-26
   7.400000       -7.9122188E-26
   7.410000       -8.1842624E-26
   7.420000       -8.4592069E-26
   7.430000       -8.7365168E-26
   7.440000       -9.0156041E-26
   7.450000       -9.2958149E-26
   7.460000       -9.5764343E-26
   7.470000       -9.8566777E-26
   7.480000       -1.0135688E-25
   7.490000       -1.0412537E-25
   7.500000       -1.0686213E-25
   7.510000       -1.0955616E-25
   7.520000       -1.1219566E-25
   7.530000       -1.1476786E-25
   7.540000       -1.1725897E-25
   7.550000       -1.1965422E-25
   7.560000       -1.2193777E-25
   7.570000       -1.2409258E-25
   7.580000       -1.2610049E-25
   7.590000       -1.2794210E-25
   7.600000       -1.2959671E-25
   7.610000       -1.3104226E-25
   7.620000       -1.3225532E-25
   7.630000       -1.3321092E-25
   7.640000       -1.3388267E-25
   7.650000       -1.3424251E-25
   7.660000       -1.3426076E-25
   7.670000       -1.3390608E-25
   7.680000       -1.3314525E-25
   7.690000       -1.3194333E-25
   7.700000       -1.3026339E-25
   7.710000       -1.2806663E-25
   7.720000       -1.2531207E-25
   7.730000       -1.2195677E-25
   7.740000       -1.1795552E-25
   7.750000       -1.1326096E-25
   7.760000       -1.0782337E-25
   7.770000       -1.0159070E-25
   7.780000       -9.4508452E-26
   7.790000       -8.6519608E-26
   7.800000       -7.7564656E-26
   7.810000       -6.7581399E-26
   7.820000       -5.6504973E-26
   7.830000       -4.4267771E-26
   7.840000       -3.0799370E-26
   7.850000       -1.6026489E-26
   7.860000        1.2705758E-28
   7.870000        1.7740454E-26
   7.880000        3.6895890E-26
   7.890000        5.7678600E-26
   7.900000        8.0176950E-26
   7.910000        1.0448246E-25
   7.920000        1.3068980E-25
   7.930000        1.5889686E-25
   7.940000        1.8920480E-25
   7.950000        2.2171801E-25
   7.960000        2.5654420E-25
   7.970000        2.9379431E-25
   7.980000        3.3358250E-25
   7.990000        3.7602638E-25
   8.000000        4.2124660E-25
   8.010000        4.6936726E-25
   8.020000        5.2051552E-25
   8.030000        5.7482189E-25
   8.040000        6.3241978E-25
   8.050000        6.9344591E-25
   8.060000        7.5803996E-25
   8.070000        8.2634412E-25
   8.080000        8.9850399E-25
   8.090000        9.7466753E-25
   8.100000        1.0549854E-24
   8.110000        1.1396108E-24
   8.120000        1.2286992E-24
   8.130000        1.3224084E-24
   8.140000        1.4208976E-24
   8.150000        1.5243283E-24
   8.160000        1.6328634E-24
   8.170000        1.7466676E-24
   8.180000        1.8659059E-24
   8.190000        1.9907445E-24
   8.200000        2.1213501E-24
   8.210000        2.2578893E-24
   8.220000        2.4005300E-24
   8.230000        2.5494373E-24
   8.240000        2.7047780E-24
   8.250000        2.8667158E-24
   8.260000        3.0354127E-24
   8.270000        3.2110299E-24
   8.280000        3.3937246E-24
   8.290000        3.5836519E-24
   8.300000        3.7809626E-24
   8.310000        3.9858033E-24
   8.320000        4.1983162E-24
   8.330000        4.4186375E-24
   8.340000        4.6468980E-24
   8.350000        4.8832202E-24
   8.360000        5.1277205E-24
   8.370000        5.3805067E-24
   8.380000        5.6416760E-24
   8.390000        5.9113189E-24
   8.400000        6.1895107E-24
   8.410000        6.4763193E-24
   8.420000        6.7717974E-24
   8.430000        7.0759829E-24
   8.440000        7.3889043E-24
   8.450000        7.7105663E-24
   8.460000        8.0409657E-24
   8.470000        8.3800726E-24
   8.480000        8.7278458E-24
   8.490000        9.0842169E-24
   8.500000        9.4491014E-24
   8.510000        9.8223880E-24
   8.520000        1.0203944E-23
   8.530000        1.0593608E-23
   8.540000        1.0991193E-23
   8.550000        1.1396486E-23
   8.560000        1.1809238E-23
   8.570000        1.2229176E-23
   8.580000        1.2655984E-23
   8.590000        1.3089323E-23
   8.600000        1.3528805E-23
   8.610000        1.3974011E-23
   8.620000        1.4424483E-23
   8.630000        1.4879720E-23
   8.640000        1.5339172E-23
   8.650000        1.5802247E-23
   8.660000        1.6268312E-23
   8.670000        1.6736675E-23
   8.680000        1.7206595E-23
   8.690000        1.7677283E-23
   8.700000        1.8147889E-23
   8.710000        1.8617505E-23
   8.720000        1.9085172E-23
   8.730000        1.9549854E-23
   8.740000        2.0010467E-23
   8.750000        2.0465851E-23
   8.760000        2.0914784E-23
   8.770000        2.1355970E-23
   8.780000        2.1788040E-23
   8.790000        2.2209557E-23
   8.800000        2.2618995E-23
   8.810000        2.3014760E-23
   8.820000        2.3395175E-23
   8.830000        2.3758474E-23
   8.840000        2.4102810E-23
   8.850000        2.4426246E-23
   8.860000        2.4726754E-23
   8.870000        2.5002224E-23
   8.880000        2.5250440E-23
   8.890000        2.5469089E-23
   8.900000        2.5655770E-23
   8.910000        2.5807979E-23
   8.920000        2.5923099E-23
   8.930000        2.5998429E-23
   8.940000        2.6031146E-23
   8.950000        2.6018330E-23
   8.960000        2.5956941E-23
   8.970000        2.5843844E-23
   8.980000        2.5675780E-23