 -0.1000000        2.7104047E-38
 -9.0000004E-02    8.1312003E-38
 -7.9999998E-02    1.3552038E-37
 -7.0000000E-02    1.8972989E-37
 -5.9999999E-02    2.4393884E-37
 -5.0000001E-02    2.9814719E-37
 -3.9999999E-02    3.5235332E-37
 -2.9999999E-02    4.0656283E-37
 -2.0000000E-02    4.6076895E-37
 -9.9999998E-03    5.1497732E-37
  0.0000000E+00    5.6918681E-37
  9.9999998E-03    6.2339410E-37
  2.0000000E-02    6.7760471E-37
  2.9999999E-02    7.3181537E-37
  3.9999999E-02    7.8602826E-37
  5.0000001E-02    8.4023892E-37
  5.9999999E-02    8.9444724E-37
  7.0000000E-02    9.4866014E-37
  7.9999998E-02    1.0028731E-36
  9.0000004E-02    1.0570770E-36
  0.1000000        1.1112853E-36
  0.1100000        1.1654892E-36
  0.1200000        1.2196930E-36
  0.1300000        1.2739015E-36
  0.1400000        1.3281008E-36
  0.1500000        1.3823091E-36
  0.1600000        1.4365085E-36
  0.1700000        1.4907168E-36
  0.1800000        1.5449252E-36
  0.1900000        1.5991245E-36
  0.2000000        1.6533239E-36
  0.2100000        1.7075413E-36
  0.2200000        1.7617406E-36
  0.2300000        1.8159399E-36
  0.2400000        1.8701574E-36
  0.2500000        1.9243567E-36
  0.2600000        1.9785561E-36
  0.2700000        2.0327554E-36
  0.2800000        2.0869730E-36
  0.2900000        2.1411720E-36
  0.3000000        2.1953625E-36
  0.3100000        2.2495528E-36
  0.3200000        2.3037429E-36
  0.3300000        2.3579424E-36
  0.3400000        2.4121327E-36
  0.3500000        2.4663228E-36
  0.3600000        2.5205224E-36
  0.3700000        2.5747125E-36
  0.3800000        2.6289028E-36
  0.3900000        2.6830933E-36
  0.4000000        2.7372926E-36
  0.4100000        2.7914829E-36
  0.4200000        2.8456730E-36
  0.4300000        2.8998726E-36
  0.4400000        2.9540627E-36
  0.4500000        3.0082530E-36
  0.4600000        3.0624433E-36
  0.4700000        3.1166428E-36
  0.4800000        3.1708418E-36
  0.4900000        3.2250323E-36
  0.5000000        3.2792135E-36
  0.5100000        3.3334129E-36
  0.5200000        3.3875941E-36
  0.5300000        3.4417935E-36
  0.5400000        3.4959747E-36
  0.5500000        3.5501920E-36
  0.5600000        3.6043732E-36
  0.5700000        3.6585726E-36
  0.5800000        3.7127538E-36
  0.5900000        3.7669532E-36
  0.6000000        3.8211347E-36
  0.6100000        3.8753338E-36
  0.6200000        3.9295150E-36
  0.6300000        3.9837327E-36
  0.6400000        4.0379139E-36
  0.6500000        4.0920950E-36
  0.6600000        4.1462944E-36
  0.6700000        4.2004756E-36
  0.6800000        4.2546750E-36
  0.6900000        4.3088745E-36
  0.7000000        4.3630919E-36
  0.7100000        4.4172730E-36
  0.7200000        4.4714725E-36
  0.7300000        4.5256446E-36
  0.7400000        4.5798348E-36
  0.7500000        4.6340342E-36
  0.7600000        4.6882154E-36
  0.7700000        4.7424327E-36
  0.7800000        4.7966139E-36
  0.7900000        4.8508133E-36
  0.8000000        4.9049945E-36
  0.8100000        4.9591943E-36
  0.8200000        5.0133754E-36
  0.8300000        5.0675745E-36
  0.8400000        5.1217740E-36
  0.8500000        5.1759734E-36
  0.8600000        5.2301546E-36
  0.8700000        5.2843536E-36
  0.8800000        5.3385348E-36
  0.8900000        5.3927342E-36
  0.9000000        5.4469157E-36
  0.9100000        5.5011328E-36
  0.9200000        5.5553143E-36
  0.9300000        5.6095137E-36
  0.9400000        5.6636949E-36
  0.9500000        5.7178943E-36
  0.9600000        5.7720758E-36
  0.9700000        5.8262745E-36
  0.9800000        5.8804743E-36
  0.9900000        5.9346555E-36
   1.000000        5.9888549E-36
   1.010000        6.0430361E-36
   1.020000        6.0972355E-36
   1.030000        6.1514163E-36
   1.040000        6.2056158E-36
   1.050000        6.2597973E-36
   1.060000        6.3140147E-36
   1.070000        6.3681775E-36
   1.080000        6.4223949E-36
   1.090000        6.4766123E-36
   1.100000        6.5307579E-36
   1.110000        6.5849753E-36
   1.120000        6.6391561E-36
   1.130000        6.6933742E-36
   1.140000        6.7475191E-36
   1.150000        6.8017365E-36
   1.160000        6.8559539E-36
   1.170000        6.9101346E-36
   1.180000        6.9643162E-36
   1.190000        7.0184977E-36
   1.200000        7.0727150E-36
   1.210000        7.1268958E-36
   1.220000        7.1810773E-36
   1.230000        7.2352947E-36
   1.240000        7.2894762E-36
   1.250000        7.3436570E-36
   1.260000        7.3978385E-36
   1.270000        7.4520559E-36
   1.280000        7.5062374E-36
   1.290000        7.5604189E-36
   1.300000        7.6146356E-36
   1.310000        7.6688171E-36
   1.320000        7.7230345E-36
   1.330000        7.7771794E-36
   1.340000        7.8313968E-36
   1.350000        7.8855783E-36
   1.360000        7.9397957E-36
   1.370000        7.9939772E-36
   1.380000        8.0481587E-36
   1.390000        8.1023753E-36
   1.400000        8.1565568E-36
   1.410000        8.2107384E-36
   1.420000        8.2649191E-36
   1.430000        8.3191365E-36
   1.440000        8.3733546E-36
   1.450000        8.4275354E-36
   1.460000        8.4817169E-36
   1.470000        8.5359343E-36
   1.480000        8.5901876E-36
   1.490000        8.6444057E-36
   1.500000        8.6986589E-36
   1.510000        8.7528763E-36
   1.520000        8.8071295E-36
   1.530000        8.8613476E-36
   1.540000        8.9155830E-36
   1.550000        8.9698549E-36
   1.560000        9.0240536E-36
   1.570000        9.0783614E-36
   1.580000        9.1325974E-36
   1.590000        9.1868327E-36
   1.600000        9.2410501E-36
   1.610000        9.2953034E-36
   1.620000        9.3495566E-36
   1.630000        9.4037747E-36
   1.640000        9.4580287E-36
   1.650000        9.5122461E-36
   1.660000        9.5664993E-36
   1.670000        9.6207167E-36
   1.680000        9.6749700E-36
   1.690000        9.7292239E-36
   1.700000        9.7834772E-36
   1.710000        9.8377312E-36
   1.720000        9.8919478E-36
   1.730000        9.9462018E-36
   1.740000        1.0000420E-35
   1.750000        1.0054673E-35
   1.760000        1.0108927E-35
   1.770000        1.0163145E-35
   1.780000        1.0217398E-35
   1.790000        1.0271615E-35
   1.800000        1.0325868E-35
   1.810000        1.0380086E-35
   1.820000        1.0434339E-35
   1.830000        1.0488630E-35
   1.840000        1.0542846E-35
   1.850000        1.0597100E-35
   1.860000        1.0651317E-35
   1.870000        1.0705571E-35
   1.880000        1.0759789E-35
   1.890000        1.0814043E-35
   1.900000        1.0868296E-35
   1.910000        1.0922514E-35
   1.920000        1.0976767E-35
   1.930000        1.1030984E-35
   1.940000        1.1085237E-35
   1.950000        1.1139455E-35
   1.960000        1.1193745E-35
   1.970000        1.1247999E-35
   1.980000        1.1302216E-35
   1.990000        1.1356469E-35
   2.000000        1.1410687E-35
   2.010000        1.1464941E-35
   2.020000        1.1519158E-35
   2.030000        1.1573412E-35
   2.040000        1.1627665E-35
   2.050000        1.1681883E-35
   2.060000        1.1736136E-35
   2.070000        1.1790353E-35
   2.080000        1.1844607E-35
   2.090000        1.1898860E-35
   2.100000        1.1953114E-35
   2.110000        1.2007368E-35
   2.120000        1.2061587E-35
   2.130000        1.2115840E-35
   2.140000        1.2170057E-35
   2.150000        1.2224310E-35
   2.160000        1.2278528E-35
   2.170000        1.2332781E-35
   2.180000        1.2387034E-35
   2.190000        1.2441252E-35
   2.200000        1.2495471E-35
   2.210000        1.2549760E-35
   2.220000        1.2658302E-35
   2.230000        1.2856799E-35
   2.240000        1.2994639E-35
   2.250000        1.3006792E-35
   2.260000        1.3041840E-35
   2.270000        1.3187094E-35
   2.280000        1.3365879E-35
   2.290000        1.3540501E-35
   2.300000        1.3654218E-35
   2.310000        1.3741205E-35
   2.320000        1.3850289E-35
   2.330000        1.3941581E-35
   2.340000        1.4094286E-35
   2.350000        1.4302476E-35
   2.360000        1.4609587E-35
   2.370000        1.4905486E-35
   2.380000        1.5218747E-35
   2.390000        1.5564198E-35
   2.400000        1.5864906E-35
   2.410000        1.6224897E-35
   2.420000        1.6645218E-35
   2.430000        1.7088108E-35
   2.440000        1.7586807E-35
   2.450000        1.8188697E-35
   2.460000        1.8970527E-35
   2.470000        2.0063374E-35
   2.480000        2.1327845E-35
   2.490000        2.2597669E-35
   2.500000        2.4001101E-35
   2.510000        2.5771830E-35
   2.520000        2.7865800E-35
   2.530000        3.0248799E-35
   2.540000        3.2930011E-35
   2.550000        3.5963802E-35
   2.560000        3.9518748E-35
   2.570000        4.3763333E-35
   2.580000        4.8464731E-35
   2.590000        5.3572420E-35
   2.600000        5.9538502E-35
   2.610000        6.6396335E-35
   2.620000        7.4169463E-35
   2.630000        8.3037323E-35
   2.640000        9.3154747E-35
   2.650000        1.0486398E-34
   2.660000        1.1821054E-34
   2.670000        1.3320290E-34
   2.680000        1.5022871E-34
   2.690000        1.6961213E-34
   2.700000        1.9141003E-34
   2.710000        2.1579310E-34
   2.720000        2.4333153E-34
   2.730000        2.7443495E-34
   2.740000        3.0936543E-34
   2.750000        3.4948678E-34
   2.760000        3.9300936E-34
   2.770000        4.4095677E-34
   2.780000        4.9331898E-34
   2.790000        5.4827596E-34
   2.800000        6.0936966E-34
   2.810000        6.8041874E-34
   2.820000        7.6330404E-34
   2.830000        8.5478478E-34
   2.840000        9.5664412E-34
   2.850000        1.0696285E-33
   2.860000        1.1914048E-33
   2.870000        1.3276813E-33
   2.880000        1.4801690E-33
   2.890000        1.6483981E-33
   2.900000        1.8321920E-33
   2.910000        2.0371271E-33
   2.920000        2.2663972E-33
   2.930000        2.5196490E-33
   2.940000        2.8007848E-33
   2.950000        3.1137336E-33
   2.960000        3.4573526E-33
   2.970000        3.8317442E-33
   2.980000        4.2415462E-33
   2.990000        4.6868433E-33
   3.000000        5.1709809E-33
   3.010000        5.6974911E-33
   3.020000        6.2714181E-33
   3.030000        6.8977142E-33
   3.040000        7.5778772E-33
   3.050000        8.3135089E-33
   3.060000        9.1055335E-33
   3.070000        9.9551044E-33
   3.080000        1.0873430E-32
   3.090000        1.1866684E-32
   3.100000        1.2935046E-32
   3.110000        1.4085869E-32
   3.120000        1.5326524E-32
   3.130000        1.6659379E-32
   3.140000        1.8088501E-32
   3.150000        1.9618701E-32
   3.160000        2.1258379E-32
   3.170000        2.3018818E-32
   3.180000        2.4900720E-32
   3.190000        2.6904577E-32
   3.200000        2.9041396E-32
   3.210000        3.1315437E-32
   3.220000        3.3729109E-32
   3.230000        3.6286153E-32
   3.240000        3.8988788E-32
   3.250000        4.1848166E-32
   3.260000        4.4868431E-32
   3.270000        4.8052402E-32
   3.280000        5.1404703E-32
   3.290000        5.4924821E-32
   3.300000        5.8616126E-32
   3.310000        6.2481986E-32
   3.320000        6.6521925E-32
   3.330000        7.0737929E-32
   3.340000        7.5126385E-32
   3.350000        7.9679204E-32
   3.360000        8.4395140E-32
   3.370000        8.9272642E-32
   3.380000        9.4304651E-32
   3.390000        9.9480512E-32
   3.400000        1.0479089E-31
   3.410000        1.1022542E-31
   3.420000        1.1576736E-31
   3.430000        1.2139448E-31
   3.440000        1.2708308E-31
   3.450000        1.3280859E-31
   3.460000        1.3854252E-31
   3.470000        1.4425365E-31
   3.480000        1.4990610E-31
   3.490000        1.5545500E-31
   3.500000        1.6085663E-31
   3.510000        1.6606081E-31
   3.520000        1.7100452E-31
   3.530000        1.7562822E-31
   3.540000        1.7986232E-31
   3.550000        1.8362765E-31
   3.560000        1.8685136E-31
   3.570000        1.8944159E-31
   3.580000        1.9130055E-31
   3.590000        1.9231507E-31
   3.600000        1.9237434E-31
   3.610000        1.9134737E-31
   3.620000        1.8909966E-31
   3.630000        1.8549136E-31
   3.640000        1.8036187E-31
   3.650000        1.7354230E-31
   3.660000        1.6485073E-31
   3.670000        1.5410995E-31
   3.680000        1.4109720E-31
   3.690000        1.2558960E-31
   3.700000        1.0735905E-31
   3.710000        8.6158411E-32
   3.720000        6.1731685E-32
   3.730000        3.3776663E-32
   3.740000        2.0041525E-33
   3.750000       -3.3898739E-32
   3.760000       -7.4267416E-32
   3.770000       -1.1947404E-31
   3.780000       -1.6985400E-31
   3.790000       -2.2582330E-31
   3.800000       -2.8778255E-31
   3.810000       -3.5613943E-31
   3.820000       -4.3137516E-31
   3.830000       -5.1395194E-31
   3.840000       -6.0433909E-31
   3.850000       -7.0308414E-31
   3.860000       -8.1071109E-31
   3.870000       -9.2776964E-31
   3.880000       -1.0548716E-30
   3.890000       -1.1925833E-30
   3.900000       -1.3415591E-30
   3.910000       -1.5024529E-30
   3.920000       -1.6759456E-30
   3.930000       -1.8627098E-30
   3.940000       -2.0634639E-30
   3.950000       -2.2789738E-30
   3.960000       -2.5099955E-30
   3.970000       -2.7573486E-30
   3.980000       -3.0217546E-30
   3.990000       -3.3041043E-30
   4.000000       -3.6052464E-30
   4.010000       -3.9260578E-30
   4.020000       -4.2674203E-30
   4.030000       -4.6302060E-30
   4.040000       -5.0153634E-30
   4.050000       -5.4238223E-30
   4.060000       -5.8565671E-30
   4.070000       -6.3144954E-30
   4.080000       -6.7986538E-30
   4.090000       -7.3099920E-30
   4.100000       -7.8495360E-30
   4.110000       -8.4182466E-30
   4.120000       -9.0171453E-30
   4.130000       -9.6472863E-30
   4.140000       -1.0309673E-29
   4.150000       -1.1005312E-29
   4.160000       -1.1735170E-29
   4.170000       -1.2500260E-29
   4.180000       -1.3301637E-29
   4.190000       -1.4140191E-29
   4.200000       -1.5016974E-29
   4.210000       -1.5932952E-29
   4.220000       -1.6889057E-29
   4.230000       -1.7886132E-29
   4.240000       -1.8925209E-29
   4.250000       -2.0007049E-29
   4.260000       -2.1132466E-29
   4.270000       -2.2302323E-29
   4.280000       -2.3517320E-29
   4.290000       -2.4778332E-29
   4.300000       -2.6085984E-29
   4.310000       -2.7440803E-29
   4.320000       -2.8843485E-29
   4.330000       -3.0294649E-29
   4.340000       -3.1794699E-29
   4.350000       -3.3344074E-29
   4.360000       -3.4943176E-29
   4.370000       -3.6592311E-29
   4.380000       -3.8291661E-29
   4.390000       -4.0041474E-29
   4.400000       -4.1841755E-29
   4.410000       -4.3692658E-29
   4.420000       -4.5593993E-29
   4.430000       -4.7545749E-29
   4.440000       -4.9547665E-29
   4.450000       -5.1599395E-29
   4.460000       -5.3700518E-29
   4.470000       -5.5850596E-29
   4.480000       -5.8049039E-29
   4.490000       -6.0295155E-29
   4.500000       -6.2588143E-29
   4.510000       -6.4927004E-29
   4.520000       -6.7310710E-29
   4.530000       -6.9738248E-29
   4.540000       -7.2208350E-29
   4.550000       -7.4719528E-29
   4.560000       -7.7269880E-29
   4.570000       -7.9858198E-29
   4.580000       -8.2482506E-29
   4.590000       -8.5140512E-29
   4.600000       -8.7830344E-29
   4.610000       -9.0549215E-29
   4.620000       -9.3294947E-29
   4.630000       -9.6064302E-29
   4.640000       -9.8854439E-29
   4.650000       -1.0166217E-28
   4.660000       -1.0448388E-28
   4.670000       -1.0731513E-28
   4.680000       -1.1015184E-28
   4.690000       -1.1298954E-28
   4.700000       -1.1582345E-28
   4.710000       -1.1864779E-28
   4.720000       -1.2145591E-28
   4.730000       -1.2424226E-28
   4.740000       -1.2700024E-28
   4.750000       -1.2972029E-28
   4.760000       -1.3239484E-28
   4.770000       -1.3501447E-28
   4.780000       -1.3756871E-28
   4.790000       -1.4004603E-28
   4.800000       -1.4243491E-28
   4.810000       -1.4471958E-28
   4.820000       -1.4688803E-28
   4.830000       -1.4892360E-28
   4.840000       -1.5080594E-28
   4.850000       -1.5251899E-28
   4.860000       -1.5403482E-28
   4.870000       -1.5533522E-28
   4.880000       -1.5639320E-28
   4.890000       -1.5717872E-28
   4.900000       -1.5766296E-28
   4.910000       -1.5780616E-28
   4.920000       -1.5757559E-28
   4.930000       -1.5692326E-28
   4.940000       -1.5580549E-28
   4.950000       -1.5417559E-28
   4.960000       -1.5197224E-28
   4.970000       -1.4913719E-28
   4.980000       -1.4560916E-28
   4.990000       -1.4130684E-28
   5.000000       -1.3615498E-28
   5.010000       -1.3007467E-28
   5.020000       -1.2296036E-28
   5.030000       -1.1472223E-28
   5.040000       -1.0523890E-28
   5.050000       -9.4389032E-29
   5.060000       -8.2039109E-29
   5.070000       -6.8053210E-29
   5.080000       -5.2261427E-29
   5.090000       -3.4504777E-29
   5.100000       -1.4592714E-29
   5.110000        7.6653012E-30
   5.120000        3.2486508E-29
   5.130000        6.0106348E-29
   5.140000        9.0794254E-29
   5.150000        1.2479780E-28
   5.160000        1.6245195E-28
   5.170000        2.0402616E-28
   5.180000        2.4991115E-28
   5.190000        3.0043951E-28
   5.200000        3.5600204E-28
   5.210000        4.1705743E-28
   5.220000        4.8402563E-28
   5.230000        5.5746013E-28
   5.240000        6.3782683E-28
   5.250000        7.2576181E-28
   5.260000        8.2176012E-28
   5.270000        9.2662277E-28
   5.280000        1.0409372E-27
   5.290000        1.1654851E-27
   5.300000        1.3010721E-27
   5.310000        1.4485331E-27
   5.320000        1.6087326E-27
   5.330000        1.7827093E-27
   5.340000        1.9714728E-27
   5.350000        2.1760717E-27
   5.360000        2.3977102E-27
   5.370000        2.6376986E-27
   5.380000        2.8971924E-27
   5.390000        3.1778233E-27
   5.400000        3.4808330E-27
   5.410000        3.8079606E-27
   5.420000        4.1607683E-27
   5.430000        4.5410524E-27
   5.440000        4.9506291E-27
   5.450000        5.3915176E-27
   5.460000        5.8658441E-27
   5.470000        6.3756855E-27
   5.480000        6.9235679E-27
   5.490000        7.5118016E-27
   5.500000        8.1429481E-27
   5.510000        8.8197854E-27
   5.520000        9.5453826E-27
   5.530000        1.0322418E-26
   5.540000        1.1153999E-26
   5.550000        1.2043737E-26
   5.560000        1.2995146E-26
   5.570000        1.4011821E-26
   5.580000        1.5097430E-26
   5.590000        1.6256303E-26
   5.600000        1.7492693E-26
   5.610000        1.8810445E-26
   5.620000        2.0215114E-26
   5.630000        2.1710736E-26
   5.640000        2.3302672E-26
   5.650000        2.4996203E-26
   5.660000        2.6796807E-26
   5.670000        2.8709761E-26
   5.680000        3.0741672E-26
   5.690000        3.2898794E-26
   5.700000        3.5186870E-26
   5.710000        3.7613473E-26
   5.720000        4.0185015E-26
   5.730000        4.2909066E-26
   5.740000        4.5793046E-26
   5.750000        4.8844172E-26
   5.760000        5.2071618E-26
   5.770000        5.5483768E-26
   5.780000        5.9087931E-26
   5.790000        6.2894660E-26
   5.800000        6.6912032E-26
   5.810000        7.1149220E-26
   5.820000        7.5616472E-26
   5.830000        8.0325139E-26
   5.840000        8.5284209E-26
   5.850000        9.0505352E-26
   5.860000        9.5999121E-26
   5.870000        1.0177687E-25
   5.880000        1.0785024E-25
   5.890000        1.1423103E-25
   5.900000        1.2093199E-25
   5.910000        1.2796444E-25
   5.920000        1.3534225E-25
   5.930000        1.4307904E-25
   5.940000        1.5118634E-25
   5.950000        1.5967889E-25
   5.960000        1.6856943E-25
   5.970000        1.7787181E-25
   5.980000        1.8760169E-25
   5.990000        1.9777087E-25
   6.000000        2.0839615E-25
   6.010000        2.1949120E-25
   6.020000        2.3107092E-25
   6.030000        2.4315099E-25
   6.040000        2.5574715E-25
   6.050000        2.6887099E-25
   6.060000        2.8253980E-25
   6.070000        2.9676940E-25
   6.080000        3.1157501E-25
   6.090000        3.2697123E-25
   6.100000        3.4296926E-25
   6.110000        3.5958435E-25
   6.120000        3.7683511E-25
   6.130000        3.9473456E-25
   6.140000        4.1329394E-25
   6.150000        4.3252874E-25
   6.160000        4.5245265E-25
   6.170000        4.7307441E-25
   6.180000        4.9440916E-25
   6.190000        5.1646753E-25
   6.200000        5.3925910E-25
   6.210000        5.6279511E-25
   6.220000        5.8708389E-25
   6.230000        6.1213047E-25
   6.240000        6.3794319E-25
   6.250000        6.6452952E-25
   6.260000        6.9189511E-25
   6.270000        7.2004236E-25
   6.280000        7.4897132E-25
   6.290000        7.7868327E-25
   6.300000        8.0917683E-25
   6.310000        8.4044906E-25
   6.320000        8.7249042E-25
   6.330000        9.0529559E-25
   6.340000        9.3885689E-25
   6.350000        9.7316701E-25
   6.360000        1.0082048E-24
   6.370000        1.0439546E-24
   6.380000        1.0803997E-24
   6.390000        1.1175091E-24
   6.400000        1.1552629E-24
   6.410000        1.1936319E-24
   6.420000        1.2325800E-24
   6.430000        1.2720730E-24
   6.440000        1.3120693E-24
   6.450000        1.3525256E-24
   6.460000        1.3933962E-24
   6.470000        1.4346179E-24
   6.480000        1.4761472E-24
   6.490000        1.5179114E-24
   6.500000        1.5598433E-24
   6.510000        1.6018702E-24
   6.520000        1.6439147E-24
   6.530000        1.6858914E-24
   6.540000        1.7277028E-24
   6.550000        1.7692570E-24
   6.560000        1.8104545E-24
   6.570000        1.8511741E-24
   6.580000        1.8913009E-24
   6.590000        1.9307156E-24
   6.600000        1.9692773E-24
   6.610000        2.0068458E-24
   6.620000        2.0432704E-24
   6.630000        2.0783970E-24
   6.640000        2.1120565E-24
   6.650000        2.1440738E-24
   6.660000        2.1742578E-24
   6.670000        2.2024204E-24
   6.680000        2.2283528E-24
   6.690000        2.2518388E-24
   6.700000        2.2726529E-24
   6.710000        2.2905576E-24
   6.720000        2.3053052E-24
   6.730000        2.3166334E-24
   6.740000        2.3242729E-24
   6.750000        2.3279390E-24
   6.760000        2.3273351E-24
   6.770000        2.3221539E-24
   6.780000        2.3120712E-24
   6.790000        2.2967545E-24
   6.800000        2.2758542E-24
   6.810000        2.2490125E-24
   6.820000        2.2158505E-24
   6.830000        2.1759779E-24
   6.840000        2.1289898E-24
   6.850000        2.0744713E-24
   6.860000        2.0119889E-24
   6.870000        1.9410883E-24
   6.880000        1.8612994E-24
   6.890000        1.7721626E-24
   6.900000        1.6731831E-24
   6.910000        1.5638487E-24
   6.920000        1.4436191E-24
   6.930000        1.3119687E-24
   6.940000        1.1683181E-24
   6.950000        1.0121182E-24
   6.960000        8.4279473E-25
   6.970000        6.5972137E-25
   6.980000        4.6226924E-25
   6.990000        2.4982446E-25
   7.000000        2.1733377E-26
   7.010000       -2.2266770E-25
   7.020000       -4.8406472E-25
   7.030000       -7.6315868E-25
   7.040000       -1.0606107E-24
   7.050000       -1.3772061E-24
   7.060000       -1.7136508E-24
   7.070000       -2.0707204E-24
   7.080000       -2.4491309E-24
   7.090000       -2.8496922E-24
   7.100000       -3.2731849E-24
   7.110000       -3.7204140E-24
   7.120000       -4.1921457E-24
   7.130000       -4.6892890E-24
   7.140000       -5.2126102E-24
   7.150000       -5.7629038E-24
   7.160000       -6.3410655E-24
   7.170000       -6.9479492E-24
   7.180000       -7.5843320E-24
   7.190000       -8.2511072E-24
   7.200000       -8.9492199E-24
   7.210000       -9.6794858E-24
   7.220000       -1.0442679E-23
   7.230000       -1.1239795E-23
   7.240000       -1.2071559E-23
   7.250000       -1.2938885E-23
   7.260000       -1.3842619E-23
   7.270000       -1.4783547E-23
   7.280000       -1.5762544E-23
   7.290000       -1.6780454E-23
   7.300000       -1.7837854E-23
   7.310000       -1.8935836E-23
   7.320000       -2.0074999E-23
   7.330000       -2.1256155E-23
   7.340000       -2.2480026E-23
   7.350000       -2.3747283E-23
   7.360000       -2.5058424E-23
   7.370000       -2.6414304E-23
   7.380000       -2.7815362E-23
   7.390000       -2.9262290E-23
   7.400000       -3.0755295E-23
   7.410000       -3.2295120E-23
   7.420000       -3.3882314E-23
   7.430000       -3.5516951E-23
   7.440000       -3.7199468E-23
   7.450000       -3.8929986E-23
   7.460000       -4.0708820E-23
   7.470000       -4.2535935E-23
   7.480000       -4.4411730E-23
   7.490000       -4.6335837E-23
   7.500000       -4.8308226E-23
   7.510000       -5.0329092E-23
   7.520000       -5.2397599E-23
   7.530000       -5.4513671E-23
   7.540000       -5.6676589E-23
   7.550000       -5.8886037E-23
   7.560000       -6.1141018E-23
   7.570000       -6.3441021E-23
   7.580000       -6.5784998E-23
   7.590000       -6.8171857E-23
   7.600000       -7.0600508E-23
   7.610000       -7.3069440E-23
   7.620000       -7.5577154E-23
   7.630000       -7.8122126E-23
   7.640000       -8.0702528E-23
   7.650000       -8.3316781E-23
   7.660000       -8.5962362E-23
   7.670000       -8.8637023E-23
   7.680000       -9.1338159E-23
   7.690000       -9.4063642E-23
   7.700000       -9.6810001E-23
   7.710000       -9.9574504E-23
   7.720000       -1.0235390E-22
   7.730000       -1.0514512E-22
   7.740000       -1.0794362E-22
   7.750000       -1.1074570E-22
   7.760000       -1.1354773E-22
   7.770000       -1.1634490E-22
   7.780000       -1.1913287E-22
   7.790000       -1.2190622E-22
   7.800000       -1.2465959E-22
   7.810000       -1.2738790E-22
   7.820000       -1.3008593E-22
   7.830000       -1.3274682E-22
   7.840000       -1.3536453E-22
   7.850000       -1.3793310E-22
   7.860000       -1.4044490E-22
   7.870000       -1.4289275E-22
   7.880000       -1.4526923E-22
   7.890000       -1.4756637E-22
   7.900000       -1.4977601E-22
   7.910000       -1.5188970E-22
   7.920000       -1.5389863E-22
   7.930000       -1.5579359E-22
   7.940000       -1.5756492E-22
   7.950000       -1.5920229E-22
   7.960000       -1.6069599E-22
   7.970000       -1.6203498E-22
   7.980000       -1.6320840E-22
   7.990000       -1.6420440E-22
   8.000000       -1.6501164E-22
   8.010000       -1.6561804E-22
   8.020000       -1.6601034E-22
   8.030000       -1.6617638E-22
   8.040000       -1.6610221E-22
   8.050000       -1.6577434E-22
   8.060000       -1.6517856E-22
   8.070000       -1.6430030E-22
   8.080000       -1.6312461E-22
   8.090000       -1.6163620E-22
   8.100000       -1.5981922E-22
   8.110000       -1.5765768E-22
   8.120000       -1.5513496E-22
   8.130000       -1.5223407E-22
   8.140000       -1.4893786E-22
   8.150000       -1.4522866E-22
   8.160000       -1.4108815E-22
   8.170000       -1.3649789E-22
   8.180000       -1.3143940E-22
   8.190000       -1.2589335E-22
   8.200000       -1.1984045E-22
   8.210000       -1.1326076E-22
   8.220000       -1.0613396E-22
   8.230000       -9.8439592E-23
   8.240000       -9.0157442E-23
   8.250000       -8.1265566E-23
   8.260000       -7.1742968E-23
   8.270000       -6.1568650E-23
   8.280000       -5.0719777E-23
   8.290000       -3.9175117E-23
   8.300000       -2.6912640E-23
   8.310000       -1.3910156E-23
   8.320000       -1.4412031E-25
   8.330000        1.4408851E-23
   8.340000        2.9770232E-23
   8.350000        4.5964524E-23
   8.360000        6.3011445E-23
   8.370000        8.0937716E-23
   8.380000        9.9764355E-23
   8.390000        1.1951488E-22
   8.400000        1.4021158E-22
   8.410000        1.6187957E-22
   8.420000        1.8454050E-22
   8.430000        2.0821442E-22
   8.440000        2.3292485E-22
   8.450000        2.5869566E-22
   8.460000        2.8554531E-22
   8.470000        3.1349830E-22
   8.480000        3.4257018E-22
   8.490000        3.7278679E-22
   8.500000        4.0416651E-22
   8.510000        4.3672915E-22
   8.520000        4.7049336E-22
   8.530000        5.0547420E-22
   8.540000        5.4169834E-22
   8.550000        5.7917728E-22
   8.560000        6.1792558E-22
   8.570000        6.5795346E-22
   8.580000        6.9928195E-22
   8.590000        7.4191997E-22
   8.600000        7.8588146E-22
   8.610000        8.3117530E-22
   8.620000        8.7781372E-22
   8.630000        9.2580736E-22
   8.640000        9.7515436E-22
   8.650000        1.0258618E-21
   8.660000        1.0779335E-21
   8.670000        1.1313795E-21
   8.680000        1.1861860E-21
   8.690000        1.2423535E-21
   8.700000        1.2998909E-21
   8.710000        1.3587804E-21
   8.720000        1.4190169E-21
   8.730000        1.4805872E-21
   8.740000        1.5434823E-21
   8.750000        1.6076854E-21
   8.760000        1.6731816E-21
   8.770000        1.7399504E-21
   8.780000        1.8079739E-21
   8.790000        1.8772151E-21
   8.800000        1.9476567E-21
   8.810000        2.0192638E-21
   8.820000        2.0919870E-21
   8.830000        2.1658135E-21
   8.840000        2.2406913E-21
   8.850000        2.3165666E-21
   8.860000        2.3934053E-21
   8.870000        2.4711449E-21
   8.880000        2.5497424E-21
   8.890000        2.6291239E-21
   8.900000        2.7092318E-21
   8.910000        2.7899988E-21
   8.920000        2.8713553E-21
   8.930000        2.9532258E-21
   8.940000        3.0355063E-21
   8.950000        3.1181302E-21
   8.960000        3.2010098E-21
   8.970000        3.2840575E-21
   8.980000        3.3671522E-21