 -0.1000000        2.7104047E-38
 -9.0000004E-02    8.1312003E-38
 -7.9999998E-02    1.3552038E-37
 -7.0000000E-02    1.8972989E-37
 -5.9999999E-02    2.4393884E-37
 -5.0000001E-02    2.9814719E-37
 -3.9999999E-02    3.5235332E-37
 -2.9999999E-02    4.0656283E-37
 -2.0000000E-02    4.6076895E-37
 -9.9999998E-03    5.1497732E-37
  0.0000000E+00    5.6918681E-37
  9.9999998E-03    6.2339410E-37
  2.0000000E-02    6.7760471E-37
  2.9999999E-02    7.3181537E-37
  3.9999999E-02    7.8602826E-37
  5.0000001E-02    8.4023892E-37
  5.9999999E-02    8.9444724E-37
  7.0000000E-02    9.4866014E-37
  7.9999998E-02    1.0028731E-36
  9.0000004E-02    1.0570770E-36
  0.1000000        1.1112853E-36
  0.1100000        1.1654892E-36
  0.1200000        1.2196930E-36
  0.1300000        1.2739015E-36
  0.1400000        1.3281008E-36
  0.1500000        1.3823091E-36
  0.1600000        1.4365085E-36
  0.1700000        1.4907168E-36
  0.1800000        1.5449252E-36
  0.1900000        1.5991245E-36
  0.2000000        1.6533239E-36
  0.2100000        1.7075413E-36
  0.2200000        1.7617406E-36
  0.2300000        1.8159399E-36
  0.2400000        1.8701574E-36
  0.2500000        1.9243567E-36
  0.2600000        1.9785561E-36
  0.2700000        2.0327554E-36
  0.2800000        2.0869730E-36
  0.2900000        2.1411720E-36
  0.3000000        2.1953625E-36
  0.3100000        2.2495528E-36
  0.3200000        2.3037429E-36
  0.3300000        2.3579424E-36
  0.3400000        2.4121327E-36
  0.3500000        2.4663228E-36
  0.3600000        2.5205224E-36
  0.3700000        2.5747125E-36
  0.3800000        2.6289028E-36
  0.3900000        2.6830933E-36
  0.4000000        2.7372926E-36
  0.4100000        2.7914829E-36
  0.4200000        2.8456730E-36
  0.4300000        2.8998726E-36
  0.4400000        2.9540627E-36
  0.4500000        3.0082530E-36
  0.4600000        3.0624433E-36
  0.4700000        3.1166428E-36
  0.4800000        3.1708418E-36
  0.4900000        3.2250323E-36
  0.5000000        3.2792135E-36
  0.5100000        3.3334129E-36
  0.5200000        3.3875941E-36
  0.5300000        3.4417935E-36
  0.5400000        3.4959747E-36
  0.5500000        3.5501920E-36
  0.5600000        3.6043732E-36
  0.5700000        3.6585726E-36
  0.5800000        3.7127538E-36
  0.5900000        3.7669532E-36
  0.6000000        3.8211347E-36
  0.6100000        3.8753338E-36
  0.6200000        3.9295150E-36
  0.6300000        3.9837327E-36
  0.6400000        4.0379139E-36
  0.6500000        4.0920950E-36
  0.6600000        4.1462944E-36
  0.6700000        4.2004756E-36
  0.6800000        4.2546750E-36
  0.6900000        4.3088745E-36
  0.7000000        4.3630919E-36
  0.7100000        4.4172730E-36
  0.7200000        4.4714725E-36
  0.7300000        4.5256446E-36
  0.7400000        4.5798348E-36
  0.7500000        4.6340342E-36
  0.7600000        4.6882154E-36
  0.7700000        4.7424327E-36
  0.7800000        4.7966139E-36
  0.7900000        4.8508133E-36
  0.8000000        4.9049945E-36
  0.8100000        4.9591943E-36
  0.8200000        5.0133754E-36
  0.8300000        5.0675745E-36
  0.8400000        5.1217740E-36
  0.8500000        5.1759734E-36
  0.8600000        5.2301546E-36
  0.8700000        5.2843536E-36
  0.8800000        5.3385348E-36
  0.8900000        5.3927342E-36
  0.9000000        5.4469157E-36
  0.9100000        5.5011328E-36
  0.9200000        5.5553143E-36
  0.9300000        5.6095137E-36
  0.9400000        5.6636949E-36
  0.9500000        5.7178943E-36
  0.9600000        5.7720758E-36
  0.9700000        5.8262745E-36
  0.9800000        5.8804743E-36
  0.9900000        5.9346555E-36
   1.000000        5.9888549E-36
   1.010000        6.0430361E-36
   1.020000        6.0972355E-36
   1.030000        6.1514163E-36
   1.040000        6.2056158E-36
   1.050000        6.2597973E-36
   1.060000        6.3140147E-36
   1.070000        6.3681775E-36
   1.080000        6.4223949E-36
   1.090000        6.4766123E-36
   1.100000        6.5307579E-36
   1.110000        6.5849753E-36
   1.120000        6.6391561E-36
   1.130000        6.6933742E-36
   1.140000        6.7475191E-36
   1.150000        6.8017365E-36
   1.160000        6.8559539E-36
   1.170000        6.9101346E-36
   1.180000        6.9643162E-36
   1.190000        7.0184977E-36
   1.200000        7.0727150E-36
   1.210000        7.1268958E-36
   1.220000        7.1810773E-36
   1.230000        7.2352947E-36
   1.240000        7.2894762E-36
   1.250000        7.3436570E-36
   1.260000        7.3978385E-36
   1.270000        7.4520559E-36
   1.280000        7.5062374E-36
   1.290000        7.5604189E-36
   1.300000        7.6146356E-36
   1.310000        7.6688171E-36
   1.320000        7.7230345E-36
   1.330000        7.7771794E-36
   1.340000        7.8313968E-36
   1.350000        7.8855783E-36
   1.360000        7.9397957E-36
   1.370000        7.9939772E-36
   1.380000        8.0481587E-36
   1.390000        8.1023753E-36
   1.400000        8.1565568E-36
   1.410000        8.2107384E-36
   1.420000        8.2649191E-36
   1.430000        8.3191365E-36
   1.440000        8.3733546E-36
   1.450000        8.4275354E-36
   1.460000        8.4817169E-36
   1.470000        8.5359343E-36
   1.480000        8.5901876E-36
   1.490000        8.6444057E-36
   1.500000        8.6986589E-36
   1.510000        8.7528763E-36
   1.520000        8.8071295E-36
   1.530000        8.8613476E-36
   1.540000        8.9155830E-36
   1.550000        8.9698549E-36
   1.560000        9.0240536E-36
   1.570000        9.0783614E-36
   1.580000        9.1325974E-36
   1.590000        9.1868327E-36
   1.600000        9.2410501E-36
   1.610000        9.2953034E-36
   1.620000        9.3495566E-36
   1.630000        9.4037747E-36
   1.640000        9.4580287E-36
   1.650000        9.5122461E-36
   1.660000        9.5664993E-36
   1.670000        9.6207167E-36
   1.680000        9.6749700E-36
   1.690000        9.7292239E-36
   1.700000        9.7834772E-36
   1.710000        9.8377312E-36
   1.720000        9.8919478E-36
   1.730000        9.9462018E-36
   1.740000        1.0000420E-35
   1.750000        1.0054673E-35
   1.760000        1.0108927E-35
   1.770000        1.0163145E-35
   1.780000        1.0217398E-35
   1.790000        1.0271615E-35
   1.800000        1.0325868E-35
   1.810000        1.0380086E-35
   1.820000        1.0434339E-35
   1.830000        1.0488630E-35
   1.840000        1.0542846E-35
   1.850000        1.0597100E-35
   1.860000        1.0651317E-35
   1.870000        1.0705571E-35
   1.880000        1.0759789E-35
   1.890000        1.0814043E-35
   1.900000        1.0868296E-35
   1.910000        1.0922514E-35
   1.920000        1.0976767E-35
   1.930000        1.1030984E-35
   1.940000        1.1085237E-35
   1.950000        1.1139455E-35
   1.960000        1.1193745E-35
   1.970000        1.1247999E-35
   1.980000        1.1302216E-35
   1.990000        1.1356469E-35
   2.000000        1.1410687E-35
   2.010000        1.1464941E-35
   2.020000        1.1519158E-35
   2.030000        1.1573412E-35
   2.040000        1.1627665E-35
   2.050000        1.1681883E-35
   2.060000        1.1736136E-35
   2.070000        1.1790353E-35
   2.080000        1.1844607E-35
   2.090000        1.1898860E-35
   2.100000        1.1953114E-35
   2.110000        1.2007368E-35
   2.120000        1.2061587E-35
   2.130000        1.2115840E-35
   2.140000        1.2170057E-35
   2.150000        1.2224310E-35
   2.160000        1.2278528E-35
   2.170000        1.2332781E-35
   2.180000        1.2387034E-35
   2.190000        1.2441252E-35
   2.200000        1.2495471E-35
   2.210000        1.2549760E-35
   2.220000        1.2604013E-35
   2.230000        1.2658230E-35
   2.240000        1.2712448E-35
   2.250000        1.2766738E-35
   2.260000        1.2820918E-35
   2.270000        1.2875173E-35
   2.280000        1.2929426E-35
   2.290000        1.2983679E-35
   2.300000        1.3037933E-35
   2.310000        1.3092114E-35
   2.320000        1.3146441E-35
   2.330000        1.3200622E-35
   2.340000        1.3254875E-35
   2.350000        1.3309129E-35
   2.360000        1.3363383E-35
   2.370000        1.3417563E-35
   2.380000        1.3471817E-35
   2.390000        1.3526071E-35
   2.400000        1.3580325E-35
   2.410000        1.3634505E-35
   2.420000        1.3688831E-35
   2.430000        1.3743084E-35
   2.440000        1.3797266E-35
   2.450000        1.3851519E-35
   2.460000        1.3905772E-35
   2.470000        1.3960027E-35
   2.480000        1.4014209E-35
   2.490000        1.4068534E-35
   2.500000        1.4122715E-35
   2.510000        1.4176970E-35
   2.520000        1.4231150E-35
   2.530000        1.4285476E-35
   2.540000        1.4339656E-35
   2.550000        1.4393911E-35
   2.560000        1.4448238E-35
   2.570000        1.4502418E-35
   2.580000        1.4556671E-35
   2.590000        1.4610854E-35
   2.600000        1.4665179E-35
   2.610000        1.4719360E-35
   2.620000        1.4773614E-35
   2.630000        1.4827868E-35
   2.640000        1.4882122E-35
   2.650000        1.4936302E-35
   2.660000        1.4990555E-35
   2.670000        1.5044810E-35
   2.680000        1.5099063E-35
   2.690000        1.5153316E-35
   2.700000        1.5207569E-35
   2.710000        1.5261824E-35
   2.720000        1.5316005E-35
   2.730000        1.5370259E-35
   2.740000        1.5424512E-35
   2.750000        1.5478767E-35
   2.760000        1.5532947E-35
   2.770000        1.5587273E-35
   2.780000        1.5641455E-35
   2.790000        1.5695708E-35
   2.800000        1.5749889E-35
   2.810000        1.5804214E-35
   2.820000        1.5858468E-35
   2.830000        1.5912651E-35
   2.840000        1.5966976E-35
   2.850000        1.6021157E-35
   2.860000        1.6075410E-35
   2.870000        1.6129592E-35
   2.880000        1.6183918E-35
   2.890000        1.6238098E-35
   2.900000        1.6292353E-35
   2.910000        1.6346606E-35
   2.920000        1.6400860E-35
   2.930000        1.6455041E-35
   2.940000        1.6509294E-35
   2.950000        1.6563621E-35
   2.960000        1.6617802E-35
   2.970000        1.6672056E-35
   2.980000        1.6726381E-35
   2.990000        1.6780779E-35
   3.000000        1.6835033E-35
   3.010000        1.6889432E-35
   3.020000        1.6943685E-35
   3.030000        1.6998085E-35
   3.040000        1.7052410E-35
   3.050000        1.7106736E-35
   3.060000        1.7161061E-35
   3.070000        1.7215459E-35
   3.080000        1.7269786E-35
   3.090000        1.7324111E-35
   3.100000        1.7378437E-35
   3.110000        1.7432763E-35
   3.120000        1.7487162E-35
   3.130000        1.7541415E-35
   3.140000        1.7595815E-35
   3.150000        1.7650140E-35
   3.160000        1.7704466E-35
   3.170000        1.7758791E-35
   3.180000        1.7813117E-35
   3.190000        1.7867407E-35
   3.200000        1.7921841E-35
   3.210000        1.7976131E-35
   3.220000        1.8030492E-35
   3.230000        1.8084856E-35
   3.240000        1.8139145E-35
   3.250000        1.8193579E-35
   3.260000        1.8247798E-35
   3.270000        1.8302159E-35
   3.280000        1.8356521E-35
   3.290000        1.8410847E-35
   3.300000        1.8465172E-35
   3.310000        1.8519497E-35
   3.320000        1.8573824E-35
   3.330000        1.8628223E-35
   3.340000        1.8682548E-35
   3.350000        1.8736875E-35
   3.360000        1.8791273E-35
   3.370000        1.8845528E-35
   3.380000        1.8899924E-35
   3.390000        1.8954178E-35
   3.400000        1.9008577E-35
   3.410000        1.9062904E-35
   3.420000        1.9117227E-35
   3.430000        1.9171554E-35
   3.440000        1.9225953E-35
   3.450000        1.9280207E-35
   3.460000        1.9334605E-35
   3.470000        1.9388931E-35
   3.480000        1.9443258E-35
   3.490000        1.9497654E-35
   3.500000        1.9551908E-35
   3.510000        1.9606307E-35
   3.520000        1.9660634E-35
   3.530000        1.9714957E-35
   3.540000        1.9769284E-35
   3.550000        1.9823610E-35
   3.560000        1.9877937E-35
   3.570000        1.9932333E-35
   3.580000        1.9986588E-35
   3.590000        2.0040986E-35
   3.600000        2.0095384E-35
   3.610000        2.0149638E-35
   3.620000        2.0204037E-35
   3.630000        2.0258291E-35
   3.640000        2.0312687E-35
   3.650000        2.0367014E-35
   3.660000        2.0421340E-35
   3.670000        2.0475667E-35
   3.680000        2.0529992E-35
   3.690000        2.0584318E-35
   3.700000        2.0638716E-35
   3.710000        2.0692971E-35
   3.720000        2.0747368E-35
   3.730000        2.0801767E-35
   3.740000        2.0856021E-35
   3.750000        2.0910417E-35
   3.760000        2.0964671E-35
   3.770000        2.1019070E-35
   3.780000        2.1073397E-35
   3.790000        2.1127722E-35
   3.800000        2.1182048E-35
   3.810000        2.1236446E-35
   3.820000        2.1290701E-35
   3.830000        2.1345098E-35
   3.840000        2.1399351E-35
   3.850000        2.1453751E-35
   3.860000        2.1508147E-35
   3.870000        2.1562401E-35
   3.880000        2.1616800E-35
   3.890000        2.1671127E-35
   3.900000        2.1725452E-35
   3.910000        2.1779778E-35
   3.920000        2.1834104E-35
   3.930000        2.1888431E-35
   3.940000        2.1942828E-35
   3.950000        2.1997081E-35
   3.960000        2.2051481E-35
   3.970000        2.2105807E-35
   3.980000        2.2160131E-35
   3.990000        2.2214530E-35
   4.000000        2.2268783E-35
   4.010000        2.2323180E-35
   4.020000        2.2377507E-35
   4.030000        2.2431833E-35
   4.040000        2.2486159E-35
   4.050000        2.2540558E-35
   4.060000        2.2594811E-35
   4.070000        2.2649210E-35
   4.080000        2.2703464E-35
   4.090000        2.2757860E-35
   4.100000        2.2812187E-35
   4.110000        2.2866513E-35
   4.120000        2.2920910E-35
   4.130000        2.2975165E-35
   4.140000        2.3029563E-35
   4.150000        2.3083889E-35
   4.160000        2.3138216E-35
   4.170000        2.3192541E-35
   4.180000        2.3246940E-35
   4.190000        2.3301194E-35
   4.200000        2.3355590E-35
   4.210000        2.3409844E-35
   4.220000        2.3464243E-35
   4.230000        2.3518570E-35
   4.240000        2.3572895E-35
   4.250000        2.3627293E-35
   4.260000        2.3681619E-35
   4.270000        2.3735946E-35
   4.280000        2.3790271E-35
   4.290000        2.3844597E-35
   4.300000        2.3898924E-35
   4.310000        2.3953320E-35
   4.320000        2.4007574E-35
   4.330000        2.4061973E-35
   4.340000        2.4116300E-35
   4.350000        2.4170623E-35
   4.360000        2.4224950E-35
   4.370000        2.4279276E-35
   4.380000        2.4312552E-35
   4.390000        2.4318774E-35
   4.400000        2.4329840E-35
   4.410000        2.4447390E-35
   4.420000        2.4681260E-35
   4.430000        2.4866734E-35
   4.440000        2.4921060E-35
   4.450000        2.4917516E-35
   4.460000        2.5031664E-35
   4.470000        2.5203540E-35
   4.480000        2.5312265E-35
   4.490000        2.5427716E-35
   4.500000        2.5575141E-35
   4.510000        2.5807565E-35
   4.520000        2.6064438E-35
   4.530000        2.6262570E-35
   4.540000        2.6440306E-35
   4.550000        2.6610299E-35
   4.560000        2.6855382E-35
   4.570000        2.7135185E-35
   4.580000        2.7423454E-35
   4.590000        2.7802143E-35
   4.600000        2.8236534E-35
   4.610000        2.8689730E-35
   4.620000        2.9127740E-35
   4.630000        2.9647055E-35
   4.640000        3.0217873E-35
   4.650000        3.0877525E-35
   4.660000        3.1719903E-35
   4.670000        3.2639320E-35
   4.680000        3.3686342E-35
   4.690000        3.4952693E-35
   4.700000        3.6292903E-35
   4.710000        3.7789942E-35
   4.720000        3.9565478E-35
   4.730000        4.1599118E-35
   4.740000        4.3892382E-35
   4.750000        4.6388264E-35
   4.760000        4.9267035E-35
   4.770000        5.2582870E-35
   4.780000        5.6336927E-35
   4.790000        6.0593663E-35
   4.800000        6.5354381E-35
   4.810000        7.0761867E-35
   4.820000        7.7036550E-35
   4.830000        8.4311810E-35
   4.840000        9.2525445E-35
   4.850000        1.0152822E-34
   4.860000        1.1135882E-34
   4.870000        1.2241831E-34
   4.880000        1.3507343E-34
   4.890000        1.4936253E-34
   4.900000        1.6536299E-34
   4.910000        1.8328518E-34
   4.920000        2.0345617E-34
   4.930000        2.2602768E-34
   4.940000        2.5123499E-34
   4.950000        2.7965844E-34
   4.960000        3.1147182E-34
   4.970000        3.4678309E-34
   4.980000        3.8604621E-34
   4.990000        4.2978783E-34
   5.000000        4.7822650E-34
   5.010000        5.3179622E-34
   5.020000        5.9130686E-34
   5.030000        6.5738654E-34
   5.040000        7.3123555E-34
   5.050000        8.1417668E-34
   5.060000        9.0625435E-34
   5.070000        1.0078028E-33
   5.080000        1.1205956E-33
   5.090000        1.2441259E-33
   5.100000        1.3785879E-33
   5.110000        1.5259167E-33
   5.120000        1.6825962E-33
   5.130000        1.8451660E-33
   5.140000        2.0172839E-33
   5.150000        2.2033964E-33
   5.160000        2.4071118E-33
   5.170000        2.6314389E-33
   5.180000        2.8804407E-33
   5.190000        3.1591631E-33
   5.200000        3.4688085E-33
   5.210000        3.8116315E-33
   5.220000        4.1865720E-33
   5.230000        4.5963614E-33
   5.240000        5.0444378E-33
   5.250000        5.5290306E-33
   5.260000        6.0531196E-33
   5.270000        6.6219138E-33
   5.280000        7.2385892E-33
   5.290000        7.9025789E-33
   5.300000        8.6200757E-33
   5.310000        9.3979862E-33
   5.320000        1.0238768E-32
   5.330000        1.1146777E-32
   5.340000        1.2129001E-32
   5.350000        1.3189079E-32
   5.360000        1.4332496E-32
   5.370000        1.5566898E-32
   5.380000        1.6896205E-32
   5.390000        1.8328023E-32
   5.400000        1.9863520E-32
   5.410000        2.1512092E-32
   5.420000        2.3281051E-32
   5.430000        2.5174128E-32
   5.440000        2.7201736E-32
   5.450000        2.9373303E-32
   5.460000        3.1698745E-32
   5.470000        3.4183423E-32
   5.480000        3.6836757E-32
   5.490000        3.9669954E-32
   5.500000        4.2693561E-32
   5.510000        4.5917328E-32
   5.520000        4.9350756E-32
   5.530000        5.3001348E-32
   5.540000        5.6880632E-32
   5.550000        6.1000222E-32
   5.560000        6.5368806E-32
   5.570000        7.0000213E-32
   5.580000        7.4905721E-32
   5.590000        8.0097174E-32
   5.600000        8.5588326E-32
   5.610000        9.1387362E-32
   5.620000        9.7509619E-32
   5.630000        1.0397431E-31
   5.640000        1.1079077E-31
   5.650000        1.1797190E-31
   5.660000        1.2552997E-31
   5.670000        1.3347690E-31
   5.680000        1.4182911E-31
   5.690000        1.5059700E-31
   5.700000        1.5979025E-31
   5.710000        1.6942154E-31
   5.720000        1.7950605E-31
   5.730000        1.9005467E-31
   5.740000        2.0107651E-31
   5.750000        2.1258079E-31
   5.760000        2.2457507E-31
   5.770000        2.3706477E-31
   5.780000        2.5005736E-31
   5.790000        2.6356142E-31
   5.800000        2.7758260E-31
   5.810000        2.9212142E-31
   5.820000        3.0718246E-31
   5.830000        3.2276884E-31
   5.840000        3.3887210E-31
   5.850000        3.5548816E-31
   5.860000        3.7261431E-31
   5.870000        3.9024188E-31
   5.880000        4.0836011E-31
   5.890000        4.2695511E-31
   5.900000        4.4601133E-31
   5.910000        4.6551213E-31
   5.920000        4.8543017E-31
   5.930000        5.0573387E-31
   5.940000        5.2639131E-31
   5.950000        5.4736570E-31
   5.960000        5.6861497E-31
   5.970000        5.9009793E-31
   5.980000        6.1176257E-31
   5.990000        6.3354147E-31
   6.000000        6.5537285E-31
   6.010000        6.7718457E-31
   6.020000        6.9889332E-31
   6.030000        7.2041488E-31
   6.040000        7.4165507E-31
   6.050000        7.6250759E-31
   6.060000        7.8285545E-31
   6.070000        8.0257761E-31
   6.080000        8.2154040E-31
   6.090000        8.3959787E-31
   6.100000        8.5659787E-31
   6.110000        8.7237179E-31
   6.120000        8.8673266E-31
   6.130000        8.9948188E-31
   6.140000        9.1040655E-31
   6.150000        9.1927862E-31
   6.160000        9.2585697E-31
   6.170000        9.2988158E-31
   6.180000        9.3107428E-31
   6.190000        9.2913340E-31
   6.200000        9.2373459E-31
   6.210000        9.1453555E-31
   6.220000        9.0117121E-31
   6.230000        8.8324887E-31
   6.240000        8.6035062E-31
   6.250000        8.3203277E-31
   6.260000        7.9782231E-31
   6.270000        7.5721500E-31
   6.280000        7.0966997E-31
   6.290000        6.5461414E-31
   6.300000        5.9143922E-31
   6.310000        5.1950333E-31
   6.320000        4.3811737E-31
   6.330000        3.4654269E-31
   6.340000        2.4399576E-31
   6.350000        1.2964917E-31
   6.360000        2.6201538E-33
   6.370000       -1.3803348E-31
   6.380000       -2.9330404E-31
   6.390000       -4.6424574E-31
   6.400000       -6.5198300E-31
   6.410000       -8.5771328E-31
   6.420000       -1.0827117E-30
   6.430000       -1.3283223E-30
   6.440000       -1.5959820E-30
   6.450000       -1.8872182E-30
   6.460000       -2.2036481E-30
   6.470000       -2.5470010E-30
   6.480000       -2.9190955E-30
   6.490000       -3.3218786E-30
   6.500000       -3.7574126E-30
   6.510000       -4.2279037E-30
   6.520000       -4.7356879E-30
   6.530000       -5.2832407E-30
   6.540000       -5.8731963E-30
   6.550000       -6.5083673E-30
   6.560000       -7.1917331E-30
   6.570000       -7.9264649E-30
   6.580000       -8.7159382E-30
   6.590000       -9.5637423E-30
   6.600000       -1.0473653E-29
   6.610000       -1.1449761E-29
   6.620000       -1.2496368E-29
   6.630000       -1.3618040E-29
   6.640000       -1.4819643E-29
   6.650000       -1.6106355E-29
   6.660000       -1.7483690E-29
   6.670000       -1.8957490E-29
   6.680000       -2.0533954E-29
   6.690000       -2.2219698E-29
   6.700000       -2.4021741E-29
   6.710000       -2.5947518E-29
   6.720000       -2.8004959E-29
   6.730000       -3.0202506E-29
   6.740000       -3.2549086E-29
   6.750000       -3.5054152E-29
   6.760000       -3.7727833E-29
   6.770000       -4.0580788E-29
   6.780000       -4.3624393E-29
   6.790000       -4.6870686E-29
   6.800000       -5.0332416E-29
   6.810000       -5.4023190E-29
   6.820000       -5.7957329E-29
   6.830000       -6.2150066E-29
   6.840000       -6.6617574E-29
   6.850000       -7.1376914E-29
   6.860000       -7.6446238E-29
   6.870000       -8.1844734E-29
   6.880000       -8.7592738E-29
   6.890000       -9.3711725E-29
   6.900000       -1.0022441E-28
   6.910000       -1.0715482E-28
   6.920000       -1.1452840E-28
   6.930000       -1.2237201E-28
   6.940000       -1.3071403E-28
   6.950000       -1.3958434E-28
   6.960000       -1.4901465E-28
   6.970000       -1.5903831E-28
   6.980000       -1.6969059E-28
   6.990000       -1.8100863E-28
   7.000000       -1.9303150E-28
   7.010000       -2.0580042E-28
   7.020000       -2.1935880E-28
   7.030000       -2.3375248E-28
   7.040000       -2.4902946E-28
   7.050000       -2.6524020E-28
   7.060000       -2.8243789E-28
   7.070000       -3.0067859E-28
   7.080000       -3.2002092E-28
   7.090000       -3.4052639E-28
   7.100000       -3.6225972E-28
   7.110000       -3.8528869E-28
   7.120000       -4.0968430E-28
   7.130000       -4.3552128E-28
   7.140000       -4.6287747E-28
   7.150000       -4.9183446E-28
   7.160000       -5.2247812E-28
   7.170000       -5.5489730E-28
   7.180000       -5.8918550E-28
   7.190000       -6.2544050E-28
   7.200000       -6.6376400E-28
   7.210000       -7.0426231E-28
   7.220000       -7.4704603E-28
   7.230000       -7.9223099E-28
   7.240000       -8.3993743E-28
   7.250000       -8.9029107E-28
   7.260000       -9.4342160E-28
   7.270000       -9.9946510E-28
   7.280000       -1.0585628E-27
   7.290000       -1.1208607E-27
   7.300000       -1.1865105E-27
   7.310000       -1.2556700E-27
   7.320000       -1.3285028E-27
   7.330000       -1.4051783E-27
   7.340000       -1.4858711E-27
   7.350000       -1.5707640E-27
   7.360000       -1.6600432E-27
   7.370000       -1.7539032E-27
   7.380000       -1.8525428E-27
   7.390000       -1.9561695E-27
   7.400000       -2.0649954E-27
   7.410000       -2.1792404E-27
   7.420000       -2.2991293E-27
   7.430000       -2.4248953E-27
   7.440000       -2.5567747E-27
   7.450000       -2.6950133E-27
   7.460000       -2.8398625E-27
   7.470000       -2.9915793E-27
   7.480000       -3.1504262E-27
   7.490000       -3.3166732E-27
   7.500000       -3.4905963E-27
   7.510000       -3.6724730E-27
   7.520000       -3.8625927E-27
   7.530000       -4.0612458E-27
   7.540000       -4.2687297E-27
   7.550000       -4.4853441E-27
   7.560000       -4.7113970E-27
   7.570000       -4.9471960E-27
   7.580000       -5.1930532E-27
   7.590000       -5.4492897E-27
   7.600000       -5.7162194E-27
   7.610000       -5.9941665E-27
   7.620000       -6.2834516E-27
   7.630000       -6.5843993E-27
   7.640000       -6.8973329E-27
   7.650000       -7.2225778E-27
   7.660000       -7.5604545E-27
   7.670000       -7.9112803E-27
   7.680000       -8.2753720E-27
   7.690000       -8.6530461E-27
   7.700000       -9.0446069E-27
   7.710000       -9.4503526E-27
   7.720000       -9.8705836E-27
   7.730000       -1.0305583E-26
   7.740000       -1.0755621E-26
   7.750000       -1.1220961E-26
   7.760000       -1.1701857E-26
   7.770000       -1.2198543E-26
   7.780000       -1.2711236E-26
   7.790000       -1.3240137E-26
   7.800000       -1.3785426E-26
   7.810000       -1.4347263E-26
   7.820000       -1.4925783E-26
   7.830000       -1.5521093E-26
   7.840000       -1.6133272E-26
   7.850000       -1.6762370E-26
   7.860000       -1.7408399E-26
   7.870000       -1.8071341E-26
   7.880000       -1.8751133E-26
   7.890000       -1.9447675E-26
   7.900000       -2.0160815E-26
   7.910000       -2.0890353E-26
   7.920000       -2.1636059E-26
   7.930000       -2.2397622E-26
   7.940000       -2.3174681E-26
   7.950000       -2.3966821E-26
   7.960000       -2.4773551E-26
   7.970000       -2.5594313E-26
   7.980000       -2.6428483E-26
   7.990000       -2.7275350E-26
   8.000000       -2.8134123E-26
   8.010000       -2.9003923E-26
   8.020000       -2.9883783E-26
   8.030000       -3.0772635E-26
   8.040000       -3.1669333E-26
   8.050000       -3.2572588E-26
   8.060000       -3.3481026E-26
   8.070000       -3.4393155E-26
   8.080000       -3.5307334E-26
   8.090000       -3.6221827E-26
   8.100000       -3.7134758E-26
   8.110000       -3.8044093E-26
   8.120000       -3.8947684E-26
   8.130000       -3.9843189E-26
   8.140000       -4.0728149E-26
   8.150000       -4.1599917E-26
   8.160000       -4.2455680E-26
   8.170000       -4.3292449E-26
   8.180000       -4.4107062E-26
   8.190000       -4.4896176E-26
   8.200000       -4.5656188E-26
   8.210000       -4.6383354E-26
   8.220000       -4.7073706E-26
   8.230000       -4.7723019E-26
   8.240000       -4.8326923E-26
   8.250000       -4.8880697E-26
   8.260000       -4.9379494E-26
   8.270000       -4.9818150E-26
   8.280000       -5.0191232E-26
   8.290000       -5.0493172E-26
   8.300000       -5.0717981E-26
   8.310000       -5.0859443E-26
   8.320000       -5.0911068E-26
   8.330000       -5.0866065E-26
   8.340000       -5.0717381E-26
   8.350000       -5.0457565E-26
   8.360000       -5.0078955E-26
   8.370000       -4.9573517E-26
   8.380000       -4.8932916E-26
   8.390000       -4.8148443E-26
   8.400000       -4.7211150E-26
   8.410000       -4.6111579E-26
   8.420000       -4.4840077E-26
   8.430000       -4.3386567E-26
   8.440000       -4.1740627E-26
   8.450000       -3.9891559E-26
   8.460000       -3.7828025E-26
   8.470000       -3.5538510E-26
   8.480000       -3.3011339E-26
   8.490000       -3.0233985E-26
   8.500000       -2.7193712E-26
   8.510000       -2.3877679E-26
   8.520000       -2.0272242E-26
   8.530000       -1.6363685E-26
   8.540000       -1.2137741E-26
   8.550000       -7.5798609E-27
   8.560000       -2.6751365E-27
   8.570000        2.5921243E-27
   8.580000        8.2373588E-27
   8.590000        1.4276820E-26
   8.600000        2.0727109E-26
   8.610000        2.7604832E-26
   8.620000        3.4927596E-26
   8.630000        4.2712784E-26
   8.640000        5.0978225E-26
   8.650000        5.9742199E-26
   8.660000        6.9023326E-26
   8.670000        7.8840386E-26
   8.680000        8.9212650E-26
   8.690000        1.0015957E-25
   8.700000        1.1170065E-25
   8.710000        1.2385635E-25
   8.720000        1.3664660E-25
   8.730000        1.5009162E-25
   8.740000        1.6421213E-25
   8.750000        1.7902874E-25
   8.760000        1.9456295E-25
   8.770000        2.1083481E-25
   8.780000        2.2786553E-25
   8.790000        2.4567616E-25
   8.800000        2.6428864E-25
   8.810000        2.8372285E-25
   8.820000        3.0400062E-25
   8.830000        3.2514224E-25
   8.840000        3.4716829E-25
   8.850000        3.7009959E-25
   8.860000        3.9395640E-25
   8.870000        4.1875823E-25
   8.880000        4.4452524E-25
   8.890000        4.7127620E-25
   8.900000        4.9902942E-25
   8.910000        5.2780361E-25
   8.920000        5.5761634E-25
   8.930000        5.8848471E-25
   8.940000        6.2042431E-25
   8.950000        6.5345091E-25
   8.960000        6.8757905E-25
   8.970000        7.2282151E-25
   8.980000        7.5919140E-25