 -0.1000000        2.7103906E-38
 -9.0000004E-02    8.1312563E-38
 -7.9999998E-02    1.3552095E-37
 -7.0000000E-02    1.8973160E-37
 -5.9999999E-02    2.4394221E-37
 -5.0000001E-02    2.9815286E-37
 -3.9999999E-02    3.5236235E-37
 -2.9999999E-02    4.0657188E-37
 -2.0000000E-02    4.6078478E-37
 -9.9999998E-03    5.1498409E-37
  0.0000000E+00    5.6919246E-37
  9.9999998E-03    6.2339634E-37
  2.0000000E-02    6.7760023E-37
  2.9999999E-02    7.3179958E-37
  3.9999999E-02    7.8600790E-37
  5.0000001E-02    8.4021632E-37
  5.9999999E-02    8.9441558E-37
  7.0000000E-02    9.4862399E-37
  7.9999998E-02    1.0028143E-36
  9.0000004E-02    1.0570136E-36
  0.1000000        1.1112039E-36
  0.1100000        1.1653942E-36
  0.1200000        1.2195845E-36
  0.1300000        1.2737747E-36
  0.1400000        1.3279741E-36
  0.1500000        1.3821644E-36
  0.1600000        1.4363548E-36
  0.1700000        1.4905451E-36
  0.1800000        1.5447444E-36
  0.1900000        1.5989256E-36
  0.2000000        1.6531248E-36
  0.2100000        1.7073243E-36
  0.2200000        1.7615056E-36
  0.2300000        1.8157047E-36
  0.2400000        1.8698860E-36
  0.2500000        1.9241036E-36
  0.2600000        1.9782847E-36
  0.2700000        2.0324842E-36
  0.2800000        2.0866835E-36
  0.2900000        2.1408646E-36
  0.3000000        2.1950640E-36
  0.3100000        2.2492454E-36
  0.3200000        2.3034446E-36
  0.3300000        2.3576441E-36
  0.3400000        2.4118254E-36
  0.3500000        2.4660245E-36
  0.3600000        2.5202058E-36
  0.3700000        2.5744051E-36
  0.3800000        2.6286045E-36
  0.3900000        2.6827855E-36
  0.4000000        2.7369851E-36
  0.4100000        2.7911752E-36
  0.4200000        2.8453655E-36
  0.4300000        2.8995740E-36
  0.4400000        2.9537822E-36
  0.4500000        3.0079547E-36
  0.4600000        3.0621448E-36
  0.4700000        3.1163622E-36
  0.4800000        3.1705437E-36
  0.4900000        3.2247249E-36
  0.5000000        3.2789060E-36
  0.5100000        3.3331234E-36
  0.5200000        3.3873049E-36
  0.5300000        3.4414857E-36
  0.5400000        3.4957035E-36
  0.5500000        3.5498846E-36
  0.5600000        3.6040658E-36
  0.5700000        3.6582835E-36
  0.5800000        3.7124646E-36
  0.5900000        3.7666458E-36
  0.6000000        3.8208273E-36
  0.6100000        3.8750809E-36
  0.6200000        3.9293345E-36
  0.6300000        3.9835519E-36
  0.6400000        4.0378055E-36
  0.6500000        4.0920591E-36
  0.6600000        4.1462765E-36
  0.6700000        4.2004935E-36
  0.6800000        4.2547837E-36
  0.6900000        4.3090008E-36
  0.7000000        4.3632181E-36
  0.7100000        4.4175080E-36
  0.7200000        4.4717254E-36
  0.7300000        4.5259427E-36
  0.7400000        4.5802326E-36
  0.7500000        4.6344503E-36
  0.7600000        4.6886674E-36
  0.7700000        4.7429210E-36
  0.7800000        4.7971746E-36
  0.7900000        4.8514282E-36
  0.8000000        4.9056459E-36
  0.8100000        4.9598995E-36
  0.8200000        5.0141532E-36
  0.8300000        5.0683702E-36
  0.8400000        5.1226238E-36
  0.8500000        5.1768774E-36
  0.8600000        5.2310951E-36
  0.8700000        5.2853122E-36
  0.8800000        5.3396024E-36
  0.8900000        5.3938194E-36
  0.9000000        5.4480371E-36
  0.9100000        5.5023266E-36
  0.9200000        5.5565444E-36
  0.9300000        5.6107614E-36
  0.9400000        5.6650516E-36
  0.9500000        5.7192686E-36
  0.9600000        5.7735222E-36
  0.9700000        5.8277034E-36
  0.9800000        5.8819570E-36
  0.9900000        5.9362831E-36
   1.000000        5.9904642E-36
   1.010000        6.0447178E-36
   1.020000        6.0989718E-36
   1.030000        6.1531526E-36
   1.040000        6.2074066E-36
   1.050000        6.2616598E-36
   1.060000        6.3159138E-36
   1.070000        6.3701670E-36
   1.080000        6.4244210E-36
   1.090000        6.4786018E-36
   1.100000        6.5328558E-36
   1.110000        6.5871090E-36
   1.120000        6.6413630E-36
   1.130000        6.6956163E-36
   1.140000        6.7498702E-36
   1.150000        6.8041235E-36
   1.160000        6.8583050E-36
   1.170000        6.9125582E-36
   1.180000        6.9668122E-36
   1.190000        7.0210655E-36
   1.200000        7.0753194E-36
   1.210000        7.1295727E-36
   1.220000        7.1837542E-36
   1.230000        7.2380075E-36
   1.240000        7.2922614E-36
   1.250000        7.3464422E-36
   1.260000        7.4007687E-36
   1.270000        7.4550219E-36
   1.280000        7.5092034E-36
   1.290000        7.5634567E-36
   1.300000        7.6177106E-36
   1.310000        7.6718914E-36
   1.320000        7.7260729E-36
   1.330000        7.7801813E-36
   1.340000        7.8343628E-36
   1.350000        7.8885443E-36
   1.360000        7.9426533E-36
   1.370000        7.9968341E-36
   1.380000        8.0509432E-36
   1.390000        8.1050522E-36
   1.400000        8.1592337E-36
   1.410000        8.2133428E-36
   1.420000        8.2675235E-36
   1.430000        8.3217051E-36
   1.440000        8.3758134E-36
   1.450000        8.4299224E-36
   1.460000        8.4841039E-36
   1.470000        8.5382130E-36
   1.480000        8.5923938E-36
   1.490000        8.6465753E-36
   1.500000        8.7006843E-36
   1.510000        8.7547934E-36
   1.520000        8.8089749E-36
   1.530000        8.8630832E-36
   1.540000        8.9171922E-36
   1.550000        8.9714455E-36
   1.560000        9.0255545E-36
   1.570000        9.0796636E-36
   1.580000        9.1338451E-36
   1.590000        9.1879541E-36
   1.600000        9.2420632E-36
   1.610000        9.2962440E-36
   1.620000        9.3504255E-36
   1.630000        9.4045345E-36
   1.640000        9.4587153E-36
   1.650000        9.5128244E-36
   1.660000        9.5669334E-36
   1.670000        9.6211142E-36
   1.680000        9.6752957E-36
   1.690000        9.7294765E-36
   1.700000        9.7835855E-36
   1.710000        9.8376946E-36
   1.720000        9.8918761E-36
   1.730000        9.9459851E-36
   1.740000        1.0000094E-35
   1.750000        1.0054348E-35
   1.760000        1.0108457E-35
   1.770000        1.0162565E-35
   1.780000        1.0216746E-35
   1.790000        1.0270855E-35
   1.800000        1.0324964E-35
   1.810000        1.0379145E-35
   1.820000        1.0433327E-35
   1.830000        1.0487436E-35
   1.840000        1.0541617E-35
   1.850000        1.0595726E-35
   1.860000        1.0649835E-35
   1.870000        1.0704015E-35
   1.880000        1.0758124E-35
   1.890000        1.0812307E-35
   1.900000        1.0866487E-35
   1.910000        1.0920597E-35
   1.920000        1.0974705E-35
   1.930000        1.1028887E-35
   1.940000        1.1082996E-35
   1.950000        1.1137177E-35
   1.960000        1.1191358E-35
   1.970000        1.1245467E-35
   1.980000        1.1299576E-35
   1.990000        1.1353757E-35
   2.000000        1.1407866E-35
   2.010000        1.1462047E-35
   2.020000        1.1516156E-35
   2.030000        1.1570338E-35
   2.040000        1.1624447E-35
   2.050000        1.1678555E-35
   2.060000        1.1732808E-35
   2.070000        1.1786917E-35
   2.080000        1.1841026E-35
   2.090000        1.1895135E-35
   2.100000        1.1949389E-35
   2.110000        1.2003354E-35
   2.120000        1.2057607E-35
   2.130000        1.2111861E-35
   2.140000        1.2165824E-35
   2.150000        1.2220079E-35
   2.160000        1.2274187E-35
   2.170000        1.2328297E-35
   2.180000        1.2382405E-35
   2.190000        1.2436658E-35
   2.200000        1.2490768E-35
   2.210000        1.2544877E-35
   2.220000        1.2599130E-35
   2.230000        1.2653095E-35
   2.240000        1.2707348E-35
   2.250000        1.2761603E-35
   2.260000        1.2815566E-35
   2.270000        1.2869819E-35
   2.280000        1.2923928E-35
   2.290000        1.2978037E-35
   2.300000        1.3032146E-35
   2.310000        1.3086399E-35
   2.320000        1.3140509E-35
   2.330000        1.3194617E-35
   2.340000        1.3248872E-35
   2.350000        1.3302835E-35
   2.360000        1.3357088E-35
   2.370000        1.3411198E-35
   2.380000        1.3465306E-35
   2.390000        1.3519561E-35
   2.400000        1.3573669E-35
   2.410000        1.3627779E-35
   2.420000        1.3681888E-35
   2.430000        1.3736141E-35
   2.440000        1.3790104E-35
   2.450000        1.3844357E-35
   2.460000        1.3898612E-35
   2.470000        1.3952576E-35
   2.480000        1.4006830E-35
   2.490000        1.4060939E-35
   2.500000        1.4115047E-35
   2.510000        1.4169157E-35
   2.520000        1.4223410E-35
   2.530000        1.4277520E-35
   2.540000        1.4331628E-35
   2.550000        1.4385881E-35
   2.560000        1.4439846E-35
   2.570000        1.4494099E-35
   2.580000        1.4548209E-35
   2.590000        1.4602317E-35
   2.600000        1.4656571E-35
   2.610000        1.4710680E-35
   2.620000        1.4764789E-35
   2.630000        1.4818897E-35
   2.640000        1.4873150E-35
   2.650000        1.4927260E-35
   2.660000        1.4981368E-35
   2.670000        1.5035622E-35
   2.680000        1.5089587E-35
   2.690000        1.5143840E-35
   2.700000        1.5197950E-35
   2.710000        1.5252058E-35
   2.720000        1.5306456E-35
   2.730000        1.5360709E-35
   2.740000        1.5415107E-35
   2.750000        1.5469651E-35
   2.760000        1.5524049E-35
   2.770000        1.5578593E-35
   2.780000        1.5633136E-35
   2.790000        1.5687678E-35
   2.800000        1.5742221E-35
   2.810000        1.5796764E-35
   2.820000        1.5851307E-35
   2.830000        1.5905849E-35
   2.840000        1.5960394E-35
   2.850000        1.6014937E-35
   2.860000        1.6069480E-35
   2.870000        1.6124022E-35
   2.880000        1.6178420E-35
   2.890000        1.6232963E-35
   2.900000        1.6287506E-35
   2.910000        1.6342049E-35
   2.920000        1.6396592E-35
   2.930000        1.6451135E-35
   2.940000        1.6505678E-35
   2.950000        1.6560220E-35
   2.960000        1.6614763E-35
   2.970000        1.6669306E-35
   2.980000        1.6723851E-35
   2.990000        1.6778249E-35
   3.000000        1.6832791E-35
   3.010000        1.6887334E-35
   3.020000        1.6941877E-35
   3.030000        1.6996420E-35
   3.040000        1.7050962E-35
   3.050000        1.7105506E-35
   3.060000        1.7160049E-35
   3.070000        1.7214591E-35
   3.080000        1.7269134E-35
   3.090000        1.7323677E-35
   3.100000        1.7378075E-35
   3.110000        1.7432619E-35
   3.120000        1.7487162E-35
   3.130000        1.7541705E-35
   3.140000        1.7596248E-35
   3.150000        1.7650791E-35
   3.160000        1.7705333E-35
   3.170000        1.7759876E-35
   3.180000        1.7814419E-35
   3.190000        1.7868962E-35
   3.200000        1.7923505E-35
   3.210000        1.7978048E-35
   3.220000        1.8032446E-35
   3.230000        1.8086989E-35
   3.240000        1.8141533E-35
   3.250000        1.8196074E-35
   3.260000        1.8250617E-35
   3.270000        1.8305162E-35
   3.280000        1.8359704E-35
   3.290000        1.8414247E-35
   3.300000        1.8468790E-35
   3.310000        1.8523333E-35
   3.320000        1.8577875E-35
   3.330000        1.8632274E-35
   3.340000        1.8686817E-35
   3.350000        1.8741360E-35
   3.360000        1.8795904E-35
   3.370000        1.8850445E-35
   3.380000        1.8904988E-35
   3.390000        1.8959531E-35
   3.400000        1.9014075E-35
   3.410000        1.9068616E-35
   3.420000        1.9123159E-35
   3.430000        1.9177702E-35
   3.440000        1.9232102E-35
   3.450000        1.9286644E-35
   3.460000        1.9319992E-35
   3.470000        1.9347624E-35
   3.480000        1.9406869E-35
   3.490000        1.9546700E-35
   3.500000        1.9690726E-35
   3.510000        1.9701359E-35
   3.520000        1.9709533E-35
   3.530000        1.9795686E-35
   3.540000        1.9924017E-35
   3.550000        1.9989771E-35
   3.560000        2.0012992E-35
   3.570000        2.0157886E-35
   3.580000        2.0244835E-35
   3.590000        2.0331785E-35
   3.600000        2.0517116E-35
   3.610000        2.0544460E-35
   3.620000        2.0573902E-35
   3.630000        2.0735287E-35
   3.640000        2.0965973E-35
   3.650000        2.1192319E-35
   3.660000        2.1377504E-35
   3.670000        2.1550683E-35
   3.680000        2.1693117E-35
   3.690000        2.1878448E-35
   3.700000        2.2125773E-35
   3.710000        2.2400656E-35
   3.720000        2.2678651E-35
   3.730000        2.2963157E-35
   3.740000        2.3296635E-35
   3.750000        2.3732039E-35
   3.760000        2.4264809E-35
   3.770000        2.4880190E-35
   3.780000        2.5616809E-35
   3.790000        2.6498467E-35
   3.800000        2.7542160E-35
   3.810000        2.8735232E-35
   3.820000        3.0113565E-35
   3.830000        3.1741315E-35
   3.840000        3.3550853E-35
   3.850000        3.5638676E-35
   3.860000        3.8112641E-35
   3.870000        4.0986486E-35
   3.880000        4.4121985E-35
   3.890000        4.7504878E-35
   3.900000        5.1507344E-35
   3.910000        5.5607472E-35
   3.920000        6.0957452E-35
   3.930000        6.7996454E-35
   3.940000        7.5735259E-35
   3.950000        8.4086624E-35
   3.960000        9.2649365E-35
   3.970000        1.0206323E-34
   3.980000        1.1329560E-34
   3.990000        1.2641752E-34
   4.000000        1.4120748E-34
   4.010000        1.5791766E-34
   4.020000        1.7710889E-34
   4.030000        1.9898856E-34
   4.040000        2.2282405E-34
   4.050000        2.4943239E-34
   4.060000        2.7992935E-34
   4.070000        3.1550771E-34
   4.080000        3.5654296E-34
   4.090000        4.0191378E-34
   4.100000        4.5356638E-34
   4.110000        5.1216151E-34
   4.120000        5.7408440E-34
   4.130000        6.3917372E-34
   4.140000        7.1254174E-34
   4.150000        7.9679066E-34
   4.160000        8.8688808E-34
   4.170000        9.7994343E-34
   4.180000        1.0818427E-33
   4.190000        1.2002779E-33
   4.200000        1.3389890E-33
   4.210000        1.4951345E-33
   4.220000        1.6641156E-33
   4.230000        1.8472282E-33
   4.240000        2.0487568E-33
   4.250000        2.2714064E-33
   4.260000        2.5205453E-33
   4.270000        2.7986972E-33
   4.280000        3.0989859E-33
   4.290000        3.4214460E-33
   4.300000        3.7817523E-33
   4.310000        4.1803893E-33
   4.320000        4.6133484E-33
   4.330000        5.0916663E-33
   4.340000        5.6189681E-33
   4.350000        6.1989232E-33
   4.360000        6.8336556E-33
   4.370000        7.5208584E-33
   4.380000        8.2687255E-33
   4.390000        9.0842211E-33
   4.400000        9.9707606E-33
   4.410000        1.0935746E-32
   4.420000        1.1983299E-32
   4.430000        1.3127483E-32
   4.440000        1.4372645E-32
   4.450000        1.5722579E-32
   4.460000        1.7191285E-32
   4.470000        1.8784810E-32
   4.480000        2.0510953E-32
   4.490000        2.2383242E-32
   4.500000        2.4414021E-32
   4.510000        2.6610368E-32
   4.520000        2.8985240E-32
   4.530000        3.1546184E-32
   4.540000        3.4307778E-32
   4.550000        3.7287662E-32
   4.560000        4.0500700E-32
   4.570000        4.3962463E-32
   4.580000        4.7681751E-32
   4.590000        5.1672146E-32
   4.600000        5.5949881E-32
   4.610000        6.0535643E-32
   4.620000        6.5446253E-32
   4.630000        7.0702782E-32
   4.640000        7.6335004E-32
   4.650000        8.2362146E-32
   4.660000        8.8803408E-32
   4.670000        9.5674373E-32
   4.680000        1.0299857E-31
   4.690000        1.1080085E-31
   4.700000        1.1910372E-31
   4.710000        1.2793641E-31
   4.720000        1.3732955E-31
   4.730000        1.4731627E-31
   4.740000        1.5791678E-31
   4.750000        1.6916073E-31
   4.760000        1.8108643E-31
   4.770000        1.9372516E-31
   4.780000        2.0709904E-31
   4.790000        2.2124212E-31
   4.800000        2.3618503E-31
   4.810000        2.5195642E-31
   4.820000        2.6859778E-31
   4.830000        2.8613980E-31
   4.840000        3.0461509E-31
   4.850000        3.2405269E-31
   4.860000        3.4448050E-31
   4.870000        3.6593198E-31
   4.880000        3.8844587E-31
   4.890000        4.1205271E-31
   4.900000        4.3678530E-31
   4.910000        4.6267420E-31
   4.920000        4.8973869E-31
   4.930000        5.1800585E-31
   4.940000        5.4750902E-31
   4.950000        5.7827250E-31
   4.960000        6.1030910E-31
   4.970000        6.4364184E-31
   4.980000        6.7828751E-31
   4.990000        7.1425562E-31
   5.000000        7.5156444E-31
   5.010000        7.9022250E-31
   5.020000        8.3022589E-31
   5.030000        8.7157076E-31
   5.040000        9.1425155E-31
   5.050000        9.5825416E-31
   5.060000        1.0035665E-30
   5.070000        1.0501672E-30
   5.080000        1.0980215E-30
   5.090000        1.1470790E-30
   5.100000        1.1972874E-30
   5.110000        1.2485915E-30
   5.120000        1.3009233E-30
   5.130000        1.3542084E-30
   5.140000        1.4083547E-30
   5.150000        1.4632528E-30
   5.160000        1.5187935E-30
   5.170000        1.5748384E-30
   5.180000        1.6312412E-30
   5.190000        1.6878506E-30
   5.200000        1.7444861E-30
   5.210000        1.8009503E-30
   5.220000        1.8570208E-30
   5.230000        1.9124616E-30
   5.240000        1.9670205E-30
   5.250000        2.0204182E-30
   5.260000        2.0723412E-30
   5.270000        2.1224536E-30
   5.280000        2.1703882E-30
   5.290000        2.2157534E-30
   5.300000        2.2581318E-30
   5.310000        2.2970613E-30
   5.320000        2.3320454E-30
   5.330000        2.3625526E-30
   5.340000        2.3880098E-30
   5.350000        2.4078019E-30
   5.360000        2.4212699E-30
   5.370000        2.4277088E-30
   5.380000        2.4263657E-30
   5.390000        2.4164265E-30
   5.400000        2.3970226E-30
   5.410000        2.3672273E-30
   5.420000        2.3260560E-30
   5.430000        2.2724493E-30
   5.440000        2.2052742E-30
   5.450000        2.1233233E-30
   5.460000        2.0253083E-30
   5.470000        1.9098591E-30
   5.480000        1.7755137E-30
   5.490000        1.6207126E-30
   5.500000        1.4438079E-30
   5.510000        1.2430332E-30
   5.520000        1.0164975E-30
   5.530000        7.6220850E-31
   5.540000        4.7803067E-31
   5.550000        1.6170110E-31
   5.560000       -1.8918204E-31
   5.570000       -5.7719472E-31
   5.580000       -1.0050546E-30
   5.590000       -1.4756855E-30
   5.600000       -1.9921454E-30
   5.610000       -2.5577371E-30
   5.620000       -3.1759360E-30
   5.630000       -3.8504474E-30
   5.640000       -4.5852352E-30
   5.650000       -5.3844999E-30
   5.660000       -6.2526948E-30
   5.670000       -7.1945588E-30
   5.680000       -8.2151527E-30
   5.690000       -9.3198473E-30
   5.700000       -1.0514350E-29
   5.710000       -1.1804745E-29
   5.720000       -1.3197483E-29
   5.730000       -1.4699466E-29
   5.740000       -1.6318021E-29
   5.750000       -1.8060868E-29
   5.760000       -1.9936318E-29
   5.770000       -2.1953207E-29
   5.780000       -2.4120836E-29
   5.790000       -2.6449235E-29
   5.800000       -2.8948978E-29
   5.810000       -3.1631323E-29
   5.820000       -3.4508295E-29
   5.830000       -3.7592564E-29
   5.840000       -4.0897775E-29
   5.850000       -4.4438294E-29
   5.860000       -4.8229517E-29
   5.870000       -5.2287788E-29
   5.880000       -5.6630393E-29
   5.890000       -6.1275893E-29
   5.900000       -6.6243859E-29
   5.910000       -7.1555074E-29
   5.920000       -7.7231650E-29
   5.930000       -8.3297192E-29
   5.940000       -8.9776755E-29
   5.950000       -9.6696850E-29
   5.960000       -1.0408560E-28
   5.970000       -1.1197309E-28
   5.980000       -1.2039112E-28
   5.990000       -1.2937316E-28
   6.000000       -1.3895551E-28
   6.010000       -1.4917564E-28
   6.020000       -1.6007438E-28
   6.030000       -1.7169414E-28
   6.040000       -1.8408017E-28
   6.050000       -1.9728054E-28
   6.060000       -2.1134642E-28
   6.070000       -2.2633134E-28
   6.080000       -2.4229224E-28
   6.090000       -2.5928956E-28
   6.100000       -2.7738748E-28
   6.110000       -2.9665323E-28
   6.120000       -3.1715836E-28
   6.130000       -3.3897893E-28
   6.140000       -3.6219443E-28
   6.150000       -3.8688897E-28
   6.160000       -4.1315223E-28
   6.170000       -4.4107734E-28
   6.180000       -4.7076420E-28
   6.190000       -5.0231729E-28
   6.200000       -5.3584783E-28
   6.210000       -5.7147089E-28
   6.220000       -6.0930954E-28
   6.230000       -6.4949358E-28
   6.240000       -6.9215775E-28
   6.250000       -7.3744652E-28
   6.260000       -7.8550892E-28
   6.270000       -8.3650360E-28
   6.280000       -8.9059710E-28
   6.290000       -9.4796294E-28
   6.300000       -1.0087842E-27
   6.310000       -1.0732541E-27
   6.320000       -1.1415747E-27
   6.330000       -1.2139582E-27
   6.340000       -1.2906262E-27
   6.350000       -1.3718107E-27
   6.360000       -1.4577536E-27
   6.370000       -1.5487109E-27
   6.380000       -1.6449489E-27
   6.390000       -1.7467457E-27
   6.400000       -1.8543928E-27
   6.410000       -1.9681935E-27
   6.420000       -2.0884694E-27
   6.430000       -2.2155434E-27
   6.440000       -2.3497661E-27
   6.450000       -2.4914958E-27
   6.460000       -2.6411059E-27
   6.470000       -2.7989919E-27
   6.480000       -2.9655600E-27
   6.490000       -3.1412295E-27
   6.500000       -3.3264362E-27
   6.510000       -3.5216446E-27
   6.520000       -3.7273231E-27
   6.530000       -3.9439571E-27
   6.540000       -4.1720631E-27
   6.550000       -4.4121661E-27
   6.560000       -4.6648176E-27
   6.570000       -4.9305813E-27
   6.580000       -5.2100388E-27
   6.590000       -5.5038094E-27
   6.600000       -5.8125013E-27
   6.610000       -6.1367612E-27
   6.620000       -6.4772606E-27
   6.630000       -6.8346770E-27
   6.640000       -7.2097288E-27
   6.650000       -7.6031400E-27
   6.660000       -8.0156557E-27
   6.670000       -8.4480447E-27
   6.680000       -8.9010874E-27
   6.690000       -9.3755980E-27
   6.700000       -9.8724032E-27
   6.710000       -1.0392364E-26
   6.720000       -1.0936345E-26
   6.730000       -1.1505230E-26
   6.740000       -1.2099922E-26
   6.750000       -1.2721335E-26
   6.760000       -1.3370431E-26
   6.770000       -1.4048172E-26
   6.780000       -1.4755486E-26
   6.790000       -1.5493416E-26
   6.800000       -1.6262958E-26
   6.810000       -1.7065089E-26
   6.820000       -1.7900870E-26
   6.830000       -1.8771327E-26
   6.840000       -1.9677497E-26
   6.850000       -2.0620445E-26
   6.860000       -2.1601216E-26
   6.870000       -2.2620853E-26
   6.880000       -2.3680450E-26
   6.890000       -2.4781053E-26
   6.900000       -2.5923720E-26
   6.910000       -2.7109467E-26
   6.920000       -2.8339353E-26
   6.930000       -2.9614390E-26
   6.940000       -3.0935593E-26
   6.950000       -3.2303903E-26
   6.960000       -3.3720334E-26
   6.970000       -3.5185794E-26
   6.980000       -3.6701177E-26
   6.990000       -3.8267368E-26
   7.000000       -3.9885196E-26
   7.010000       -4.1555402E-26
   7.020000       -4.3278758E-26
   7.030000       -4.5055824E-26
   7.040000       -4.6887285E-26
   7.050000       -4.8773637E-26
   7.060000       -5.0715356E-26
   7.070000       -5.2712850E-26
   7.080000       -5.4766317E-26
   7.090000       -5.6876008E-26
   7.100000       -5.9041919E-26
   7.110000       -6.1264047E-26
   7.120000       -6.3542265E-26
   7.130000       -6.5876227E-26
   7.140000       -6.8265551E-26
   7.150000       -7.0709547E-26
   7.160000       -7.3207580E-26
   7.170000       -7.5758664E-26
   7.180000       -7.8361671E-26
   7.190000       -8.1015356E-26
   7.200000       -8.3718332E-26
   7.210000       -8.6468572E-26
   7.220000       -8.9264277E-26
   7.230000       -9.2103239E-26
   7.240000       -9.4983001E-26
   7.250000       -9.7900818E-26
   7.260000       -1.0085371E-25
   7.270000       -1.0383836E-25
   7.280000       -1.0685107E-25
   7.290000       -1.0988782E-25
   7.300000       -1.1294438E-25
   7.310000       -1.1601606E-25
   7.320000       -1.1909763E-25
   7.330000       -1.2218386E-25
   7.340000       -1.2526872E-25
   7.350000       -1.2834582E-25
   7.360000       -1.3140846E-25
   7.370000       -1.3444929E-25
   7.380000       -1.3746065E-25
   7.390000       -1.4043416E-25
   7.400000       -1.4336101E-25
   7.410000       -1.4623187E-25
   7.420000       -1.4903669E-25
   7.430000       -1.5176492E-25
   7.440000       -1.5440548E-25
   7.450000       -1.5694651E-25
   7.460000       -1.5937554E-25
   7.470000       -1.6167930E-25
   7.480000       -1.6384391E-25
   7.490000       -1.6585476E-25
   7.500000       -1.6769643E-25
   7.510000       -1.6935277E-25
   7.520000       -1.7080676E-25
   7.530000       -1.7204063E-25
   7.540000       -1.7303564E-25
   7.550000       -1.7377228E-25
   7.560000       -1.7423010E-25
   7.570000       -1.7438766E-25
   7.580000       -1.7422275E-25
   7.590000       -1.7371205E-25
   7.600000       -1.7283118E-25
   7.610000       -1.7155492E-25
   7.620000       -1.6985689E-25
   7.630000       -1.6770968E-25
   7.640000       -1.6508492E-25
   7.650000       -1.6195276E-25
   7.660000       -1.5828273E-25
   7.670000       -1.5404303E-25
   7.680000       -1.4920046E-25
   7.690000       -1.4372119E-25
   7.700000       -1.3756947E-25
   7.710000       -1.3070869E-25
   7.720000       -1.2310134E-25
   7.730000       -1.1470840E-25
   7.740000       -1.0548946E-25
   7.750000       -9.5403180E-26
   7.760000       -8.4406669E-26
   7.770000       -7.2455746E-26
   7.780000       -5.9505572E-26
   7.790000       -4.5509074E-26
   7.800000       -3.0419179E-26
   7.810000       -1.4186021E-26
   7.820000        3.2404950E-27
   7.830000        2.1911946E-26
   7.840000        4.1881146E-26
   7.850000        6.3201619E-26
   7.860000        8.5929977E-26
   7.870000        1.1012216E-25
   7.880000        1.3583532E-25
   7.890000        1.6312950E-25
   7.900000        1.9206350E-25
   7.910000        2.2269967E-25
   7.920000        2.5509829E-25
   7.930000        2.8932371E-25
   7.940000        3.2544033E-25
   7.950000        3.6351273E-25
   7.960000        4.0360572E-25
   7.970000        4.4578668E-25
   7.980000        4.9012332E-25
   7.990000        5.3668441E-25
   8.000000        5.8553575E-25
   8.010000        6.3674846E-25
   8.020000        6.9039445E-25
   8.030000        7.4654049E-25
   8.040000        8.0525718E-25
   8.050000        8.6661340E-25
   8.060000        9.3068232E-25
   8.070000        9.9753315E-25
   8.080000        1.0672364E-24
   8.090000        1.1398602E-24
   8.100000        1.2154743E-24
   8.110000        1.2941482E-24
   8.120000        1.3759500E-24
   8.130000        1.4609475E-24
   8.140000        1.5492030E-24
   8.150000        1.6407811E-24
   8.160000        1.7357494E-24
   8.170000        1.8341631E-24
   8.180000        1.9360850E-24
   8.190000        2.0415704E-24
   8.200000        2.1506780E-24
   8.210000        2.2634601E-24
   8.220000        2.3799638E-24
   8.230000        2.5002313E-24
   8.240000        2.6243091E-24
   8.250000        2.7522410E-24
   8.260000        2.8840607E-24
   8.270000        3.0197966E-24
   8.280000        3.1594808E-24
   8.290000        3.3031302E-24
   8.300000        3.4507707E-24
   8.310000        3.6024079E-24
   8.320000        3.7580466E-24
   8.330000        3.9176895E-24
   8.340000        4.0813245E-24
   8.350000        4.2489480E-24
   8.360000        4.4205355E-24
   8.370000        4.5960618E-24
   8.380000        4.7754882E-24
   8.390000        4.9587666E-24
   8.400000        5.1458489E-24
   8.410000        5.3366708E-24
   8.420000        5.5311633E-24
   8.430000        5.7292388E-24
   8.440000        5.9308152E-24
   8.450000        6.1357720E-24
   8.460000        6.3440099E-24
   8.470000        6.5553868E-24
   8.480000        6.7697590E-24
   8.490000        6.9869876E-24
   8.500000        7.2068928E-24
   8.510000        7.4293035E-24
   8.520000        7.6540168E-24
   8.530000        7.8808309E-24
   8.540000        8.1095011E-24
   8.550000        8.3397973E-24
   8.560000        8.5714557E-24
   8.570000        8.8041973E-24
   8.580000        9.0377167E-24
   8.590000        9.2717181E-24
   8.600000        9.5058473E-24
   8.610000        9.7397603E-24
   8.620000        9.9730841E-24
   8.630000        1.0205415E-23
   8.640000        1.0436341E-23
   8.650000        1.0665429E-23
   8.660000        1.0892212E-23
   8.670000        1.1116207E-23
   8.680000        1.1336898E-23
   8.690000        1.1553760E-23
   8.700000        1.1766234E-23
   8.710000        1.1973728E-23
   8.720000        1.2175634E-23
   8.730000        1.2371316E-23
   8.740000        1.2560110E-23
   8.750000        1.2741318E-23
   8.760000        1.2914230E-23
   8.770000        1.3078092E-23
   8.780000        1.3232127E-23
   8.790000        1.3375525E-23
   8.800000        1.3507441E-23
   8.810000        1.3627018E-23
   8.820000        1.3733346E-23
   8.830000        1.3825496E-23
   8.840000        1.3902504E-23
   8.850000        1.3963376E-23
   8.860000        1.4007084E-23
   8.870000        1.4032567E-23
   8.880000        1.4038728E-23
   8.890000        1.4024442E-23
   8.900000        1.3988550E-23
   8.910000        1.3929860E-23
   8.920000        1.3847142E-23
   8.930000        1.3739133E-23
   8.940000        1.3604541E-23
   8.950000        1.3442045E-23
   8.960000        1.3250280E-23
   8.970000        1.3027852E-23
   8.980000        1.2773332E-23