 -0.1000000        8.4193585E-36
 -9.0000004E-02    2.5258079E-35
 -7.9999998E-02    4.2096786E-35
 -7.0000000E-02    5.8935493E-35
 -5.9999999E-02    7.5774208E-35
 -5.0000001E-02    9.2612918E-35
 -3.9999999E-02    1.0945163E-34
 -2.9999999E-02    1.2629034E-34
 -2.0000000E-02    1.4312906E-34
 -9.9999998E-03    1.5996779E-34
  0.0000000E+00    1.7680655E-34
  9.9999998E-03    1.9364527E-34
  2.0000000E-02    2.1048400E-34
  2.9999999E-02    2.2732275E-34
  3.9999999E-02    2.4416150E-34
  5.0000001E-02    2.6100022E-34
  5.9999999E-02    2.7783888E-34
  7.0000000E-02    2.9467758E-34
  7.9999998E-02    3.1151624E-34
  9.0000004E-02    3.2835497E-34
  0.1000000        3.4519367E-34
  0.1100000        3.6203238E-34
  0.1200000        3.7887113E-34
  0.1300000        3.9570983E-34
  0.1400000        4.1254851E-34
  0.1500000        4.2938724E-34
  0.1600000        4.4622597E-34
  0.1700000        4.6306465E-34
  0.1800000        4.7990337E-34
  0.1900000        4.9674210E-34
  0.2000000        5.1358083E-34
  0.2100000        5.3041956E-34
  0.2200000        5.4725824E-34
  0.2300000        5.6409701E-34
  0.2400000        5.8093569E-34
  0.2500000        5.9777442E-34
  0.2600000        6.1461314E-34
  0.2700000        6.3145192E-34
  0.2800000        6.4829051E-34
  0.2900000        6.6512928E-34
  0.3000000        6.8196801E-34
  0.3100000        6.9880660E-34
  0.3200000        7.1564537E-34
  0.3300000        7.3248410E-34
  0.3400000        7.4932278E-34
  0.3500000        7.6616150E-34
  0.3600000        7.8300018E-34
  0.3700000        7.9983877E-34
  0.3800000        8.1667764E-34
  0.3900000        8.3351632E-34
  0.4000000        8.5035500E-34
  0.4100000        8.6719377E-34
  0.4200000        8.8403246E-34
  0.4300000        9.0087095E-34
  0.4400000        9.1770982E-34
  0.4500000        9.3454859E-34
  0.4600000        9.5138718E-34
  0.4700000        9.6822586E-34
  0.4800000        9.8506463E-34
  0.4900000        1.0019033E-33
  0.5000000        1.0187420E-33
  0.5100000        1.0355807E-33
  0.5200000        1.0524194E-33
  0.5300000        1.0692582E-33
  0.5400000        1.0860968E-33
  0.5500000        1.1029354E-33
  0.5600000        1.1197743E-33
  0.5700000        1.1366130E-33
  0.5800000        1.1534516E-33
  0.5900000        1.1702903E-33
  0.6000000        1.1871291E-33
  0.6100000        1.2039679E-33
  0.6200000        1.2208064E-33
  0.6300000        1.2376449E-33
  0.6400000        1.2544839E-33
  0.6500000        1.2713226E-33
  0.6600000        1.2881613E-33
  0.6700000        1.3049999E-33
  0.6800000        1.3218386E-33
  0.6900000        1.3386776E-33
  0.7000000        1.3555161E-33
  0.7100000        1.3723547E-33
  0.7200000        1.3891936E-33
  0.7300000        1.4060323E-33
  0.7400000        1.4228708E-33
  0.7500000        1.4397097E-33
  0.7600000        1.4565483E-33
  0.7700000        1.4733871E-33
  0.7800000        1.4902258E-33
  0.7900000        1.5070643E-33
  0.8000000        1.5239032E-33
  0.8100000        1.5407421E-33
  0.8200000        1.5575807E-33
  0.8300000        1.5744191E-33
  0.8400000        1.5912581E-33
  0.8500000        1.6080968E-33
  0.8600000        1.6249352E-33
  0.8700000        1.6417742E-33
  0.8800000        1.6586128E-33
  0.8900000        1.6754516E-33
  0.9000000        1.6922903E-33
  0.9100000        1.7091287E-33
  0.9200000        1.7259673E-33
  0.9300000        1.7428065E-33
  0.9400000        1.7596451E-33
  0.9500000        1.7764835E-33
  0.9600000        1.7933226E-33
  0.9700000        1.8101614E-33
  0.9800000        1.8269998E-33
  0.9900000        1.8438386E-33
   1.000000        1.8606770E-33
   1.010000        1.8775159E-33
   1.020000        1.8943547E-33
   1.030000        1.9111933E-33
   1.040000        1.9280322E-33
   1.050000        1.9448708E-33
   1.060000        1.9617094E-33
   1.070000        1.9785480E-33
   1.080000        1.9953868E-33
   1.090000        2.0122257E-33
   1.100000        2.0290641E-33
   1.110000        2.0459029E-33
   1.120000        2.0627419E-33
   1.130000        2.0795805E-33
   1.140000        2.0964192E-33
   1.150000        2.1132578E-33
   1.160000        2.1300966E-33
   1.170000        2.1469359E-33
   1.180000        2.1637752E-33
   1.190000        2.1806144E-33
   1.200000        2.1974533E-33
   1.210000        2.2142927E-33
   1.220000        2.2311322E-33
   1.230000        2.2479711E-33
   1.240000        2.2648101E-33
   1.250000        2.2816496E-33
   1.260000        2.2984889E-33
   1.270000        2.3153279E-33
   1.280000        2.3321668E-33
   1.290000        2.3490062E-33
   1.300000        2.3658457E-33
   1.310000        2.3826846E-33
   1.320000        2.3995236E-33
   1.330000        2.4163633E-33
   1.340000        2.4332028E-33
   1.350000        2.4500414E-33
   1.360000        2.4668807E-33
   1.370000        2.4837202E-33
   1.380000        2.5005592E-33
   1.390000        2.5173983E-33
   1.400000        2.5342373E-33
   1.410000        2.5510766E-33
   1.420000        2.5679157E-33
   1.430000        2.5847550E-33
   1.440000        2.6015940E-33
   1.450000        2.6184331E-33
   1.460000        2.6352725E-33
   1.470000        2.6521116E-33
   1.480000        2.6689506E-33
   1.490000        2.6857902E-33
   1.500000        2.7026298E-33
   1.510000        2.7194689E-33
   1.520000        2.7363077E-33
   1.530000        2.7531472E-33
   1.540000        2.7699867E-33
   1.550000        2.7868256E-33
   1.560000        2.8036646E-33
   1.570000        2.8205043E-33
   1.580000        2.8373436E-33
   1.590000        2.8541826E-33
   1.600000        2.8710219E-33
   1.610000        2.8878610E-33
   1.620000        2.9047005E-33
   1.630000        2.9215395E-33
   1.640000        2.9383788E-33
   1.650000        2.9552183E-33
   1.660000        2.9720573E-33
   1.670000        2.9888964E-33
   1.680000        3.0057357E-33
   1.690000        3.0225749E-33
   1.700000        3.0394144E-33
   1.710000        3.0562537E-33
   1.720000        3.0730930E-33
   1.730000        3.0899320E-33
   1.740000        3.1067717E-33
   1.750000        3.1236106E-33
   1.760000        3.1404500E-33
   1.770000        3.1572893E-33
   1.780000        3.1741286E-33
   1.790000        3.1909676E-33
   1.800000        3.2078065E-33
   1.810000        3.2246462E-33
   1.820000        3.2414855E-33
   1.830000        3.2583245E-33
   1.840000        3.2751638E-33
   1.850000        3.2920032E-33
   1.860000        3.3088428E-33
   1.870000        3.3256814E-33
   1.880000        3.3425208E-33
   1.890000        3.3593604E-33
   1.900000        3.3761994E-33
   1.910000        3.3930384E-33
   1.920000        3.4098777E-33
   1.930000        3.4267170E-33
   1.940000        3.4435563E-33
   1.950000        3.4603953E-33
   1.960000        3.4772350E-33
   1.970000        3.4940739E-33
   1.980000        3.5109136E-33
   1.990000        3.5277530E-33
   2.000000        3.5445919E-33
   2.010000        3.5614309E-33
   2.020000        3.5782706E-33
   2.030000        3.5951095E-33
   2.040000        3.6119485E-33
   2.050000        3.6287878E-33
   2.060000        3.6456275E-33
   2.070000        3.6624668E-33
   2.080000        3.6793058E-33
   2.090000        3.6961451E-33
   2.100000        3.7129848E-33
   2.110000        3.7298230E-33
   2.120000        3.7466627E-33
   2.130000        3.7635020E-33
   2.140000        3.7803417E-33
   2.150000        3.7971807E-33
   2.160000        3.8140196E-33
   2.170000        3.8308589E-33
   2.180000        3.8476986E-33
   2.190000        3.8645372E-33
   2.200000        3.8813766E-33
   2.210000        3.8982162E-33
   2.220000        3.9150556E-33
   2.230000        3.9318949E-33
   2.240000        3.9487338E-33
   2.250000        3.9655728E-33
   2.260000        3.9824125E-33
   2.270000        3.9992511E-33
   2.280000        4.0160908E-33
   2.290000        4.0329297E-33
   2.300000        4.0497694E-33
   2.310000        4.0666091E-33
   2.320000        4.0834477E-33
   2.330000        4.1002870E-33
   2.340000        4.1171264E-33
   2.350000        4.1339653E-33
   2.360000        4.1508046E-33
   2.370000        4.1676440E-33
   2.380000        4.1844836E-33
   2.390000        4.2013226E-33
   2.400000        4.2181619E-33
   2.410000        4.2350009E-33
   2.420000        4.2518406E-33
   2.430000        4.2686788E-33
   2.440000        4.2855178E-33
   2.450000        4.3023567E-33
   2.460000        4.3191949E-33
   2.470000        4.3360332E-33
   2.480000        4.3528721E-33
   2.490000        4.3697103E-33
   2.500000        4.3865489E-33
   2.510000        4.4033868E-33
   2.520000        4.4202257E-33
   2.530000        4.4370643E-33
   2.540000        4.4539025E-33
   2.550000        4.4707404E-33
   2.560000        4.4875794E-33
   2.570000        4.5044179E-33
   2.580000        4.5212562E-33
   2.590000        4.5380944E-33
   2.600000        4.5549333E-33
   2.610000        4.5717719E-33
   2.620000        4.5886102E-33
   2.630000        4.6054484E-33
   2.640000        4.6222873E-33
   2.650000        4.6391259E-33
   2.660000        4.6559638E-33
   2.670000        4.6728020E-33
   2.680000        4.6896410E-33
   2.690000        4.7064795E-33
   2.700000        4.7233178E-33
   2.710000        4.7401556E-33
   2.720000        4.7569946E-33
   2.730000        4.7738328E-33
   2.740000        4.7906714E-33
   2.750000        4.8075096E-33
   2.760000        4.8243482E-33
   2.770000        4.8411872E-33
   2.780000        4.8580254E-33
   2.790000        4.8748632E-33
   2.800000        4.8917029E-33
   2.810000        4.9085408E-33
   2.820000        4.9253790E-33
   2.830000        4.9422176E-33
   2.840000        4.9590558E-33
   2.850000        4.9758948E-33
   2.860000        4.9927334E-33
   2.870000        5.0095708E-33
   2.880000        5.0264098E-33
   2.890000        5.0432484E-33
   2.900000        5.0600866E-33
   2.910000        5.0769245E-33
   2.920000        5.0937642E-33
   2.930000        5.1106024E-33
   2.940000        5.1274402E-33
   2.950000        5.1442781E-33
   2.960000        5.1611178E-33
   2.970000        5.1779560E-33
   2.980000        5.1947935E-33
   2.990000        5.2116317E-33
   3.000000        5.2284696E-33
   3.010000        5.2453078E-33
   3.020000        5.2621456E-33
   3.030000        5.2789835E-33
   3.040000        5.2958214E-33
   3.050000        5.3126599E-33
   3.060000        5.3294978E-33
   3.070000        5.3463349E-33
   3.080000        5.3631739E-33
   3.090000        5.3800117E-33
   3.100000        5.3968496E-33
   3.110000        5.4136874E-33
   3.120000        5.4305257E-33
   3.130000        5.4473635E-33
   3.140000        5.4642014E-33
   3.150000        5.4810392E-33
   3.160000        5.4978774E-33
   3.170000        5.5147153E-33
   3.180000        5.5315532E-33
   3.190000        5.5483906E-33
   3.200000        5.5652289E-33
   3.210000        5.5820675E-33
   3.220000        5.5989053E-33
   3.230000        5.6157424E-33
   3.240000        5.6325806E-33
   3.250000        5.6494192E-33
   3.260000        5.6662571E-33
   3.270000        5.6830942E-33
   3.280000        5.6999332E-33
   3.290000        5.7167710E-33
   3.300000        5.7336081E-33
   3.310000        5.7504460E-33
   3.320000        5.7672846E-33
   3.330000        5.7841228E-33
   3.340000        5.8009603E-33
   3.350000        5.8177985E-33
   3.360000        5.8346364E-33
   3.370000        5.8514742E-33
   3.380000        5.8683124E-33
   3.390000        5.8851499E-33
   3.400000        5.9019882E-33
   3.410000        5.9188267E-33
   3.420000        5.9356646E-33
   3.430000        5.9525025E-33
   3.440000        5.9693403E-33
   3.450000        5.9861785E-33
   3.460000        6.0030164E-33
   3.470000        6.0198535E-33
   3.480000        6.0366925E-33
   3.490000        6.0535303E-33
   3.500000        6.0703678E-33
   3.510000        6.0872057E-33
   3.520000        6.1040439E-33
   3.530000        6.1208821E-33
   3.540000        6.1377196E-33
   3.550000        6.1545578E-33
   3.560000        6.1713960E-33
   3.570000        6.1882343E-33
   3.580000        6.2050717E-33
   3.590000        6.2219092E-33
   3.600000        6.2387467E-33
   3.610000        6.2555857E-33
   3.620000        6.2724232E-33
   3.630000        6.2892614E-33
   3.640000        6.3060996E-33
   3.650000        6.3229378E-33
   3.660000        6.3397753E-33
   3.670000        6.3566128E-33
   3.680000        6.3734510E-33
   3.690000        6.3902892E-33
   3.700000        6.4071267E-33
   3.710000        6.4239650E-33
   3.720000        6.4408032E-33
   3.730000        6.4576414E-33
   3.740000        6.4744796E-33
   3.750000        6.4913171E-33
   3.760000        6.5081553E-33
   3.770000        6.5249928E-33
   3.780000        6.5418310E-33
   3.790000        6.5586678E-33
   3.800000        6.5755067E-33
   3.810000        6.5923457E-33
   3.820000        6.6091825E-33
   3.830000        6.6260199E-33
   3.840000        6.6428589E-33
   3.850000        6.6596971E-33
   3.860000        6.6765346E-33
   3.870000        6.6933728E-33
   3.880000        6.7102111E-33
   3.890000        6.7270493E-33
   3.900000        6.7438860E-33
   3.910000        6.7607243E-33
   3.920000        6.7775617E-33
   3.930000        6.7944007E-33
   3.940000        6.8112382E-33
   3.950000        6.8280764E-33
   3.960000        6.8449154E-33
   3.970000        6.8617528E-33
   3.980000        6.8785903E-33
   3.990000        6.8953999E-33
   4.000000        6.9121735E-33
   4.010000        6.9289544E-33
   4.020000        6.9457478E-33
   4.030000        6.9625324E-33
   4.040000        6.9792824E-33
   4.050000        6.9960178E-33
   4.060000        7.0128450E-33
   4.070000        7.0297442E-33
   4.080000        7.0465905E-33
   4.090000        7.0634060E-33
   4.100000        7.0802214E-33
   4.110000        7.0971133E-33
   4.120000        7.1140433E-33
   4.130000        7.1308933E-33
   4.140000        7.1478013E-33
   4.150000        7.1645778E-33
   4.160000        7.1811809E-33
   4.170000        7.1979016E-33
   4.180000        7.2146194E-33
   4.190000        7.2312328E-33
   4.200000        7.2476948E-33
   4.210000        7.2641944E-33
   4.220000        7.2807468E-33
   4.230000        7.2975784E-33
   4.240000        7.3149456E-33
   4.250000        7.3321541E-33
   4.260000        7.3487807E-33
   4.270000        7.3652332E-33
   4.280000        7.3821905E-33
   4.290000        7.3993806E-33
   4.300000        7.4161226E-33
   4.310000        7.4328682E-33
   4.320000        7.4497726E-33
   4.330000        7.4669363E-33
   4.340000        7.4843527E-33
   4.350000        7.5011329E-33
   4.360000        7.5177816E-33
   4.370000        7.5347212E-33
   4.380000        7.5515035E-33
   4.390000        7.5685732E-33
   4.400000        7.5860682E-33
   4.410000        7.6035375E-33
   4.420000        7.6208886E-33
   4.430000        7.6385768E-33
   4.440000        7.6563150E-33
   4.450000        7.6741774E-33
   4.460000        7.6930735E-33
   4.470000        7.7128460E-33
   4.480000        7.7322182E-33
   4.490000        7.7516050E-33
   4.500000        7.7716207E-33
   4.510000        7.7917841E-33
   4.520000        7.8124368E-33
   4.530000        7.8335480E-33
   4.540000        7.8554849E-33
   4.550000        7.8783931E-33
   4.560000        7.9019522E-33
   4.570000        7.9266986E-33
   4.580000        7.9528768E-33
   4.590000        7.9807140E-33
   4.600000        8.0102916E-33
   4.610000        8.0418412E-33
   4.620000        8.0751804E-33
   4.630000        8.1108295E-33
   4.640000        8.1499654E-33
   4.650000        8.1928283E-33
   4.660000        8.2382795E-33
   4.670000        8.2856916E-33
   4.680000        8.3370769E-33
   4.690000        8.3926506E-33
   4.700000        8.4531812E-33
   4.710000        8.5187995E-33
   4.720000        8.5897295E-33
   4.730000        8.6726379E-33
   4.740000        8.7689204E-33
   4.750000        8.8683555E-33
   4.760000        8.9675305E-33
   4.770000        9.0649040E-33
   4.780000        9.1607237E-33
   4.790000        9.2667592E-33
   4.800000        9.3841984E-33
   4.810000        9.5136887E-33
   4.820000        9.6571262E-33
   4.830000        9.8115281E-33
   4.840000        9.9812056E-33
   4.850000        1.0173649E-32
   4.860000        1.0392454E-32
   4.870000        1.0641490E-32
   4.880000        1.0920957E-32
   4.890000        1.1236178E-32
   4.900000        1.1591127E-32
   4.910000        1.1974592E-32
   4.920000        1.2395353E-32
   4.930000        1.2856136E-32
   4.940000        1.3332717E-32
   4.950000        1.3817134E-32
   4.960000        1.4323537E-32
   4.970000        1.4857172E-32
   4.980000        1.5421471E-32
   4.990000        1.6030169E-32
   5.000000        1.6686000E-32
   5.010000        1.7377816E-32
   5.020000        1.8121008E-32
   5.030000        1.8942157E-32
   5.040000        1.9853150E-32
   5.050000        2.0826792E-32
   5.060000        2.1855505E-32
   5.070000        2.2966447E-32
   5.080000        2.4147033E-32
   5.090000        2.5415443E-32
   5.100000        2.6772057E-32
   5.110000        2.8215506E-32
   5.120000        2.9782592E-32
   5.130000        3.1472251E-32
   5.140000        3.3269987E-32
   5.150000        3.5181300E-32
   5.160000        3.7232273E-32
   5.170000        3.9435787E-32
   5.180000        4.1784472E-32
   5.190000        4.4254676E-32
   5.200000        4.6874265E-32
   5.210000        4.9659294E-32
   5.220000        5.2609408E-32
   5.230000        5.5744417E-32
   5.240000        5.9059369E-32
   5.250000        6.2569378E-32
   5.260000        6.6288160E-32
   5.270000        7.0242153E-32
   5.280000        7.4441383E-32
   5.290000        7.8866114E-32
   5.300000        8.3522917E-32
   5.310000        8.8441744E-32
   5.320000        9.3618427E-32
   5.330000        9.9043392E-32
   5.340000        1.0473568E-31
   5.350000        1.1071013E-31
   5.360000        1.1696366E-31
   5.370000        1.2347101E-31
   5.380000        1.3022799E-31
   5.390000        1.3722426E-31
   5.400000        1.4445986E-31
   5.410000        1.5195010E-31
   5.420000        1.5970575E-31
   5.430000        1.6770546E-31
   5.440000        1.7591631E-31
   5.450000        1.8435795E-31
   5.460000        1.9303286E-31
   5.470000        2.0191481E-31
   5.480000        2.1099364E-31
   5.490000        2.2026225E-31
   5.500000        2.2970530E-31
   5.510000        2.3931549E-31
   5.520000        2.4904113E-31
   5.530000        2.5882086E-31
   5.540000        2.6862489E-31
   5.550000        2.7841511E-31
   5.560000        2.8814195E-31
   5.570000        2.9775458E-31
   5.580000        3.0721488E-31
   5.590000        3.1645476E-31
   5.600000        3.2541492E-31
   5.610000        3.3405687E-31
   5.620000        3.4228696E-31
   5.630000        3.4999794E-31
   5.640000        3.5711173E-31
   5.650000        3.6354109E-31
   5.660000        3.6920481E-31
   5.670000        3.7400436E-31
   5.680000        3.7778334E-31
   5.690000        3.8043180E-31
   5.700000        3.8184171E-31
   5.710000        3.8186364E-31
   5.720000        3.8035964E-31
   5.730000        3.7712200E-31
   5.740000        3.7197000E-31
   5.750000        3.6473591E-31
   5.760000        3.5522417E-31
   5.770000        3.4326443E-31
   5.780000        3.2864368E-31
   5.790000        3.1113224E-31
   5.800000        2.9048565E-31
   5.810000        2.6644058E-31
   5.820000        2.3872614E-31
   5.830000        2.0707659E-31
   5.840000        1.7121904E-31
   5.850000        1.3080902E-31
   5.860000        8.5527300E-32
   5.870000        3.5060965E-32
   5.880000       -2.0969971E-32
   5.890000       -8.2946843E-32
   5.900000       -1.5123736E-31
   5.910000       -2.2625375E-31
   5.920000       -3.0845266E-31
   5.930000       -3.9826764E-31
   5.940000       -4.9615115E-31
   5.950000       -6.0261069E-31
   5.960000       -7.1818802E-31
   5.970000       -8.4344136E-31
   5.980000       -9.7887590E-31
   5.990000       -1.1250771E-30
   6.000000       -1.2826911E-30
   6.010000       -1.4523521E-30
   6.020000       -1.6347718E-30
   6.030000       -1.8306291E-30
   6.040000       -2.0406324E-30
   6.050000       -2.2655735E-30
   6.060000       -2.5062792E-30
   6.070000       -2.7636008E-30
   6.080000       -3.0383902E-30
   6.090000       -3.3315865E-30
   6.100000       -3.6441702E-30
   6.110000       -3.9771841E-30
   6.120000       -4.3316974E-30
   6.130000       -4.7088528E-30
   6.140000       -5.1098348E-30
   6.150000       -5.5358652E-30
   6.160000       -5.9882816E-30
   6.170000       -6.4684682E-30
   6.180000       -6.9778925E-30
   6.190000       -7.5180917E-30
   6.200000       -8.0906699E-30
   6.210000       -8.6973770E-30
   6.220000       -9.3400327E-30
   6.230000       -1.0020540E-29
   6.240000       -1.0740916E-29
   6.250000       -1.1503347E-29
   6.260000       -1.2310146E-29
   6.270000       -1.3163743E-29
   6.280000       -1.4066756E-29
   6.290000       -1.5021923E-29
   6.300000       -1.6032148E-29
   6.310000       -1.7100525E-29
   6.320000       -1.8230377E-29
   6.330000       -1.9425247E-29
   6.340000       -2.0688856E-29
   6.350000       -2.2025234E-29
   6.360000       -2.3438557E-29
   6.370000       -2.4933429E-29
   6.380000       -2.6514717E-29
   6.390000       -2.8187462E-29
   6.400000       -2.9957214E-29
   6.410000       -3.1829781E-29
   6.420000       -3.3811376E-29
   6.430000       -3.5908855E-29
   6.440000       -3.8129119E-29
   6.450000       -4.0479776E-29
   6.460000       -4.2968761E-29
   6.470000       -4.5604944E-29
   6.480000       -4.8397283E-29
   6.490000       -5.1355512E-29
   6.500000       -5.4489909E-29
   6.510000       -5.7811578E-29
   6.520000       -6.1332154E-29
   6.530000       -6.5064227E-29
   6.540000       -6.9020930E-29
   6.550000       -7.3216387E-29
   6.560000       -7.7665671E-29
   6.570000       -8.2384434E-29
   6.580000       -8.7389565E-29
   6.590000       -9.2698974E-29
   6.600000       -9.8331561E-29
   6.610000       -1.0430751E-28
   6.620000       -1.1064791E-28
   6.630000       -1.1737534E-28
   6.640000       -1.2451351E-28
   6.650000       -1.3208688E-28
   6.660000       -1.4012302E-28
   6.670000       -1.4864901E-28
   6.680000       -1.5769473E-28
   6.690000       -1.6729116E-28
   6.700000       -1.7747118E-28
   6.710000       -1.8826925E-28
   6.720000       -1.9972185E-28
   6.730000       -2.1186652E-28
   6.740000       -2.2474382E-28
   6.750000       -2.3839536E-28
   6.760000       -2.5286519E-28
   6.770000       -2.6819937E-28
   6.780000       -2.8444659E-28
   6.790000       -3.0165679E-28
   6.800000       -3.1988355E-28
   6.810000       -3.3918169E-28
   6.820000       -3.5960894E-28
   6.830000       -3.8122495E-28
   6.840000       -4.0409265E-28
   6.850000       -4.2827641E-28
   6.860000       -4.5384549E-28
   6.870000       -4.8086840E-28
   6.880000       -5.0941911E-28
   6.890000       -5.3957393E-28
   6.900000       -5.7140988E-28
   6.910000       -6.0500778E-28
   6.920000       -6.4045077E-28
   6.930000       -6.7782633E-28
   6.940000       -7.1722358E-28
   6.950000       -7.5873344E-28
   6.960000       -8.0244940E-28
   6.970000       -8.4847190E-28
   6.980000       -8.9689672E-28
   6.990000       -9.4782736E-28
   7.000000       -1.0013665E-27
   7.010000       -1.0576198E-27
   7.020000       -1.1166965E-27
   7.030000       -1.1787070E-27
   7.040000       -1.2437649E-27
   7.050000       -1.3119789E-27
   7.060000       -1.3834648E-27
   7.070000       -1.4583382E-27
   7.080000       -1.5367182E-27
   7.090000       -1.6187189E-27
   7.100000       -1.7044603E-27
   7.110000       -1.7940550E-27
   7.120000       -1.8876236E-27
   7.130000       -1.9852821E-27
   7.140000       -2.0871397E-27
   7.150000       -2.1933078E-27
   7.160000       -2.3039001E-27
   7.170000       -2.4190204E-27
   7.180000       -2.5387730E-27
   7.190000       -2.6632480E-27
   7.200000       -2.7925472E-27
   7.210000       -2.9267520E-27
   7.220000       -3.0659482E-27
   7.230000       -3.2102028E-27
   7.240000       -3.3595880E-27
   7.250000       -3.5141500E-27
   7.260000       -3.6739390E-27
   7.270000       -3.8389881E-27
   7.280000       -4.0093143E-27
   7.290000       -4.1849267E-27
   7.300000       -4.3658043E-27
   7.310000       -4.5519316E-27
   7.320000       -4.7432585E-27
   7.330000       -4.9397210E-27
   7.340000       -5.1412423E-27
   7.350000       -5.3477127E-27
   7.360000       -5.5589795E-27
   7.370000       -5.7748944E-27
   7.380000       -5.9952708E-27
   7.390000       -6.2198894E-27
   7.400000       -6.4485115E-27
   7.410000       -6.6808291E-27
   7.420000       -6.9165313E-27
   7.430000       -7.1552527E-27
   7.440000       -7.3965863E-27
   7.450000       -7.6400863E-27
   7.460000       -7.8852595E-27
   7.470000       -8.1315397E-27
   7.480000       -8.3783445E-27
   7.490000       -8.6249930E-27
   7.500000       -8.8708118E-27
   7.510000       -9.1149996E-27
   7.520000       -9.3567062E-27
   7.530000       -9.5950346E-27
   7.540000       -9.8290089E-27
   7.550000       -1.0057550E-26
   7.560000       -1.0279542E-26
   7.570000       -1.0493778E-26
   7.580000       -1.0698921E-26
   7.590000       -1.0893578E-26
   7.600000       -1.1076258E-26
   7.610000       -1.1245361E-26
   7.620000       -1.1399211E-26
   7.630000       -1.1536025E-26
   7.640000       -1.1653861E-26
   7.650000       -1.1750708E-26
   7.660000       -1.1824399E-26
   7.670000       -1.1872697E-26
   7.680000       -1.1893164E-26
   7.690000       -1.1883291E-26
   7.700000       -1.1840385E-26
   7.710000       -1.1761631E-26
   7.720000       -1.1644064E-26
   7.730000       -1.1484578E-26
   7.740000       -1.1279881E-26
   7.750000       -1.1026552E-26
   7.760000       -1.0720989E-26
   7.770000       -1.0359425E-26
   7.780000       -9.9378763E-27
   7.790000       -9.4522531E-27
   7.800000       -8.8982301E-27
   7.810000       -8.2713013E-27
   7.820000       -7.5667831E-27
   7.830000       -6.7797818E-27
   7.840000       -5.9051901E-27
   7.850000       -4.9377358E-27
   7.860000       -3.8718896E-27
   7.870000       -2.7019447E-27
   7.880000       -1.4219910E-27
   7.890000       -2.5859621E-29
   7.900000        1.4928127E-27
   7.910000        3.1406338E-27
   7.920000        4.9243979E-27
   7.930000        6.8511676E-27
   7.940000        8.9281921E-27
   7.950000        1.1162980E-26
   7.960000        1.3563229E-26
   7.970000        1.6136920E-26
   7.980000        1.8892293E-26
   7.990000        2.1837702E-26
   8.000000        2.4981815E-26
   8.010000        2.8333400E-26
   8.020000        3.1901711E-26
   8.030000        3.5696011E-26
   8.040000        3.9725676E-26
   8.050000        4.4000538E-26
   8.060000        4.8530455E-26
   8.070000        5.3325641E-26
   8.080000        5.8396371E-26
   8.090000        6.3753205E-26
   8.100000        6.9406676E-26
   8.110000        7.5367648E-26
   8.120000        8.1646962E-26
   8.130000        8.8255922E-26
   8.140000        9.5205626E-26
   8.150000        1.0250777E-25
   8.160000        1.1017341E-25
   8.170000        1.1821415E-25
   8.180000        1.2664154E-25
   8.190000        1.3546714E-25
   8.200000        1.4470264E-25
   8.210000        1.5435973E-25
   8.220000        1.6444985E-25
   8.230000        1.7498471E-25
   8.240000        1.8597584E-25
   8.250000        1.9743438E-25
   8.260000        2.0937125E-25
   8.270000        2.2179791E-25
   8.280000        2.3472495E-25
   8.290000        2.4816198E-25
   8.300000        2.6212034E-25
   8.310000        2.7660966E-25
   8.320000        2.9164005E-25
   8.330000        3.0721991E-25
   8.340000        3.2335793E-25
   8.350000        3.4006186E-25
   8.360000        3.5733962E-25
   8.370000        3.7519837E-25
   8.380000        3.9364497E-25
   8.390000        4.1268341E-25
   8.400000        4.3231964E-25
   8.410000        4.5255673E-25
   8.420000        4.7339873E-25
   8.430000        4.9484692E-25
   8.440000        5.1690032E-25
   8.450000        5.3956143E-25
   8.460000        5.6282677E-25
   8.470000        5.8669489E-25
   8.480000        6.1116111E-25
   8.490000        6.3622169E-25
   8.500000        6.6186697E-25
   8.510000        6.8808979E-25
   8.520000        7.1487936E-25
   8.530000        7.4222187E-25
   8.540000        7.7010327E-25
   8.550000        7.9850833E-25
   8.560000        8.2741737E-25
   8.570000        8.5681052E-25
   8.580000        8.8666408E-25
   8.590000        9.1695505E-25
   8.600000        9.4765377E-25
   8.610000        9.7872898E-25
   8.620000        1.0101484E-24
   8.630000        1.0418754E-24
   8.640000        1.0738696E-24
   8.650000        1.1060894E-24
   8.660000        1.1384888E-24
   8.670000        1.1710168E-24
   8.680000        1.2036231E-24
   8.690000        1.2362499E-24
   8.700000        1.2688362E-24
   8.710000        1.3013195E-24
   8.720000        1.3336299E-24
   8.730000        1.3656970E-24
   8.740000        1.3974395E-24
   8.750000        1.4287806E-24
   8.760000        1.4596321E-24
   8.770000        1.4899044E-24
   8.780000        1.5194983E-24
   8.790000        1.5483153E-24
   8.800000        1.5762489E-24
   8.810000        1.6031895E-24
   8.820000        1.6290203E-24
   8.830000        1.6536132E-24
   8.840000        1.6768440E-24
   8.850000        1.6985812E-24
   8.860000        1.7186804E-24
   8.870000        1.7369948E-24
   8.880000        1.7533733E-24
   8.890000        1.7676562E-24
   8.900000        1.7796874E-24
   8.910000        1.7892803E-24
   8.920000        1.7962682E-24
   8.930000        1.8004577E-24
   8.940000        1.8016569E-24
   8.950000        1.7996672E-24
   8.960000        1.7942811E-24
   8.970000        1.7852847E-24
   8.980000        1.7724571E-24