 -0.1000000        2.7104047E-38
 -9.0000004E-02    8.1312003E-38
 -7.9999998E-02    1.3552038E-37
 -7.0000000E-02    1.8972989E-37
 -5.9999999E-02    2.4393884E-37
 -5.0000001E-02    2.9814719E-37
 -3.9999999E-02    3.5235332E-37
 -2.9999999E-02    4.0656283E-37
 -2.0000000E-02    4.6076895E-37
 -9.9999998E-03    5.1497732E-37
  0.0000000E+00    5.6918681E-37
  9.9999998E-03    6.2339410E-37
  2.0000000E-02    6.7760471E-37
  2.9999999E-02    7.3181537E-37
  3.9999999E-02    7.8602826E-37
  5.0000001E-02    8.4023892E-37
  5.9999999E-02    8.9444724E-37
  7.0000000E-02    9.4866014E-37
  7.9999998E-02    1.0028731E-36
  9.0000004E-02    1.0570770E-36
  0.1000000        1.1112853E-36
  0.1100000        1.1654892E-36
  0.1200000        1.2196930E-36
  0.1300000        1.2739015E-36
  0.1400000        1.3281008E-36
  0.1500000        1.3823091E-36
  0.1600000        1.4365085E-36
  0.1700000        1.4907168E-36
  0.1800000        1.5449252E-36
  0.1900000        1.5991245E-36
  0.2000000        1.6533239E-36
  0.2100000        1.7075413E-36
  0.2200000        1.7617406E-36
  0.2300000        1.8159399E-36
  0.2400000        1.8701574E-36
  0.2500000        1.9243567E-36
  0.2600000        1.9785561E-36
  0.2700000        2.0327554E-36
  0.2800000        2.0869730E-36
  0.2900000        2.1411720E-36
  0.3000000        2.1953625E-36
  0.3100000        2.2495528E-36
  0.3200000        2.3037429E-36
  0.3300000        2.3579424E-36
  0.3400000        2.4121327E-36
  0.3500000        2.4663228E-36
  0.3600000        2.5205224E-36
  0.3700000        2.5747125E-36
  0.3800000        2.6289028E-36
  0.3900000        2.6830933E-36
  0.4000000        2.7372926E-36
  0.4100000        2.7914829E-36
  0.4200000        2.8456730E-36
  0.4300000        2.8998726E-36
  0.4400000        2.9540627E-36
  0.4500000        3.0082530E-36
  0.4600000        3.0624433E-36
  0.4700000        3.1166428E-36
  0.4800000        3.1708418E-36
  0.4900000        3.2250323E-36
  0.5000000        3.2792135E-36
  0.5100000        3.3334129E-36
  0.5200000        3.3875941E-36
  0.5300000        3.4417935E-36
  0.5400000        3.4959747E-36
  0.5500000        3.5501920E-36
  0.5600000        3.6043732E-36
  0.5700000        3.6585726E-36
  0.5800000        3.7127538E-36
  0.5900000        3.7669532E-36
  0.6000000        3.8211347E-36
  0.6100000        3.8753338E-36
  0.6200000        3.9295150E-36
  0.6300000        3.9837327E-36
  0.6400000        4.0379139E-36
  0.6500000        4.0920950E-36
  0.6600000        4.1462944E-36
  0.6700000        4.2004756E-36
  0.6800000        4.2546750E-36
  0.6900000        4.3088745E-36
  0.7000000        4.3630919E-36
  0.7100000        4.4172730E-36
  0.7200000        4.4714725E-36
  0.7300000        4.5256446E-36
  0.7400000        4.5798348E-36
  0.7500000        4.6340342E-36
  0.7600000        4.6882154E-36
  0.7700000        4.7424327E-36
  0.7800000        4.7966139E-36
  0.7900000        4.8508133E-36
  0.8000000        4.9049945E-36
  0.8100000        4.9591943E-36
  0.8200000        5.0133754E-36
  0.8300000        5.0675745E-36
  0.8400000        5.1217740E-36
  0.8500000        5.1759734E-36
  0.8600000        5.2301546E-36
  0.8700000        5.2843536E-36
  0.8800000        5.3385348E-36
  0.8900000        5.3927342E-36
  0.9000000        5.4469157E-36
  0.9100000        5.5011328E-36
  0.9200000        5.5553143E-36
  0.9300000        5.6095137E-36
  0.9400000        5.6636949E-36
  0.9500000        5.7178943E-36
  0.9600000        5.7720758E-36
  0.9700000        5.8262745E-36
  0.9800000        5.8804743E-36
  0.9900000        5.9346555E-36
   1.000000        5.9888549E-36
   1.010000        6.0430361E-36
   1.020000        6.0972355E-36
   1.030000        6.1514163E-36
   1.040000        6.2056158E-36
   1.050000        6.2597973E-36
   1.060000        6.3140147E-36
   1.070000        6.3681775E-36
   1.080000        6.4223949E-36
   1.090000        6.4766123E-36
   1.100000        6.5307579E-36
   1.110000        6.5849753E-36
   1.120000        6.6391561E-36
   1.130000        6.6933742E-36
   1.140000        6.7475191E-36
   1.150000        6.8017365E-36
   1.160000        6.8559539E-36
   1.170000        6.9101346E-36
   1.180000        6.9643162E-36
   1.190000        7.0184977E-36
   1.200000        7.0727150E-36
   1.210000        7.1268958E-36
   1.220000        7.1810773E-36
   1.230000        7.2352947E-36
   1.240000        7.2894762E-36
   1.250000        7.3436570E-36
   1.260000        7.3978385E-36
   1.270000        7.4520559E-36
   1.280000        7.5062374E-36
   1.290000        7.5604189E-36
   1.300000        7.6146356E-36
   1.310000        7.6688171E-36
   1.320000        7.7230345E-36
   1.330000        7.7771794E-36
   1.340000        7.8313968E-36
   1.350000        7.8855783E-36
   1.360000        7.9397957E-36
   1.370000        7.9939772E-36
   1.380000        8.0481587E-36
   1.390000        8.1023753E-36
   1.400000        8.1565568E-36
   1.410000        8.2107384E-36
   1.420000        8.2649191E-36
   1.430000        8.3191365E-36
   1.440000        8.3733546E-36
   1.450000        8.4275354E-36
   1.460000        8.4817169E-36
   1.470000        8.5359343E-36
   1.480000        8.5901876E-36
   1.490000        8.6444057E-36
   1.500000        8.6986589E-36
   1.510000        8.7528763E-36
   1.520000        8.8071295E-36
   1.530000        8.8613476E-36
   1.540000        8.9155830E-36
   1.550000        8.9698549E-36
   1.560000        9.0240536E-36
   1.570000        9.0783614E-36
   1.580000        9.1325974E-36
   1.590000        9.1868327E-36
   1.600000        9.2410501E-36
   1.610000        9.2953034E-36
   1.620000        9.3495566E-36
   1.630000        9.4037747E-36
   1.640000        9.4580287E-36
   1.650000        9.5122461E-36
   1.660000        9.5664993E-36
   1.670000        9.6207167E-36
   1.680000        9.6749700E-36
   1.690000        9.7292239E-36
   1.700000        9.7834772E-36
   1.710000        9.8377312E-36
   1.720000        9.8919478E-36
   1.730000        9.9462018E-36
   1.740000        1.0000420E-35
   1.750000        1.0054673E-35
   1.760000        1.0108927E-35
   1.770000        1.0163145E-35
   1.780000        1.0217398E-35
   1.790000        1.0271615E-35
   1.800000        1.0325868E-35
   1.810000        1.0380086E-35
   1.820000        1.0434339E-35
   1.830000        1.0488630E-35
   1.840000        1.0542846E-35
   1.850000        1.0597100E-35
   1.860000        1.0651317E-35
   1.870000        1.0705571E-35
   1.880000        1.0759789E-35
   1.890000        1.0814043E-35
   1.900000        1.0868296E-35
   1.910000        1.0922514E-35
   1.920000        1.0976767E-35
   1.930000        1.1030984E-35
   1.940000        1.1085237E-35
   1.950000        1.1139455E-35
   1.960000        1.1193745E-35
   1.970000        1.1247999E-35
   1.980000        1.1302216E-35
   1.990000        1.1356469E-35
   2.000000        1.1410687E-35
   2.010000        1.1464941E-35
   2.020000        1.1519158E-35
   2.030000        1.1573412E-35
   2.040000        1.1627665E-35
   2.050000        1.1681883E-35
   2.060000        1.1736136E-35
   2.070000        1.1790353E-35
   2.080000        1.1844607E-35
   2.090000        1.1898860E-35
   2.100000        1.1953114E-35
   2.110000        1.2007368E-35
   2.120000        1.2061587E-35
   2.130000        1.2115840E-35
   2.140000        1.2170057E-35
   2.150000        1.2224310E-35
   2.160000        1.2278528E-35
   2.170000        1.2332781E-35
   2.180000        1.2387034E-35
   2.190000        1.2441252E-35
   2.200000        1.2495471E-35
   2.210000        1.2549760E-35
   2.220000        1.2604013E-35
   2.230000        1.2637036E-35
   2.240000        1.2643184E-35
   2.250000        1.2729592E-35
   2.260000        1.2921541E-35
   2.270000        1.3090414E-35
   2.280000        1.3197366E-35
   2.290000        1.3315639E-35
   2.300000        1.3442845E-35
   2.310000        1.3507878E-35
   2.320000        1.3654399E-35
   2.330000        1.3864178E-35
   2.340000        1.4104631E-35
   2.350000        1.4346168E-35
   2.360000        1.4593528E-35
   2.370000        1.4845374E-35
   2.380000        1.5175777E-35
   2.390000        1.5688439E-35
   2.400000        1.6237773E-35
   2.410000        1.6896665E-35
   2.420000        1.7676361E-35
   2.430000        1.8542103E-35
   2.440000        1.9576142E-35
   2.450000        2.0779847E-35
   2.460000        2.2237859E-35
   2.470000        2.3994011E-35
   2.480000        2.6076012E-35
   2.490000        2.8618480E-35
   2.500000        3.1659825E-35
   2.510000        3.5168116E-35
   2.520000        3.9293737E-35
   2.530000        4.4225498E-35
   2.540000        5.0010305E-35
   2.550000        5.6779890E-35
   2.560000        6.4654290E-35
   2.570000        7.3781768E-35
   2.580000        8.4526585E-35
   2.590000        9.7269965E-35
   2.600000        1.1226514E-34
   2.610000        1.2970673E-34
   2.620000        1.4966062E-34
   2.630000        1.7255690E-34
   2.640000        1.9911168E-34
   2.650000        2.2963457E-34
   2.660000        2.6467114E-34
   2.670000        3.0510518E-34
   2.680000        3.5181896E-34
   2.690000        4.0573042E-34
   2.700000        4.6771345E-34
   2.710000        5.3896191E-34
   2.720000        6.2069954E-34
   2.730000        7.1369414E-34
   2.740000        8.1933196E-34
   2.750000        9.3977274E-34
   2.760000        1.0770906E-33
   2.770000        1.2339015E-33
   2.780000        1.4127180E-33
   2.790000        1.6147101E-33
   2.800000        1.8425464E-33
   2.810000        2.0981986E-33
   2.820000        2.3832044E-33
   2.830000        2.7013795E-33
   2.840000        3.0577154E-33
   2.850000        3.4585843E-33
   2.860000        3.9121440E-33
   2.870000        4.4279418E-33
   2.880000        5.0137027E-33
   2.890000        5.6747258E-33
   2.900000        6.4139519E-33
   2.910000        7.2378383E-33
   2.920000        8.1557422E-33
   2.930000        9.1771189E-33
   2.940000        1.0318769E-32
   2.950000        1.1593348E-32
   2.960000        1.3014136E-32
   2.970000        1.4594039E-32
   2.980000        1.6349204E-32
   2.990000        1.8301852E-32
   3.000000        2.0464312E-32
   3.010000        2.2855744E-32
   3.020000        2.5504810E-32
   3.030000        2.8437183E-32
   3.040000        3.1681991E-32
   3.050000        3.5267229E-32
   3.060000        3.9220954E-32
   3.070000        4.3581806E-32
   3.080000        4.8387847E-32
   3.090000        5.3677227E-32
   3.100000        5.9489888E-32
   3.110000        6.5875191E-32
   3.120000        7.2887138E-32
   3.130000        8.0577587E-32
   3.140000        8.9007856E-32
   3.150000        9.8243680E-32
   3.160000        1.0834893E-31
   3.170000        1.1939608E-31
   3.180000        1.3146443E-31
   3.190000        1.4463273E-31
   3.200000        1.5899171E-31
   3.210000        1.7463500E-31
   3.220000        1.9166494E-31
   3.230000        2.1019320E-31
   3.240000        2.3033184E-31
   3.250000        2.5220114E-31
   3.260000        2.7593211E-31
   3.270000        3.0166262E-31
   3.280000        3.2953693E-31
   3.290000        3.5971568E-31
   3.300000        3.9236292E-31
   3.310000        4.2764649E-31
   3.320000        4.6575117E-31
   3.330000        5.0686954E-31
   3.340000        5.5120910E-31
   3.350000        5.9898862E-31
   3.360000        6.5042999E-31
   3.370000        7.0577160E-31
   3.380000        7.6526530E-31
   3.390000        8.2917397E-31
   3.400000        8.9777478E-31
   3.410000        9.7135415E-31
   3.420000        1.0502167E-30
   3.430000        1.1346831E-30
   3.440000        1.2250771E-30
   3.450000        1.3217415E-30
   3.460000        1.4250358E-30
   3.470000        1.5353315E-30
   3.480000        1.6530127E-30
   3.490000        1.7784803E-30
   3.500000        1.9121490E-30
   3.510000        2.0544495E-30
   3.520000        2.2058223E-30
   3.530000        2.3667275E-30
   3.540000        2.5376333E-30
   3.550000        2.7190223E-30
   3.560000        2.9113864E-30
   3.570000        3.1152383E-30
   3.580000        3.3310937E-30
   3.590000        3.5594849E-30
   3.600000        3.8009582E-30
   3.610000        4.0560683E-30
   3.620000        4.3253689E-30
   3.630000        4.6094259E-30
   3.640000        4.9088016E-30
   3.650000        5.2240752E-30
   3.660000        5.5558163E-30
   3.670000        5.9046153E-30
   3.680000        6.2710543E-30
   3.690000        6.6556799E-30
   3.700000        7.0590659E-30
   3.710000        7.4817767E-30
   3.720000        7.9243358E-30
   3.730000        8.3872827E-30
   3.740000        8.8711312E-30
   3.750000        9.3763568E-30
   3.760000        9.9034319E-30
   3.770000        1.0452785E-29
   3.780000        1.1024810E-29
   3.790000        1.1619873E-29
   3.800000        1.2238263E-29
   3.810000        1.2880264E-29
   3.820000        1.3546081E-29
   3.830000        1.4235860E-29
   3.840000        1.4949685E-29
   3.850000        1.5687536E-29
   3.860000        1.6449357E-29
   3.870000        1.7234983E-29
   3.880000        1.8044138E-29
   3.890000        1.8876462E-29
   3.900000        1.9731447E-29
   3.910000        2.0608508E-29
   3.920000        2.1506888E-29
   3.930000        2.2425644E-29
   3.940000        2.3363757E-29
   3.950000        2.4320019E-29
   3.960000        2.5292994E-29
   3.970000        2.6281111E-29
   3.980000        2.7282549E-29
   3.990000        2.8295287E-29
   4.000000        2.9317077E-29
   4.010000        3.0345383E-29
   4.020000        3.1377404E-29
   4.030000        3.2410076E-29
   4.040000        3.3440042E-29
   4.050000        3.4463532E-29
   4.060000        3.5476550E-29
   4.070000        3.6474615E-29
   4.080000        3.7452925E-29
   4.090000        3.8406260E-29
   4.100000        3.9329009E-29
   4.110000        4.0214961E-29
   4.120000        4.1057447E-29
   4.130000        4.1849441E-29
   4.140000        4.2583205E-29
   4.150000        4.3250479E-29
   4.160000        4.3842315E-29
   4.170000        4.4349210E-29
   4.180000        4.4760899E-29
   4.190000        4.5066415E-29
   4.200000        4.5254003E-29
   4.210000        4.5311161E-29
   4.220000        4.5224392E-29
   4.230000        4.4979390E-29
   4.240000        4.4560858E-29
   4.250000        4.3952469E-29
   4.260000        4.3136849E-29
   4.270000        4.2095412E-29
   4.280000        4.0808478E-29
   4.290000        3.9254990E-29
   4.300000        3.7412564E-29
   4.310000        3.5257383E-29
   4.320000        3.2764164E-29
   4.330000        2.9905976E-29
   4.340000        2.6654199E-29
   4.350000        2.2978496E-29
   4.360000        1.8846532E-29
   4.370000        1.4223921E-29
   4.380000        9.0742333E-30
   4.390000        3.3587936E-30
   4.400000       -2.9636142E-30
   4.410000       -9.9365564E-30
   4.420000       -1.7606438E-29
   4.430000       -2.6022464E-29
   4.440000       -3.5236883E-29
   4.450000       -4.5305164E-29
   4.460000       -5.6286242E-29
   4.470000       -6.8242595E-29
   4.480000       -8.1240636E-29
   4.490000       -9.5350805E-29
   4.500000       -1.1064788E-28
   4.510000       -1.2721128E-28
   4.520000       -1.4512529E-28
   4.530000       -1.6447939E-28
   4.540000       -1.8536863E-28
   4.550000       -2.0789391E-28
   4.560000       -2.3216224E-28
   4.570000       -2.5828719E-28
   4.580000       -2.8638971E-28
   4.590000       -3.1659768E-28
   4.600000       -3.4904748E-28
   4.610000       -3.8388317E-28
   4.620000       -4.2125827E-28
   4.630000       -4.6133562E-28
   4.640000       -5.0428810E-28
   4.650000       -5.5029895E-28
   4.660000       -5.9956289E-28
   4.670000       -6.5228633E-28
   4.680000       -7.0868935E-28
   4.690000       -7.6900413E-28
   4.700000       -8.3347719E-28
   4.710000       -9.0237156E-28
   4.720000       -9.7596442E-28
   4.730000       -1.0545518E-27
   4.740000       -1.1384451E-27
   4.750000       -1.2279772E-27
   4.760000       -1.3234987E-27
   4.770000       -1.4253830E-27
   4.780000       -1.5340252E-27
   4.790000       -1.6498462E-27
   4.800000       -1.7732865E-27
   4.810000       -1.9048177E-27
   4.820000       -2.0449374E-27
   4.830000       -2.1941721E-27
   4.840000       -2.3530812E-27
   4.850000       -2.5222545E-27
   4.860000       -2.7023179E-27
   4.870000       -2.8939285E-27
   4.880000       -3.0977909E-27
   4.890000       -3.3146441E-27
   4.900000       -3.5452661E-27
   4.910000       -3.7904840E-27
   4.920000       -4.0511667E-27
   4.930000       -4.3282379E-27
   4.940000       -4.6226706E-27
   4.950000       -4.9354875E-27
   4.960000       -5.2677681E-27
   4.970000       -5.6206555E-27
   4.980000       -5.9953517E-27
   4.990000       -6.3931198E-27
   5.000000       -6.8152998E-27
   5.010000       -7.2632912E-27
   5.020000       -7.7385683E-27
   5.030000       -8.2426944E-27
   5.040000       -8.7773025E-27
   5.050000       -9.3441183E-27
   5.060000       -9.9449468E-27
   5.070000       -1.0581682E-26
   5.080000       -1.1256320E-26
   5.090000       -1.1970942E-26
   5.100000       -1.2727751E-26
   5.110000       -1.3529052E-26
   5.120000       -1.4377275E-26
   5.130000       -1.5274905E-26
   5.140000       -1.6224618E-26
   5.150000       -1.7229175E-26
   5.160000       -1.8291464E-26
   5.170000       -1.9414531E-26
   5.180000       -2.0601529E-26
   5.190000       -2.1855760E-26
   5.200000       -2.3180702E-26
   5.210000       -2.4579940E-26
   5.220000       -2.6057265E-26
   5.230000       -2.7616572E-26
   5.240000       -2.9261963E-26
   5.250000       -3.0997661E-26
   5.260000       -3.2828120E-26
   5.270000       -3.4757939E-26
   5.280000       -3.6791903E-26
   5.290000       -3.8934991E-26
   5.300000       -4.1192378E-26
   5.310000       -4.3569401E-26
   5.320000       -4.6071652E-26
   5.330000       -4.8704876E-26
   5.340000       -5.1475143E-26
   5.350000       -5.4388459E-26
   5.360000       -5.7451378E-26
   5.370000       -6.0670516E-26
   5.380000       -6.4052701E-26
   5.390000       -6.7605004E-26
   5.400000       -7.1334652E-26
   5.410000       -7.5249282E-26
   5.420000       -7.9356529E-26
   5.430000       -8.3664449E-26
   5.440000       -8.8181245E-26
   5.450000       -9.2915341E-26
   5.460000       -9.7875365E-26
   5.470000       -1.0307027E-25
   5.480000       -1.0850915E-25
   5.490000       -1.1420135E-25
   5.500000       -1.2015662E-25
   5.510000       -1.2638463E-25
   5.520000       -1.3289533E-25
   5.530000       -1.3969893E-25
   5.540000       -1.4680604E-25
   5.550000       -1.5422720E-25
   5.560000       -1.6197290E-25
   5.570000       -1.7005446E-25
   5.580000       -1.7848291E-25
   5.590000       -1.8726955E-25
   5.600000       -1.9642586E-25
   5.610000       -2.0596337E-25
   5.620000       -2.1589360E-25
   5.630000       -2.2622808E-25
   5.640000       -2.3697931E-25
   5.650000       -2.4815861E-25
   5.660000       -2.5977779E-25
   5.670000       -2.7184896E-25
   5.680000       -2.8438376E-25
   5.690000       -2.9739420E-25
   5.700000       -3.1089183E-25
   5.710000       -3.2488835E-25
   5.720000       -3.3939463E-25
   5.730000       -3.5442310E-25
   5.740000       -3.6998373E-25
   5.750000       -3.8608753E-25
   5.760000       -4.0274445E-25
   5.770000       -4.1996509E-25
   5.780000       -4.3775864E-25
   5.790000       -4.5613441E-25
   5.800000       -4.7510065E-25
   5.810000       -4.9466504E-25
   5.820000       -5.1483498E-25
   5.830000       -5.3561673E-25
   5.840000       -5.5701626E-25
   5.850000       -5.7903865E-25
   5.860000       -6.0168694E-25
   5.870000       -6.2496465E-25
   5.880000       -6.4887345E-25
   5.890000       -6.7341333E-25
   5.900000       -6.9858337E-25
   5.910000       -7.2438139E-25
   5.920000       -7.5080340E-25
   5.930000       -7.7784387E-25
   5.940000       -8.0549670E-25
   5.950000       -8.3375034E-25
   5.960000       -8.6259593E-25
   5.970000       -8.9201926E-25
   5.980000       -9.2200475E-25
   5.990000       -9.5253367E-25
   6.000000       -9.8358747E-25
   6.010000       -1.0151419E-24
   6.020000       -1.0471719E-24
   6.030000       -1.0796476E-24
   6.040000       -1.1125374E-24
   6.050000       -1.1458043E-24
   6.060000       -1.1794120E-24
   6.070000       -1.2133160E-24
   6.080000       -1.2474720E-24
   6.090000       -1.2818262E-24
   6.100000       -1.3163279E-24
   6.110000       -1.3509149E-24
   6.120000       -1.3855237E-24
   6.130000       -1.4200879E-24
   6.140000       -1.4545301E-24
   6.150000       -1.4887758E-24
   6.160000       -1.5227376E-24
   6.170000       -1.5563253E-24
   6.180000       -1.5894408E-24
   6.190000       -1.6219850E-24
   6.200000       -1.6538479E-24
   6.210000       -1.6849103E-24
   6.220000       -1.7150546E-24
   6.230000       -1.7441496E-24
   6.240000       -1.7720549E-24
   6.250000       -1.7986277E-24
   6.260000       -1.8237113E-24
   6.270000       -1.8471472E-24
   6.280000       -1.8687659E-24
   6.290000       -1.8883857E-24
   6.300000       -1.9058233E-24
   6.310000       -1.9208761E-24
   6.320000       -1.9333403E-24
   6.330000       -1.9429952E-24
   6.340000       -1.9496163E-24
   6.350000       -1.9529628E-24
   6.360000       -1.9527922E-24
   6.370000       -1.9488398E-24
   6.380000       -1.9408343E-24
   6.390000       -1.9284906E-24
   6.400000       -1.9115180E-24
   6.410000       -1.8896076E-24
   6.420000       -1.8624452E-24
   6.430000       -1.8296923E-24
   6.440000       -1.7910014E-24
   6.450000       -1.7460273E-24
   6.460000       -1.6943849E-24
   6.470000       -1.6356988E-24
   6.480000       -1.5695660E-24
   6.490000       -1.4955752E-24
   6.500000       -1.4132972E-24
   6.510000       -1.3222973E-24
   6.520000       -1.2221165E-24
   6.530000       -1.1122797E-24
   6.540000       -9.9230488E-25
   6.550000       -8.6169525E-25
   6.560000       -7.1993428E-25
   6.570000       -5.6648826E-25
   6.580000       -4.0081604E-25
   6.590000       -2.2235637E-25
   6.600000       -3.0530248E-26
   6.610000        1.7524151E-25
   6.620000        3.9557590E-25
   6.630000        6.3108443E-25
   6.640000        8.8240640E-25
   6.650000        1.1501875E-24
   6.660000        1.4350951E-24
   6.670000        1.7378057E-24
   6.680000        2.0590051E-24
   6.690000        2.3994031E-24
   6.700000        2.7597183E-24
   6.710000        3.1406777E-24
   6.720000        3.5430224E-24
   6.730000        3.9675104E-24
   6.740000        4.4149070E-24
   6.750000        4.8859859E-24
   6.760000        5.3815338E-24
   6.770000        5.9023464E-24
   6.780000        6.4492274E-24
   6.790000        7.0229849E-24
   6.800000        7.6244385E-24
   6.810000        8.2544062E-24
   6.820000        8.9137196E-24
   6.830000        9.6032085E-24
   6.840000        1.0323701E-23
   6.850000        1.1076040E-23
   6.860000        1.1861049E-23
   6.870000        1.2679555E-23
   6.880000        1.3532387E-23
   6.890000        1.4420387E-23
   6.900000        1.5344342E-23
   6.910000        1.6305070E-23
   6.920000        1.7303353E-23
   6.930000        1.8339995E-23
   6.940000        1.9415755E-23
   6.950000        2.0531372E-23
   6.960000        2.1687583E-23
   6.970000        2.2885103E-23
   6.980000        2.4124629E-23
   6.990000        2.5406780E-23
   7.000000        2.6732212E-23
   7.010000        2.8101513E-23
   7.020000        2.9515240E-23
   7.030000        3.0973932E-23
   7.040000        3.2478031E-23
   7.050000        3.4027998E-23
   7.060000        3.5624211E-23
   7.070000        3.7267029E-23
   7.080000        3.8956719E-23
   7.090000        4.0693462E-23
   7.100000        4.2477427E-23
   7.110000        4.4308692E-23
   7.120000        4.6187292E-23
   7.130000        4.8113150E-23
   7.140000        5.0086114E-23
   7.150000        5.2105967E-23
   7.160000        5.4172315E-23
   7.170000        5.6284853E-23
   7.180000        5.8442962E-23
   7.190000        6.0646080E-23
   7.200000        6.2893438E-23
   7.210000        6.5184277E-23
   7.220000        6.7517482E-23
   7.230000        6.9892016E-23
   7.240000        7.2306517E-23
   7.250000        7.4759856E-23
   7.260000        7.7250372E-23
   7.270000        7.9776298E-23
   7.280000        8.2335956E-23
   7.290000        8.4927351E-23
   7.300000        8.7548269E-23
   7.310000        9.0196267E-23
   7.320000        9.2868991E-23
   7.330000        9.5563651E-23
   7.340000        9.8277194E-23
   7.350000        1.0100656E-22
   7.360000        1.0374835E-22
   7.370000        1.0649928E-22
   7.380000        1.0925529E-22
   7.390000        1.1201247E-22
   7.400000        1.1476650E-22
   7.410000        1.1751291E-22
   7.420000        1.2024705E-22
   7.430000        1.2296367E-22
   7.440000        1.2565770E-22
   7.450000        1.2832346E-22
   7.460000        1.3095497E-22
   7.470000        1.3354621E-22
   7.480000        1.3609047E-22
   7.490000        1.3858138E-22
   7.500000        1.4101168E-22
   7.510000        1.4337407E-22
   7.520000        1.4566059E-22
   7.530000        1.4786344E-22
   7.540000        1.4997430E-22
   7.550000        1.5198408E-22
   7.560000        1.5388372E-22
   7.570000        1.5566395E-22
   7.580000        1.5731476E-22
   7.590000        1.5882612E-22
   7.600000        1.6018727E-22
   7.610000        1.6138728E-22
   7.620000        1.6241494E-22
   7.630000        1.6325835E-22
   7.640000        1.6390542E-22
   7.650000        1.6434354E-22
   7.660000        1.6455955E-22
   7.670000        1.6454000E-22
   7.680000        1.6427152E-22
   7.690000        1.6373993E-22
   7.700000        1.6293030E-22
   7.710000        1.6182783E-22
   7.720000        1.6041699E-22
   7.730000        1.5868192E-22
   7.740000        1.5660602E-22
   7.750000        1.5417307E-22
   7.760000        1.5136539E-22
   7.770000        1.4816591E-22
   7.780000        1.4455667E-22
   7.790000        1.4051899E-22
   7.800000        1.3603448E-22
   7.810000        1.3108324E-22
   7.820000        1.2564643E-22
   7.830000        1.1970394E-22
   7.840000        1.1323547E-22
   7.850000        1.0622026E-22
   7.860000        9.8637596E-23
   7.870000        9.0465609E-23
   7.880000        8.1682817E-23
   7.890000        7.2266879E-23
   7.900000        6.2195756E-23
   7.910000        5.1446741E-23
   7.920000        3.9996889E-23
   7.930000        2.7823017E-23
   7.940000        1.4901818E-23
   7.950000        1.2095927E-24
   7.960000       -1.3277761E-23
   7.970000       -2.8583905E-23
   7.980000       -4.4732818E-23
   7.990000       -6.1748952E-23
   8.000000       -7.9656707E-23
   8.010000       -9.8480234E-23
   8.020000       -1.1824424E-22
   8.030000       -1.3897315E-22
   8.040000       -1.6069109E-22
   8.050000       -1.8342254E-22
   8.060000       -2.0719150E-22
   8.070000       -2.3202245E-22
   8.080000       -2.5793876E-22
   8.090000       -2.8496440E-22
   8.100000       -3.1312245E-22
   8.110000       -3.4243589E-22
   8.120000       -3.7292742E-22
   8.130000       -4.0461923E-22
   8.140000       -4.3753285E-22
   8.150000       -4.7168965E-22
   8.160000       -5.0710983E-22
   8.170000       -5.4381375E-22
   8.180000       -5.8182028E-22
   8.190000       -6.2114787E-22
   8.200000       -6.6181396E-22
   8.210000       -7.0383558E-22
   8.220000       -7.4722788E-22
   8.230000       -7.9200554E-22
   8.240000       -8.3818185E-22
   8.250000       -8.8576877E-22
   8.260000       -9.3477771E-22
   8.270000       -9.8521815E-22
   8.280000       -1.0370975E-21
   8.290000       -1.0904228E-21
   8.300000       -1.1451991E-21
   8.310000       -1.2014299E-21
   8.320000       -1.2591163E-21
   8.330000       -1.3182568E-21
   8.340000       -1.3788499E-21
   8.350000       -1.4408897E-21
   8.360000       -1.5043704E-21
   8.370000       -1.5692821E-21
   8.380000       -1.6356152E-21
   8.390000       -1.7033537E-21
   8.400000       -1.7724818E-21
   8.410000       -1.8429774E-21
   8.420000       -1.9148205E-21
   8.430000       -1.9879858E-21
   8.440000       -2.0624442E-21
   8.450000       -2.1381641E-21
   8.460000       -2.2151109E-21
   8.470000       -2.2932448E-21
   8.480000       -2.3725273E-21
   8.490000       -2.4529088E-21
   8.500000       -2.5343447E-21
   8.510000       -2.6167768E-21
   8.520000       -2.7001492E-21
   8.530000       -2.7844026E-21
   8.540000       -2.8694673E-21
   8.550000       -2.9552762E-21
   8.560000       -3.0417493E-21
   8.570000       -3.1288135E-21
   8.580000       -3.2163828E-21
   8.590000       -3.3043705E-21
   8.600000       -3.3926740E-21
   8.610000       -3.4812001E-21
   8.620000       -3.5698441E-21
   8.630000       -3.6584938E-21
   8.640000       -3.7470304E-21
   8.650000       -3.8353340E-21
   8.660000       -3.9232797E-21
   8.670000       -4.0107322E-21
   8.680000       -4.0975514E-21
   8.690000       -4.1835920E-21
   8.700000       -4.2686999E-21
   8.710000       -4.3527209E-21
   8.720000       -4.4354878E-21
   8.730000       -4.5168286E-21
   8.740000       -4.5965627E-21
   8.750000       -4.6745152E-21
   8.760000       -4.7504841E-21
   8.770000       -4.8242781E-21
   8.780000       -4.8956866E-21
   8.790000       -4.9644904E-21
   8.800000       -5.0304827E-21
   8.810000       -5.0934260E-21
   8.820000       -5.1530884E-21
   8.830000       -5.2092212E-21
   8.840000       -5.2615852E-21
   8.850000       -5.3099199E-21
   8.860000       -5.3539588E-21
   8.870000       -5.3934264E-21
   8.880000       -5.4280371E-21
   8.890000       -5.4575216E-21
   8.900000       -5.4815712E-21
   8.910000       -5.4998875E-21
   8.920000       -5.5121555E-21
   8.930000       -5.5180645E-21
   8.940000       -5.5172923E-21
   8.950000       -5.5094866E-21
   8.960000       -5.4943247E-21
   8.970000       -5.4714682E-21
   8.980000       -5.4405495E-21