 -0.1000000        2.3265112E-38
 -9.0000004E-02    6.9136871E-38
 -7.9999998E-02    1.1370875E-37
 -7.0000000E-02    1.5701666E-37
 -5.9999999E-02    1.9909823E-37
 -5.0000001E-02    2.3999075E-37
 -3.9999999E-02    2.7972247E-37
 -2.9999999E-02    3.1833293E-37
 -2.0000000E-02    3.5584927E-37
 -9.9999998E-03    3.9229187E-37
  0.0000000E+00    4.2770817E-37
  9.9999998E-03    4.6212532E-37
  2.0000000E-02    4.9556586E-37
  2.9999999E-02    5.2805921E-37
  3.9999999E-02    5.5963708E-37
  5.0000001E-02    5.9031296E-37
  5.9999999E-02    6.2012304E-37
  7.0000000E-02    6.4908992E-37
  7.9999998E-02    6.7723849E-37
  9.0000004E-02    7.0458681E-37
  0.1000000        7.3115301E-37
  0.1100000        7.5696861E-37
  0.1200000        7.8207449E-37
  0.1300000        8.0644345E-37
  0.1400000        8.3012966E-37
  0.1500000        8.5314216E-37
  0.1600000        8.7550366E-37
  0.1700000        8.9724589E-37
  0.1800000        9.1835954E-37
  0.1900000        9.3887194E-37
  0.2000000        9.5880554E-37
  0.2100000        9.7816964E-37
  0.2200000        9.9699565E-37
  0.2300000        1.0153017E-36
  0.2400000        1.0330562E-36
  0.2500000        1.0503269E-36
  0.2600000        1.0670912E-36
  0.2700000        1.0833990E-36
  0.2800000        1.0992455E-36
  0.2900000        1.1146445E-36
  0.3000000        1.1296005E-36
  0.3100000        1.1441268E-36
  0.3200000        1.1582462E-36
  0.3300000        1.1719770E-36
  0.3400000        1.1853233E-36
  0.3500000        1.1982809E-36
  0.3600000        1.2108587E-36
  0.3700000        1.2230838E-36
  0.3800000        1.2349835E-36
  0.3900000        1.2465395E-36
  0.4000000        1.2577519E-36
  0.4100000        1.2686478E-36
  0.4200000        1.2792544E-36
  0.4300000        1.2895536E-36
  0.4400000        1.2995542E-36
  0.4500000        1.3092748E-36
  0.4600000        1.3187149E-36
  0.4700000        1.3278838E-36
  0.4800000        1.3367994E-36
  0.4900000        1.3454438E-36
  0.5000000        1.3538622E-36
  0.5100000        1.3620364E-36
  0.5200000        1.3699936E-36
  0.5300000        1.3777157E-36
  0.5400000        1.3852206E-36
  0.5500000        1.3925087E-36
  0.5600000        1.3995888E-36
  0.5700000        1.4064836E-36
  0.5800000        1.4131794E-36
  0.5900000        1.4196762E-36
  0.6000000        1.4259833E-36
  0.6100000        1.4321138E-36
  0.6200000        1.4380772E-36
  0.6300000        1.4438553E-36
  0.6400000        1.4494795E-36
  0.6500000        1.4549546E-36
  0.6600000        1.4602941E-36
  0.6700000        1.4654572E-36
  0.6800000        1.4704758E-36
  0.6900000        1.4753450E-36
  0.7000000        1.4800695E-36
  0.7100000        1.4846855E-36
  0.7200000        1.4891525E-36
  0.7300000        1.4934973E-36
  0.7400000        1.4977245E-36
  0.7500000        1.5018344E-36
  0.7600000        1.5058265E-36
  0.7700000        1.5096965E-36
  0.7800000        1.5134762E-36
  0.7900000        1.5171473E-36
  0.8000000        1.5207054E-36
  0.8100000        1.5241823E-36
  0.8200000        1.5275278E-36
  0.8300000        1.5308012E-36
  0.8400000        1.5339841E-36
  0.8500000        1.5370810E-36
  0.8600000        1.5400649E-36
  0.8700000        1.5429721E-36
  0.8800000        1.5458068E-36
  0.8900000        1.5485603E-36
  0.9000000        1.5512185E-36
  0.9100000        1.5538229E-36
  0.9200000        1.5563365E-36
  0.9300000        1.5587780E-36
  0.9400000        1.5611471E-36
  0.9500000        1.5634618E-36
  0.9600000        1.5657043E-36
  0.9700000        1.5678744E-36
  0.9800000        1.5699904E-36
  0.9900000        1.5720519E-36
   1.000000        1.5740774E-36
   1.010000        1.5760306E-36
   1.020000        1.5778933E-36
   1.030000        1.5797379E-36
   1.040000        1.5815102E-36
   1.050000        1.5832463E-36
   1.060000        1.5849282E-36
   1.070000        1.5865739E-36
   1.080000        1.5881654E-36
   1.090000        1.5897207E-36
   1.100000        1.5912216E-36
   1.110000        1.5926682E-36
   1.120000        1.5940789E-36
   1.130000        1.5954534E-36
   1.140000        1.5967917E-36
   1.150000        1.5980937E-36
   1.160000        1.5993596E-36
   1.170000        1.6006075E-36
   1.180000        1.6018010E-36
   1.190000        1.6029403E-36
   1.200000        1.6040616E-36
   1.210000        1.6051467E-36
   1.220000        1.6061955E-36
   1.230000        1.6072263E-36
   1.240000        1.6082390E-36
   1.250000        1.6092156E-36
   1.260000        1.6101742E-36
   1.270000        1.6111146E-36
   1.280000        1.6120007E-36
   1.290000        1.6128507E-36
   1.300000        1.6136826E-36
   1.310000        1.6145145E-36
   1.320000        1.6153103E-36
   1.330000        1.6160698E-36
   1.340000        1.6168475E-36
   1.350000        1.6175709E-36
   1.360000        1.6182760E-36
   1.370000        1.6189633E-36
   1.380000        1.6196323E-36
   1.390000        1.6202834E-36
   1.400000        1.6209525E-36
   1.410000        1.6215675E-36
   1.420000        1.6221462E-36
   1.430000        1.6227067E-36
   1.440000        1.6232855E-36
   1.450000        1.6238281E-36
   1.460000        1.6243707E-36
   1.470000        1.6248949E-36
   1.480000        1.6254015E-36
   1.490000        1.6258716E-36
   1.500000        1.6263598E-36
   1.510000        1.6268299E-36
   1.520000        1.6272640E-36
   1.530000        1.6276981E-36
   1.540000        1.6281321E-36
   1.550000        1.6285300E-36
   1.560000        1.6289099E-36
   1.570000        1.6293075E-36
   1.580000        1.6296874E-36
   1.590000        1.6300490E-36
   1.600000        1.6303927E-36
   1.610000        1.6307182E-36
   1.620000        1.6310798E-36
   1.630000        1.6313875E-36
   1.640000        1.6317128E-36
   1.650000        1.6320203E-36
   1.660000        1.6323096E-36
   1.670000        1.6326172E-36
   1.680000        1.6329065E-36
   1.690000        1.6331958E-36
   1.700000        1.6334489E-36
   1.710000        1.6337203E-36
   1.720000        1.6339915E-36
   1.730000        1.6342266E-36
   1.740000        1.6344797E-36
   1.750000        1.6346968E-36
   1.760000        1.6349319E-36
   1.770000        1.6351671E-36
   1.780000        1.6353658E-36
   1.790000        1.6355828E-36
   1.800000        1.6357819E-36
   1.810000        1.6359627E-36
   1.820000        1.6361616E-36
   1.830000        1.6363606E-36
   1.840000        1.6365595E-36
   1.850000        1.6367403E-36
   1.860000        1.6369031E-36
   1.870000        1.6370477E-36
   1.880000        1.6372106E-36
   1.890000        1.6373552E-36
   1.900000        1.6374999E-36
   1.910000        1.6376446E-36
   1.920000        1.6377892E-36
   1.930000        1.6379340E-36
   1.940000        1.6380604E-36
   1.950000        1.6381872E-36
   1.960000        1.6382956E-36
   1.970000        1.6384222E-36
   1.980000        1.6385488E-36
   1.990000        1.6386573E-36
   2.000000        1.6387659E-36
   2.010000        1.6388563E-36
   2.020000        1.6389829E-36
   2.030000        1.6390912E-36
   2.040000        1.6391999E-36
   2.050000        1.6393083E-36
   2.060000        1.6394170E-36
   2.070000        1.6395074E-36
   2.080000        1.6395615E-36
   2.090000        1.6396338E-36
   2.100000        1.6397244E-36
   2.110000        1.6398146E-36
   2.120000        1.6399052E-36
   2.130000        1.6399775E-36
   2.140000        1.6400498E-36
   2.150000        1.6401221E-36
   2.160000        1.6401945E-36
   2.170000        1.6402668E-36
   2.180000        1.6403391E-36
   2.190000        1.6404116E-36
   2.200000        1.6404657E-36
   2.210000        1.6405382E-36
   2.220000        1.6405924E-36
   2.230000        1.6406465E-36
   2.240000        1.6406828E-36
   2.250000        1.6407371E-36
   2.260000        1.6408094E-36
   2.270000        1.6408454E-36
   2.280000        1.6408998E-36
   2.290000        1.6409541E-36
   2.300000        1.6409902E-36
   2.310000        1.6410445E-36
   2.320000        1.6410987E-36
   2.330000        1.6411348E-36
   2.340000        1.6411712E-36
   2.350000        1.6412072E-36
   2.360000        1.6412616E-36
   2.370000        1.6413157E-36
   2.380000        1.6413518E-36
   2.390000        1.6413880E-36
   2.400000        1.6414063E-36
   2.410000        1.6414424E-36
   2.420000        1.6414786E-36
   2.430000        1.6414965E-36
   2.440000        1.6415328E-36
   2.450000        1.6415328E-36
   2.460000        1.6415688E-36
   2.470000        1.6416232E-36
   2.480000        1.6416594E-36
   2.490000        1.6416956E-36
   2.500000        1.6417136E-36
   2.510000        1.6417498E-36
   2.520000        1.6417859E-36
   2.530000        1.6418040E-36
   2.540000        1.6418402E-36
   2.550000        1.6418583E-36
   2.560000        1.6418763E-36
   2.570000        1.6418944E-36
   2.580000        1.6419306E-36
   2.590000        1.6419487E-36
   2.600000        1.6419487E-36
   2.610000        1.6419668E-36
   2.620000        1.6420029E-36
   2.630000        1.6420210E-36
   2.640000        1.6420210E-36
   2.650000        1.6420572E-36
   2.660000        1.6420754E-36
   2.670000        1.6421114E-36
   2.680000        1.6421295E-36
   2.690000        1.6421476E-36
   2.700000        1.6421839E-36
   2.710000        1.6421839E-36
   2.720000        1.6421839E-36
   2.730000        1.6422020E-36
   2.740000        1.6422020E-36
   2.750000        1.6422020E-36
   2.760000        1.6422199E-36
   2.770000        1.6422380E-36
   2.780000        1.6422562E-36
   2.790000        1.6422743E-36
   2.800000        1.6422562E-36
   2.810000        1.6422743E-36
   2.820000        1.6422743E-36
   2.830000        1.6422924E-36
   2.840000        1.6422924E-36
   2.850000        1.6423284E-36
   2.860000        1.6423466E-36
   2.870000        1.6423284E-36
   2.880000        1.6423284E-36
   2.890000        1.6423284E-36
   2.900000        1.6423284E-36
   2.910000        1.6423284E-36
   2.920000        1.6423284E-36
   2.930000        1.6423284E-36
   2.940000        1.6423466E-36
   2.950000        1.6423466E-36
   2.960000        1.6423284E-36
   2.970000        1.6423466E-36
   2.980000        1.6423647E-36
   2.990000        1.6423826E-36
   3.000000        1.6423826E-36
   3.010000        1.6423826E-36
   3.020000        1.6424007E-36
   3.030000        1.6424007E-36
   3.040000        1.6424007E-36
   3.050000        1.6423918E-36
   3.060000        1.6424099E-36
   3.070000        1.6424190E-36
   3.080000        1.6424280E-36
   3.090000        1.6424459E-36
   3.100000        1.6424370E-36
   3.110000        1.6424370E-36
   3.120000        1.6424551E-36
   3.130000        1.6424732E-36
   3.140000        1.6424913E-36
   3.150000        1.6425184E-36
   3.160000        1.6425184E-36
   3.170000        1.6425274E-36
   3.180000        1.6425546E-36
   3.190000        1.6425274E-36
   3.200000        1.6425365E-36
   3.210000        1.6425274E-36
   3.220000        1.6425274E-36
   3.230000        1.6425274E-36
   3.240000        1.6425546E-36
   3.250000        1.6425636E-36
   3.260000        1.6425727E-36
   3.270000        1.6425636E-36
   3.280000        1.6425727E-36
   3.290000        1.6425636E-36
   3.300000        1.6425636E-36
   3.310000        1.6425817E-36
   3.320000        1.6425817E-36
   3.330000        1.6425817E-36
   3.340000        1.6425817E-36
   3.350000        1.6425636E-36
   3.360000        1.6425817E-36
   3.370000        1.6425817E-36
   3.380000        1.6425996E-36
   3.390000        1.6425996E-36
   3.400000        1.6426178E-36
   3.410000        1.6426178E-36
   3.420000        1.6426359E-36
   3.430000        1.6426178E-36
   3.440000        1.6426178E-36
   3.450000        1.6426178E-36
   3.460000        1.6426178E-36
   3.470000        1.6426359E-36
   3.480000        1.6426178E-36
   3.490000        1.6426178E-36
   3.500000        1.6426178E-36
   3.510000        1.6426178E-36
   3.520000        1.6426178E-36
   3.530000        1.6426178E-36
   3.540000        1.6426178E-36
   3.550000        1.6426178E-36
   3.560000        1.6426269E-36
   3.570000        1.6425996E-36
   3.580000        1.6425996E-36
   3.590000        1.6426178E-36
   3.600000        1.6425996E-36
   3.610000        1.6425996E-36
   3.620000        1.6426178E-36
   3.630000        1.6426359E-36
   3.640000        1.6426359E-36
   3.650000        1.6426178E-36
   3.660000        1.6426450E-36
   3.670000        1.6426359E-36
   3.680000        1.6426269E-36
   3.690000        1.6426359E-36
   3.700000        1.6426269E-36
   3.710000        1.6426359E-36
   3.720000        1.6426450E-36
   3.730000        1.6426359E-36
   3.740000        1.6426450E-36
   3.750000        1.6426359E-36
   3.760000        1.6426450E-36
   3.770000        1.6426540E-36
   3.780000        1.6426540E-36
   3.790000        1.6426540E-36
   3.800000        1.6426540E-36
   3.810000        1.6426540E-36
   3.820000        1.6426540E-36
   3.830000        1.6426540E-36
   3.840000        1.6426721E-36
   3.850000        1.6426721E-36
   3.860000        1.6426721E-36
   3.870000        1.6426721E-36
   3.880000        1.6426721E-36
   3.890000        1.6426721E-36
   3.900000        1.6426721E-36
   3.910000        1.6426721E-36
   3.920000        1.6426721E-36
   3.930000        1.6426721E-36
   3.940000        1.6426721E-36
   3.950000        1.6426721E-36
   3.960000        1.6426721E-36
   3.970000        1.6426721E-36
   3.980000        1.6426721E-36
   3.990000        1.6426721E-36
   4.000000        1.6426721E-36
   4.010000        1.6426721E-36
   4.020000        1.6426721E-36
   4.030000        1.6426721E-36
   4.040000        1.6426721E-36
   4.050000        1.6426721E-36
   4.060000        1.6426721E-36
   4.070000        1.6426721E-36
   4.080000        1.6426721E-36
   4.090000        1.6426721E-36
   4.100000        1.6426721E-36
   4.110000        1.6426721E-36
   4.120000        1.6426721E-36
   4.130000        1.6426721E-36
   4.140000        1.6426721E-36
   4.150000        1.6426721E-36
   4.160000        1.6426721E-36
   4.170000        1.6426721E-36
   4.180000        1.6426721E-36
   4.190000        1.6426721E-36
   4.200000        1.6426721E-36
   4.210000        1.6426721E-36
   4.220000        1.6426721E-36
   4.230000        1.6426721E-36
   4.240000        1.6426721E-36
   4.250000        1.6426721E-36
   4.260000        1.6426721E-36
   4.270000        1.6426721E-36
   4.280000        1.6426721E-36
   4.290000        1.6426721E-36
   4.300000        1.6426721E-36
   4.310000        1.6426721E-36
   4.320000        1.6426721E-36
   4.330000        1.6426721E-36
   4.340000        1.6426721E-36
   4.350000        1.6426721E-36
   4.360000        1.6426721E-36
   4.370000        1.6426721E-36
   4.380000        1.6426721E-36
   4.390000        1.6426721E-36
   4.400000        1.6426721E-36
   4.410000        1.6426721E-36
   4.420000        1.6426721E-36
   4.430000        1.6426721E-36
   4.440000        1.6426721E-36
   4.450000        1.6426721E-36
   4.460000        1.6426721E-36
   4.470000        1.6426721E-36
   4.480000        1.6426721E-36
   4.490000        1.6426721E-36
   4.500000        1.6426721E-36
   4.510000        1.6426721E-36
   4.520000        1.6426721E-36
   4.530000        1.6426721E-36
   4.540000        1.6426721E-36
   4.550000        1.6426721E-36
   4.560000        1.6426721E-36
   4.570000        1.6426721E-36
   4.580000        1.6426721E-36
   4.590000        1.6426721E-36
   4.600000        1.6426721E-36
   4.610000        1.6426721E-36
   4.620000        1.6426721E-36
   4.630000        1.6426721E-36
   4.640000        1.6426721E-36
   4.650000        1.6426721E-36
   4.660000        1.6426721E-36
   4.670000        1.6426721E-36
   4.680000        1.6426721E-36
   4.690000        1.6426721E-36
   4.700000        1.6245063E-36
   4.710000        1.6485767E-36
   4.720000        1.7581418E-36
   4.730000        1.8586737E-36
   4.740000        1.9208122E-36
   4.750000        1.9123485E-36
   4.760000        1.9130719E-36
   4.770000        1.9926801E-36
   4.780000        2.0473497E-36
   4.790000        2.1333054E-36
   4.800000        2.1906333E-36
   4.810000        2.2737859E-36
   4.820000        2.4181639E-36
   4.830000        2.4853026E-36
   4.840000        2.6026441E-36
   4.850000        2.7350320E-36
   4.860000        2.8229950E-36
   4.870000        2.9931796E-36
   4.880000        3.2225818E-36
   4.890000        3.4364495E-36
   4.900000        3.6748759E-36
   4.910000        3.9180316E-36
   4.920000        4.1412761E-36
   4.930000        4.4717706E-36
   4.940000        4.8672433E-36
   4.950000        5.3242303E-36
   4.960000        5.8494228E-36
   4.970000        6.3234185E-36
   4.980000        6.8786681E-36
   4.990000        7.5538269E-36
   5.000000        8.2723341E-36
   5.010000        8.2820407E-36
   5.020000        8.5132560E-36
   5.030000        9.9720987E-36
   5.040000        1.2282389E-35
   5.050000        1.5912994E-35
   5.060000        1.9652218E-35
   5.070000        2.2215695E-35
   5.080000        2.4013728E-35
   5.090000        2.4907750E-35
   5.100000        2.4775044E-35
   5.110000        2.5481122E-35
   5.120000        2.7921900E-35
   5.130000        3.1101173E-35
   5.140000        3.5363723E-35
   5.150000        4.0093828E-35
   5.160000        4.3785919E-35
   5.170000        4.7559930E-35
   5.180000        5.2596404E-35
   5.190000        5.7731346E-35
   5.200000        6.2521876E-35
   5.210000        6.8190628E-35
   5.220000        7.7859195E-35
   5.230000        9.3474088E-35
   5.240000        1.1196593E-34
   5.250000        1.3345414E-34
   5.260000        1.5881977E-34
   5.270000        1.8633133E-34
   5.280000        2.1646047E-34
   5.290000        2.4873463E-34
   5.300000        2.8236013E-34
   5.310000        3.1595784E-34
   5.320000        3.4907997E-34
   5.330000        3.8351291E-34
   5.340000        4.2066301E-34
   5.350000        4.6290320E-34
   5.360000        5.0749976E-34
   5.370000        5.5464911E-34
   5.380000        6.0735024E-34
   5.390000        6.6601591E-34
   5.400000        7.3426139E-34
   5.410000        8.1132997E-34
   5.420000        8.9262872E-34
   5.430000        9.7798595E-34
   5.440000        1.0715095E-33
   5.450000        1.1731063E-33
   5.460000        1.2815320E-33
   5.470000        1.4013808E-33
   5.480000        1.5317514E-33
   5.490000        1.6698406E-33
   5.500000        1.8167520E-33
   5.510000        1.9711806E-33
   5.520000        2.1320608E-33
   5.530000        2.2980788E-33
   5.540000        2.4766468E-33
   5.550000        2.6670806E-33
   5.560000        2.8691769E-33
   5.570000        3.0878639E-33
   5.580000        3.3227365E-33
   5.590000        3.5829898E-33
   5.600000        3.8725449E-33
   5.610000        4.1891709E-33
   5.620000        4.5360762E-33
   5.630000        4.9178191E-33
   5.640000        5.3317911E-33
   5.650000        5.7755836E-33
   5.660000        6.2555680E-33
   5.670000        6.7727687E-33
   5.680000        7.3222241E-33
   5.690000        7.9055198E-33
   5.700000        8.5251530E-33
   5.710000        9.1842784E-33
   5.720000        9.8827506E-33
   5.730000        1.0620507E-32
   5.740000        1.1405786E-32
   5.750000        1.2241777E-32
   5.760000        1.3130163E-32
   5.770000        1.4077991E-32
   5.780000        1.5084143E-32
   5.790000        1.6148627E-32
   5.800000        1.7283045E-32
   5.810000        1.8487909E-32
   5.820000        1.9763174E-32
   5.830000        2.1115254E-32
   5.840000        2.2545535E-32
   5.850000        2.4057279E-32
   5.860000        2.5656137E-32
   5.870000        2.7348646E-32
   5.880000        2.9135894E-32
   5.890000        3.1013929E-32
   5.900000        3.2986578E-32
   5.910000        3.5059469E-32
   5.920000        3.7239200E-32
   5.930000        3.9533124E-32
   5.940000        4.1947995E-32
   5.950000        4.4485438E-32
   5.960000        4.7146633E-32
   5.970000        4.9935294E-32
   5.980000        5.2852389E-32
   5.990000        5.5902744E-32
   6.000000        5.9093041E-32
   6.010000        6.2428765E-32
   6.020000        6.5908005E-32
   6.030000        6.9534652E-32
   6.040000        7.3312350E-32
   6.050000        7.7241834E-32
   6.060000        8.1325043E-32
   6.070000        8.5566015E-32
   6.080000        8.9973102E-32
   6.090000        9.4545833E-32
   6.100000        9.9288283E-32
   6.110000        1.0420156E-31
   6.120000        1.0928170E-31
   6.130000        1.1453101E-31
   6.140000        1.1994481E-31
   6.150000        1.2552342E-31
   6.160000        1.3126608E-31
   6.170000        1.3715988E-31
   6.180000        1.4320830E-31
   6.190000        1.4941040E-31
   6.200000        1.5576149E-31
   6.210000        1.6225606E-31
   6.220000        1.6887928E-31
   6.230000        1.7562442E-31
   6.240000        1.8248511E-31
   6.250000        1.8945046E-31
   6.260000        1.9650497E-31
   6.270000        2.0362863E-31
   6.280000        2.1079950E-31
   6.290000        2.1800206E-31
   6.300000        2.2521430E-31
   6.310000        2.3241451E-31
   6.320000        2.3958230E-31
   6.330000        2.4669188E-31
   6.340000        2.5371454E-31
   6.350000        2.6061946E-31
   6.360000        2.6737143E-31
   6.370000        2.7392881E-31
   6.380000        2.8025034E-31
   6.390000        2.8628650E-31
   6.400000        2.9198389E-31
   6.410000        2.9729425E-31
   6.420000        3.0215944E-31
   6.430000        3.0651067E-31
   6.440000        3.1028932E-31
   6.450000        3.1342857E-31
   6.460000        3.1584471E-31
   6.470000        3.1745328E-31
   6.480000        3.1816910E-31
   6.490000        3.1789928E-31
   6.500000        3.1653980E-31
   6.510000        3.1398486E-31
   6.520000        3.1011415E-31
   6.530000        3.0480352E-31
   6.540000        2.9792126E-31
   6.550000        2.8932120E-31
   6.560000        2.7885794E-31
   6.570000        2.6636591E-31
   6.580000        2.5167127E-31
   6.590000        2.3459007E-31
   6.600000        2.1492099E-31
   6.610000        1.9246153E-31
   6.620000        1.6699777E-31
   6.630000        1.3828785E-31
   6.640000        1.0607978E-31
   6.650000        7.0105184E-32
   6.660000        3.0073545E-32
   6.670000       -1.4312030E-32
   6.680000       -6.3362355E-32
   6.690000       -1.1742721E-31
   6.700000       -1.7687133E-31
   6.710000       -2.4208408E-31
   6.720000       -3.1347681E-31
   6.730000       -3.9147641E-31
   6.740000       -4.7654635E-31
   6.750000       -5.6918034E-31
   6.760000       -6.6989947E-31
   6.770000       -7.7925735E-31
   6.780000       -8.9783929E-31
   6.790000       -1.0262695E-30
   6.800000       -1.1652140E-30
   6.810000       -1.3153741E-30
   6.820000       -1.4774950E-30
   6.830000       -1.6523627E-30
   6.840000       -1.8408164E-30
   6.850000       -2.0437433E-30
   6.860000       -2.2620818E-30
   6.870000       -2.4968408E-30
   6.880000       -2.7490824E-30
   6.890000       -3.0199317E-30
   6.900000       -3.3105652E-30
   6.910000       -3.6222495E-30
   6.920000       -3.9563258E-30
   6.930000       -4.3142151E-30
   6.940000       -4.6974116E-30
   6.950000       -5.1075083E-30
   6.960000       -5.5461956E-30
   6.970000       -6.0152604E-30
   6.980000       -6.5165931E-30
   6.990000       -7.0521950E-30
   7.000000       -7.6241887E-30
   7.010000       -8.2348273E-30
   7.020000       -8.8864808E-30
   7.030000       -9.5816534E-30
   7.040000       -1.0323001E-29
   7.050000       -1.1113344E-29
   7.060000       -1.1955646E-29
   7.070000       -1.2853046E-29
   7.080000       -1.3808867E-29
   7.090000       -1.4826623E-29
   7.100000       -1.5910020E-29
   7.110000       -1.7062976E-29
   7.120000       -1.8289633E-29
   7.130000       -1.9594351E-29
   7.140000       -2.0981720E-29
   7.150000       -2.2456617E-29
   7.160000       -2.4024174E-29
   7.170000       -2.5689784E-29
   7.180000       -2.7459163E-29
   7.190000       -2.9338311E-29
   7.200000       -3.1333568E-29
   7.210000       -3.3451604E-29
   7.220000       -3.5699432E-29
   7.230000       -3.8084449E-29
   7.240000       -4.0614429E-29
   7.250000       -4.3297544E-29
   7.260000       -4.6142372E-29
   7.270000       -4.9157987E-29
   7.280000       -5.2353890E-29
   7.290000       -5.5740042E-29
   7.300000       -5.9326906E-29
   7.310000       -6.3125526E-29
   7.320000       -6.7147391E-29
   7.330000       -7.1404653E-29
   7.340000       -7.5909939E-29
   7.350000       -8.0676622E-29
   7.360000       -8.5718562E-29
   7.370000       -9.1050348E-29
   7.380000       -9.6687305E-29
   7.390000       -1.0264531E-28
   7.400000       -1.0894118E-28
   7.410000       -1.1559232E-28
   7.420000       -1.2261697E-28
   7.430000       -1.3003418E-28
   7.440000       -1.3786384E-28
   7.450000       -1.4612673E-28
   7.460000       -1.5484450E-28
   7.470000       -1.6403966E-28
   7.480000       -1.7373576E-28
   7.490000       -1.8395737E-28
   7.500000       -1.9472981E-28
   7.510000       -2.0607975E-28
   7.520000       -2.1803467E-28
   7.530000       -2.3062330E-28
   7.540000       -2.4387541E-28
   7.550000       -2.5782188E-28
   7.560000       -2.7249468E-28
   7.570000       -2.8792718E-28
   7.580000       -3.0415388E-28
   7.590000       -3.2121038E-28
   7.600000       -3.3913368E-28
   7.610000       -3.5796215E-28
   7.620000       -3.7773519E-28
   7.630000       -3.9849359E-28
   7.640000       -4.2027961E-28
   7.650000       -4.4313693E-28
   7.660000       -4.6711019E-28
   7.670000       -4.9224598E-28
   7.680000       -5.1859179E-28
   7.690000       -5.4619657E-28
   7.700000       -5.7511075E-28
   7.710000       -6.0538618E-28
   7.720000       -6.3707601E-28
   7.730000       -6.7023513E-28
   7.740000       -7.0491882E-28
   7.750000       -7.4118504E-28
   7.760000       -7.7909177E-28
   7.770000       -8.1869972E-28
   7.780000       -8.6006928E-28
   7.790000       -9.0326326E-28
   7.800000       -9.4834514E-28
   7.810000       -9.9537972E-28
   7.820000       -1.0444331E-27
   7.830000       -1.0955718E-27
   7.840000       -1.1488639E-27
   7.850000       -1.2043783E-27
   7.860000       -1.2621840E-27
   7.870000       -1.3223515E-27
   7.880000       -1.3849522E-27
   7.890000       -1.4500574E-27
   7.900000       -1.5177384E-27
   7.910000       -1.5880678E-27
   7.920000       -1.6611173E-27
   7.930000       -1.7369594E-27
   7.940000       -1.8156658E-27
   7.950000       -1.8973085E-27
   7.960000       -1.9819583E-27
   7.970000       -2.0696850E-27
   7.980000       -2.1605583E-27
   7.990000       -2.2546463E-27
   8.000000       -2.3520148E-27
   8.010000       -2.4527298E-27
   8.020000       -2.5568530E-27
   8.030000       -2.6644459E-27
   8.040000       -2.7755661E-27
   8.050000       -2.8902677E-27
   8.060000       -3.0086034E-27
   8.070000       -3.1306215E-27
   8.080000       -3.2563647E-27
   8.090000       -3.3858730E-27
   8.100000       -3.5191817E-27
   8.110000       -3.6563191E-27
   8.120000       -3.7973095E-27
   8.130000       -3.9421694E-27
   8.140000       -4.0909098E-27
   8.150000       -4.2435328E-27
   8.160000       -4.4000335E-27
   8.170000       -4.5603991E-27
   8.180000       -4.7246062E-27
   8.190000       -4.8926216E-27
   8.200000       -5.0644030E-27
   8.210000       -5.2398972E-27
   8.220000       -5.4190365E-27
   8.230000       -5.6017417E-27
   8.240000       -5.7879210E-27
   8.250000       -5.9774691E-27
   8.260000       -6.1702624E-27
   8.270000       -6.3661626E-27
   8.280000       -6.5650168E-27
   8.290000       -6.7666509E-27
   8.300000       -6.9708780E-27
   8.310000       -7.1774818E-27
   8.320000       -7.3862302E-27
   8.330000       -7.5968707E-27
   8.340000       -7.8091267E-27
   8.350000       -8.0226969E-27
   8.360000       -8.2372563E-27
   8.370000       -8.4524466E-27
   8.380000       -8.6678958E-27
   8.390000       -8.8831870E-27
   8.400000       -9.0978804E-27
   8.410000       -9.3115107E-27
   8.420000       -9.5235703E-27
   8.430000       -9.7335190E-27
   8.440000       -9.9407891E-27
   8.450000       -1.0144769E-26
   8.460000       -1.0344808E-26
   8.470000       -1.0540213E-26
   8.480000       -1.0730259E-26
   8.490000       -1.0914169E-26
   8.500000       -1.1091127E-26
   8.510000       -1.1260263E-26
   8.520000       -1.1420674E-26
   8.530000       -1.1571398E-26
   8.540000       -1.1711417E-26
   8.550000       -1.1839674E-26
   8.560000       -1.1955048E-26
   8.570000       -1.2056365E-26
   8.580000       -1.2142407E-26
   8.590000       -1.2211874E-26
   8.600000       -1.2263410E-26
   8.610000       -1.2295609E-26
   8.620000       -1.2307003E-26
   8.630000       -1.2296037E-26
   8.640000       -1.2261113E-26
   8.650000       -1.2200567E-26
   8.660000       -1.2112637E-26
   8.670000       -1.1995503E-26
   8.680000       -1.1847269E-26
   8.690000       -1.1665997E-26
   8.700000       -1.1449616E-26
   8.710000       -1.1196032E-26
   8.720000       -1.0903039E-26
   8.730000       -1.0568368E-26
   8.740000       -1.0189666E-26
   8.750000       -9.7644771E-27
   8.760000       -9.2902770E-27
   8.770000       -8.7645027E-27
   8.780000       -8.1844442E-27
   8.790000       -7.5473412E-27
   8.800000       -6.8502647E-27
   8.810000       -6.0903270E-27
   8.820000       -5.2644598E-27
   8.830000       -4.3695761E-27
   8.840000       -3.4024568E-27
   8.850000       -2.3598254E-27
   8.860000       -1.2382447E-27
   8.870000       -3.4302103E-29
   8.880000        1.2555997E-27
   8.890000        2.6351063E-27
   8.900000        4.1079415E-27
   8.910000        5.6778957E-27
   8.920000        7.3489119E-27
   8.930000        9.1248689E-27
   8.940000        1.1009916E-26
   8.950000        1.3008167E-26
   8.960000        1.5123790E-26
   8.970000        1.7361108E-26
   8.980000        1.9724436E-26