 -0.1000000       -8.4193585E-36
 -9.0000004E-02   -2.5258079E-35
 -7.9999998E-02   -4.2096786E-35
 -7.0000000E-02   -5.8935487E-35
 -5.9999999E-02   -7.5774203E-35
 -5.0000001E-02   -9.2612918E-35
 -3.9999999E-02   -1.0945162E-34
 -2.9999999E-02   -1.2629033E-34
 -2.0000000E-02   -1.4312905E-34
 -9.9999998E-03   -1.5996779E-34
  0.0000000E+00   -1.7680655E-34
  9.9999998E-03   -1.9364527E-34
  2.0000000E-02   -2.1048400E-34
  2.9999999E-02   -2.2732275E-34
  3.9999999E-02   -2.4416147E-34
  5.0000001E-02   -2.6100022E-34
  5.9999999E-02   -2.7783888E-34
  7.0000000E-02   -2.9467758E-34
  7.9999998E-02   -3.1151624E-34
  9.0000004E-02   -3.2835497E-34
  0.1000000       -3.4519367E-34
  0.1100000       -3.6203238E-34
  0.1200000       -3.7887113E-34
  0.1300000       -3.9570983E-34
  0.1400000       -4.1254851E-34
  0.1500000       -4.2938724E-34
  0.1600000       -4.4622597E-34
  0.1700000       -4.6306465E-34
  0.1800000       -4.7990337E-34
  0.1900000       -4.9674210E-34
  0.2000000       -5.1358083E-34
  0.2100000       -5.3041956E-34
  0.2200000       -5.4725824E-34
  0.2300000       -5.6409701E-34
  0.2400000       -5.8093569E-34
  0.2500000       -5.9777442E-34
  0.2600000       -6.1461314E-34
  0.2700000       -6.3145192E-34
  0.2800000       -6.4829051E-34
  0.2900000       -6.6512928E-34
  0.3000000       -6.8196801E-34
  0.3100000       -6.9880660E-34
  0.3200000       -7.1564537E-34
  0.3300000       -7.3248410E-34
  0.3400000       -7.4932278E-34
  0.3500000       -7.6616150E-34
  0.3600000       -7.8300018E-34
  0.3700000       -7.9983877E-34
  0.3800000       -8.1667764E-34
  0.3900000       -8.3351632E-34
  0.4000000       -8.5035500E-34
  0.4100000       -8.6719377E-34
  0.4200000       -8.8403246E-34
  0.4300000       -9.0087095E-34
  0.4400000       -9.1770982E-34
  0.4500000       -9.3454859E-34
  0.4600000       -9.5138718E-34
  0.4700000       -9.6822586E-34
  0.4800000       -9.8506463E-34
  0.4900000       -1.0019033E-33
  0.5000000       -1.0187420E-33
  0.5100000       -1.0355807E-33
  0.5200000       -1.0524194E-33
  0.5300000       -1.0692582E-33
  0.5400000       -1.0860968E-33
  0.5500000       -1.1029354E-33
  0.5600000       -1.1197743E-33
  0.5700000       -1.1366130E-33
  0.5800000       -1.1534516E-33
  0.5900000       -1.1702903E-33
  0.6000000       -1.1871291E-33
  0.6100000       -1.2039679E-33
  0.6200000       -1.2208064E-33
  0.6300000       -1.2376449E-33
  0.6400000       -1.2544839E-33
  0.6500000       -1.2713226E-33
  0.6600000       -1.2881613E-33
  0.6700000       -1.3049999E-33
  0.6800000       -1.3218386E-33
  0.6900000       -1.3386776E-33
  0.7000000       -1.3555161E-33
  0.7100000       -1.3723547E-33
  0.7200000       -1.3891936E-33
  0.7300000       -1.4060323E-33
  0.7400000       -1.4228708E-33
  0.7500000       -1.4397097E-33
  0.7600000       -1.4565483E-33
  0.7700000       -1.4733871E-33
  0.7800000       -1.4902258E-33
  0.7900000       -1.5070643E-33
  0.8000000       -1.5239032E-33
  0.8100000       -1.5407421E-33
  0.8200000       -1.5575807E-33
  0.8300000       -1.5744191E-33
  0.8400000       -1.5912581E-33
  0.8500000       -1.6080968E-33
  0.8600000       -1.6249352E-33
  0.8700000       -1.6417742E-33
  0.8800000       -1.6586128E-33
  0.8900000       -1.6754516E-33
  0.9000000       -1.6922903E-33
  0.9100000       -1.7091287E-33
  0.9200000       -1.7259673E-33
  0.9300000       -1.7428065E-33
  0.9400000       -1.7596451E-33
  0.9500000       -1.7764835E-33
  0.9600000       -1.7933226E-33
  0.9700000       -1.8101614E-33
  0.9800000       -1.8269998E-33
  0.9900000       -1.8438386E-33
   1.000000       -1.8606770E-33
   1.010000       -1.8775159E-33
   1.020000       -1.8943547E-33
   1.030000       -1.9111933E-33
   1.040000       -1.9280322E-33
   1.050000       -1.9448708E-33
   1.060000       -1.9617094E-33
   1.070000       -1.9785480E-33
   1.080000       -1.9953868E-33
   1.090000       -2.0122257E-33
   1.100000       -2.0290641E-33
   1.110000       -2.0459029E-33
   1.120000       -2.0627419E-33
   1.130000       -2.0795805E-33
   1.140000       -2.0964192E-33
   1.150000       -2.1132578E-33
   1.160000       -2.1300966E-33
   1.170000       -2.1469359E-33
   1.180000       -2.1637752E-33
   1.190000       -2.1806144E-33
   1.200000       -2.1974533E-33
   1.210000       -2.2142927E-33
   1.220000       -2.2311322E-33
   1.230000       -2.2479711E-33
   1.240000       -2.2648101E-33
   1.250000       -2.2816496E-33
   1.260000       -2.2984889E-33
   1.270000       -2.3153279E-33
   1.280000       -2.3321668E-33
   1.290000       -2.3490062E-33
   1.300000       -2.3658457E-33
   1.310000       -2.3826846E-33
   1.320000       -2.3995236E-33
   1.330000       -2.4163633E-33
   1.340000       -2.4332028E-33
   1.350000       -2.4500414E-33
   1.360000       -2.4668807E-33
   1.370000       -2.4837202E-33
   1.380000       -2.5005592E-33
   1.390000       -2.5173983E-33
   1.400000       -2.5342373E-33
   1.410000       -2.5510766E-33
   1.420000       -2.5679157E-33
   1.430000       -2.5847550E-33
   1.440000       -2.6015940E-33
   1.450000       -2.6184331E-33
   1.460000       -2.6352725E-33
   1.470000       -2.6521116E-33
   1.480000       -2.6689506E-33
   1.490000       -2.6857902E-33
   1.500000       -2.7026298E-33
   1.510000       -2.7194689E-33
   1.520000       -2.7363077E-33
   1.530000       -2.7531472E-33
   1.540000       -2.7699867E-33
   1.550000       -2.7868256E-33
   1.560000       -2.8036646E-33
   1.570000       -2.8205043E-33
   1.580000       -2.8373436E-33
   1.590000       -2.8541826E-33
   1.600000       -2.8710219E-33
   1.610000       -2.8878610E-33
   1.620000       -2.9047005E-33
   1.630000       -2.9215395E-33
   1.640000       -2.9383788E-33
   1.650000       -2.9552183E-33
   1.660000       -2.9720573E-33
   1.670000       -2.9888964E-33
   1.680000       -3.0057357E-33
   1.690000       -3.0225749E-33
   1.700000       -3.0394144E-33
   1.710000       -3.0562537E-33
   1.720000       -3.0730930E-33
   1.730000       -3.0899320E-33
   1.740000       -3.1067717E-33
   1.750000       -3.1236106E-33
   1.760000       -3.1404500E-33
   1.770000       -3.1572893E-33
   1.780000       -3.1741286E-33
   1.790000       -3.1909676E-33
   1.800000       -3.2078065E-33
   1.810000       -3.2246462E-33
   1.820000       -3.2414855E-33
   1.830000       -3.2583245E-33
   1.840000       -3.2751638E-33
   1.850000       -3.2920032E-33
   1.860000       -3.3088428E-33
   1.870000       -3.3256814E-33
   1.880000       -3.3425208E-33
   1.890000       -3.3593604E-33
   1.900000       -3.3761994E-33
   1.910000       -3.3930384E-33
   1.920000       -3.4098777E-33
   1.930000       -3.4267170E-33
   1.940000       -3.4435563E-33
   1.950000       -3.4603953E-33
   1.960000       -3.4772350E-33
   1.970000       -3.4940739E-33
   1.980000       -3.5109136E-33
   1.990000       -3.5277530E-33
   2.000000       -3.5445919E-33
   2.010000       -3.5614309E-33
   2.020000       -3.5782706E-33
   2.030000       -3.5951095E-33
   2.040000       -3.6119485E-33
   2.050000       -3.6287878E-33
   2.060000       -3.6456275E-33
   2.070000       -3.6624668E-33
   2.080000       -3.6793058E-33
   2.090000       -3.6961451E-33
   2.100000       -3.7129848E-33
   2.110000       -3.7298230E-33
   2.120000       -3.7466627E-33
   2.130000       -3.7635020E-33
   2.140000       -3.7803417E-33
   2.150000       -3.7971807E-33
   2.160000       -3.8140196E-33
   2.170000       -3.8308589E-33
   2.180000       -3.8476986E-33
   2.190000       -3.8645372E-33
   2.200000       -3.8813766E-33
   2.210000       -3.8982162E-33
   2.220000       -3.9150556E-33
   2.230000       -3.9318949E-33
   2.240000       -3.9487338E-33
   2.250000       -3.9655728E-33
   2.260000       -3.9824125E-33
   2.270000       -3.9992511E-33
   2.280000       -4.0160908E-33
   2.290000       -4.0329297E-33
   2.300000       -4.0497694E-33
   2.310000       -4.0666091E-33
   2.320000       -4.0834477E-33
   2.330000       -4.1002870E-33
   2.340000       -4.1171264E-33
   2.350000       -4.1339653E-33
   2.360000       -4.1508046E-33
   2.370000       -4.1676440E-33
   2.380000       -4.1844836E-33
   2.390000       -4.2013226E-33
   2.400000       -4.2181619E-33
   2.410000       -4.2350009E-33
   2.420000       -4.2518406E-33
   2.430000       -4.2686788E-33
   2.440000       -4.2855178E-33
   2.450000       -4.3023567E-33
   2.460000       -4.3191949E-33
   2.470000       -4.3360332E-33
   2.480000       -4.3528721E-33
   2.490000       -4.3697103E-33
   2.500000       -4.3865489E-33
   2.510000       -4.4033868E-33
   2.520000       -4.4202257E-33
   2.530000       -4.4370643E-33
   2.540000       -4.4539025E-33
   2.550000       -4.4707404E-33
   2.560000       -4.4875794E-33
   2.570000       -4.5044179E-33
   2.580000       -4.5212562E-33
   2.590000       -4.5380944E-33
   2.600000       -4.5549333E-33
   2.610000       -4.5717719E-33
   2.620000       -4.5886102E-33
   2.630000       -4.6054484E-33
   2.640000       -4.6222873E-33
   2.650000       -4.6391259E-33
   2.660000       -4.6559638E-33
   2.670000       -4.6728020E-33
   2.680000       -4.6896410E-33
   2.690000       -4.7064795E-33
   2.700000       -4.7233178E-33
   2.710000       -4.7401556E-33
   2.720000       -4.7569946E-33
   2.730000       -4.7738328E-33
   2.740000       -4.7906714E-33
   2.750000       -4.8075096E-33
   2.760000       -4.8243482E-33
   2.770000       -4.8411872E-33
   2.780000       -4.8580254E-33
   2.790000       -4.8748632E-33
   2.800000       -4.8917029E-33
   2.810000       -4.9085408E-33
   2.820000       -4.9253790E-33
   2.830000       -4.9422176E-33
   2.840000       -4.9590558E-33
   2.850000       -4.9758948E-33
   2.860000       -4.9927334E-33
   2.870000       -5.0095708E-33
   2.880000       -5.0264098E-33
   2.890000       -5.0432484E-33
   2.900000       -5.0600866E-33
   2.910000       -5.0769245E-33
   2.920000       -5.0937642E-33
   2.930000       -5.1106024E-33
   2.940000       -5.1274402E-33
   2.950000       -5.1442781E-33
   2.960000       -5.1611178E-33
   2.970000       -5.1779560E-33
   2.980000       -5.1947935E-33
   2.990000       -5.2116317E-33
   3.000000       -5.2284696E-33
   3.010000       -5.2453078E-33
   3.020000       -5.2621456E-33
   3.030000       -5.2789835E-33
   3.040000       -5.2958214E-33
   3.050000       -5.3126599E-33
   3.060000       -5.3294978E-33
   3.070000       -5.3463349E-33
   3.080000       -5.3631739E-33
   3.090000       -5.3800117E-33
   3.100000       -5.3968496E-33
   3.110000       -5.4136874E-33
   3.120000       -5.4305257E-33
   3.130000       -5.4473635E-33
   3.140000       -5.4642014E-33
   3.150000       -5.4810392E-33
   3.160000       -5.4978774E-33
   3.170000       -5.5147153E-33
   3.180000       -5.5315532E-33
   3.190000       -5.5483906E-33
   3.200000       -5.5652289E-33
   3.210000       -5.5820675E-33
   3.220000       -5.5989053E-33
   3.230000       -5.6157424E-33
   3.240000       -5.6325806E-33
   3.250000       -5.6494192E-33
   3.260000       -5.6662571E-33
   3.270000       -5.6830942E-33
   3.280000       -5.6999332E-33
   3.290000       -5.7167710E-33
   3.300000       -5.7336081E-33
   3.310000       -5.7504460E-33
   3.320000       -5.7672846E-33
   3.330000       -5.7841228E-33
   3.340000       -5.8009603E-33
   3.350000       -5.8177985E-33
   3.360000       -5.8346364E-33
   3.370000       -5.8514742E-33
   3.380000       -5.8683124E-33
   3.390000       -5.8851499E-33
   3.400000       -5.9019882E-33
   3.410000       -5.9188267E-33
   3.420000       -5.9356646E-33
   3.430000       -5.9525025E-33
   3.440000       -5.9693403E-33
   3.450000       -5.9861785E-33
   3.460000       -6.0030164E-33
   3.470000       -6.0198535E-33
   3.480000       -6.0366925E-33
   3.490000       -6.0535303E-33
   3.500000       -6.0703678E-33
   3.510000       -6.0872057E-33
   3.520000       -6.1040439E-33
   3.530000       -6.1208821E-33
   3.540000       -6.1377196E-33
   3.550000       -6.1545578E-33
   3.560000       -6.1713960E-33
   3.570000       -6.1882343E-33
   3.580000       -6.2050717E-33
   3.590000       -6.2219092E-33
   3.600000       -6.2387467E-33
   3.610000       -6.2555857E-33
   3.620000       -6.2724232E-33
   3.630000       -6.2892614E-33
   3.640000       -6.3060996E-33
   3.650000       -6.3229378E-33
   3.660000       -6.3397753E-33
   3.670000       -6.3566128E-33
   3.680000       -6.3734510E-33
   3.690000       -6.3902892E-33
   3.700000       -6.4071267E-33
   3.710000       -6.4239650E-33
   3.720000       -6.4408032E-33
   3.730000       -6.4576414E-33
   3.740000       -6.4744796E-33
   3.750000       -6.4913171E-33
   3.760000       -6.5081553E-33
   3.770000       -6.5249928E-33
   3.780000       -6.5418310E-33
   3.790000       -6.5586678E-33
   3.800000       -6.5755067E-33
   3.810000       -6.5923457E-33
   3.820000       -6.6091825E-33
   3.830000       -6.6260199E-33
   3.840000       -6.6428589E-33
   3.850000       -6.6596971E-33
   3.860000       -6.6765346E-33
   3.870000       -6.6933728E-33
   3.880000       -6.7102111E-33
   3.890000       -6.7270493E-33
   3.900000       -6.7438860E-33
   3.910000       -6.7607243E-33
   3.920000       -6.7775617E-33
   3.930000       -6.7944007E-33
   3.940000       -6.8112382E-33
   3.950000       -6.8280764E-33
   3.960000       -6.8449154E-33
   3.970000       -6.8617528E-33
   3.980000       -6.8785903E-33
   3.990000       -6.8951464E-33
   4.000000       -6.9113447E-33
   4.010000       -6.9276040E-33
   4.020000       -6.9439963E-33
   4.030000       -6.9603063E-33
   4.040000       -6.9762585E-33
   4.050000       -6.9920659E-33
   4.060000       -7.0080057E-33
   4.070000       -7.0236566E-33
   4.080000       -7.0389483E-33
   4.090000       -7.0542966E-33
   4.100000       -7.0694179E-33
   4.110000       -7.0843121E-33
   4.120000       -7.0991483E-33
   4.130000       -7.1135753E-33
   4.140000       -7.1275556E-33
   4.150000       -7.1410826E-33
   4.160000       -7.1541512E-33
   4.170000       -7.1666158E-33
   4.180000       -7.1785750E-33
   4.190000       -7.1899545E-33
   4.200000       -7.2004355E-33
   4.210000       -7.2099967E-33
   4.220000       -7.2185925E-33
   4.230000       -7.2260055E-33
   4.240000       -7.2320086E-33
   4.250000       -7.2363726E-33
   4.260000       -7.2388676E-33
   4.270000       -7.2390895E-33
   4.280000       -7.2367987E-33
   4.290000       -7.2316170E-33
   4.300000       -7.2230293E-33
   4.310000       -7.2110260E-33
   4.320000       -7.1950121E-33
   4.330000       -7.1741662E-33
   4.340000       -7.1479806E-33
   4.350000       -7.1155553E-33
   4.360000       -7.0761579E-33
   4.370000       -7.0289831E-33
   4.380000       -6.9725028E-33
   4.390000       -6.9052241E-33
   4.400000       -6.8267562E-33
   4.410000       -6.7362321E-33
   4.420000       -6.6316704E-33
   4.430000       -6.5115643E-33
   4.440000       -6.3736869E-33
   4.450000       -6.2175312E-33
   4.460000       -6.0398924E-33
   4.470000       -5.8352344E-33
   4.480000       -5.6018202E-33
   4.490000       -5.3353180E-33
   4.500000       -5.0315258E-33
   4.510000       -4.6901762E-33
   4.520000       -4.3073122E-33
   4.530000       -3.8757562E-33
   4.540000       -3.3912395E-33
   4.550000       -2.8486903E-33
   4.560000       -2.2402586E-33
   4.570000       -1.5589410E-33
   4.580000       -7.9733038E-34
   4.590000        5.0518626E-35
   4.600000        9.9267991E-34
   4.610000        2.0399068E-33
   4.620000        3.2032346E-33
   4.630000        4.4902316E-33
   4.640000        5.9112364E-33
   4.650000        7.4848897E-33
   4.660000        9.2297825E-33
   4.670000        1.1156823E-32
   4.680000        1.3283143E-32
   4.690000        1.5629405E-32
   4.700000        1.8211089E-32
   4.710000        2.1057594E-32
   4.720000        2.4179566E-32
   4.730000        2.7577770E-32
   4.740000        3.1271476E-32
   4.750000        3.5299907E-32
   4.760000        3.9710894E-32
   4.770000        4.4534811E-32
   4.780000        4.9802551E-32
   4.790000        5.5540697E-32
   4.800000        6.1798448E-32
   4.810000        6.8603343E-32
   4.820000        7.5982462E-32
   4.830000        8.4001208E-32
   4.840000        9.2703129E-32
   4.850000        1.0213410E-31
   4.860000        1.1235344E-31
   4.870000        1.2341552E-31
   4.880000        1.3537062E-31
   4.890000        1.4827395E-31
   4.900000        1.6219511E-31
   4.910000        1.7721732E-31
   4.920000        1.9340369E-31
   4.930000        2.1082891E-31
   4.940000        2.2956175E-31
   4.950000        2.4968831E-31
   4.960000        2.7129855E-31
   4.970000        2.9448200E-31
   4.980000        3.1933369E-31
   4.990000        3.4592843E-31
   5.000000        3.7438023E-31
   5.010000        4.0479888E-31
   5.020000        4.3727906E-31
   5.030000        4.7193738E-31
   5.040000        5.0887950E-31
   5.050000        5.4821845E-31
   5.060000        5.9007762E-31
   5.070000        6.3456876E-31
   5.080000        6.8183412E-31
   5.090000        7.3199886E-31
   5.100000        7.8517173E-31
   5.110000        8.4148318E-31
   5.120000        9.0106288E-31
   5.130000        9.6403185E-31
   5.140000        1.0304941E-30
   5.150000        1.1005858E-30
   5.160000        1.1744450E-30
   5.170000        1.2521830E-30
   5.180000        1.3339217E-30
   5.190000        1.4197572E-30
   5.200000        1.5097888E-30
   5.210000        1.6041302E-30
   5.220000        1.7028698E-30
   5.230000        1.8060929E-30
   5.240000        1.9138968E-30
   5.250000        2.0263593E-30
   5.260000        2.1435245E-30
   5.270000        2.2654195E-30
   5.280000        2.3920451E-30
   5.290000        2.5233841E-30
   5.300000        2.6594217E-30
   5.310000        2.8001193E-30
   5.320000        2.9454014E-30
   5.330000        3.0951788E-30
   5.340000        3.2493143E-30
   5.350000        3.4076246E-30
   5.360000        3.5699470E-30
   5.370000        3.7360600E-30
   5.380000        3.9056607E-30
   5.390000        4.0784320E-30
   5.400000        4.2540005E-30
   5.410000        4.4319105E-30
   5.420000        4.6116629E-30
   5.430000        4.7927493E-30
   5.440000        4.9745683E-30
   5.450000        5.1564356E-30
   5.460000        5.3376137E-30
   5.470000        5.5172600E-30
   5.480000        5.6944783E-30
   5.490000        5.8682901E-30
   5.500000        6.0375857E-30
   5.510000        6.2011664E-30
   5.520000        6.3577799E-30
   5.530000        6.5060216E-30
   5.540000        6.6443251E-30
   5.550000        6.7710686E-30
   5.560000        6.8844916E-30
   5.570000        6.9826667E-30
   5.580000        7.0635595E-30
   5.590000        7.1249869E-30
   5.600000        7.1645865E-30
   5.610000        7.1798548E-30
   5.620000        7.1680803E-30
   5.630000        7.1263869E-30
   5.640000        7.0517233E-30
   5.650000        6.9408349E-30
   5.660000        6.7902467E-30
   5.670000        6.5962664E-30
   5.680000        6.3549782E-30
   5.690000        6.0622241E-30
   5.700000        5.7136214E-30
   5.710000        5.3045320E-30
   5.720000        4.8300280E-30
   5.730000        4.2849109E-30
   5.740000        3.6637003E-30
   5.750000        2.9605901E-30
   5.760000        2.1694826E-30
   5.770000        1.2839356E-30
   5.780000        2.9714739E-31
   5.790000       -7.9804076E-31
   5.800000       -2.0091531E-30
   5.810000       -3.3441238E-30
   5.820000       -4.8112920E-30
   5.830000       -6.4194360E-30
   5.840000       -8.1778115E-30
   5.850000       -1.0096136E-29
   5.860000       -1.2184625E-29
   5.870000       -1.4453994E-29
   5.880000       -1.6915541E-29
   5.890000       -1.9581109E-29
   5.900000       -2.2463135E-29
   5.910000       -2.5574713E-29
   5.920000       -2.8929607E-29
   5.930000       -3.2542321E-29
   5.940000       -3.6428071E-29
   5.950000       -4.0602885E-29
   5.960000       -4.5083601E-29
   5.970000       -4.9887884E-29
   5.980000       -5.5034411E-29
   5.990000       -6.0542787E-29
   6.000000       -6.6433665E-29
   6.010000       -7.2728832E-29
   6.020000       -7.9451207E-29
   6.030000       -8.6624977E-29
   6.040000       -9.4275697E-29
   6.050000       -1.0243026E-28
   6.060000       -1.1111707E-28
   6.070000       -1.2036619E-28
   6.080000       -1.3020929E-28
   6.090000       -1.4067993E-28
   6.100000       -1.5181352E-28
   6.110000       -1.6364758E-28
   6.120000       -1.7622182E-28
   6.130000       -1.8957822E-28
   6.140000       -2.0376132E-28
   6.150000       -2.1881829E-28
   6.160000       -2.3479910E-28
   6.170000       -2.5175674E-28
   6.180000       -2.6974746E-28
   6.190000       -2.8883097E-28
   6.200000       -3.0907049E-28
   6.210000       -3.3053332E-28
   6.220000       -3.5329078E-28
   6.230000       -3.7741871E-28
   6.240000       -4.0299774E-28
   6.250000       -4.3011326E-28
   6.260000       -4.5885628E-28
   6.270000       -4.8932328E-28
   6.280000       -5.2161708E-28
   6.290000       -5.5584669E-28
   6.300000       -5.9212788E-28
   6.310000       -6.3058399E-28
   6.320000       -6.7134576E-28
   6.330000       -7.1455232E-28
   6.340000       -7.6035151E-28
   6.350000       -8.0890021E-28
   6.360000       -8.6036510E-28
   6.370000       -9.1492313E-28
   6.380000       -9.7276199E-28
   6.390000       -1.0340814E-27
   6.400000       -1.0990929E-27
   6.410000       -1.1680207E-27
   6.420000       -1.2411032E-27
   6.430000       -1.3185923E-27
   6.440000       -1.4007557E-27
   6.450000       -1.4878769E-27
   6.460000       -1.5802555E-27
   6.470000       -1.6782089E-27
   6.480000       -1.7820734E-27
   6.490000       -1.8922042E-27
   6.500000       -2.0089764E-27
   6.510000       -2.1327881E-27
   6.520000       -2.2640574E-27
   6.530000       -2.4032266E-27
   6.540000       -2.5507625E-27
   6.550000       -2.7071580E-27
   6.560000       -2.8729315E-27
   6.570000       -3.0486292E-27
   6.580000       -3.2348262E-27
   6.590000       -3.4321277E-27
   6.600000       -3.6411693E-27
   6.610000       -3.8626208E-27
   6.620000       -4.0971837E-27
   6.630000       -4.3455944E-27
   6.640000       -4.6086256E-27
   6.650000       -4.8870881E-27
   6.660000       -5.1818297E-27
   6.670000       -5.4937390E-27
   6.680000       -5.8237433E-27
   6.690000       -6.1728135E-27
   6.700000       -6.5419642E-27
   6.710000       -6.9322508E-27
   6.720000       -7.3447796E-27
   6.730000       -7.7807000E-27
   6.740000       -8.2412060E-27
   6.750000       -8.7275426E-27
   6.760000       -9.2410063E-27
   6.770000       -9.7829376E-27
   6.780000       -1.0354731E-26
   6.790000       -1.0957833E-26
   6.800000       -1.1593739E-26
   6.810000       -1.2263998E-26
   6.820000       -1.2970212E-26
   6.830000       -1.3714033E-26
   6.840000       -1.4497160E-26
   6.850000       -1.5321354E-26
   6.860000       -1.6188421E-26
   6.870000       -1.7100220E-26
   6.880000       -1.8058656E-26
   6.890000       -1.9065683E-26
   6.900000       -2.0123304E-26
   6.910000       -2.1233567E-26
   6.920000       -2.2398559E-26
   6.930000       -2.3620414E-26
   6.940000       -2.4901300E-26
   6.950000       -2.6243421E-26
   6.960000       -2.7649008E-26
   6.970000       -2.9120326E-26
   6.980000       -3.0659652E-26
   6.990000       -3.2269298E-26
   7.000000       -3.3951581E-26
   7.010000       -3.5708812E-26
   7.020000       -3.7543320E-26
   7.030000       -3.9457423E-26
   7.040000       -4.1453414E-26
   7.050000       -4.3533576E-26
   7.060000       -4.5700148E-26
   7.070000       -4.7955338E-26
   7.080000       -5.0301300E-26
   7.090000       -5.2740103E-26
   7.100000       -5.5273770E-26
   7.110000       -5.7904227E-26
   7.120000       -6.0633279E-26
   7.130000       -6.3462640E-26
   7.140000       -6.6393856E-26
   7.150000       -6.9428345E-26
   7.160000       -7.2567358E-26
   7.170000       -7.5811949E-26
   7.180000       -7.9162938E-26
   7.190000       -8.2620971E-26
   7.200000       -8.6186376E-26
   7.210000       -8.9859250E-26
   7.220000       -9.3639373E-26
   7.230000       -9.7526183E-26
   7.240000       -1.0151879E-25
   7.250000       -1.0561585E-25
   7.260000       -1.0981567E-25
   7.270000       -1.1411608E-25
   7.280000       -1.1851442E-25
   7.290000       -1.2300751E-25
   7.300000       -1.2759158E-25
   7.310000       -1.3226229E-25
   7.320000       -1.3701469E-25
   7.330000       -1.4184307E-25
   7.340000       -1.4674105E-25
   7.350000       -1.5170143E-25
   7.360000       -1.5671627E-25
   7.370000       -1.6177664E-25
   7.380000       -1.6687275E-25
   7.390000       -1.7199386E-25
   7.400000       -1.7712814E-25
   7.410000       -1.8226264E-25
   7.420000       -1.8738334E-25
   7.430000       -1.9247497E-25
   7.440000       -1.9752087E-25
   7.450000       -2.0250326E-25
   7.460000       -2.0740272E-25
   7.470000       -2.1219853E-25
   7.480000       -2.1686832E-25
   7.490000       -2.2138807E-25
   7.500000       -2.2573210E-25
   7.510000       -2.2987291E-25
   7.520000       -2.3378122E-25
   7.530000       -2.3742573E-25
   7.540000       -2.4077312E-25
   7.550000       -2.4378800E-25
   7.560000       -2.4643270E-25
   7.570000       -2.4866742E-25
   7.580000       -2.5044993E-25
   7.590000       -2.5173542E-25
   7.600000       -2.5247663E-25
   7.610000       -2.5262373E-25
   7.620000       -2.5212404E-25
   7.630000       -2.5092199E-25
   7.640000       -2.4895925E-25
   7.650000       -2.4617445E-25
   7.660000       -2.4250297E-25
   7.670000       -2.3787709E-25
   7.680000       -2.3222576E-25
   7.690000       -2.2547454E-25
   7.700000       -2.1754545E-25
   7.710000       -2.0835705E-25
   7.720000       -1.9782405E-25
   7.730000       -1.8585756E-25
   7.740000       -1.7236470E-25
   7.750000       -1.5724880E-25
   7.760000       -1.4040893E-25
   7.770000       -1.2174031E-25
   7.780000       -1.0113376E-25
   7.790000       -7.8476043E-26
   7.800000       -5.3649426E-26
   7.810000       -2.6531851E-26
   7.820000        3.0032058E-27
   7.830000        3.5086758E-26
   7.840000        6.9854428E-26
   7.850000        1.0744642E-25
   7.860000        1.4800756E-25
   7.870000        1.9168742E-25
   7.880000        2.3864019E-25
   7.890000        2.8902481E-25
   7.900000        3.4300483E-25
   7.910000        4.0074878E-25
   7.920000        4.6242957E-25
   7.930000        5.2822496E-25
   7.940000        5.9831722E-25
   7.950000        6.7289327E-25
   7.960000        7.5214436E-25
   7.970000        8.3626661E-25
   7.980000        9.2545976E-25
   7.990000        1.0199285E-24
   8.000000        1.1198813E-24
   8.010000        1.2255304E-24
   8.020000        1.3370918E-24
   8.030000        1.4547854E-24
   8.040000        1.5788347E-24
   8.050000        1.7094659E-24
   8.060000        1.8469080E-24
   8.070000        1.9913932E-24
   8.080000        2.1431554E-24
   8.090000        2.3024318E-24
   8.100000        2.4694592E-24
   8.110000        2.6444775E-24
   8.120000        2.8277271E-24
   8.130000        3.0194489E-24
   8.140000        3.2198837E-24
   8.150000        3.4292714E-24
   8.160000        3.6478522E-24
   8.170000        3.8758626E-24
   8.180000        4.1135393E-24
   8.190000        4.3611154E-24
   8.200000        4.6188196E-24
   8.210000        4.8868773E-24
   8.220000        5.1655105E-24
   8.230000        5.4549325E-24
   8.240000        5.7553513E-24
   8.250000        6.0669691E-24
   8.260000        6.3899792E-24
   8.270000        6.7245635E-24
   8.280000        7.0708963E-24
   8.290000        7.4291386E-24
   8.300000        7.7994409E-24
   8.310000        8.1819383E-24
   8.320000        8.5767537E-24
   8.330000        8.9839921E-24
   8.340000        9.4037395E-24
   8.350000        9.8360684E-24
   8.360000        1.0281028E-23
   8.370000        1.0738646E-23
   8.380000        1.1208926E-23
   8.390000        1.1691852E-23
   8.400000        1.2187375E-23
   8.410000        1.2695424E-23
   8.420000        1.3215897E-23
   8.430000        1.3748656E-23
   8.440000        1.4293536E-23
   8.450000        1.4850337E-23
   8.460000        1.5418817E-23
   8.470000        1.5998694E-23
   8.480000        1.6589653E-23
   8.490000        1.7191329E-23
   8.500000        1.7803311E-23
   8.510000        1.8425150E-23
   8.520000        1.9056333E-23
   8.530000        1.9696306E-23
   8.540000        2.0344456E-23
   8.550000        2.1000108E-23
   8.560000        2.1662534E-23
   8.570000        2.2330947E-23
   8.580000        2.3004478E-23
   8.590000        2.3682212E-23
   8.600000        2.4363153E-23
   8.610000        2.5046233E-23
   8.620000        2.5730308E-23
   8.630000        2.6414154E-23
   8.640000        2.7096473E-23
   8.650000        2.7775868E-23
   8.660000        2.8450874E-23
   8.670000        2.9119923E-23
   8.680000        2.9781361E-23
   8.690000        3.0433430E-23
   8.700000        3.1074276E-23
   8.710000        3.1701947E-23
   8.720000        3.2314384E-23
   8.730000        3.2909422E-23
   8.740000        3.3484776E-23
   8.750000        3.4038057E-23
   8.760000        3.4566758E-23
   8.770000        3.5068253E-23
   8.780000        3.5539787E-23
   8.790000        3.5978482E-23
   8.800000        3.6381337E-23
   8.810000        3.6745217E-23
   8.820000        3.7066848E-23
   8.830000        3.7342814E-23
   8.840000        3.7569586E-23
   8.850000        3.7743473E-23
   8.860000        3.7860644E-23
   8.870000        3.7917111E-23
   8.880000        3.7908755E-23
   8.890000        3.7831305E-23
   8.900000        3.7680323E-23
   8.910000        3.7451238E-23
   8.920000        3.7139306E-23
   8.930000        3.6739625E-23
   8.940000        3.6247149E-23
   8.950000        3.5656658E-23
   8.960000        3.4962779E-23
   8.970000        3.4159978E-23
   8.980000        3.3242561E-23