 -0.1000000        8.4193585E-36
 -9.0000004E-02    2.5258079E-35
 -7.9999998E-02    4.2096786E-35
 -7.0000000E-02    5.8935493E-35
 -5.9999999E-02    7.5774208E-35
 -5.0000001E-02    9.2612918E-35
 -3.9999999E-02    1.0945163E-34
 -2.9999999E-02    1.2629034E-34
 -2.0000000E-02    1.4312906E-34
 -9.9999998E-03    1.5996779E-34
  0.0000000E+00    1.7680655E-34
  9.9999998E-03    1.9364527E-34
  2.0000000E-02    2.1048400E-34
  2.9999999E-02    2.2732275E-34
  3.9999999E-02    2.4416150E-34
  5.0000001E-02    2.6100022E-34
  5.9999999E-02    2.7783888E-34
  7.0000000E-02    2.9467758E-34
  7.9999998E-02    3.1151624E-34
  9.0000004E-02    3.2835497E-34
  0.1000000        3.4519367E-34
  0.1100000        3.6203238E-34
  0.1200000        3.7887113E-34
  0.1300000        3.9570983E-34
  0.1400000        4.1254851E-34
  0.1500000        4.2938724E-34
  0.1600000        4.4622597E-34
  0.1700000        4.6306465E-34
  0.1800000        4.7990337E-34
  0.1900000        4.9674210E-34
  0.2000000        5.1358083E-34
  0.2100000        5.3041956E-34
  0.2200000        5.4725824E-34
  0.2300000        5.6409701E-34
  0.2400000        5.8093569E-34
  0.2500000        5.9777442E-34
  0.2600000        6.1461314E-34
  0.2700000        6.3145192E-34
  0.2800000        6.4829051E-34
  0.2900000        6.6512928E-34
  0.3000000        6.8196801E-34
  0.3100000        6.9880660E-34
  0.3200000        7.1564537E-34
  0.3300000        7.3248410E-34
  0.3400000        7.4932278E-34
  0.3500000        7.6616150E-34
  0.3600000        7.8300018E-34
  0.3700000        7.9983877E-34
  0.3800000        8.1667764E-34
  0.3900000        8.3351632E-34
  0.4000000        8.5035500E-34
  0.4100000        8.6719377E-34
  0.4200000        8.8403246E-34
  0.4300000        9.0087095E-34
  0.4400000        9.1770982E-34
  0.4500000        9.3454859E-34
  0.4600000        9.5138718E-34
  0.4700000        9.6822586E-34
  0.4800000        9.8506463E-34
  0.4900000        1.0019033E-33
  0.5000000        1.0187420E-33
  0.5100000        1.0355807E-33
  0.5200000        1.0524194E-33
  0.5300000        1.0692582E-33
  0.5400000        1.0860968E-33
  0.5500000        1.1029354E-33
  0.5600000        1.1197743E-33
  0.5700000        1.1366130E-33
  0.5800000        1.1534516E-33
  0.5900000        1.1702903E-33
  0.6000000        1.1871291E-33
  0.6100000        1.2039679E-33
  0.6200000        1.2208064E-33
  0.6300000        1.2376449E-33
  0.6400000        1.2544839E-33
  0.6500000        1.2713226E-33
  0.6600000        1.2881613E-33
  0.6700000        1.3049999E-33
  0.6800000        1.3218386E-33
  0.6900000        1.3386776E-33
  0.7000000        1.3555161E-33
  0.7100000        1.3723547E-33
  0.7200000        1.3891936E-33
  0.7300000        1.4060323E-33
  0.7400000        1.4228708E-33
  0.7500000        1.4397097E-33
  0.7600000        1.4565483E-33
  0.7700000        1.4733871E-33
  0.7800000        1.4902258E-33
  0.7900000        1.5070643E-33
  0.8000000        1.5239032E-33
  0.8100000        1.5407421E-33
  0.8200000        1.5575807E-33
  0.8300000        1.5744191E-33
  0.8400000        1.5912581E-33
  0.8500000        1.6080968E-33
  0.8600000        1.6249352E-33
  0.8700000        1.6417742E-33
  0.8800000        1.6586128E-33
  0.8900000        1.6754516E-33
  0.9000000        1.6922903E-33
  0.9100000        1.7091287E-33
  0.9200000        1.7259673E-33
  0.9300000        1.7428065E-33
  0.9400000        1.7596451E-33
  0.9500000        1.7764835E-33
  0.9600000        1.7933226E-33
  0.9700000        1.8101614E-33
  0.9800000        1.8269998E-33
  0.9900000        1.8438386E-33
   1.000000        1.8606770E-33
   1.010000        1.8775159E-33
   1.020000        1.8943547E-33
   1.030000        1.9111933E-33
   1.040000        1.9280322E-33
   1.050000        1.9448708E-33
   1.060000        1.9617094E-33
   1.070000        1.9785480E-33
   1.080000        1.9953868E-33
   1.090000        2.0122257E-33
   1.100000        2.0290641E-33
   1.110000        2.0459029E-33
   1.120000        2.0627419E-33
   1.130000        2.0795805E-33
   1.140000        2.0964192E-33
   1.150000        2.1132578E-33
   1.160000        2.1300966E-33
   1.170000        2.1469359E-33
   1.180000        2.1637752E-33
   1.190000        2.1806144E-33
   1.200000        2.1974533E-33
   1.210000        2.2142927E-33
   1.220000        2.2311322E-33
   1.230000        2.2479711E-33
   1.240000        2.2648101E-33
   1.250000        2.2816496E-33
   1.260000        2.2984889E-33
   1.270000        2.3153279E-33
   1.280000        2.3321668E-33
   1.290000        2.3490062E-33
   1.300000        2.3658457E-33
   1.310000        2.3826846E-33
   1.320000        2.3995236E-33
   1.330000        2.4163633E-33
   1.340000        2.4332028E-33
   1.350000        2.4500414E-33
   1.360000        2.4668807E-33
   1.370000        2.4837202E-33
   1.380000        2.5005592E-33
   1.390000        2.5173983E-33
   1.400000        2.5342373E-33
   1.410000        2.5510766E-33
   1.420000        2.5679157E-33
   1.430000        2.5847550E-33
   1.440000        2.6015940E-33
   1.450000        2.6184331E-33
   1.460000        2.6352725E-33
   1.470000        2.6521116E-33
   1.480000        2.6689506E-33
   1.490000        2.6857902E-33
   1.500000        2.7026298E-33
   1.510000        2.7194689E-33
   1.520000        2.7363077E-33
   1.530000        2.7531472E-33
   1.540000        2.7699867E-33
   1.550000        2.7868256E-33
   1.560000        2.8036646E-33
   1.570000        2.8205043E-33
   1.580000        2.8373436E-33
   1.590000        2.8541826E-33
   1.600000        2.8710219E-33
   1.610000        2.8878610E-33
   1.620000        2.9047005E-33
   1.630000        2.9215395E-33
   1.640000        2.9383788E-33
   1.650000        2.9552183E-33
   1.660000        2.9720573E-33
   1.670000        2.9888964E-33
   1.680000        3.0057357E-33
   1.690000        3.0225749E-33
   1.700000        3.0394144E-33
   1.710000        3.0562537E-33
   1.720000        3.0730930E-33
   1.730000        3.0899320E-33
   1.740000        3.1067717E-33
   1.750000        3.1236106E-33
   1.760000        3.1404500E-33
   1.770000        3.1572893E-33
   1.780000        3.1741286E-33
   1.790000        3.1909676E-33
   1.800000        3.2078065E-33
   1.810000        3.2246462E-33
   1.820000        3.2414855E-33
   1.830000        3.2583245E-33
   1.840000        3.2751638E-33
   1.850000        3.2920032E-33
   1.860000        3.3088428E-33
   1.870000        3.3256814E-33
   1.880000        3.3425208E-33
   1.890000        3.3593604E-33
   1.900000        3.3761994E-33
   1.910000        3.3930384E-33
   1.920000        3.4098777E-33
   1.930000        3.4267170E-33
   1.940000        3.4435563E-33
   1.950000        3.4603953E-33
   1.960000        3.4772350E-33
   1.970000        3.4940739E-33
   1.980000        3.5109136E-33
   1.990000        3.5277530E-33
   2.000000        3.5445919E-33
   2.010000        3.5614309E-33
   2.020000        3.5782706E-33
   2.030000        3.5951095E-33
   2.040000        3.6119485E-33
   2.050000        3.6287878E-33
   2.060000        3.6456275E-33
   2.070000        3.6624668E-33
   2.080000        3.6793058E-33
   2.090000        3.6961451E-33
   2.100000        3.7129848E-33
   2.110000        3.7298230E-33
   2.120000        3.7466627E-33
   2.130000        3.7635020E-33
   2.140000        3.7803417E-33
   2.150000        3.7971807E-33
   2.160000        3.8140196E-33
   2.170000        3.8308589E-33
   2.180000        3.8476986E-33
   2.190000        3.8645372E-33
   2.200000        3.8813766E-33
   2.210000        3.8982162E-33
   2.220000        3.9149564E-33
   2.230000        3.9312873E-33
   2.240000        3.9476649E-33
   2.250000        3.9646350E-33
   2.260000        3.9816223E-33
   2.270000        3.9982236E-33
   2.280000        4.0145259E-33
   2.290000        4.0309009E-33
   2.300000        4.0476319E-33
   2.310000        4.0644098E-33
   2.320000        4.0810592E-33
   2.330000        4.0977450E-33
   2.340000        4.1143327E-33
   2.350000        4.1309226E-33
   2.360000        4.1474232E-33
   2.370000        4.1641983E-33
   2.380000        4.1811497E-33
   2.390000        4.1980022E-33
   2.400000        4.2152030E-33
   2.410000        4.2324809E-33
   2.420000        4.2498415E-33
   2.430000        4.2676407E-33
   2.440000        4.2854935E-33
   2.450000        4.3033305E-33
   2.460000        4.3214651E-33
   2.470000        4.3395857E-33
   2.480000        4.3580531E-33
   2.490000        4.3770226E-33
   2.500000        4.3965223E-33
   2.510000        4.4164752E-33
   2.520000        4.4370419E-33
   2.530000        4.4581821E-33
   2.540000        4.4800455E-33
   2.550000        4.5032810E-33
   2.560000        4.5274698E-33
   2.570000        4.5524453E-33
   2.580000        4.5800853E-33
   2.590000        4.6107767E-33
   2.600000        4.6427520E-33
   2.610000        4.6768751E-33
   2.620000        4.7132416E-33
   2.630000        4.7524168E-33
   2.640000        4.7956599E-33
   2.650000        4.8423627E-33
   2.660000        4.8932920E-33
   2.670000        4.9496746E-33
   2.680000        5.0116360E-33
   2.690000        5.0796707E-33
   2.700000        5.1545802E-33
   2.710000        5.2392224E-33
   2.720000        5.3341120E-33
   2.730000        5.4373035E-33
   2.740000        5.5524505E-33
   2.750000        5.6813571E-33
   2.760000        5.8302209E-33
   2.770000        5.9988269E-33
   2.780000        6.1784012E-33
   2.790000        6.3617071E-33
   2.800000        6.5447734E-33
   2.810000        6.7318034E-33
   2.820000        6.9381122E-33
   2.830000        7.1929851E-33
   2.840000        7.4854496E-33
   2.850000        7.8161925E-33
   2.860000        8.1939619E-33
   2.870000        8.6021251E-33
   2.880000        9.0664968E-33
   2.890000        9.6016597E-33
   2.900000        1.0200688E-32
   2.910000        1.0854384E-32
   2.920000        1.1576998E-32
   2.930000        1.2380092E-32
   2.940000        1.3270945E-32
   2.950000        1.4255624E-32
   2.960000        1.5347144E-32
   2.970000        1.6570369E-32
   2.980000        1.7949743E-32
   2.990000        1.9514636E-32
   3.000000        2.1257879E-32
   3.010000        2.3183643E-32
   3.020000        2.5315276E-32
   3.030000        2.7661986E-32
   3.040000        3.0250953E-32
   3.050000        3.3104886E-32
   3.060000        3.6247447E-32
   3.070000        3.9720086E-32
   3.080000        4.3533796E-32
   3.090000        4.7709584E-32
   3.100000        5.2293001E-32
   3.110000        5.7325603E-32
   3.120000        6.2828134E-32
   3.130000        6.8848739E-32
   3.140000        7.5420011E-32
   3.150000        8.2581211E-32
   3.160000        9.0385971E-32
   3.170000        9.8875767E-32
   3.180000        1.0812038E-31
   3.190000        1.1818337E-31
   3.200000        1.2912146E-31
   3.210000        1.4098342E-31
   3.220000        1.5384803E-31
   3.230000        1.6781280E-31
   3.240000        1.8294853E-31
   3.250000        1.9931628E-31
   3.260000        2.1699663E-31
   3.270000        2.3608939E-31
   3.280000        2.5671936E-31
   3.290000        2.7900504E-31
   3.300000        3.0303946E-31
   3.310000        3.2890203E-31
   3.320000        3.5670712E-31
   3.330000        3.8660173E-31
   3.340000        4.1872444E-31
   3.350000        4.5322647E-31
   3.360000        4.9024345E-31
   3.370000        5.2989386E-31
   3.380000        5.7235083E-31
   3.390000        6.1780283E-31
   3.400000        6.6640383E-31
   3.410000        7.1831262E-31
   3.420000        7.7372369E-31
   3.430000        8.3282195E-31
   3.440000        8.9579572E-31
   3.450000        9.6285128E-31
   3.460000        1.0342043E-30
   3.470000        1.1100871E-30
   3.480000        1.1907060E-30
   3.490000        1.2762955E-30
   3.500000        1.3670998E-30
   3.510000        1.4633703E-30
   3.520000        1.5653676E-30
   3.530000        1.6733286E-30
   3.540000        1.7875049E-30
   3.550000        1.9081523E-30
   3.560000        2.0355172E-30
   3.570000        2.1698843E-30
   3.580000        2.3115096E-30
   3.590000        2.4606870E-30
   3.600000        2.6176578E-30
   3.610000        2.7827356E-30
   3.620000        2.9561428E-30
   3.630000        3.1381400E-30
   3.640000        3.3290120E-30
   3.650000        3.5289962E-30
   3.660000        3.7383760E-30
   3.670000        3.9573512E-30
   3.680000        4.1861400E-30
   3.690000        4.4249884E-30
   3.700000        4.6741052E-30
   3.710000        4.9336431E-30
   3.720000        5.2037709E-30
   3.730000        5.4846697E-30
   3.740000        5.7765290E-30
   3.750000        6.0793307E-30
   3.760000        6.3932253E-30
   3.770000        6.7182891E-30
   3.780000        7.0544459E-30
   3.790000        7.4017723E-30
   3.800000        7.7600404E-30
   3.810000        8.1291366E-30
   3.820000        8.5090037E-30
   3.830000        8.8993943E-30
   3.840000        9.2999877E-30
   3.850000        9.7104997E-30
   3.860000        1.0130492E-29
   3.870000        1.0559397E-29
   3.880000        1.0996874E-29
   3.890000        1.1442238E-29
   3.900000        1.1894582E-29
   3.910000        1.2353145E-29
   3.920000        1.2817208E-29
   3.930000        1.3285709E-29
   3.940000        1.3757243E-29
   3.950000        1.4230597E-29
   3.960000        1.4704635E-29
   3.970000        1.5177496E-29
   3.980000        1.5647588E-29
   3.990000        1.6113168E-29
   4.000000        1.6571997E-29
   4.010000        1.7022330E-29
   4.020000        1.7461438E-29
   4.030000        1.7886816E-29
   4.040000        1.8295657E-29
   4.050000        1.8685234E-29
   4.060000        1.9051826E-29
   4.070000        1.9392479E-29
   4.080000        1.9703169E-29
   4.090000        1.9979876E-29
   4.100000        2.0218051E-29
   4.110000        2.0413598E-29
   4.120000        2.0561282E-29
   4.130000        2.0655943E-29
   4.140000        2.0692277E-29
   4.150000        2.0663683E-29
   4.160000        2.0564240E-29
   4.170000        2.0386897E-29
   4.180000        2.0124296E-29
   4.190000        1.9769159E-29
   4.200000        1.9312833E-29
   4.210000        1.8746674E-29
   4.220000        1.8061579E-29
   4.230000        1.7247383E-29
   4.240000        1.6293923E-29
   4.250000        1.5189822E-29
   4.260000        1.3923548E-29
   4.270000        1.2482057E-29
   4.280000        1.0852602E-29
   4.290000        9.0209287E-30
   4.300000        6.9718619E-30
   4.310000        4.6894750E-30
   4.320000        2.1569279E-30
   4.330000       -6.4322510E-31
   4.340000       -3.7297951E-30
   4.350000       -7.1232625E-30
   4.360000       -1.0844714E-29
   4.370000       -1.4916451E-29
   4.380000       -1.9362591E-29
   4.390000       -2.4208625E-29
   4.400000       -2.9481100E-29
   4.410000       -3.5208533E-29
   4.420000       -4.1421195E-29
   4.430000       -4.8151008E-29
   4.440000       -5.5431743E-29
   4.450000       -6.3299642E-29
   4.460000       -7.1792644E-29
   4.470000       -8.0950940E-29
   4.480000       -9.0817365E-29
   4.490000       -1.0143800E-28
   4.500000       -1.1286117E-28
   4.510000       -1.2513701E-28
   4.520000       -1.3832024E-28
   4.530000       -1.5246907E-28
   4.540000       -1.6764387E-28
   4.550000       -1.8390942E-28
   4.560000       -2.0133551E-28
   4.570000       -2.1999481E-28
   4.580000       -2.3996391E-28
   4.590000       -2.6132505E-28
   4.600000       -2.8416653E-28
   4.610000       -3.0857993E-28
   4.620000       -3.3466396E-28
   4.630000       -3.6252165E-28
   4.640000       -3.9226535E-28
   4.650000       -4.2401033E-28
   4.660000       -4.5787978E-28
   4.670000       -4.9400657E-28
   4.680000       -5.3252969E-28
   4.690000       -5.7360145E-28
   4.700000       -6.1737591E-28
   4.710000       -6.6401702E-28
   4.720000       -7.1370192E-28
   4.730000       -7.6661873E-28
   4.740000       -8.2296643E-28
   4.750000       -8.8295385E-28
   4.760000       -9.4680305E-28
   4.770000       -1.0147544E-27
   4.780000       -1.0870455E-27
   4.790000       -1.1639413E-27
   4.800000       -1.2457401E-27
   4.810000       -1.3327138E-27
   4.820000       -1.4251755E-27
   4.830000       -1.5234677E-27
   4.840000       -1.6279323E-27
   4.850000       -1.7389310E-27
   4.860000       -1.8568719E-27
   4.870000       -1.9821430E-27
   4.880000       -2.1151863E-27
   4.890000       -2.2564627E-27
   4.900000       -2.4064240E-27
   4.910000       -2.5656137E-27
   4.920000       -2.7345563E-27
   4.930000       -2.9138145E-27
   4.940000       -3.1039760E-27
   4.950000       -3.3057012E-27
   4.960000       -3.5196015E-27
   4.970000       -3.7463856E-27
   4.980000       -3.9867624E-27
   4.990000       -4.2415475E-27
   5.000000       -4.5114886E-27
   5.010000       -4.7974202E-27
   5.020000       -5.1002461E-27
   5.030000       -5.4209555E-27
   5.040000       -5.7604230E-27
   5.050000       -6.1197167E-27
   5.060000       -6.4998841E-27
   5.070000       -6.9020722E-27
   5.080000       -7.3273869E-27
   5.090000       -7.7771886E-27
   5.100000       -8.2525828E-27
   5.110000       -8.7550071E-27
   5.120000       -9.2858011E-27
   5.130000       -9.8464601E-27
   5.140000       -1.0438558E-26
   5.150000       -1.1063549E-26
   5.160000       -1.1723144E-26
   5.170000       -1.2419128E-26
   5.180000       -1.3153211E-26
   5.190000       -1.3927295E-26
   5.200000       -1.4743243E-26
   5.210000       -1.5603117E-26
   5.220000       -1.6509010E-26
   5.230000       -1.7462906E-26
   5.240000       -1.8467405E-26
   5.250000       -1.9524605E-26
   5.260000       -2.0636953E-26
   5.270000       -2.1807088E-26
   5.280000       -2.3037419E-26
   5.290000       -2.4330666E-26
   5.300000       -2.5689391E-26
   5.310000       -2.7116699E-26
   5.320000       -2.8615310E-26
   5.330000       -3.0188567E-26
   5.340000       -3.1839264E-26
   5.350000       -3.3570817E-26
   5.360000       -3.5386020E-26
   5.370000       -3.7288996E-26
   5.380000       -3.9283159E-26
   5.390000       -4.1371459E-26
   5.400000       -4.3558249E-26
   5.410000       -4.5846796E-26
   5.420000       -4.8240971E-26
   5.430000       -5.0744972E-26
   5.440000       -5.3361756E-26
   5.450000       -5.6096608E-26
   5.460000       -5.8952931E-26
   5.470000       -6.1934936E-26
   5.480000       -6.5047893E-26
   5.490000       -6.8294912E-26
   5.500000       -7.1680808E-26
   5.510000       -7.5209315E-26
   5.520000       -7.8886017E-26
   5.530000       -8.2714340E-26
   5.540000       -8.6699246E-26
   5.550000       -9.0845715E-26
   5.560000       -9.5158091E-26
   5.570000       -9.9640719E-26
   5.580000       -1.0429641E-25
   5.590000       -1.0913230E-25
   5.600000       -1.1415210E-25
   5.610000       -1.1935928E-25
   5.620000       -1.2476124E-25
   5.630000       -1.3035864E-25
   5.640000       -1.3615673E-25
   5.650000       -1.4215987E-25
   5.660000       -1.4837181E-25
   5.670000       -1.5479624E-25
   5.680000       -1.6143507E-25
   5.690000       -1.6829386E-25
   5.700000       -1.7537696E-25
   5.710000       -1.8268563E-25
   5.720000       -1.9022359E-25
   5.730000       -1.9798898E-25
   5.740000       -2.0598862E-25
   5.750000       -2.1422314E-25
   5.760000       -2.2269252E-25
   5.770000       -2.3139807E-25
   5.780000       -2.4034223E-25
   5.790000       -2.4952247E-25
   5.800000       -2.5893888E-25
   5.810000       -2.6858641E-25
   5.820000       -2.7846758E-25
   5.830000       -2.8858117E-25
   5.840000       -2.9892341E-25
   5.850000       -3.0948687E-25
   5.860000       -3.2027154E-25
   5.870000       -3.3126873E-25
   5.880000       -3.4247218E-25
   5.890000       -3.5387326E-25
   5.900000       -3.6546572E-25
   5.910000       -3.7723713E-25
   5.920000       -3.8918253E-25
   5.930000       -4.0128205E-25
   5.940000       -4.1353067E-25
   5.950000       -4.2590857E-25
   5.960000       -4.3840826E-25
   5.970000       -4.5099987E-25
   5.980000       -4.6366113E-25
   5.990000       -4.7638945E-25
   6.000000       -4.8914760E-25
   6.010000       -5.0192567E-25
   6.020000       -5.1467889E-25
   6.030000       -5.2739725E-25
   6.040000       -5.4004111E-25
   6.050000       -5.5258553E-25
   6.060000       -5.6498578E-25
   6.070000       -5.7721455E-25
   6.080000       -5.8922955E-25
   6.090000       -6.0099102E-25
   6.100000       -6.1244676E-25
   6.110000       -6.2356196E-25
   6.120000       -6.3427459E-25
   6.130000       -6.4453481E-25
   6.140000       -6.5430288E-25
   6.150000       -6.6349429E-25
   6.160000       -6.7207439E-25
   6.170000       -6.7995343E-25
   6.180000       -6.8708685E-25
   6.190000       -6.9339015E-25
   6.200000       -6.9877876E-25
   6.210000       -7.0320802E-25
   6.220000       -7.0654850E-25
   6.230000       -7.0874572E-25
   6.240000       -7.0968520E-25
   6.250000       -7.0928259E-25
   6.260000       -7.0745820E-25
   6.270000       -7.0408286E-25
   6.280000       -6.9904722E-25
   6.290000       -6.9225680E-25
   6.300000       -6.8357736E-25
   6.310000       -6.7289456E-25
   6.320000       -6.6007428E-25
   6.330000       -6.4498717E-25
   6.340000       -6.2748910E-25
   6.350000       -6.0745583E-25
   6.360000       -5.8474315E-25
   6.370000       -5.5918208E-25
   6.380000       -5.3060855E-25
   6.390000       -4.9886351E-25
   6.400000       -4.6376797E-25
   6.410000       -4.2517286E-25
   6.420000       -3.8287926E-25
   6.430000       -3.3671820E-25
   6.440000       -2.8647097E-25
   6.450000       -2.3196849E-25
   6.460000       -1.7300205E-25
   6.470000       -1.0933300E-25
   6.480000       -4.0802277E-26
   6.490000        3.2878444E-26
   6.500000        1.1188811E-25
   6.510000        1.9646535E-25
   6.520000        2.8685869E-25
   6.530000        3.8329681E-25
   6.540000        4.8602830E-25
   6.550000        5.9533143E-25
   6.560000        7.1143505E-25
   6.570000        8.3460744E-25
   6.580000        9.6511698E-25
   6.590000        1.1032521E-24
   6.600000        1.2492814E-24
   6.610000        1.4034979E-24
   6.620000        1.5661652E-24
   6.630000        1.7375963E-24
   6.640000        1.9180699E-24
   6.650000        2.1078841E-24
   6.660000        2.3073418E-24
   6.670000        2.5167568E-24
   6.680000        2.7363972E-24
   6.690000        2.9666059E-24
   6.700000        3.2076863E-24
   6.710000        3.4599467E-24
   6.720000        3.7236976E-24
   6.730000        3.9992443E-24
   6.740000        4.2869052E-24
   6.750000        4.5869800E-24
   6.760000        4.8997819E-24
   6.770000        5.2256193E-24
   6.780000        5.5647881E-24
   6.790000        5.9175880E-24
   6.800000        6.2843160E-24
   6.810000        6.6652467E-24
   6.820000        7.0606632E-24
   6.830000        7.4708930E-24
   6.840000        7.8961356E-24
   6.850000        8.3366686E-24
   6.860000        8.7927817E-24
   6.870000        9.2646814E-24
   6.880000        9.7526393E-24
   6.890000        1.0256782E-23
   6.900000        1.0777349E-23
   6.910000        1.1314539E-23
   6.920000        1.1868491E-23
   6.930000        1.2439505E-23
   6.940000        1.3027499E-23
   6.950000        1.3632733E-23
   6.960000        1.4255187E-23
   6.970000        1.4895018E-23
   6.980000        1.5552110E-23
   6.990000        1.6226580E-23
   7.000000        1.6918430E-23
   7.010000        1.7627659E-23
   7.020000        1.8354184E-23
   7.030000        1.9097732E-23
   7.040000        1.9858302E-23
   7.050000        2.0635771E-23
   7.060000        2.1429705E-23
   7.070000        2.2240026E-23
   7.080000        2.3066252E-23
   7.090000        2.3908066E-23
   7.100000        2.4765152E-23
   7.110000        2.5636873E-23
   7.120000        2.6522832E-23
   7.130000        2.7422790E-23
   7.140000        2.8335871E-23
   7.150000        2.9261120E-23
   7.160000        3.0198138E-23
   7.170000        3.1146056E-23
   7.180000        3.2103679E-23
   7.190000        3.3070523E-23
   7.200000        3.4045485E-23
   7.210000        3.5027601E-23
   7.220000        3.6015287E-23
   7.230000        3.7008062E-23
   7.240000        3.8003702E-23
   7.250000        3.9001091E-23
   7.260000        3.9998959E-23
   7.270000        4.0995867E-23
   7.280000        4.1989441E-23
   7.290000        4.2978556E-23
   7.300000        4.3960675E-23
   7.310000        4.4934524E-23
   7.320000        4.5898029E-23
   7.330000        4.6848013E-23
   7.340000        4.7783681E-23
   7.350000        4.8701537E-23
   7.360000        4.9599661E-23
   7.370000        5.0474565E-23
   7.380000        5.1324016E-23
   7.390000        5.2146104E-23
   7.400000        5.2935426E-23
   7.410000        5.3691022E-23
   7.420000        5.4409081E-23
   7.430000        5.5085457E-23
   7.440000        5.5717303E-23
   7.450000        5.6300460E-23
   7.460000        5.6831761E-23
   7.470000        5.7306441E-23
   7.480000        5.7721306E-23
   7.490000        5.8071579E-23
   7.500000        5.8352824E-23
   7.510000        5.8560572E-23
   7.520000        5.8690380E-23
   7.530000        5.8736829E-23
   7.540000        5.8694830E-23
   7.550000        5.8560572E-23
   7.560000        5.8327694E-23
   7.570000        5.7990459E-23
   7.580000        5.7544412E-23
   7.590000        5.6981291E-23
   7.600000        5.6298554E-23
   7.610000        5.5488552E-23
   7.620000        5.4543017E-23
   7.630000        5.3458781E-23
   7.640000        5.2227549E-23
   7.650000        5.0842344E-23
   7.660000        4.9298061E-23
   7.670000        4.7585159E-23
   7.680000        4.5699189E-23
   7.690000        4.3630597E-23
   7.700000        4.1373031E-23
   7.710000        3.8920122E-23
   7.720000        3.6263601E-23
   7.730000        3.3394555E-23
   7.740000        3.0305991E-23
   7.750000        2.6988358E-23
   7.760000        2.3434028E-23
   7.770000        1.9636633E-23
   7.780000        1.5585992E-23
   7.790000        1.1275109E-23
   7.800000        6.6912555E-24
   7.810000        1.8312507E-24
   7.820000       -3.3176307E-24
   7.830000       -8.7623885E-24
   7.840000       -1.4511931E-23
   7.850000       -2.0574529E-23
   7.860000       -2.6960363E-23
   7.870000       -3.3677706E-23
   7.880000       -4.0735468E-23
   7.890000       -4.8141915E-23
   7.900000       -5.5907235E-23
   7.910000       -6.4040328E-23
   7.920000       -7.2548836E-23
   7.930000       -8.1442940E-23
   7.940000       -9.0729625E-23
   7.950000       -1.0041973E-22
   7.960000       -1.1052025E-22
   7.970000       -1.2103943E-22
   7.980000       -1.3198686E-22
   7.990000       -1.4336887E-22
   8.000000       -1.5519564E-22
   8.010000       -1.6747227E-22
   8.020000       -1.8020670E-22
   8.030000       -1.9340693E-22
   8.040000       -2.0707927E-22
   8.050000       -2.2123108E-22
   8.060000       -2.3586769E-22
   8.070000       -2.5099590E-22
   8.080000       -2.6662085E-22
   8.090000       -2.8274721E-22
   8.100000       -2.9938064E-22
   8.110000       -3.1652477E-22
   8.120000       -3.3418347E-22
   8.130000       -3.5236026E-22
   8.140000       -3.7105735E-22
   8.150000       -3.9027721E-22
   8.160000       -4.1002137E-22
   8.170000       -4.3029078E-22
   8.180000       -4.5108642E-22
   8.190000       -4.7240606E-22
   8.200000       -4.9424935E-22
   8.210000       -5.1661312E-22
   8.220000       -5.3949614E-22
   8.230000       -5.6289262E-22
   8.240000       -5.8679942E-22
   8.250000       -6.1121014E-22
   8.260000       -6.3611719E-22
   8.270000       -6.6151674E-22
   8.280000       -6.8739350E-22
   8.290000       -7.1373858E-22
   8.300000       -7.4054687E-22
   8.310000       -7.6779925E-22
   8.320000       -7.9548310E-22
   8.330000       -8.2359199E-22
   8.340000       -8.5210801E-22
   8.350000       -8.8100592E-22
   8.360000       -9.1026521E-22
   8.370000       -9.3986812E-22
   8.380000       -9.6980182E-22
   8.390000       -1.0000335E-21
   8.400000       -1.0305398E-21
   8.410000       -1.0612983E-21
   8.420000       -1.0922806E-21
   8.430000       -1.1234488E-21
   8.440000       -1.1547697E-21
   8.450000       -1.1862127E-21
   8.460000       -1.2177423E-21
   8.470000       -1.2493177E-21
   8.480000       -1.2809135E-21
   8.490000       -1.3124583E-21
   8.500000       -1.3439369E-21
   8.510000       -1.3753037E-21
   8.520000       -1.4064769E-21
   8.530000       -1.4374312E-21
   8.540000       -1.4681108E-21
   8.550000       -1.4984645E-21
   8.560000       -1.5284466E-21
   8.570000       -1.5579707E-21
   8.580000       -1.5869754E-21
   8.590000       -1.6154201E-21
   8.600000       -1.6432136E-21
   8.610000       -1.6703043E-21
   8.620000       -1.6966213E-21
   8.630000       -1.7220935E-21
   8.640000       -1.7465983E-21
   8.650000       -1.7701055E-21
   8.660000       -1.7925133E-21
   8.670000       -1.8137298E-21
   8.680000       -1.8336635E-21
   8.690000       -1.8522230E-21
   8.700000       -1.8693571E-21
   8.710000       -1.8849336E-21
   8.720000       -1.8988404E-21
   8.730000       -1.9109960E-21
   8.740000       -1.9212784E-21
   8.750000       -1.9296064E-21
   8.760000       -1.9358573E-21
   8.770000       -1.9399296E-21
   8.780000       -1.9417112E-21
   8.790000       -1.9410494E-21
   8.800000       -1.9378323E-21
   8.810000       -1.9319886E-21
   8.820000       -1.9232943E-21
   8.830000       -1.9117087E-21
   8.840000       -1.8970485E-21
   8.850000       -1.8791916E-21
   8.860000       -1.8580159E-21
   8.870000       -1.8333582E-21
   8.880000       -1.8051373E-21
   8.890000       -1.7731293E-21
   8.900000       -1.7372118E-21
   8.910000       -1.6972627E-21
   8.920000       -1.6531803E-21
   8.930000       -1.6047610E-21
   8.940000       -1.5518011E-21
   8.950000       -1.4941377E-21
   8.960000       -1.4316487E-21
   8.970000       -1.3642730E-21
   8.980000       -1.2917456E-21