 -0.1000000       -8.4193592E-36
 -9.0000004E-02   -2.5258079E-35
 -7.9999998E-02   -4.2096797E-35
 -7.0000000E-02   -5.8935521E-35
 -5.9999999E-02   -7.5774231E-35
 -5.0000001E-02   -9.2612941E-35
 -3.9999999E-02   -1.0945166E-34
 -2.9999999E-02   -1.2629037E-34
 -2.0000000E-02   -1.4312909E-34
 -9.9999998E-03   -1.5996779E-34
  0.0000000E+00   -1.7680652E-34
  9.9999998E-03   -1.9364522E-34
  2.0000000E-02   -2.1048395E-34
  2.9999999E-02   -2.2732265E-34
  3.9999999E-02   -2.4416136E-34
  5.0000001E-02   -2.6100008E-34
  5.9999999E-02   -2.7783881E-34
  7.0000000E-02   -2.9467752E-34
  7.9999998E-02   -3.1151622E-34
  9.0000004E-02   -3.2835497E-34
  0.1000000       -3.4519367E-34
  0.1100000       -3.6203238E-34
  0.1200000       -3.7887113E-34
  0.1300000       -3.9570983E-34
  0.1400000       -4.1254856E-34
  0.1500000       -4.2938724E-34
  0.1600000       -4.4622597E-34
  0.1700000       -4.6306469E-34
  0.1800000       -4.7990337E-34
  0.1900000       -4.9674210E-34
  0.2000000       -5.1358083E-34
  0.2100000       -5.3041956E-34
  0.2200000       -5.4725824E-34
  0.2300000       -5.6409701E-34
  0.2400000       -5.8093569E-34
  0.2500000       -5.9777442E-34
  0.2600000       -6.1461310E-34
  0.2700000       -6.3145183E-34
  0.2800000       -6.4829051E-34
  0.2900000       -6.6512919E-34
  0.3000000       -6.8196791E-34
  0.3100000       -6.9880660E-34
  0.3200000       -7.1564537E-34
  0.3300000       -7.3248410E-34
  0.3400000       -7.4932278E-34
  0.3500000       -7.6616150E-34
  0.3600000       -7.8300018E-34
  0.3700000       -7.9983887E-34
  0.3800000       -8.1667764E-34
  0.3900000       -8.3351632E-34
  0.4000000       -8.5035500E-34
  0.4100000       -8.6719368E-34
  0.4200000       -8.8403246E-34
  0.4300000       -9.0087114E-34
  0.4400000       -9.1770982E-34
  0.4500000       -9.3454859E-34
  0.4600000       -9.5138718E-34
  0.4700000       -9.6822595E-34
  0.4800000       -9.8506463E-34
  0.4900000       -1.0019034E-33
  0.5000000       -1.0187421E-33
  0.5100000       -1.0355808E-33
  0.5200000       -1.0524196E-33
  0.5300000       -1.0692582E-33
  0.5400000       -1.0860970E-33
  0.5500000       -1.1029358E-33
  0.5600000       -1.1197744E-33
  0.5700000       -1.1366131E-33
  0.5800000       -1.1534519E-33
  0.5900000       -1.1702906E-33
  0.6000000       -1.1871293E-33
  0.6100000       -1.2039679E-33
  0.6200000       -1.2208067E-33
  0.6300000       -1.2376455E-33
  0.6400000       -1.2544842E-33
  0.6500000       -1.2713228E-33
  0.6600000       -1.2881615E-33
  0.6700000       -1.3050002E-33
  0.6800000       -1.3218389E-33
  0.6900000       -1.3386777E-33
  0.7000000       -1.3555164E-33
  0.7100000       -1.3723550E-33
  0.7200000       -1.3891939E-33
  0.7300000       -1.4060326E-33
  0.7400000       -1.4228711E-33
  0.7500000       -1.4397100E-33
  0.7600000       -1.4565486E-33
  0.7700000       -1.4733872E-33
  0.7800000       -1.4902261E-33
  0.7900000       -1.5070648E-33
  0.8000000       -1.5239034E-33
  0.8100000       -1.5407422E-33
  0.8200000       -1.5575809E-33
  0.8300000       -1.5744197E-33
  0.8400000       -1.5912584E-33
  0.8500000       -1.6080968E-33
  0.8600000       -1.6249358E-33
  0.8700000       -1.6417744E-33
  0.8800000       -1.6586132E-33
  0.8900000       -1.6754518E-33
  0.9000000       -1.6922905E-33
  0.9100000       -1.7091293E-33
  0.9200000       -1.7259679E-33
  0.9300000       -1.7428067E-33
  0.9400000       -1.7596452E-33
  0.9500000       -1.7764840E-33
  0.9600000       -1.7933228E-33
  0.9700000       -1.8101614E-33
  0.9800000       -1.8270002E-33
  0.9900000       -1.8438389E-33
   1.000000       -1.8606775E-33
   1.010000       -1.8775161E-33
   1.020000       -1.8943551E-33
   1.030000       -1.9111937E-33
   1.040000       -1.9280322E-33
   1.050000       -1.9448712E-33
   1.060000       -1.9617098E-33
   1.070000       -1.9785486E-33
   1.080000       -1.9953873E-33
   1.090000       -2.0122257E-33
   1.100000       -2.0290645E-33
   1.110000       -2.0459035E-33
   1.120000       -2.0627421E-33
   1.130000       -2.0795806E-33
   1.140000       -2.0964196E-33
   1.150000       -2.1132584E-33
   1.160000       -2.1300975E-33
   1.170000       -2.1469363E-33
   1.180000       -2.1637752E-33
   1.190000       -2.1806142E-33
   1.200000       -2.1974530E-33
   1.210000       -2.2142919E-33
   1.220000       -2.2311309E-33
   1.230000       -2.2479697E-33
   1.240000       -2.2648088E-33
   1.250000       -2.2816476E-33
   1.260000       -2.2984863E-33
   1.270000       -2.3153253E-33
   1.280000       -2.3321641E-33
   1.290000       -2.3490030E-33
   1.300000       -2.3658420E-33
   1.310000       -2.3826809E-33
   1.320000       -2.3995197E-33
   1.330000       -2.4163587E-33
   1.340000       -2.4331976E-33
   1.350000       -2.4500366E-33
   1.360000       -2.4668752E-33
   1.370000       -2.4837141E-33
   1.380000       -2.5005535E-33
   1.390000       -2.5173920E-33
   1.400000       -2.5342310E-33
   1.410000       -2.5510700E-33
   1.420000       -2.5679089E-33
   1.430000       -2.5847477E-33
   1.440000       -2.6015866E-33
   1.450000       -2.6184256E-33
   1.460000       -2.6352642E-33
   1.470000       -2.6521035E-33
   1.480000       -2.6689421E-33
   1.490000       -2.6857811E-33
   1.500000       -2.7026200E-33
   1.510000       -2.7194590E-33
   1.520000       -2.7362978E-33
   1.530000       -2.7531367E-33
   1.540000       -2.7699758E-33
   1.550000       -2.7868146E-33
   1.560000       -2.8036536E-33
   1.570000       -2.8204925E-33
   1.580000       -2.8373315E-33
   1.590000       -2.8541701E-33
   1.600000       -2.8710090E-33
   1.610000       -2.8878480E-33
   1.620000       -2.9046868E-33
   1.630000       -2.9215259E-33
   1.640000       -2.9383647E-33
   1.650000       -2.9552036E-33
   1.660000       -2.9720426E-33
   1.670000       -2.9888815E-33
   1.680000       -3.0057201E-33
   1.690000       -3.0225591E-33
   1.700000       -3.0393984E-33
   1.710000       -3.0562368E-33
   1.720000       -3.0730760E-33
   1.730000       -3.0899151E-33
   1.740000       -3.1067541E-33
   1.750000       -3.1235926E-33
   1.760000       -3.1404316E-33
   1.770000       -3.1572706E-33
   1.780000       -3.1741092E-33
   1.790000       -3.1909485E-33
   1.800000       -3.2077871E-33
   1.810000       -3.2246260E-33
   1.820000       -3.2414650E-33
   1.830000       -3.2583039E-33
   1.840000       -3.2751429E-33
   1.850000       -3.2919815E-33
   1.860000       -3.3088208E-33
   1.870000       -3.3256594E-33
   1.880000       -3.3424984E-33
   1.890000       -3.3593377E-33
   1.900000       -3.3761766E-33
   1.910000       -3.3930152E-33
   1.920000       -3.4098542E-33
   1.930000       -3.4266931E-33
   1.940000       -3.4435321E-33
   1.950000       -3.4603710E-33
   1.960000       -3.4772100E-33
   1.970000       -3.4940490E-33
   1.980000       -3.5108879E-33
   1.990000       -3.5277269E-33
   2.000000       -3.5445655E-33
   2.010000       -3.5614048E-33
   2.020000       -3.5782437E-33
   2.030000       -3.5950823E-33
   2.040000       -3.6119213E-33
   2.050000       -3.6287602E-33
   2.060000       -3.6455996E-33
   2.070000       -3.6624382E-33
   2.080000       -3.6792771E-33
   2.090000       -3.6961161E-33
   2.100000       -3.7129547E-33
   2.110000       -3.7297940E-33
   2.120000       -3.7466326E-33
   2.130000       -3.7634715E-33
   2.140000       -3.7803105E-33
   2.150000       -3.7971494E-33
   2.160000       -3.8139880E-33
   2.170000       -3.8308270E-33
   2.180000       -3.8476663E-33
   2.190000       -3.8645049E-33
   2.200000       -3.8813439E-33
   2.210000       -3.8981828E-33
   2.220000       -3.9150218E-33
   2.230000       -3.9318607E-33
   2.240000       -3.9486993E-33
   2.250000       -3.9655386E-33
   2.260000       -3.9823776E-33
   2.270000       -3.9992166E-33
   2.280000       -4.0160555E-33
   2.290000       -4.0328941E-33
   2.300000       -4.0497334E-33
   2.310000       -4.0665724E-33
   2.320000       -4.0834110E-33
   2.330000       -4.1002499E-33
   2.340000       -4.1170889E-33
   2.350000       -4.1339278E-33
   2.360000       -4.1507664E-33
   2.370000       -4.1676054E-33
   2.380000       -4.1844440E-33
   2.390000       -4.2012829E-33
   2.400000       -4.2181219E-33
   2.410000       -4.2349612E-33
   2.420000       -4.2517994E-33
   2.430000       -4.2686388E-33
   2.440000       -4.2854777E-33
   2.450000       -4.3023163E-33
   2.460000       -4.3191553E-33
   2.470000       -4.3359942E-33
   2.480000       -4.3528332E-33
   2.490000       -4.3696721E-33
   2.500000       -4.3865111E-33
   2.510000       -4.4033500E-33
   2.520000       -4.4201890E-33
   2.530000       -4.4367455E-33
   2.540000       -4.4529438E-33
   2.550000       -4.4692053E-33
   2.560000       -4.4855979E-33
   2.570000       -4.5019079E-33
   2.580000       -4.5178601E-33
   2.590000       -4.5336617E-33
   2.600000       -4.5492366E-33
   2.610000       -4.5645856E-33
   2.620000       -4.5797014E-33
   2.630000       -4.5943998E-33
   2.640000       -4.6088195E-33
   2.650000       -4.6229254E-33
   2.660000       -4.6363584E-33
   2.670000       -4.6488300E-33
   2.680000       -4.6605710E-33
   2.690000       -4.6714910E-33
   2.700000       -4.6812648E-33
   2.710000       -4.6896351E-33
   2.720000       -4.6965429E-33
   2.730000       -4.7015807E-33
   2.740000       -4.7043023E-33
   2.750000       -4.7042839E-33
   2.760000       -4.7007909E-33
   2.770000       -4.6937456E-33
   2.780000       -4.6823937E-33
   2.790000       -4.6657590E-33
   2.800000       -4.6432773E-33
   2.810000       -4.6137496E-33
   2.820000       -4.5757462E-33
   2.830000       -4.5281144E-33
   2.840000       -4.4695069E-33
   2.850000       -4.3977760E-33
   2.860000       -4.3109992E-33
   2.870000       -4.2068030E-33
   2.880000       -4.0821414E-33
   2.890000       -3.9342011E-33
   2.900000       -3.7601908E-33
   2.910000       -3.5559766E-33
   2.920000       -3.3166349E-33
   2.930000       -3.0368419E-33
   2.940000       -2.7103678E-33
   2.950000       -2.3306255E-33
   2.960000       -1.8907437E-33
   2.970000       -1.3819389E-33
   2.980000       -7.9381584E-34
   2.990000       -1.1565650E-34
   3.000000        6.6420923E-34
   3.010000        1.5602030E-33
   3.020000        2.5886430E-33
   3.030000        3.7652980E-33
   3.040000        5.1098655E-33
   3.050000        6.6465874E-33
   3.060000        8.3998674E-33
   3.070000        1.0398372E-32
   3.080000        1.2669729E-32
   3.090000        1.5243875E-32
   3.100000        1.8159035E-32
   3.110000        2.1448665E-32
   3.120000        2.5147521E-32
   3.130000        2.9303117E-32
   3.140000        3.3977555E-32
   3.150000        3.9237943E-32
   3.160000        4.5155663E-32
   3.170000        5.1807903E-32
   3.180000        5.9269219E-32
   3.190000        6.7624591E-32
   3.200000        7.6978940E-32
   3.210000        8.7453283E-32
   3.220000        9.9172109E-32
   3.230000        1.1225955E-31
   3.240000        1.2686492E-31
   3.250000        1.4314050E-31
   3.260000        1.6126676E-31
   3.270000        1.8143680E-31
   3.280000        2.0385428E-31
   3.290000        2.2876180E-31
   3.300000        2.5640645E-31
   3.310000        2.8706449E-31
   3.320000        3.2103266E-31
   3.330000        3.5863040E-31
   3.340000        4.0021370E-31
   3.350000        4.4615747E-31
   3.360000        4.9687093E-31
   3.370000        5.5280034E-31
   3.380000        6.1442634E-31
   3.390000        6.8228203E-31
   3.400000        7.5693208E-31
   3.410000        8.3898953E-31
   3.420000        9.2912663E-31
   3.430000        1.0280439E-30
   3.440000        1.1364886E-30
   3.450000        1.2552815E-30
   3.460000        1.3853170E-30
   3.470000        1.5275405E-30
   3.480000        1.6829575E-30
   3.490000        1.8526564E-30
   3.500000        2.0378062E-30
   3.510000        2.2396502E-30
   3.520000        2.4595226E-30
   3.530000        2.6988446E-30
   3.540000        2.9591364E-30
   3.550000        3.2420330E-30
   3.560000        3.5492617E-30
   3.570000        3.8826383E-30
   3.580000        4.2440868E-30
   3.590000        4.6356694E-30
   3.600000        5.0595733E-30
   3.610000        5.5181113E-30
   3.620000        6.0137226E-30
   3.630000        6.5489961E-30
   3.640000        7.1266833E-30
   3.650000        7.7496750E-30
   3.660000        8.4210053E-30
   3.670000        9.1438602E-30
   3.680000        9.9216184E-30
   3.690000        1.0757825E-29
   3.700000        1.1656194E-29
   3.710000        1.2620617E-29
   3.720000        1.3655152E-29
   3.730000        1.4764072E-29
   3.740000        1.5951856E-29
   3.750000        1.7223137E-29
   3.760000        1.8582776E-29
   3.770000        2.0035822E-29
   3.780000        2.1587525E-29
   3.790000        2.3243352E-29
   3.800000        2.5008947E-29
   3.810000        2.6890171E-29
   3.820000        2.8893069E-29
   3.830000        3.1023906E-29
   3.840000        3.3289127E-29
   3.850000        3.5695363E-29
   3.860000        3.8249438E-29
   3.870000        4.0958358E-29
   3.880000        4.3829300E-29
   3.890000        4.6869576E-29
   3.900000        5.0086670E-29
   3.910000        5.3488184E-29
   3.920000        5.7081873E-29
   3.930000        6.0875546E-29
   3.940000        6.4877087E-29
   3.950000        6.9094482E-29
   3.960000        7.3535743E-29
   3.970000        7.8208867E-29
   3.980000        8.3121860E-29
   3.990000        8.8282697E-29
   4.000000        9.3699206E-29
   4.010000        9.9379183E-29
   4.020000        1.0533018E-28
   4.030000        1.1155956E-28
   4.040000        1.1807441E-28
   4.050000        1.2488153E-28
   4.060000        1.3198741E-28
   4.070000        1.3939801E-28
   4.080000        1.4711888E-28
   4.090000        1.5515494E-28
   4.100000        1.6351053E-28
   4.110000        1.7218927E-28
   4.120000        1.8119388E-28
   4.130000        1.9052640E-28
   4.140000        2.0018769E-28
   4.150000        2.1017760E-28
   4.160000        2.2049483E-28
   4.170000        2.3113663E-28
   4.180000        2.4209898E-28
   4.190000        2.5337611E-28
   4.200000        2.6496075E-28
   4.210000        2.7684367E-28
   4.220000        2.8901371E-28
   4.230000        3.0145753E-28
   4.240000        3.1415947E-28
   4.250000        3.2710131E-28
   4.260000        3.4026228E-28
   4.270000        3.5361860E-28
   4.280000        3.6714344E-28
   4.290000        3.8080669E-28
   4.300000        3.9457473E-28
   4.310000        4.0840996E-28
   4.320000        4.2227093E-28
   4.330000        4.3611186E-28
   4.340000        4.4988241E-28
   4.350000        4.6352733E-28
   4.360000        4.7698607E-28
   4.370000        4.9019265E-28
   4.380000        5.0307534E-28
   4.390000        5.1555599E-28
   4.400000        5.2755001E-28
   4.410000        5.3896567E-28
   4.420000        5.4970388E-28
   4.430000        5.5965772E-28
   4.440000        5.6871190E-28
   4.450000        5.7674235E-28
   4.460000        5.8361556E-28
   4.470000        5.8918824E-28
   4.480000        5.9330655E-28
   4.490000        5.9580574E-28
   4.500000        5.9650904E-28
   4.510000        5.9522767E-28
   4.520000        5.9175945E-28
   4.530000        5.8588821E-28
   4.540000        5.7738349E-28
   4.550000        5.6599908E-28
   4.560000        5.5147237E-28
   4.570000        5.3352328E-28
   4.580000        5.1185353E-28
   4.590000        4.8614511E-28
   4.600000        4.5605954E-28
   4.610000        4.2123651E-28
   4.620000        3.8129238E-28
   4.630000        3.3581930E-28
   4.640000        2.8438327E-28
   4.650000        2.2652275E-28
   4.660000        1.6174713E-28
   4.670000        8.9534780E-29
   4.680000        9.3313059E-30
   4.690000       -7.9452513E-29
   4.700000       -1.7744273E-28
   4.710000       -2.8530469E-28
   4.720000       -4.0374533E-28
   4.730000       -5.3351577E-28
   4.740000       -6.7541415E-28
   4.750000       -8.3028824E-28
   4.760000       -9.9903870E-28
   4.770000       -1.1826227E-27
   4.780000       -1.3820572E-27
   4.790000       -1.5984225E-27
   4.800000       -1.8328669E-27
   4.810000       -2.0866097E-27
   4.820000       -2.3609474E-27
   4.830000       -2.6572574E-27
   4.840000       -2.9770045E-27
   4.850000       -3.3217434E-27
   4.860000       -3.6931271E-27
   4.870000       -4.0929139E-27
   4.880000       -4.5229706E-27
   4.890000       -4.9852835E-27
   4.900000       -5.4819616E-27
   4.910000       -6.0152501E-27
   4.920000       -6.5875324E-27
   4.930000       -7.2013410E-27
   4.940000       -7.8593719E-27
   4.950000       -8.5644895E-27
   4.960000       -9.3197383E-27
   4.970000       -1.0128353E-26
   4.980000       -1.0993770E-26
   4.990000       -1.1919648E-26
   5.000000       -1.2909867E-26
   5.010000       -1.3968560E-26
   5.020000       -1.5100109E-26
   5.030000       -1.6309172E-26
   5.040000       -1.7600704E-26
   5.050000       -1.8979961E-26
   5.060000       -2.0452527E-26
   5.070000       -2.2024332E-26
   5.080000       -2.3701669E-26
   5.090000       -2.5491228E-26
   5.100000       -2.7400104E-26
   5.110000       -2.9435827E-26
   5.120000       -3.1606381E-26
   5.130000       -3.3920245E-26
   5.140000       -3.6386406E-26
   5.150000       -3.9014386E-26
   5.160000       -4.1814284E-26
   5.170000       -4.4796819E-26
   5.180000       -4.7973313E-26
   5.190000       -5.1355776E-26
   5.200000       -5.4956950E-26
   5.210000       -5.8790284E-26
   5.220000       -6.2870032E-26
   5.230000       -6.7211270E-26
   5.240000       -7.1829945E-26
   5.250000       -7.6742910E-26
   5.260000       -8.1967985E-26
   5.270000       -8.7524007E-26
   5.280000       -9.3430849E-26
   5.290000       -9.9709498E-26
   5.300000       -1.0638215E-25
   5.310000       -1.1347212E-25
   5.320000       -1.2100414E-25
   5.330000       -1.2900414E-25
   5.340000       -1.3749955E-25
   5.350000       -1.4651924E-25
   5.360000       -1.5609358E-25
   5.370000       -1.6625461E-25
   5.380000       -1.7703592E-25
   5.390000       -1.8847292E-25
   5.400000       -2.0060292E-25
   5.410000       -2.1346490E-25
   5.420000       -2.2710001E-25
   5.430000       -2.4155138E-25
   5.440000       -2.5686425E-25
   5.450000       -2.7308614E-25
   5.460000       -2.9026679E-25
   5.470000       -3.0845839E-25
   5.480000       -3.2771557E-25
   5.490000       -3.4809562E-25
   5.500000       -3.6965832E-25
   5.510000       -3.9246639E-25
   5.520000       -4.1658522E-25
   5.530000       -4.4208337E-25
   5.540000       -4.6903229E-25
   5.550000       -4.9750642E-25
   5.560000       -5.2758391E-25
   5.570000       -5.5934572E-25
   5.580000       -5.9287645E-25
   5.590000       -6.2826440E-25
   5.600000       -6.6560134E-25
   5.610000       -7.0498261E-25
   5.620000       -7.4650760E-25
   5.630000       -7.9027952E-25
   5.640000       -8.3640575E-25
   5.650000       -8.8499751E-25
   5.660000       -9.3617013E-25
   5.670000       -9.9004351E-25
   5.680000       -1.0467419E-24
   5.690000       -1.1063938E-24
   5.700000       -1.1691322E-24
   5.710000       -1.2350946E-24
   5.720000       -1.3044234E-24
   5.730000       -1.3772655E-24
   5.740000       -1.4537723E-24
   5.750000       -1.5341006E-24
   5.760000       -1.6184113E-24
   5.770000       -1.7068706E-24
   5.780000       -1.7996493E-24
   5.790000       -1.8969233E-24
   5.800000       -1.9988730E-24
   5.810000       -2.1056839E-24
   5.820000       -2.2175462E-24
   5.830000       -2.3346548E-24
   5.840000       -2.4572092E-24
   5.850000       -2.5854139E-24
   5.860000       -2.7194775E-24
   5.870000       -2.8596127E-24
   5.880000       -3.0060373E-24
   5.890000       -3.1589730E-24
   5.900000       -3.3186451E-24
   5.910000       -3.4852825E-24
   5.920000       -3.6591175E-24
   5.930000       -3.8403863E-24
   5.940000       -4.0293276E-24
   5.950000       -4.2261835E-24
   5.960000       -4.4311970E-24
   5.970000       -4.6446150E-24
   5.980000       -4.8666845E-24
   5.990000       -5.0976531E-24
   6.000000       -5.3377717E-24
   6.010000       -5.5872876E-24
   6.020000       -5.8464509E-24
   6.030000       -6.1155097E-24
   6.040000       -6.3947092E-24
   6.050000       -6.6842938E-24
   6.060000       -6.9845027E-24
   6.070000       -7.2955750E-24
   6.080000       -7.6177418E-24
   6.090000       -7.9512304E-24
   6.100000       -8.2962577E-24
   6.110000       -8.6530389E-24
   6.120000       -9.0217786E-24
   6.130000       -9.4026698E-24
   6.140000       -9.7958956E-24
   6.150000       -1.0201626E-23
   6.160000       -1.0620019E-23
   6.170000       -1.1051218E-23
   6.180000       -1.1495349E-23
   6.190000       -1.1952521E-23
   6.200000       -1.2422819E-23
   6.210000       -1.2906317E-23
   6.220000       -1.3403053E-23
   6.230000       -1.3913047E-23
   6.240000       -1.4436297E-23
   6.250000       -1.4972766E-23
   6.260000       -1.5522383E-23
   6.270000       -1.6085051E-23
   6.280000       -1.6660630E-23
   6.290000       -1.7248953E-23
   6.300000       -1.7849805E-23
   6.310000       -1.8462925E-23
   6.320000       -1.9088012E-23
   6.330000       -1.9724718E-23
   6.340000       -2.0372634E-23
   6.350000       -2.1031311E-23
   6.360000       -2.1700232E-23
   6.370000       -2.2378821E-23
   6.380000       -2.3066440E-23
   6.390000       -2.3762382E-23
   6.400000       -2.4465871E-23
   6.410000       -2.5176057E-23
   6.420000       -2.5892008E-23
   6.430000       -2.6612712E-23
   6.440000       -2.7337075E-23
   6.450000       -2.8063910E-23
   6.460000       -2.8791924E-23
   6.470000       -2.9519749E-23
   6.480000       -3.0245893E-23
   6.490000       -3.0968767E-23
   6.500000       -3.1686668E-23
   6.510000       -3.2397779E-23
   6.520000       -3.3100156E-23
   6.530000       -3.3791737E-23
   6.540000       -3.4470319E-23
   6.550000       -3.5133558E-23
   6.560000       -3.5778995E-23
   6.570000       -3.6404000E-23
   6.580000       -3.7005800E-23
   6.590000       -3.7581466E-23
   6.600000       -3.8127897E-23
   6.610000       -3.8641837E-23
   6.620000       -3.9119846E-23
   6.630000       -3.9558323E-23
   6.640000       -3.9953457E-23
   6.650000       -4.0301266E-23
   6.660000       -4.0597568E-23
   6.670000       -4.0837975E-23
   6.680000       -4.1017889E-23
   6.690000       -4.1132520E-23
   6.700000       -4.1176832E-23
   6.710000       -4.1145584E-23
   6.720000       -4.1033307E-23
   6.730000       -4.0834287E-23
   6.740000       -4.0542579E-23
   6.750000       -4.0151995E-23
   6.760000       -3.9656072E-23
   6.770000       -3.9048132E-23
   6.780000       -3.8321209E-23
   6.790000       -3.7468078E-23
   6.800000       -3.6481245E-23
   6.810000       -3.5352947E-23
   6.820000       -3.4075147E-23
   6.830000       -3.2639505E-23
   6.840000       -3.1037426E-23
   6.850000       -2.9260006E-23
   6.860000       -2.7298055E-23
   6.870000       -2.5142087E-23
   6.880000       -2.2782325E-23
   6.890000       -2.0208685E-23
   6.900000       -1.7410794E-23
   6.910000       -1.4377963E-23
   6.920000       -1.1099216E-23
   6.930000       -7.5632607E-24
   6.940000       -3.7585132E-24
   6.950000        3.2691283E-25
   6.960000        4.7052066E-24
   6.970000        9.3888545E-24
   6.980000        1.4390636E-23
   6.990000        1.9723616E-23
   7.000000        2.5401162E-23
   7.010000        3.1436915E-23
   7.020000        3.7844788E-23
   7.030000        4.4638975E-23
   7.040000        5.1833914E-23
   7.050000        5.9444317E-23
   7.060000        6.7485132E-23
   7.070000        7.5971559E-23
   7.080000        8.4918989E-23
   7.090000        9.4343069E-23
   7.100000        1.0425956E-22
   7.110000        1.1468451E-22
   7.120000        1.2563409E-22
   7.130000        1.3712459E-22
   7.140000        1.4917247E-22
   7.150000        1.6179427E-22
   7.160000        1.7500671E-22
   7.170000        1.8882645E-22
   7.180000        2.0327028E-22
   7.190000        2.1835498E-22
   7.200000        2.3409734E-22
   7.210000        2.5051408E-22
   7.220000        2.6762188E-22
   7.230000        2.8543729E-22
   7.240000        3.0397681E-22
   7.250000        3.2325659E-22
   7.260000        3.4329280E-22
   7.270000        3.6410126E-22
   7.280000        3.8569745E-22
   7.290000        4.0809655E-22
   7.300000        4.3131340E-22
   7.310000        4.5536242E-22
   7.320000        4.8025761E-22
   7.330000        5.0601224E-22
   7.340000        5.3263914E-22
   7.350000        5.6015062E-22
   7.360000        5.8855804E-22
   7.370000        6.1787221E-22
   7.380000        6.4810298E-22
   7.390000        6.7925927E-22
   7.400000        7.1134953E-22
   7.410000        7.4438056E-22
   7.420000        7.7835838E-22
   7.430000        8.1328783E-22
   7.440000        8.4917259E-22
   7.450000        8.8601444E-22
   7.460000        9.2381474E-22
   7.470000        9.6257247E-22
   7.480000        1.0022855E-21
   7.490000        1.0429499E-21
   7.500000        1.0845597E-21
   7.510000        1.1271079E-21
   7.520000        1.1705848E-21
   7.530000        1.2149787E-21
   7.540000        1.2602757E-21
   7.550000        1.3064600E-21
   7.560000        1.3535133E-21
   7.570000        1.4014148E-21
   7.580000        1.4501409E-21
   7.590000        1.4996653E-21
   7.600000        1.5499596E-21
   7.610000        1.6009911E-21
   7.620000        1.6527256E-21
   7.630000        1.7051242E-21
   7.640000        1.7581457E-21
   7.650000        1.8117451E-21
   7.660000        1.8658735E-21
   7.670000        1.9204793E-21
   7.680000        1.9755060E-21
   7.690000        2.0308938E-21
   7.700000        2.0865782E-21
   7.710000        2.1424911E-21
   7.720000        2.1985596E-21
   7.730000        2.2547065E-21
   7.740000        2.3108496E-21
   7.750000        2.3669024E-21
   7.760000        2.4227726E-21
   7.770000        2.4783642E-21
   7.780000        2.5335742E-21
   7.790000        2.5882962E-21
   7.800000        2.6424161E-21
   7.810000        2.6958170E-21
   7.820000        2.7483728E-21
   7.830000        2.7999549E-21
   7.840000        2.8504248E-21
   7.850000        2.8996419E-21
   7.860000        2.9474564E-21
   7.870000        2.9937130E-21
   7.880000        3.0382501E-21
   7.890000        3.0808986E-21
   7.900000        3.1214834E-21
   7.910000        3.1598213E-21
   7.920000        3.1957230E-21
   7.930000        3.2289914E-21
   7.940000        3.2594228E-21
   7.950000        3.2868056E-21
   7.960000        3.3109207E-21
   7.970000        3.3315414E-21
   7.980000        3.3484330E-21
   7.990000        3.3613536E-21
   8.000000        3.3700540E-21
   8.010000        3.3742755E-21
   8.020000        3.3737525E-21
   8.030000        3.3682110E-21
   8.040000        3.3573688E-21
   8.050000        3.3409367E-21
   8.060000        3.3186165E-21
   8.070000        3.2901010E-21
   8.080000        3.2550769E-21
   8.090000        3.2132217E-21
   8.100000        3.1642045E-21
   8.110000        3.1076869E-21
   8.120000        3.0433219E-21
   8.130000        2.9707556E-21
   8.140000        2.8896252E-21
   8.150000        2.7995615E-21
   8.160000        2.7001855E-21
   8.170000        2.5911128E-21
   8.180000        2.4719509E-21
   8.190000        2.3422992E-21
   8.200000        2.2017514E-21
   8.210000        2.0498939E-21
   8.220000        1.8863064E-21
   8.230000        1.7105623E-21
   8.240000        1.5222284E-21
   8.250000        1.3208670E-21
   8.260000        1.1060333E-21
   8.270000        8.7727835E-22
   8.280000        6.3414794E-22
   8.290000        3.7618381E-22
   8.300000        1.0292291E-22
   8.310000       -1.8610078E-22
   8.320000       -4.9135664E-22
   8.330000       -8.1331665E-22
   8.340000       -1.1524552E-21
   8.350000       -1.5092478E-21
   8.360000       -1.8841716E-21
   8.370000       -2.2777038E-21
   8.380000       -2.6903213E-21
   8.390000       -3.1225016E-21
   8.400000       -3.5747176E-21
   8.410000       -4.0474432E-21
   8.420000       -4.5411472E-21
   8.430000       -5.0562958E-21
   8.440000       -5.5933493E-21
   8.450000       -6.1527629E-21
   8.460000       -6.7349865E-21
   8.470000       -7.3404621E-21
   8.480000       -7.9696227E-21
   8.490000       -8.6228886E-21
   8.500000       -9.3006783E-21
   8.510000       -1.0003392E-20
   8.520000       -1.0731420E-20
   8.530000       -1.1485133E-20
   8.540000       -1.2264895E-20
   8.550000       -1.3071052E-20
   8.560000       -1.3903927E-20
   8.570000       -1.4763828E-20
   8.580000       -1.5651049E-20
   8.590000       -1.6565846E-20
   8.600000       -1.7508467E-20
   8.610000       -1.8479128E-20
   8.620000       -1.9478019E-20
   8.630000       -2.0505311E-20
   8.640000       -2.1561136E-20
   8.650000       -2.2645596E-20
   8.660000       -2.3758763E-20
   8.670000       -2.4900675E-20
   8.680000       -2.6071329E-20
   8.690000       -2.7270694E-20
   8.700000       -2.8498686E-20
   8.710000       -2.9755189E-20
   8.720000       -3.1040036E-20
   8.730000       -3.2353031E-20
   8.740000       -3.3693907E-20
   8.750000       -3.5062364E-20
   8.760000       -3.6458040E-20
   8.770000       -3.7880529E-20
   8.780000       -3.9329359E-20
   8.790000       -4.0804005E-20
   8.800000       -4.2303887E-20
   8.810000       -4.3828365E-20
   8.820000       -4.5376708E-20
   8.830000       -4.6948141E-20
   8.840000       -4.8541821E-20
   8.850000       -5.0156833E-20
   8.860000       -5.1792176E-20
   8.870000       -5.3446776E-20
   8.880000       -5.5119484E-20
   8.890000       -5.6809071E-20
   8.900000       -5.8514233E-20
   8.910000       -6.0233560E-20
   8.920000       -6.1965573E-20
   8.930000       -6.3708688E-20
   8.940000       -6.5461232E-20
   8.950000       -6.7221440E-20
   8.960000       -6.8987445E-20
   8.970000       -7.0757307E-20
   8.980000       -7.2528928E-20