 -0.1000000        2.7103906E-38
 -9.0000004E-02    8.1312563E-38
 -7.9999998E-02    1.3552095E-37
 -7.0000000E-02    1.8973160E-37
 -5.9999999E-02    2.4394221E-37
 -5.0000001E-02    2.9815286E-37
 -3.9999999E-02    3.5236235E-37
 -2.9999999E-02    4.0657188E-37
 -2.0000000E-02    4.6078478E-37
 -9.9999998E-03    5.1498409E-37
  0.0000000E+00    5.6919246E-37
  9.9999998E-03    6.2339634E-37
  2.0000000E-02    6.7760023E-37
  2.9999999E-02    7.3179958E-37
  3.9999999E-02    7.8600790E-37
  5.0000001E-02    8.4021632E-37
  5.9999999E-02    8.9441558E-37
  7.0000000E-02    9.4862399E-37
  7.9999998E-02    1.0028143E-36
  9.0000004E-02    1.0570136E-36
  0.1000000        1.1112039E-36
  0.1100000        1.1653942E-36
  0.1200000        1.2195845E-36
  0.1300000        1.2737747E-36
  0.1400000        1.3279741E-36
  0.1500000        1.3821644E-36
  0.1600000        1.4363548E-36
  0.1700000        1.4905451E-36
  0.1800000        1.5447444E-36
  0.1900000        1.5989256E-36
  0.2000000        1.6531248E-36
  0.2100000        1.7073243E-36
  0.2200000        1.7615056E-36
  0.2300000        1.8157047E-36
  0.2400000        1.8698860E-36
  0.2500000        1.9241036E-36
  0.2600000        1.9782847E-36
  0.2700000        2.0324842E-36
  0.2800000        2.0866835E-36
  0.2900000        2.1408646E-36
  0.3000000        2.1950640E-36
  0.3100000        2.2492454E-36
  0.3200000        2.3034446E-36
  0.3300000        2.3576441E-36
  0.3400000        2.4118254E-36
  0.3500000        2.4660245E-36
  0.3600000        2.5202058E-36
  0.3700000        2.5744051E-36
  0.3800000        2.6286045E-36
  0.3900000        2.6827855E-36
  0.4000000        2.7369851E-36
  0.4100000        2.7911752E-36
  0.4200000        2.8453655E-36
  0.4300000        2.8995740E-36
  0.4400000        2.9537822E-36
  0.4500000        3.0079547E-36
  0.4600000        3.0621448E-36
  0.4700000        3.1163622E-36
  0.4800000        3.1705437E-36
  0.4900000        3.2247249E-36
  0.5000000        3.2789060E-36
  0.5100000        3.3331234E-36
  0.5200000        3.3873049E-36
  0.5300000        3.4414857E-36
  0.5400000        3.4957035E-36
  0.5500000        3.5498846E-36
  0.5600000        3.6040658E-36
  0.5700000        3.6582835E-36
  0.5800000        3.7124646E-36
  0.5900000        3.7666458E-36
  0.6000000        3.8208273E-36
  0.6100000        3.8750809E-36
  0.6200000        3.9293345E-36
  0.6300000        3.9835519E-36
  0.6400000        4.0378055E-36
  0.6500000        4.0920591E-36
  0.6600000        4.1462765E-36
  0.6700000        4.2004935E-36
  0.6800000        4.2547837E-36
  0.6900000        4.3090008E-36
  0.7000000        4.3632181E-36
  0.7100000        4.4175080E-36
  0.7200000        4.4717254E-36
  0.7300000        4.5259427E-36
  0.7400000        4.5802326E-36
  0.7500000        4.6344503E-36
  0.7600000        4.6886674E-36
  0.7700000        4.7429210E-36
  0.7800000        4.7971746E-36
  0.7900000        4.8514282E-36
  0.8000000        4.9056459E-36
  0.8100000        4.9598995E-36
  0.8200000        5.0141532E-36
  0.8300000        5.0683702E-36
  0.8400000        5.1226238E-36
  0.8500000        5.1768774E-36
  0.8600000        5.2310951E-36
  0.8700000        5.2853122E-36
  0.8800000        5.3396024E-36
  0.8900000        5.3938194E-36
  0.9000000        5.4480371E-36
  0.9100000        5.5023266E-36
  0.9200000        5.5565444E-36
  0.9300000        5.6107614E-36
  0.9400000        5.6650516E-36
  0.9500000        5.7192686E-36
  0.9600000        5.7735222E-36
  0.9700000        5.8277034E-36
  0.9800000        5.8819570E-36
  0.9900000        5.9362831E-36
   1.000000        5.9904642E-36
   1.010000        6.0447178E-36
   1.020000        6.0989718E-36
   1.030000        6.1531526E-36
   1.040000        6.2074066E-36
   1.050000        6.2616598E-36
   1.060000        6.3159138E-36
   1.070000        6.3701670E-36
   1.080000        6.4244210E-36
   1.090000        6.4786018E-36
   1.100000        6.5328558E-36
   1.110000        6.5871090E-36
   1.120000        6.6413630E-36
   1.130000        6.6956163E-36
   1.140000        6.7498702E-36
   1.150000        6.8041235E-36
   1.160000        6.8583050E-36
   1.170000        6.9125582E-36
   1.180000        6.9668122E-36
   1.190000        7.0210655E-36
   1.200000        7.0753194E-36
   1.210000        7.1295727E-36
   1.220000        7.1837542E-36
   1.230000        7.2380075E-36
   1.240000        7.2922614E-36
   1.250000        7.3464422E-36
   1.260000        7.4007687E-36
   1.270000        7.4550219E-36
   1.280000        7.5092034E-36
   1.290000        7.5634567E-36
   1.300000        7.6177106E-36
   1.310000        7.6718914E-36
   1.320000        7.7260729E-36
   1.330000        7.7801813E-36
   1.340000        7.8343628E-36
   1.350000        7.8885443E-36
   1.360000        7.9426533E-36
   1.370000        7.9968341E-36
   1.380000        8.0509432E-36
   1.390000        8.1050522E-36
   1.400000        8.1592337E-36
   1.410000        8.2133428E-36
   1.420000        8.2675235E-36
   1.430000        8.3217051E-36
   1.440000        8.3758134E-36
   1.450000        8.4299224E-36
   1.460000        8.4841039E-36
   1.470000        8.5382130E-36
   1.480000        8.5923938E-36
   1.490000        8.6465753E-36
   1.500000        8.7006843E-36
   1.510000        8.7547934E-36
   1.520000        8.8089749E-36
   1.530000        8.8630832E-36
   1.540000        8.9171922E-36
   1.550000        8.9714455E-36
   1.560000        9.0255545E-36
   1.570000        9.0796636E-36
   1.580000        9.1338451E-36
   1.590000        9.1879541E-36
   1.600000        9.2420632E-36
   1.610000        9.2962440E-36
   1.620000        9.3504255E-36
   1.630000        9.4045345E-36
   1.640000        9.4587153E-36
   1.650000        9.5128244E-36
   1.660000        9.5669334E-36
   1.670000        9.6211142E-36
   1.680000        9.6752957E-36
   1.690000        9.7294765E-36
   1.700000        9.7835855E-36
   1.710000        9.8376946E-36
   1.720000        9.8918761E-36
   1.730000        9.9459851E-36
   1.740000        1.0000094E-35
   1.750000        1.0054348E-35
   1.760000        1.0108457E-35
   1.770000        1.0162565E-35
   1.780000        1.0216746E-35
   1.790000        1.0270855E-35
   1.800000        1.0324964E-35
   1.810000        1.0379145E-35
   1.820000        1.0433327E-35
   1.830000        1.0487436E-35
   1.840000        1.0541617E-35
   1.850000        1.0595726E-35
   1.860000        1.0649835E-35
   1.870000        1.0704015E-35
   1.880000        1.0758124E-35
   1.890000        1.0812307E-35
   1.900000        1.0866487E-35
   1.910000        1.0920597E-35
   1.920000        1.0974705E-35
   1.930000        1.1028887E-35
   1.940000        1.1082996E-35
   1.950000        1.1137177E-35
   1.960000        1.1191358E-35
   1.970000        1.1245467E-35
   1.980000        1.1299576E-35
   1.990000        1.1353757E-35
   2.000000        1.1407866E-35
   2.010000        1.1462047E-35
   2.020000        1.1516156E-35
   2.030000        1.1570338E-35
   2.040000        1.1624447E-35
   2.050000        1.1678555E-35
   2.060000        1.1732808E-35
   2.070000        1.1786917E-35
   2.080000        1.1841026E-35
   2.090000        1.1895135E-35
   2.100000        1.1949389E-35
   2.110000        1.2003354E-35
   2.120000        1.2057607E-35
   2.130000        1.2111861E-35
   2.140000        1.2165824E-35
   2.150000        1.2220079E-35
   2.160000        1.2274187E-35
   2.170000        1.2328297E-35
   2.180000        1.2382405E-35
   2.190000        1.2436658E-35
   2.200000        1.2490768E-35
   2.210000        1.2544877E-35
   2.220000        1.2599130E-35
   2.230000        1.2653095E-35
   2.240000        1.2707493E-35
   2.250000        1.2761746E-35
   2.260000        1.2816001E-35
   2.270000        1.2870109E-35
   2.280000        1.2924362E-35
   2.290000        1.2978617E-35
   2.300000        1.3032724E-35
   2.310000        1.3086977E-35
   2.320000        1.3141087E-35
   2.330000        1.3195195E-35
   2.340000        1.3204600E-35
   2.350000        1.3216030E-35
   2.360000        1.3245543E-35
   2.370000        1.3266593E-35
   2.380000        1.3359693E-35
   2.390000        1.3513846E-35
   2.400000        1.3666044E-35
   2.410000        1.3760880E-35
   2.420000        1.3896081E-35
   2.430000        1.4066292E-35
   2.440000        1.4218201E-35
   2.450000        1.4404400E-35
   2.460000        1.4594216E-35
   2.470000        1.4853909E-35
   2.480000        1.5273398E-35
   2.490000        1.5711695E-35
   2.500000        1.6139503E-35
   2.510000        1.6598053E-35
   2.520000        1.7137551E-35
   2.530000        1.7906144E-35
   2.540000        1.8743242E-35
   2.550000        1.9693762E-35
   2.560000        2.0890092E-35
   2.570000        2.2256921E-35
   2.580000        2.3793817E-35
   2.590000        2.5598869E-35
   2.600000        2.7760984E-35
   2.610000        3.0317050E-35
   2.620000        3.3204716E-35
   2.630000        3.6475555E-35
   2.640000        4.0390497E-35
   2.650000        4.4955358E-35
   2.660000        5.0236766E-35
   2.670000        5.6303252E-35
   2.680000        6.3152188E-35
   2.690000        7.1145407E-35
   2.700000        8.0420740E-35
   2.710000        9.1042950E-35
   2.720000        1.0316848E-34
   2.730000        1.1684651E-34
   2.740000        1.3263555E-34
   2.750000        1.5127881E-34
   2.760000        1.7250120E-34
   2.770000        1.9678570E-34
   2.780000        2.2541512E-34
   2.790000        2.5798891E-34
   2.800000        2.9584966E-34
   2.810000        3.3604739E-34
   2.820000        3.7443658E-34
   2.830000        4.1616265E-34
   2.840000        4.6994331E-34
   2.850000        5.3587908E-34
   2.860000        6.0900310E-34
   2.870000        6.8987711E-34
   2.880000        7.7489405E-34
   2.890000        8.6693360E-34
   2.900000        9.7753513E-34
   2.910000        1.1062119E-33
   2.920000        1.2532302E-33
   2.930000        1.4210435E-33
   2.940000        1.6028714E-33
   2.950000        1.8053951E-33
   2.960000        2.0329604E-33
   2.970000        2.2907086E-33
   2.980000        2.5785749E-33
   2.990000        2.8906427E-33
   3.000000        3.2427870E-33
   3.010000        3.6463831E-33
   3.020000        4.1015665E-33
   3.030000        4.6121303E-33
   3.040000        5.1843536E-33
   3.050000        5.8221978E-33
   3.060000        6.5312273E-33
   3.070000        7.3211823E-33
   3.080000        8.1994897E-33
   3.090000        9.1753674E-33
   3.100000        1.0255393E-32
   3.110000        1.1451210E-32
   3.120000        1.2777231E-32
   3.130000        1.4242160E-32
   3.140000        1.5857266E-32
   3.150000        1.7631362E-32
   3.160000        1.9580042E-32
   3.170000        2.1716750E-32
   3.180000        2.4060996E-32
   3.190000        2.6635150E-32
   3.200000        2.9461341E-32
   3.210000        3.2566701E-32
   3.220000        3.5969968E-32
   3.230000        3.9698307E-32
   3.240000        4.3776465E-32
   3.250000        4.8231547E-32
   3.260000        5.3097003E-32
   3.270000        5.8398348E-32
   3.280000        6.4170877E-32
   3.290000        7.0451450E-32
   3.300000        7.7283276E-32
   3.310000        8.4713511E-32
   3.320000        9.2780864E-32
   3.330000        1.0154092E-31
   3.340000        1.1104724E-31
   3.350000        1.2134619E-31
   3.360000        1.3250317E-31
   3.370000        1.4458156E-31
   3.380000        1.5764487E-31
   3.390000        1.7176127E-31
   3.400000        1.8700469E-31
   3.410000        2.0345790E-31
   3.420000        2.2120314E-31
   3.430000        2.4033149E-31
   3.440000        2.6092561E-31
   3.450000        2.8307970E-31
   3.460000        3.0689503E-31
   3.470000        3.3249079E-31
   3.480000        3.5998534E-31
   3.490000        3.8948350E-31
   3.500000        4.2111986E-31
   3.510000        4.5502766E-31
   3.520000        4.9134150E-31
   3.530000        5.3020264E-31
   3.540000        5.7176120E-31
   3.550000        6.1616550E-31
   3.560000        6.6358777E-31
   3.570000        7.1419651E-31
   3.580000        7.6817347E-31
   3.590000        8.2569394E-31
   3.600000        8.8694801E-31
   3.610000        9.5213782E-31
   3.620000        1.0214719E-30
   3.630000        1.0951620E-30
   3.640000        1.1734165E-30
   3.650000        1.2564685E-30
   3.660000        1.3445451E-30
   3.670000        1.4378929E-30
   3.680000        1.5367512E-30
   3.690000        1.6413808E-30
   3.700000        1.7520299E-30
   3.710000        1.8689640E-30
   3.720000        1.9924358E-30
   3.730000        2.1227376E-30
   3.740000        2.2601459E-30
   3.750000        2.4049309E-30
   3.760000        2.5573861E-30
   3.770000        2.7177943E-30
   3.780000        2.8864288E-30
   3.790000        3.0635800E-30
   3.800000        3.2495298E-30
   3.810000        3.4445893E-30
   3.820000        3.6490640E-30
   3.830000        3.8631883E-30
   3.840000        4.0872480E-30
   3.850000        4.3215073E-30
   3.860000        4.5662249E-30
   3.870000        4.8216544E-30
   3.880000        5.0880395E-30
   3.890000        5.3656055E-30
   3.900000        5.6545356E-30
   3.910000        5.9550469E-30
   3.920000        6.2673059E-30
   3.930000        6.5914591E-30
   3.940000        6.9276069E-30
   3.950000        7.2758443E-30
   3.960000        7.6362588E-30
   3.970000        8.0088307E-30
   3.980000        8.3935849E-30
   3.990000        8.7904002E-30
   4.000000        9.1992285E-30
   4.010000        9.6198944E-30
   4.020000        1.0052151E-29
   4.030000        1.0495761E-29
   4.040000        1.0950381E-29
   4.050000        1.1415571E-29
   4.060000        1.1890846E-29
   4.070000        1.2375659E-29
   4.080000        1.2869338E-29
   4.090000        1.3371109E-29
   4.100000        1.3880112E-29
   4.110000        1.4395323E-29
   4.120000        1.4915711E-29
   4.130000        1.5440057E-29
   4.140000        1.5966925E-29
   4.150000        1.6494865E-29
   4.160000        1.7022216E-29
   4.170000        1.7547151E-29
   4.180000        1.8067579E-29
   4.190000        1.8581383E-29
   4.200000        1.9086160E-29
   4.210000        1.9579291E-29
   4.220000        2.0057948E-29
   4.230000        2.0518967E-29
   4.240000        2.0959143E-29
   4.250000        2.1374786E-29
   4.260000        2.1762029E-29
   4.270000        2.2116561E-29
   4.280000        2.2434019E-29
   4.290000        2.2709335E-29
   4.300000        2.2937365E-29
   4.310000        2.3112452E-29
   4.320000        2.3228506E-29
   4.330000        2.3279079E-29
   4.340000        2.3257194E-29
   4.350000        2.3155373E-29
   4.360000        2.2965725E-29
   4.370000        2.2679695E-29
   4.380000        2.2288205E-29
   4.390000        2.1781494E-29
   4.400000        2.1149221E-29
   4.410000        2.0380224E-29
   4.420000        1.9462794E-29
   4.430000        1.8384282E-29
   4.440000        1.7131306E-29
   4.450000        1.5689534E-29
   4.460000        1.4043822E-29
   4.470000        1.2177882E-29
   4.480000        1.0074444E-29
   4.490000        7.7151821E-30
   4.500000        5.0805870E-30
   4.510000        2.1499258E-30
   4.520000       -1.0989013E-30
   4.530000       -4.6892949E-30
   4.540000       -8.6463715E-30
   4.550000       -1.2996494E-29
   4.560000       -1.7767898E-29
   4.570000       -2.2990555E-29
   4.580000       -2.8696239E-29
   4.590000       -3.4918780E-29
   4.600000       -4.1693940E-29
   4.610000       -4.9060098E-29
   4.620000       -5.7057552E-29
   4.630000       -6.5729564E-29
   4.640000       -7.5121253E-29
   4.650000       -8.5281484E-29
   4.660000       -9.6261289E-29
   4.670000       -1.0811598E-28
   4.680000       -1.2090303E-28
   4.690000       -1.3468451E-28
   4.700000       -1.4952502E-28
   4.710000       -1.6549423E-28
   4.720000       -1.8266471E-28
   4.730000       -2.0111555E-28
   4.740000       -2.2093053E-28
   4.750000       -2.4219549E-28
   4.760000       -2.6500570E-28
   4.770000       -2.8945887E-28
   4.780000       -3.1565893E-28
   4.790000       -3.4371824E-28
   4.800000       -3.7375413E-28
   4.810000       -4.0589354E-28
   4.820000       -4.4026691E-28
   4.830000       -4.7701572E-28
   4.840000       -5.1628943E-28
   4.850000       -5.5824745E-28
   4.860000       -6.0305142E-28
   4.870000       -6.5087972E-28
   4.880000       -7.0192390E-28
   4.890000       -7.5637687E-28
   4.900000       -8.1445555E-28
   4.910000       -8.7637844E-28
   4.920000       -9.4238179E-28
   4.930000       -1.0127209E-27
   4.940000       -1.0876487E-27
   4.950000       -1.1674547E-27
   4.960000       -1.2524302E-27
   4.970000       -1.3428854E-27
   4.980000       -1.4391517E-27
   4.990000       -1.5415788E-27
   5.000000       -1.6505362E-27
   5.010000       -1.7664121E-27
   5.020000       -1.8896133E-27
   5.030000       -2.0205763E-27
   5.040000       -2.1597594E-27
   5.050000       -2.3076441E-27
   5.060000       -2.4647414E-27
   5.070000       -2.6315830E-27
   5.080000       -2.8087541E-27
   5.090000       -2.9968294E-27
   5.100000       -3.1964428E-27
   5.110000       -3.4082651E-27
   5.120000       -3.6329864E-27
   5.130000       -3.8713291E-27
   5.140000       -4.1240824E-27
   5.150000       -4.3920455E-27
   5.160000       -4.6760689E-27
   5.170000       -4.9770741E-27
   5.180000       -5.2959684E-27
   5.190000       -5.6337634E-27
   5.200000       -5.9914741E-27
   5.210000       -6.3702124E-27
   5.220000       -6.7711167E-27
   5.230000       -7.1953975E-27
   5.240000       -7.6443056E-27
   5.250000       -8.1191221E-27
   5.260000       -8.6212305E-27
   5.270000       -9.1521031E-27
   5.280000       -9.7132181E-27
   5.290000       -1.0306185E-26
   5.300000       -1.0932613E-26
   5.310000       -1.1594217E-26
   5.320000       -1.2292833E-26
   5.330000       -1.3030343E-26
   5.340000       -1.3808708E-26
   5.350000       -1.4629900E-26
   5.360000       -1.5496142E-26
   5.370000       -1.6409579E-26
   5.380000       -1.7372572E-26
   5.390000       -1.8387519E-26
   5.400000       -1.9456874E-26
   5.410000       -2.0583378E-26
   5.420000       -2.1769601E-26
   5.430000       -2.3018331E-26
   5.440000       -2.4332754E-26
   5.450000       -2.5715673E-26
   5.460000       -2.7170185E-26
   5.470000       -2.8699589E-26
   5.480000       -3.0307290E-26
   5.490000       -3.1996861E-26
   5.500000       -3.3771832E-26
   5.510000       -3.5635895E-26
   5.520000       -3.7592969E-26
   5.530000       -3.9646861E-26
   5.540000       -4.1801983E-26
   5.550000       -4.4062482E-26
   5.560000       -4.6432815E-26
   5.570000       -4.8917089E-26
   5.580000       -5.1520222E-26
   5.590000       -5.4247185E-26
   5.600000       -5.7102541E-26
   5.610000       -6.0091184E-26
   5.620000       -6.3218900E-26
   5.630000       -6.6490577E-26
   5.640000       -6.9911510E-26
   5.650000       -7.3487626E-26
   5.660000       -7.7224484E-26
   5.670000       -8.1127879E-26
   5.680000       -8.5203739E-26
   5.690000       -8.9458441E-26
   5.700000       -9.3897232E-26
   5.710000       -9.8526397E-26
   5.720000       -1.0335254E-25
   5.730000       -1.0838268E-25
   5.740000       -1.1362289E-25
   5.750000       -1.1907934E-25
   5.760000       -1.2475938E-25
   5.770000       -1.3066978E-25
   5.780000       -1.3681732E-25
   5.790000       -1.4320844E-25
   5.800000       -1.4985045E-25
   5.810000       -1.5675003E-25
   5.820000       -1.6391360E-25
   5.830000       -1.7134855E-25
   5.840000       -1.7906128E-25
   5.850000       -1.8705874E-25
   5.860000       -1.9534797E-25
   5.870000       -2.0393463E-25
   5.880000       -2.1282659E-25
   5.890000       -2.2202968E-25
   5.900000       -2.3154953E-25
   5.910000       -2.4139250E-25
   5.920000       -2.5156464E-25
   5.930000       -2.6207172E-25
   5.940000       -2.7291991E-25
   5.950000       -2.8411252E-25
   5.960000       -2.9565494E-25
   5.970000       -3.0755157E-25
   5.980000       -3.1980626E-25
   5.990000       -3.3242197E-25
   6.000000       -3.4540119E-25
   6.010000       -3.5874640E-25
   6.020000       -3.7245967E-25
   6.030000       -3.8654372E-25
   6.040000       -4.0099747E-25
   6.050000       -4.1582076E-25
   6.060000       -4.3101195E-25
   6.070000       -4.4656957E-25
   6.080000       -4.6249199E-25
   6.090000       -4.7877492E-25
   6.100000       -4.9541116E-25
   6.110000       -5.1239652E-25
   6.120000       -5.2972463E-25
   6.130000       -5.4738398E-25
   6.140000       -5.6536729E-25
   6.150000       -5.8366073E-25
   6.160000       -6.0225364E-25
   6.170000       -6.2112960E-25
   6.180000       -6.4027585E-25
   6.190000       -6.5967127E-25
   6.200000       -6.7929601E-25
   6.210000       -6.9912980E-25
   6.220000       -7.1914823E-25
   6.230000       -7.3932438E-25
   6.240000       -7.5962799E-25
   6.250000       -7.8003409E-25
   6.260000       -8.0050301E-25
   6.270000       -8.2100319E-25
   6.280000       -8.4149163E-25
   6.290000       -8.6192826E-25
   6.300000       -8.8226943E-25
   6.310000       -9.0246368E-25
   6.320000       -9.2246426E-25
   6.330000       -9.4221665E-25
   6.340000       -9.6165842E-25
   6.350000       -9.8072854E-25
   6.360000       -9.9936499E-25
   6.370000       -1.0174969E-24
   6.380000       -1.0350434E-24
   6.390000       -1.0519299E-24
   6.400000       -1.0680759E-24
   6.410000       -1.0833929E-24
   6.420000       -1.0977841E-24
   6.430000       -1.1111593E-24
   6.440000       -1.1234092E-24
   6.450000       -1.1344306E-24
   6.460000       -1.1441098E-24
   6.470000       -1.1523300E-24
   6.480000       -1.1589645E-24
   6.490000       -1.1638803E-24
   6.500000       -1.1669424E-24
   6.510000       -1.1680075E-24
   6.520000       -1.1669306E-24
   6.530000       -1.1635497E-24
   6.540000       -1.1577055E-24
   6.550000       -1.1492257E-24
   6.560000       -1.1379364E-24
   6.570000       -1.1236478E-24
   6.580000       -1.1061727E-24
   6.590000       -1.0853142E-24
   6.600000       -1.0608604E-24
   6.610000       -1.0325988E-24
   6.620000       -1.0003083E-24
   6.630000       -9.6375620E-25
   6.640000       -9.2270319E-25
   6.650000       -8.7690222E-25
   6.660000       -8.2609233E-25
   6.670000       -7.7001684E-25
   6.680000       -7.0839621E-25
   6.690000       -6.4095042E-25
   6.700000       -5.6738929E-25
   6.710000       -4.8741211E-25
   6.720000       -4.0070789E-25
   6.730000       -3.0696096E-25
   6.740000       -2.0584345E-25
   6.750000       -9.7018619E-26
   6.760000        1.9858324E-26
   6.770000        1.4514249E-25
   6.780000        2.7919801E-25
   6.790000        4.2239715E-25
   6.800000        5.7512111E-25
   6.810000        7.3775790E-25
   6.820000        9.1070836E-25
   6.830000        1.0943839E-24
   6.840000        1.2891945E-24
   6.850000        1.4955603E-24
   6.860000        1.7139230E-24
   6.870000        1.9447196E-24
   6.880000        2.1883986E-24
   6.890000        2.4454112E-24
   6.900000        2.7162284E-24
   6.910000        3.0012988E-24
   6.920000        3.3011208E-24
   6.930000        3.6161577E-24
   6.940000        3.9469046E-24
   6.950000        4.2938358E-24
   6.960000        4.6574671E-24
   6.970000        5.0382862E-24
   6.980000        5.4367943E-24
   6.990000        5.8534662E-24
   7.000000        6.2888350E-24
   7.010000        6.7434213E-24
   7.020000        7.2177184E-24
   7.030000        7.7122269E-24
   7.040000        8.2274501E-24
   7.050000        8.7638605E-24
   7.060000        9.3219882E-24
   7.070000        9.9023217E-24
   7.080000        1.0505403E-23
   7.090000        1.1131575E-23
   7.100000        1.1781414E-23
   7.110000        1.2455342E-23
   7.120000        1.3153858E-23
   7.130000        1.3877318E-23
   7.140000        1.4626150E-23
   7.150000        1.5400812E-23
   7.160000        1.6201715E-23
   7.170000        1.7029224E-23
   7.180000        1.7883636E-23
   7.190000        1.8765319E-23
   7.200000        1.9674532E-23
   7.210000        2.0611651E-23
   7.220000        2.1576849E-23
   7.230000        2.2570320E-23
   7.240000        2.3592286E-23
   7.250000        2.4642926E-23
   7.260000        2.5722328E-23
   7.270000        2.6830639E-23
   7.280000        2.7967694E-23
   7.290000        2.9133602E-23
   7.300000        3.0328389E-23
   7.310000        3.1551751E-23
   7.320000        3.2803638E-23
   7.330000        3.4083840E-23
   7.340000        3.5392039E-23
   7.350000        3.6727953E-23
   7.360000        3.8091174E-23
   7.370000        3.9481172E-23
   7.380000        4.0897361E-23
   7.390000        4.2339140E-23
   7.400000        4.3805740E-23
   7.410000        4.5296434E-23
   7.420000        4.6810416E-23
   7.430000        4.8346723E-23
   7.440000        4.9904347E-23
   7.450000        5.1481937E-23
   7.460000        5.3078355E-23
   7.470000        5.4692112E-23
   7.480000        5.6321740E-23
   7.490000        5.7965796E-23
   7.500000        5.9622707E-23
   7.510000        6.1290346E-23
   7.520000        6.2966903E-23
   7.530000        6.4649859E-23
   7.540000        6.6337421E-23
   7.550000        6.8027458E-23
   7.560000        6.9717053E-23
   7.570000        7.1403587E-23
   7.580000        7.3084435E-23
   7.590000        7.4756492E-23
   7.600000        7.6416861E-23
   7.610000        7.8061876E-23
   7.620000        7.9688116E-23
   7.630000        8.1292375E-23
   7.640000        8.2870223E-23
   7.650000        8.4418157E-23
   7.660000        8.5931704E-23
   7.670000        8.7406867E-23
   7.680000        8.8838644E-23
   7.690000        9.0222186E-23
   7.700000        9.1552597E-23
   7.710000        9.2824941E-23
   7.720000        9.4033621E-23
   7.730000        9.5173102E-23
   7.740000        9.6237496E-23
   7.750000        9.7220171E-23
   7.760000        9.8115124E-23
   7.770000        9.8916014E-23
   7.780000        9.9616017E-23
   7.790000        1.0020801E-22
   7.800000        1.0068519E-22
   7.810000        1.0103948E-22
   7.820000        1.0126298E-22
   7.830000        1.0134856E-22
   7.840000        1.0128756E-22
   7.850000        1.0107070E-22
   7.860000        1.0069012E-22
   7.870000        1.0013607E-22
   7.880000        9.9400235E-23
   7.890000        9.8472516E-23
   7.900000        9.7342855E-23
   7.910000        9.6001791E-23
   7.920000        9.4438622E-23
   7.930000        9.2643042E-23
   7.940000        9.0604247E-23
   7.950000        8.8311041E-23
   7.960000        8.5751951E-23
   7.970000        8.2915800E-23
   7.980000        7.9790643E-23
   7.990000        7.6364285E-23
   8.000000        7.2624472E-23
   8.010000        6.8558803E-23
   8.020000        6.4154542E-23
   8.030000        5.9398613E-23
   8.040000        5.4278168E-23
   8.050000        4.8779602E-23
   8.060000        4.2889320E-23
   8.070000        3.6593718E-23
   8.080000        2.9878719E-23
   8.090000        2.2730347E-23
   8.100000        1.5134304E-23
   8.110000        7.0761920E-24
   8.120000       -1.4585088E-24
   8.130000       -1.0484408E-23
   8.140000       -2.0016262E-23
   8.150000       -3.0068973E-23
   8.160000       -4.0657282E-23
   8.170000       -5.1796282E-23
   8.180000       -6.3500791E-23
   8.190000       -7.5786139E-23
   8.200000       -8.8667006E-23
   8.210000       -1.0215848E-22
   8.220000       -1.1627543E-22
   8.230000       -1.3103298E-22
   8.240000       -1.4644550E-22
   8.250000       -1.6252756E-22
   8.260000       -1.7929419E-22
   8.270000       -1.9675972E-22
   8.280000       -2.1493741E-22
   8.290000       -2.3384097E-22
   8.300000       -2.5348522E-22
   8.310000       -2.7388301E-22
   8.320000       -2.9504738E-22
   8.330000       -3.1699089E-22
   8.340000       -3.3972579E-22
   8.350000       -3.6326338E-22
   8.360000       -3.8761560E-22
   8.370000       -4.1279274E-22
   8.380000       -4.3880437E-22
   8.390000       -4.6566103E-22
   8.400000       -4.9337062E-22
   8.410000       -5.2194400E-22
   8.420000       -5.5138686E-22
   8.430000       -5.8170305E-22
   8.440000       -6.1290494E-22
   8.450000       -6.4499095E-22
   8.460000       -6.7796998E-22
   8.470000       -7.1183920E-22
   8.480000       -7.4660593E-22
   8.490000       -7.8226886E-22
   8.500000       -8.1882969E-22
   8.510000       -8.5628309E-22
   8.520000       -8.9462956E-22
   8.530000       -9.3386308E-22
   8.540000       -9.7397912E-22
   8.550000       -1.0149704E-21
   8.560000       -1.0568270E-21
   8.570000       -1.0995356E-21
   8.580000       -1.1430918E-21
   8.590000       -1.1874751E-21
   8.600000       -1.2326748E-21
   8.610000       -1.2786712E-21
   8.620000       -1.3254443E-21
   8.630000       -1.3729767E-21
   8.640000       -1.4212464E-21
   8.650000       -1.4702206E-21
   8.660000       -1.5198733E-21
   8.670000       -1.5701747E-21
   8.680000       -1.6210902E-21
   8.690000       -1.6725873E-21
   8.700000       -1.7246324E-21
   8.710000       -1.7771765E-21
   8.720000       -1.8301829E-21
   8.730000       -1.8836005E-21
   8.740000       -1.9373870E-21
   8.750000       -1.9914807E-21
   8.760000       -2.0458265E-21
   8.770000       -2.1003861E-21
   8.780000       -2.1550868E-21
   8.790000       -2.2098627E-21
   8.800000       -2.2646400E-21
   8.810000       -2.3193585E-21
   8.820000       -2.3739385E-21
   8.830000       -2.4282996E-21
   8.840000       -2.4823716E-21
   8.850000       -2.5360570E-21
   8.860000       -2.5892702E-21
   8.870000       -2.6419183E-21
   8.880000       -2.6939009E-21
   8.890000       -2.7451200E-21
   8.900000       -2.7954813E-21
   8.910000       -2.8448650E-21
   8.920000       -2.8931559E-21
   8.930000       -2.9402416E-21
   8.940000       -2.9859950E-21
   8.950000       -3.0302926E-21
   8.960000       -3.0730143E-21
   8.970000       -3.1140145E-21
   8.980000       -3.1531541E-21