 -0.1000000       -8.4193585E-36
 -9.0000004E-02   -2.5258079E-35
 -7.9999998E-02   -4.2096786E-35
 -7.0000000E-02   -5.8935487E-35
 -5.9999999E-02   -7.5774203E-35
 -5.0000001E-02   -9.2612918E-35
 -3.9999999E-02   -1.0945162E-34
 -2.9999999E-02   -1.2629033E-34
 -2.0000000E-02   -1.4312905E-34
 -9.9999998E-03   -1.5996779E-34
  0.0000000E+00   -1.7680655E-34
  9.9999998E-03   -1.9364527E-34
  2.0000000E-02   -2.1048400E-34
  2.9999999E-02   -2.2732275E-34
  3.9999999E-02   -2.4416147E-34
  5.0000001E-02   -2.6100022E-34
  5.9999999E-02   -2.7783888E-34
  7.0000000E-02   -2.9467758E-34
  7.9999998E-02   -3.1151624E-34
  9.0000004E-02   -3.2835497E-34
  0.1000000       -3.4519367E-34
  0.1100000       -3.6203238E-34
  0.1200000       -3.7887113E-34
  0.1300000       -3.9570983E-34
  0.1400000       -4.1254851E-34
  0.1500000       -4.2938724E-34
  0.1600000       -4.4622597E-34
  0.1700000       -4.6306465E-34
  0.1800000       -4.7990337E-34
  0.1900000       -4.9674210E-34
  0.2000000       -5.1358083E-34
  0.2100000       -5.3041956E-34
  0.2200000       -5.4725824E-34
  0.2300000       -5.6409701E-34
  0.2400000       -5.8093569E-34
  0.2500000       -5.9777442E-34
  0.2600000       -6.1461314E-34
  0.2700000       -6.3145192E-34
  0.2800000       -6.4829051E-34
  0.2900000       -6.6512928E-34
  0.3000000       -6.8196801E-34
  0.3100000       -6.9880660E-34
  0.3200000       -7.1564537E-34
  0.3300000       -7.3248410E-34
  0.3400000       -7.4932278E-34
  0.3500000       -7.6616150E-34
  0.3600000       -7.8300018E-34
  0.3700000       -7.9983877E-34
  0.3800000       -8.1667764E-34
  0.3900000       -8.3351632E-34
  0.4000000       -8.5035500E-34
  0.4100000       -8.6719377E-34
  0.4200000       -8.8403246E-34
  0.4300000       -9.0087095E-34
  0.4400000       -9.1770982E-34
  0.4500000       -9.3454859E-34
  0.4600000       -9.5138718E-34
  0.4700000       -9.6822586E-34
  0.4800000       -9.8506463E-34
  0.4900000       -1.0019033E-33
  0.5000000       -1.0187420E-33
  0.5100000       -1.0355807E-33
  0.5200000       -1.0524194E-33
  0.5300000       -1.0692582E-33
  0.5400000       -1.0860968E-33
  0.5500000       -1.1029354E-33
  0.5600000       -1.1197743E-33
  0.5700000       -1.1366130E-33
  0.5800000       -1.1534516E-33
  0.5900000       -1.1702903E-33
  0.6000000       -1.1871291E-33
  0.6100000       -1.2039679E-33
  0.6200000       -1.2208064E-33
  0.6300000       -1.2376449E-33
  0.6400000       -1.2544839E-33
  0.6500000       -1.2713226E-33
  0.6600000       -1.2881613E-33
  0.6700000       -1.3049999E-33
  0.6800000       -1.3218386E-33
  0.6900000       -1.3386776E-33
  0.7000000       -1.3555161E-33
  0.7100000       -1.3723547E-33
  0.7200000       -1.3891936E-33
  0.7300000       -1.4060323E-33
  0.7400000       -1.4228708E-33
  0.7500000       -1.4397097E-33
  0.7600000       -1.4565483E-33
  0.7700000       -1.4733871E-33
  0.7800000       -1.4902258E-33
  0.7900000       -1.5070643E-33
  0.8000000       -1.5239032E-33
  0.8100000       -1.5407421E-33
  0.8200000       -1.5575807E-33
  0.8300000       -1.5744191E-33
  0.8400000       -1.5912581E-33
  0.8500000       -1.6080968E-33
  0.8600000       -1.6249352E-33
  0.8700000       -1.6417742E-33
  0.8800000       -1.6586128E-33
  0.8900000       -1.6754516E-33
  0.9000000       -1.6922903E-33
  0.9100000       -1.7091287E-33
  0.9200000       -1.7259673E-33
  0.9300000       -1.7428065E-33
  0.9400000       -1.7596451E-33
  0.9500000       -1.7764835E-33
  0.9600000       -1.7933226E-33
  0.9700000       -1.8101614E-33
  0.9800000       -1.8269998E-33
  0.9900000       -1.8438386E-33
   1.000000       -1.8606770E-33
   1.010000       -1.8775159E-33
   1.020000       -1.8943547E-33
   1.030000       -1.9111933E-33
   1.040000       -1.9280322E-33
   1.050000       -1.9448708E-33
   1.060000       -1.9617094E-33
   1.070000       -1.9785480E-33
   1.080000       -1.9953868E-33
   1.090000       -2.0122257E-33
   1.100000       -2.0290641E-33
   1.110000       -2.0459029E-33
   1.120000       -2.0627419E-33
   1.130000       -2.0795805E-33
   1.140000       -2.0964192E-33
   1.150000       -2.1132578E-33
   1.160000       -2.1300966E-33
   1.170000       -2.1469359E-33
   1.180000       -2.1637752E-33
   1.190000       -2.1806144E-33
   1.200000       -2.1974533E-33
   1.210000       -2.2142927E-33
   1.220000       -2.2311322E-33
   1.230000       -2.2479711E-33
   1.240000       -2.2648101E-33
   1.250000       -2.2816496E-33
   1.260000       -2.2984889E-33
   1.270000       -2.3153279E-33
   1.280000       -2.3321668E-33
   1.290000       -2.3490062E-33
   1.300000       -2.3658457E-33
   1.310000       -2.3826846E-33
   1.320000       -2.3995236E-33
   1.330000       -2.4163633E-33
   1.340000       -2.4332028E-33
   1.350000       -2.4500414E-33
   1.360000       -2.4668807E-33
   1.370000       -2.4837202E-33
   1.380000       -2.5005592E-33
   1.390000       -2.5173983E-33
   1.400000       -2.5342373E-33
   1.410000       -2.5510766E-33
   1.420000       -2.5679157E-33
   1.430000       -2.5847550E-33
   1.440000       -2.6015940E-33
   1.450000       -2.6184331E-33
   1.460000       -2.6352725E-33
   1.470000       -2.6521116E-33
   1.480000       -2.6689506E-33
   1.490000       -2.6857902E-33
   1.500000       -2.7026298E-33
   1.510000       -2.7194689E-33
   1.520000       -2.7363077E-33
   1.530000       -2.7531472E-33
   1.540000       -2.7699867E-33
   1.550000       -2.7868256E-33
   1.560000       -2.8036646E-33
   1.570000       -2.8205043E-33
   1.580000       -2.8373436E-33
   1.590000       -2.8541826E-33
   1.600000       -2.8710219E-33
   1.610000       -2.8878610E-33
   1.620000       -2.9047005E-33
   1.630000       -2.9215395E-33
   1.640000       -2.9383788E-33
   1.650000       -2.9552183E-33
   1.660000       -2.9720573E-33
   1.670000       -2.9888964E-33
   1.680000       -3.0057357E-33
   1.690000       -3.0225749E-33
   1.700000       -3.0394144E-33
   1.710000       -3.0562537E-33
   1.720000       -3.0730930E-33
   1.730000       -3.0899320E-33
   1.740000       -3.1067717E-33
   1.750000       -3.1236106E-33
   1.760000       -3.1404500E-33
   1.770000       -3.1572893E-33
   1.780000       -3.1741286E-33
   1.790000       -3.1909676E-33
   1.800000       -3.2078065E-33
   1.810000       -3.2246462E-33
   1.820000       -3.2414855E-33
   1.830000       -3.2583245E-33
   1.840000       -3.2751638E-33
   1.850000       -3.2920032E-33
   1.860000       -3.3088428E-33
   1.870000       -3.3256814E-33
   1.880000       -3.3425208E-33
   1.890000       -3.3593604E-33
   1.900000       -3.3761994E-33
   1.910000       -3.3930384E-33
   1.920000       -3.4098777E-33
   1.930000       -3.4267170E-33
   1.940000       -3.4435563E-33
   1.950000       -3.4603953E-33
   1.960000       -3.4772350E-33
   1.970000       -3.4940739E-33
   1.980000       -3.5109136E-33
   1.990000       -3.5277530E-33
   2.000000       -3.5445919E-33
   2.010000       -3.5614309E-33
   2.020000       -3.5782706E-33
   2.030000       -3.5951095E-33
   2.040000       -3.6119485E-33
   2.050000       -3.6287878E-33
   2.060000       -3.6456275E-33
   2.070000       -3.6624668E-33
   2.080000       -3.6793058E-33
   2.090000       -3.6961451E-33
   2.100000       -3.7129848E-33
   2.110000       -3.7298230E-33
   2.120000       -3.7466627E-33
   2.130000       -3.7635020E-33
   2.140000       -3.7803417E-33
   2.150000       -3.7971807E-33
   2.160000       -3.8140196E-33
   2.170000       -3.8308589E-33
   2.180000       -3.8476986E-33
   2.190000       -3.8645372E-33
   2.200000       -3.8813766E-33
   2.210000       -3.8982162E-33
   2.220000       -3.9150556E-33
   2.230000       -3.9318949E-33
   2.240000       -3.9487338E-33
   2.250000       -3.9655728E-33
   2.260000       -3.9824125E-33
   2.270000       -3.9992511E-33
   2.280000       -4.0160908E-33
   2.290000       -4.0329297E-33
   2.300000       -4.0497694E-33
   2.310000       -4.0666091E-33
   2.320000       -4.0834477E-33
   2.330000       -4.1002870E-33
   2.340000       -4.1171264E-33
   2.350000       -4.1339653E-33
   2.360000       -4.1508046E-33
   2.370000       -4.1676440E-33
   2.380000       -4.1844836E-33
   2.390000       -4.2013226E-33
   2.400000       -4.2181619E-33
   2.410000       -4.2350009E-33
   2.420000       -4.2518406E-33
   2.430000       -4.2686788E-33
   2.440000       -4.2855178E-33
   2.450000       -4.3023567E-33
   2.460000       -4.3191949E-33
   2.470000       -4.3360332E-33
   2.480000       -4.3528721E-33
   2.490000       -4.3697103E-33
   2.500000       -4.3865489E-33
   2.510000       -4.4033868E-33
   2.520000       -4.4202257E-33
   2.530000       -4.4370643E-33
   2.540000       -4.4539025E-33
   2.550000       -4.4707404E-33
   2.560000       -4.4875794E-33
   2.570000       -4.5044179E-33
   2.580000       -4.5212562E-33
   2.590000       -4.5380944E-33
   2.600000       -4.5549333E-33
   2.610000       -4.5717719E-33
   2.620000       -4.5886102E-33
   2.630000       -4.6054484E-33
   2.640000       -4.6222873E-33
   2.650000       -4.6391259E-33
   2.660000       -4.6559638E-33
   2.670000       -4.6728020E-33
   2.680000       -4.6896410E-33
   2.690000       -4.7064795E-33
   2.700000       -4.7233178E-33
   2.710000       -4.7401556E-33
   2.720000       -4.7569946E-33
   2.730000       -4.7738328E-33
   2.740000       -4.7906714E-33
   2.750000       -4.8075096E-33
   2.760000       -4.8243482E-33
   2.770000       -4.8411872E-33
   2.780000       -4.8580254E-33
   2.790000       -4.8748632E-33
   2.800000       -4.8917029E-33
   2.810000       -4.9085408E-33
   2.820000       -4.9253790E-33
   2.830000       -4.9422176E-33
   2.840000       -4.9590558E-33
   2.850000       -4.9758948E-33
   2.860000       -4.9927334E-33
   2.870000       -5.0095708E-33
   2.880000       -5.0264098E-33
   2.890000       -5.0432484E-33
   2.900000       -5.0600866E-33
   2.910000       -5.0769245E-33
   2.920000       -5.0937642E-33
   2.930000       -5.1106024E-33
   2.940000       -5.1274402E-33
   2.950000       -5.1442781E-33
   2.960000       -5.1611178E-33
   2.970000       -5.1779560E-33
   2.980000       -5.1947935E-33
   2.990000       -5.2116317E-33
   3.000000       -5.2284696E-33
   3.010000       -5.2453078E-33
   3.020000       -5.2621456E-33
   3.030000       -5.2789835E-33
   3.040000       -5.2958214E-33
   3.050000       -5.3126599E-33
   3.060000       -5.3294978E-33
   3.070000       -5.3463349E-33
   3.080000       -5.3631739E-33
   3.090000       -5.3800117E-33
   3.100000       -5.3968496E-33
   3.110000       -5.4136874E-33
   3.120000       -5.4305257E-33
   3.130000       -5.4473635E-33
   3.140000       -5.4642014E-33
   3.150000       -5.4810392E-33
   3.160000       -5.4978774E-33
   3.170000       -5.5147153E-33
   3.180000       -5.5315532E-33
   3.190000       -5.5483906E-33
   3.200000       -5.5652289E-33
   3.210000       -5.5820675E-33
   3.220000       -5.5989053E-33
   3.230000       -5.6157424E-33
   3.240000       -5.6325806E-33
   3.250000       -5.6494192E-33
   3.260000       -5.6662571E-33
   3.270000       -5.6830942E-33
   3.280000       -5.6999332E-33
   3.290000       -5.7167710E-33
   3.300000       -5.7336081E-33
   3.310000       -5.7504460E-33
   3.320000       -5.7672846E-33
   3.330000       -5.7841228E-33
   3.340000       -5.8009603E-33
   3.350000       -5.8177985E-33
   3.360000       -5.8346364E-33
   3.370000       -5.8514742E-33
   3.380000       -5.8683124E-33
   3.390000       -5.8851499E-33
   3.400000       -5.9019882E-33
   3.410000       -5.9188267E-33
   3.420000       -5.9356646E-33
   3.430000       -5.9525025E-33
   3.440000       -5.9693403E-33
   3.450000       -5.9861785E-33
   3.460000       -6.0030164E-33
   3.470000       -6.0198535E-33
   3.480000       -6.0366925E-33
   3.490000       -6.0535303E-33
   3.500000       -6.0703678E-33
   3.510000       -6.0872057E-33
   3.520000       -6.1040439E-33
   3.530000       -6.1208821E-33
   3.540000       -6.1377196E-33
   3.550000       -6.1545578E-33
   3.560000       -6.1713960E-33
   3.570000       -6.1882343E-33
   3.580000       -6.2050717E-33
   3.590000       -6.2219092E-33
   3.600000       -6.2387467E-33
   3.610000       -6.2555857E-33
   3.620000       -6.2724232E-33
   3.630000       -6.2892614E-33
   3.640000       -6.3060996E-33
   3.650000       -6.3229378E-33
   3.660000       -6.3397753E-33
   3.670000       -6.3566128E-33
   3.680000       -6.3734510E-33
   3.690000       -6.3902892E-33
   3.700000       -6.4071267E-33
   3.710000       -6.4239650E-33
   3.720000       -6.4408032E-33
   3.730000       -6.4576414E-33
   3.740000       -6.4744796E-33
   3.750000       -6.4913171E-33
   3.760000       -6.5081553E-33
   3.770000       -6.5249928E-33
   3.780000       -6.5418310E-33
   3.790000       -6.5586678E-33
   3.800000       -6.5755067E-33
   3.810000       -6.5923457E-33
   3.820000       -6.6091825E-33
   3.830000       -6.6260199E-33
   3.840000       -6.6428589E-33
   3.850000       -6.6596971E-33
   3.860000       -6.6765346E-33
   3.870000       -6.6933728E-33
   3.880000       -6.7102111E-33
   3.890000       -6.7270493E-33
   3.900000       -6.7438860E-33
   3.910000       -6.7607243E-33
   3.920000       -6.7775617E-33
   3.930000       -6.7944007E-33
   3.940000       -6.8112382E-33
   3.950000       -6.8280764E-33
   3.960000       -6.8449154E-33
   3.970000       -6.8617528E-33
   3.980000       -6.8785903E-33
   3.990000       -6.8954278E-33
   4.000000       -6.9122660E-33
   4.010000       -6.9291043E-33
   4.020000       -6.9459418E-33
   4.030000       -6.9627792E-33
   4.040000       -6.9796189E-33
   4.050000       -6.9964557E-33
   4.060000       -7.0132939E-33
   4.070000       -7.0301321E-33
   4.080000       -7.0469696E-33
   4.090000       -7.0638078E-33
   4.100000       -7.0806461E-33
   4.110000       -7.0974828E-33
   4.120000       -7.1143218E-33
   4.130000       -7.1311600E-33
   4.140000       -7.1479975E-33
   4.150000       -7.1648350E-33
   4.160000       -7.1816725E-33
   4.170000       -7.1985121E-33
   4.180000       -7.2153496E-33
   4.190000       -7.2321871E-33
   4.200000       -7.2490261E-33
   4.210000       -7.2658643E-33
   4.220000       -7.2827010E-33
   4.230000       -7.2995385E-33
   4.240000       -7.3163768E-33
   4.250000       -7.3332157E-33
   4.260000       -7.3497703E-33
   4.270000       -7.3659679E-33
   4.280000       -7.3822302E-33
   4.290000       -7.3986217E-33
   4.300000       -7.4149317E-33
   4.310000       -7.4308846E-33
   4.320000       -7.4466921E-33
   4.330000       -7.4626303E-33
   4.340000       -7.4782813E-33
   4.350000       -7.4935664E-33
   4.360000       -7.5088324E-33
   4.370000       -7.5238728E-33
   4.380000       -7.5384791E-33
   4.390000       -7.5531713E-33
   4.400000       -7.5677290E-33
   4.410000       -7.5817027E-33
   4.420000       -7.5952305E-33
   4.430000       -7.6082976E-33
   4.440000       -7.6208996E-33
   4.450000       -7.6328294E-33
   4.460000       -7.6443220E-33
   4.470000       -7.6553688E-33
   4.480000       -7.6652260E-33
   4.490000       -7.6740554E-33
   4.500000       -7.6819136E-33
   4.510000       -7.6882312E-33
   4.520000       -7.6927781E-33
   4.530000       -7.6958212E-33
   4.540000       -7.6971605E-33
   4.550000       -7.6960453E-33
   4.560000       -7.6921059E-33
   4.570000       -7.6851991E-33
   4.580000       -7.6751935E-33
   4.590000       -7.6616363E-33
   4.600000       -7.6438548E-33
   4.610000       -7.6212412E-33
   4.620000       -7.5931197E-33
   4.630000       -7.5591531E-33
   4.640000       -7.5184398E-33
   4.650000       -7.4700748E-33
   4.660000       -7.4132742E-33
   4.670000       -7.3463475E-33
   4.680000       -7.2688412E-33
   4.690000       -7.1800782E-33
   4.700000       -7.0780989E-33
   4.710000       -6.9615751E-33
   4.720000       -6.8287545E-33
   4.730000       -6.6794373E-33
   4.740000       -6.5104755E-33
   4.750000       -6.3168502E-33
   4.760000       -6.0974266E-33
   4.770000       -5.8483353E-33
   4.780000       -5.5658398E-33
   4.790000       -5.2498581E-33
   4.800000       -4.8972017E-33
   4.810000       -4.5024332E-33
   4.820000       -4.0619446E-33
   4.830000       -3.5709101E-33
   4.840000       -3.0232754E-33
   4.850000       -2.4139339E-33
   4.860000       -1.7363646E-33
   4.870000       -9.8373880E-34
   4.880000       -1.4881686E-34
   4.890000        7.7204072E-34
   4.900000        1.7856573E-33
   4.910000        2.9045949E-33
   4.920000        4.1351779E-33
   4.930000        5.4856266E-33
   4.940000        6.9726887E-33
   4.950000        8.6128596E-33
   4.960000        1.0411234E-32
   4.970000        1.2380721E-32
   4.980000        1.4538909E-32
   4.990000        1.6899321E-32
   5.000000        1.9483857E-32
   5.010000        2.2313702E-32
   5.020000        2.5392518E-32
   5.030000        2.8721850E-32
   5.040000        3.2311595E-32
   5.050000        3.6200371E-32
   5.060000        4.0426079E-32
   5.070000        4.5002347E-32
   5.080000        4.9961266E-32
   5.090000        5.5328444E-32
   5.100000        6.1132495E-32
   5.110000        6.7390615E-32
   5.120000        7.4122136E-32
   5.130000        8.1375424E-32
   5.140000        8.9184421E-32
   5.150000        9.7578903E-32
   5.160000        1.0659253E-31
   5.170000        1.1625933E-31
   5.180000        1.2662025E-31
   5.190000        1.3773641E-31
   5.200000        1.4963615E-31
   5.210000        1.6235327E-31
   5.220000        1.7594312E-31
   5.230000        1.9043944E-31
   5.240000        2.0589611E-31
   5.250000        2.2235172E-31
   5.260000        2.3986040E-31
   5.270000        2.5846589E-31
   5.280000        2.7821360E-31
   5.290000        2.9917269E-31
   5.300000        3.2138500E-31
   5.310000        3.4488602E-31
   5.320000        3.6973543E-31
   5.330000        3.9599090E-31
   5.340000        4.2369467E-31
   5.350000        4.5288892E-31
   5.360000        4.8361728E-31
   5.370000        5.1594497E-31
   5.380000        5.4991521E-31
   5.390000        5.8556250E-31
   5.400000        6.2292610E-31
   5.410000        6.6203367E-31
   5.420000        7.0290312E-31
   5.430000        7.4557234E-31
   5.440000        7.9006565E-31
   5.450000        8.3636075E-31
   5.460000        8.8445276E-31
   5.470000        9.3434864E-31
   5.480000        9.8601802E-31
   5.490000        1.0394298E-30
   5.500000        1.0945544E-30
   5.510000        1.1513272E-30
   5.520000        1.2096824E-30
   5.530000        1.2695489E-30
   5.540000        1.3308321E-30
   5.550000        1.3934103E-30
   5.560000        1.4571796E-30
   5.570000        1.5220165E-30
   5.580000        1.5877248E-30
   5.590000        1.6540883E-30
   5.600000        1.7208810E-30
   5.610000        1.7878415E-30
   5.620000        1.8546897E-30
   5.630000        1.9211300E-30
   5.640000        1.9868100E-30
   5.650000        2.0513379E-30
   5.660000        2.1142793E-30
   5.670000        2.1751547E-30
   5.680000        2.2334853E-30
   5.690000        2.2887125E-30
   5.700000        2.3402486E-30
   5.710000        2.3874589E-30
   5.720000        2.4296295E-30
   5.730000        2.4660367E-30
   5.740000        2.4958534E-30
   5.750000        2.5181859E-30
   5.760000        2.5320906E-30
   5.770000        2.5365363E-30
   5.780000        2.5304429E-30
   5.790000        2.5126534E-30
   5.800000        2.4819369E-30
   5.810000        2.4369950E-30
   5.820000        2.3764273E-30
   5.830000        2.2987185E-30
   5.840000        2.2022574E-30
   5.850000        2.0853954E-30
   5.860000        1.9463646E-30
   5.870000        1.7832499E-30
   5.880000        1.5940574E-30
   5.890000        1.3766892E-30
   5.900000        1.1289073E-30
   5.910000        8.4836509E-31
   5.920000        5.3258706E-31
   5.930000        1.7894321E-31
   5.940000       -2.1529003E-31
   5.950000       -6.5298495E-31
   5.960000       -1.1371708E-30
   5.970000       -1.6710256E-30
   5.980000       -2.2579390E-30
   5.990000       -2.9014052E-30
   6.000000       -3.6050422E-30
   6.010000       -4.3727036E-30
   6.020000       -5.2084176E-30
   6.030000       -6.1164225E-30
   6.040000       -7.1011467E-30
   6.050000       -8.1671805E-30
   6.060000       -9.3193313E-30
   6.070000       -1.0562623E-29
   6.080000       -1.1902342E-29
   6.090000       -1.3344000E-29
   6.100000       -1.4893335E-29
   6.110000       -1.6556341E-29
   6.120000       -1.8339290E-29
   6.130000       -2.0248746E-29
   6.140000       -2.2291559E-29
   6.150000       -2.4474910E-29
   6.160000       -2.6806279E-29
   6.170000       -2.9293482E-29
   6.180000       -3.1944714E-29
   6.190000       -3.4768512E-29
   6.200000       -3.7773854E-29
   6.210000       -4.0970091E-29
   6.220000       -4.4367046E-29
   6.230000       -4.7975041E-29
   6.240000       -5.1804837E-29
   6.250000       -5.5867731E-29
   6.260000       -6.0175585E-29
   6.270000       -6.4740821E-29
   6.280000       -6.9576560E-29
   6.290000       -7.4696561E-29
   6.300000       -8.0115315E-29
   6.310000       -8.5848020E-29
   6.320000       -9.1910691E-29
   6.330000       -9.8320252E-29
   6.340000       -1.0509451E-28
   6.350000       -1.1225230E-28
   6.360000       -1.1981344E-28
   6.370000       -1.2779892E-28
   6.380000       -1.3623088E-28
   6.390000       -1.4513278E-28
   6.400000       -1.5452942E-28
   6.410000       -1.6444703E-28
   6.420000       -1.7491350E-28
   6.430000       -1.8595815E-28
   6.440000       -1.9761230E-28
   6.450000       -2.0990908E-28
   6.460000       -2.2288364E-28
   6.470000       -2.3657319E-28
   6.480000       -2.5101740E-28
   6.490000       -2.6625823E-28
   6.500000       -2.8234027E-28
   6.510000       -2.9931092E-28
   6.520000       -3.1722047E-28
   6.530000       -3.3612235E-28
   6.540000       -3.5607329E-28
   6.550000       -3.7713358E-28
   6.560000       -3.9936709E-28
   6.570000       -4.2284196E-28
   6.580000       -4.4763022E-28
   6.590000       -4.7380852E-28
   6.600000       -5.0145804E-28
   6.610000       -5.3066510E-28
   6.620000       -5.6152115E-28
   6.630000       -5.9412310E-28
   6.640000       -6.2857389E-28
   6.650000       -6.6498264E-28
   6.660000       -7.0346450E-28
   6.670000       -7.4414192E-28
   6.680000       -7.8714423E-28
   6.690000       -8.3260831E-28
   6.700000       -8.8067875E-28
   6.710000       -9.3150857E-28
   6.720000       -9.8525934E-28
   6.730000       -1.0421013E-27
   6.740000       -1.1022148E-27
   6.750000       -1.1657891E-27
   6.760000       -1.2330243E-27
   6.770000       -1.3041308E-27
   6.780000       -1.3793303E-27
   6.790000       -1.4588555E-27
   6.800000       -1.5429514E-27
   6.810000       -1.6318747E-27
   6.820000       -1.7258953E-27
   6.830000       -1.8252964E-27
   6.840000       -1.9303734E-27
   6.850000       -2.0414374E-27
   6.860000       -2.1588124E-27
   6.870000       -2.2828373E-27
   6.880000       -2.4138662E-27
   6.890000       -2.5522682E-27
   6.900000       -2.6984287E-27
   6.910000       -2.8527477E-27
   6.920000       -3.0156429E-27
   6.930000       -3.1875460E-27
   6.940000       -3.3689068E-27
   6.950000       -3.5601928E-27
   6.960000       -3.7618854E-27
   6.970000       -3.9744842E-27
   6.980000       -4.1985046E-27
   6.990000       -4.4344795E-27
   7.000000       -4.6829576E-27
   7.010000       -4.9445023E-27
   7.020000       -5.2196950E-27
   7.030000       -5.5091299E-27
   7.040000       -5.8134168E-27
   7.050000       -6.1331790E-27
   7.060000       -6.4690546E-27
   7.070000       -6.8216909E-27
   7.080000       -7.1917475E-27
   7.090000       -7.5798940E-27
   7.100000       -7.9868076E-27
   7.110000       -8.4131731E-27
   7.120000       -8.8596806E-27
   7.130000       -9.3270230E-27
   7.140000       -9.8158918E-27
   7.150000       -1.0326980E-26
   7.160000       -1.0860976E-26
   7.170000       -1.1418559E-26
   7.180000       -1.2000402E-26
   7.190000       -1.2607163E-26
   7.200000       -1.3239477E-26
   7.210000       -1.3897967E-26
   7.220000       -1.4583225E-26
   7.230000       -1.5295814E-26
   7.240000       -1.6036259E-26
   7.250000       -1.6805048E-26
   7.260000       -1.7602625E-26
   7.270000       -1.8429373E-26
   7.280000       -1.9285620E-26
   7.290000       -2.0171625E-26
   7.300000       -2.1087577E-26
   7.310000       -2.2033580E-26
   7.320000       -2.3009654E-26
   7.330000       -2.4015699E-26
   7.340000       -2.5051528E-26
   7.350000       -2.6116818E-26
   7.360000       -2.7211128E-26
   7.370000       -2.8333868E-26
   7.380000       -2.9484296E-26
   7.390000       -3.0661489E-26
   7.400000       -3.1864363E-26
   7.410000       -3.3091630E-26
   7.420000       -3.4341796E-26
   7.430000       -3.5613144E-26
   7.440000       -3.6903702E-26
   7.450000       -3.8211254E-26
   7.460000       -3.9533299E-26
   7.470000       -4.0867044E-26
   7.480000       -4.2209374E-26
   7.490000       -4.3556856E-26
   7.500000       -4.4905688E-26
   7.510000       -4.6251682E-26
   7.520000       -4.7590262E-26
   7.530000       -4.8916417E-26
   7.540000       -5.0224685E-26
   7.550000       -5.1509129E-26
   7.560000       -5.2763319E-26
   7.570000       -5.3980266E-26
   7.580000       -5.5152452E-26
   7.590000       -5.6271766E-26
   7.600000       -5.7329431E-26
   7.610000       -5.8316086E-26
   7.620000       -5.9221631E-26
   7.630000       -6.0035267E-26
   7.640000       -6.0745445E-26
   7.650000       -6.1339840E-26
   7.660000       -6.1805274E-26
   7.670000       -6.2127714E-26
   7.680000       -6.2292235E-26
   7.690000       -6.2282978E-26
   7.700000       -6.2083082E-26
   7.710000       -6.1674699E-26
   7.720000       -6.1038895E-26
   7.730000       -6.0155648E-26
   7.740000       -5.9003776E-26
   7.750000       -5.7560906E-26
   7.760000       -5.5803447E-26
   7.770000       -5.3706526E-26
   7.780000       -5.1243927E-26
   7.790000       -4.8388099E-26
   7.800000       -4.5110049E-26
   7.810000       -4.1379344E-26
   7.820000       -3.7164045E-26
   7.830000       -3.2430642E-26
   7.840000       -2.7144044E-26
   7.850000       -2.1267527E-26
   7.860000       -1.4762661E-26
   7.870000       -7.5893057E-27
   7.880000        2.9448059E-28
   7.890000        8.9324377E-27
   7.900000        1.8370176E-26
   7.910000        2.8655203E-26
   7.920000        3.9836964E-26
   7.930000        5.1966890E-26
   7.940000        6.5098441E-26
   7.950000        7.9287109E-26
   7.960000        9.4590475E-26
   7.970000        1.1106824E-25
   7.980000        1.2878225E-25
   7.990000        1.4779652E-25
   8.000000        1.6817724E-25
   8.010000        1.8999279E-25
   8.020000        2.1331383E-25
   8.030000        2.3821322E-25
   8.040000        2.6476610E-25
   8.050000        2.9304977E-25
   8.060000        3.2314390E-25
   8.070000        3.5513029E-25
   8.080000        3.8909290E-25
   8.090000        4.2511813E-25
   8.100000        4.6329436E-25
   8.110000        5.0371204E-25
   8.120000        5.4646411E-25
   8.130000        5.9164509E-25
   8.140000        6.3935184E-25
   8.150000        6.8968304E-25
   8.160000        7.4273917E-25
   8.170000        7.9862286E-25
   8.180000        8.5743787E-25
   8.190000        9.1929008E-25
   8.200000        9.8428650E-25
   8.210000        1.0525355E-24
   8.220000        1.1241471E-24
   8.230000        1.1992319E-24
   8.240000        1.2779017E-24
   8.250000        1.3602691E-24
   8.260000        1.4464468E-24
   8.270000        1.5365485E-24
   8.280000        1.6306878E-24
   8.290000        1.7289784E-24
   8.300000        1.8315329E-24
   8.310000        1.9384642E-24
   8.320000        2.0498841E-24
   8.330000        2.1659026E-24
   8.340000        2.2866291E-24
   8.350000        2.4121706E-24
   8.360000        2.5426320E-24
   8.370000        2.6781155E-24
   8.380000        2.8187205E-24
   8.390000        2.9645432E-24
   8.400000        3.1156760E-24
   8.410000        3.2722061E-24
   8.420000        3.4342160E-24
   8.430000        3.6017851E-24
   8.440000        3.7749846E-24
   8.450000        3.9538797E-24
   8.460000        4.1385284E-24
   8.470000        4.3289819E-24
   8.480000        4.5252828E-24
   8.490000        4.7274643E-24
   8.500000        4.9355505E-24
   8.510000        5.1495562E-24
   8.520000        5.3694827E-24
   8.530000        5.5953214E-24
   8.540000        5.8270493E-24
   8.550000        6.0646309E-24
   8.560000        6.3080178E-24
   8.570000        6.5571432E-24
   8.580000        6.8119267E-24
   8.590000        7.0722674E-24
   8.600000        7.3380496E-24
   8.610000        7.6091385E-24
   8.620000        7.8853763E-24
   8.630000        8.1665863E-24
   8.640000        8.4525649E-24
   8.650000        8.7430937E-24
   8.660000        9.0379194E-24
   8.670000        9.3367691E-24
   8.680000        9.6393407E-24
   8.690000        9.9453051E-24
   8.700000        1.0254301E-23
   8.710000        1.0565937E-23
   8.720000        1.0879789E-23
   8.730000        1.1195403E-23
   8.740000        1.1512283E-23
   8.750000        1.1829900E-23
   8.760000        1.2147687E-23
   8.770000        1.2465039E-23
   8.780000        1.2781306E-23
   8.790000        1.3095796E-23
   8.800000        1.3407778E-23
   8.810000        1.3716467E-23
   8.820000        1.4021040E-23
   8.830000        1.4320618E-23
   8.840000        1.4614278E-23
   8.850000        1.4901037E-23
   8.860000        1.5179867E-23
   8.870000        1.5449681E-23
   8.880000        1.5709333E-23
   8.890000        1.5957621E-23
   8.900000        1.6193282E-23
   8.910000        1.6414996E-23
   8.920000        1.6621373E-23
   8.930000        1.6810965E-23
   8.940000        1.6982252E-23
   8.950000        1.7133647E-23
   8.960000        1.7263501E-23
   8.970000        1.7370084E-23
   8.980000        1.7451605E-23