 -0.1000000        2.7103906E-38
 -9.0000004E-02    8.1312563E-38
 -7.9999998E-02    1.3552095E-37
 -7.0000000E-02    1.8973160E-37
 -5.9999999E-02    2.4394221E-37
 -5.0000001E-02    2.9815286E-37
 -3.9999999E-02    3.5236235E-37
 -2.9999999E-02    4.0657188E-37
 -2.0000000E-02    4.6078478E-37
 -9.9999998E-03    5.1498409E-37
  0.0000000E+00    5.6919246E-37
  9.9999998E-03    6.2339634E-37
  2.0000000E-02    6.7760023E-37
  2.9999999E-02    7.3179958E-37
  3.9999999E-02    7.8600790E-37
  5.0000001E-02    8.4021632E-37
  5.9999999E-02    8.9441558E-37
  7.0000000E-02    9.4862399E-37
  7.9999998E-02    1.0028143E-36
  9.0000004E-02    1.0570136E-36
  0.1000000        1.1112039E-36
  0.1100000        1.1653942E-36
  0.1200000        1.2195845E-36
  0.1300000        1.2737747E-36
  0.1400000        1.3279741E-36
  0.1500000        1.3821644E-36
  0.1600000        1.4363548E-36
  0.1700000        1.4905451E-36
  0.1800000        1.5447444E-36
  0.1900000        1.5989256E-36
  0.2000000        1.6531248E-36
  0.2100000        1.7073243E-36
  0.2200000        1.7615056E-36
  0.2300000        1.8157047E-36
  0.2400000        1.8698860E-36
  0.2500000        1.9241036E-36
  0.2600000        1.9782847E-36
  0.2700000        2.0324842E-36
  0.2800000        2.0866835E-36
  0.2900000        2.1408646E-36
  0.3000000        2.1950640E-36
  0.3100000        2.2492454E-36
  0.3200000        2.3034446E-36
  0.3300000        2.3576441E-36
  0.3400000        2.4118254E-36
  0.3500000        2.4660245E-36
  0.3600000        2.5202058E-36
  0.3700000        2.5744051E-36
  0.3800000        2.6286045E-36
  0.3900000        2.6827855E-36
  0.4000000        2.7369851E-36
  0.4100000        2.7911752E-36
  0.4200000        2.8453655E-36
  0.4300000        2.8995740E-36
  0.4400000        2.9537822E-36
  0.4500000        3.0079547E-36
  0.4600000        3.0621448E-36
  0.4700000        3.1163622E-36
  0.4800000        3.1705437E-36
  0.4900000        3.2247249E-36
  0.5000000        3.2789060E-36
  0.5100000        3.3331234E-36
  0.5200000        3.3873049E-36
  0.5300000        3.4414857E-36
  0.5400000        3.4957035E-36
  0.5500000        3.5498846E-36
  0.5600000        3.6040658E-36
  0.5700000        3.6582835E-36
  0.5800000        3.7124646E-36
  0.5900000        3.7666458E-36
  0.6000000        3.8208273E-36
  0.6100000        3.8750809E-36
  0.6200000        3.9293345E-36
  0.6300000        3.9835519E-36
  0.6400000        4.0378055E-36
  0.6500000        4.0920591E-36
  0.6600000        4.1462765E-36
  0.6700000        4.2004935E-36
  0.6800000        4.2547837E-36
  0.6900000        4.3090008E-36
  0.7000000        4.3632181E-36
  0.7100000        4.4175080E-36
  0.7200000        4.4717254E-36
  0.7300000        4.5259427E-36
  0.7400000        4.5802326E-36
  0.7500000        4.6344503E-36
  0.7600000        4.6886674E-36
  0.7700000        4.7429210E-36
  0.7800000        4.7971746E-36
  0.7900000        4.8514282E-36
  0.8000000        4.9056459E-36
  0.8100000        4.9598995E-36
  0.8200000        5.0141532E-36
  0.8300000        5.0683702E-36
  0.8400000        5.1226238E-36
  0.8500000        5.1768774E-36
  0.8600000        5.2310951E-36
  0.8700000        5.2853122E-36
  0.8800000        5.3396024E-36
  0.8900000        5.3938194E-36
  0.9000000        5.4480371E-36
  0.9100000        5.5023266E-36
  0.9200000        5.5565444E-36
  0.9300000        5.6107614E-36
  0.9400000        5.6650516E-36
  0.9500000        5.7192686E-36
  0.9600000        5.7735222E-36
  0.9700000        5.8277034E-36
  0.9800000        5.8819570E-36
  0.9900000        5.9362831E-36
   1.000000        5.9904642E-36
   1.010000        6.0447178E-36
   1.020000        6.0989718E-36
   1.030000        6.1531526E-36
   1.040000        6.2074066E-36
   1.050000        6.2616598E-36
   1.060000        6.3159138E-36
   1.070000        6.3701670E-36
   1.080000        6.4244210E-36
   1.090000        6.4786018E-36
   1.100000        6.5328558E-36
   1.110000        6.5871090E-36
   1.120000        6.6413630E-36
   1.130000        6.6956163E-36
   1.140000        6.7498702E-36
   1.150000        6.8041235E-36
   1.160000        6.8583050E-36
   1.170000        6.9125582E-36
   1.180000        6.9668122E-36
   1.190000        7.0210655E-36
   1.200000        7.0753194E-36
   1.210000        7.1295727E-36
   1.220000        7.1837542E-36
   1.230000        7.2380075E-36
   1.240000        7.2922614E-36
   1.250000        7.3464422E-36
   1.260000        7.4007687E-36
   1.270000        7.4550219E-36
   1.280000        7.5092034E-36
   1.290000        7.5634567E-36
   1.300000        7.6177106E-36
   1.310000        7.6718914E-36
   1.320000        7.7260729E-36
   1.330000        7.7801813E-36
   1.340000        7.8343628E-36
   1.350000        7.8885443E-36
   1.360000        7.9426533E-36
   1.370000        7.9968341E-36
   1.380000        8.0509432E-36
   1.390000        8.1050522E-36
   1.400000        8.1592337E-36
   1.410000        8.2133428E-36
   1.420000        8.2675235E-36
   1.430000        8.3217051E-36
   1.440000        8.3758134E-36
   1.450000        8.4299224E-36
   1.460000        8.4841039E-36
   1.470000        8.5382130E-36
   1.480000        8.5923938E-36
   1.490000        8.6465753E-36
   1.500000        8.7006843E-36
   1.510000        8.7547934E-36
   1.520000        8.8089749E-36
   1.530000        8.8630832E-36
   1.540000        8.9171922E-36
   1.550000        8.9714455E-36
   1.560000        9.0255545E-36
   1.570000        9.0796636E-36
   1.580000        9.1338451E-36
   1.590000        9.1879541E-36
   1.600000        9.2420632E-36
   1.610000        9.2962440E-36
   1.620000        9.3504255E-36
   1.630000        9.4045345E-36
   1.640000        9.4587153E-36
   1.650000        9.5128244E-36
   1.660000        9.5669334E-36
   1.670000        9.6211142E-36
   1.680000        9.6752957E-36
   1.690000        9.7294765E-36
   1.700000        9.7835855E-36
   1.710000        9.8376946E-36
   1.720000        9.8918761E-36
   1.730000        9.9459851E-36
   1.740000        1.0000094E-35
   1.750000        1.0054348E-35
   1.760000        1.0108457E-35
   1.770000        1.0162565E-35
   1.780000        1.0216746E-35
   1.790000        1.0270855E-35
   1.800000        1.0324964E-35
   1.810000        1.0379145E-35
   1.820000        1.0433327E-35
   1.830000        1.0487436E-35
   1.840000        1.0541617E-35
   1.850000        1.0595726E-35
   1.860000        1.0649835E-35
   1.870000        1.0704015E-35
   1.880000        1.0758124E-35
   1.890000        1.0812307E-35
   1.900000        1.0866487E-35
   1.910000        1.0920597E-35
   1.920000        1.0974705E-35
   1.930000        1.1028887E-35
   1.940000        1.1082996E-35
   1.950000        1.1137177E-35
   1.960000        1.1191358E-35
   1.970000        1.1245467E-35
   1.980000        1.1299576E-35
   1.990000        1.1353757E-35
   2.000000        1.1407866E-35
   2.010000        1.1462047E-35
   2.020000        1.1516156E-35
   2.030000        1.1570338E-35
   2.040000        1.1624447E-35
   2.050000        1.1678555E-35
   2.060000        1.1732808E-35
   2.070000        1.1786917E-35
   2.080000        1.1841026E-35
   2.090000        1.1895135E-35
   2.100000        1.1949389E-35
   2.110000        1.2003354E-35
   2.120000        1.2057607E-35
   2.130000        1.2111861E-35
   2.140000        1.2165824E-35
   2.150000        1.2220079E-35
   2.160000        1.2274187E-35
   2.170000        1.2328297E-35
   2.180000        1.2382405E-35
   2.190000        1.2436658E-35
   2.200000        1.2490768E-35
   2.210000        1.2544877E-35
   2.220000        1.2599130E-35
   2.230000        1.2653095E-35
   2.240000        1.2707348E-35
   2.250000        1.2761603E-35
   2.260000        1.2815566E-35
   2.270000        1.2869819E-35
   2.280000        1.2923928E-35
   2.290000        1.2978037E-35
   2.300000        1.3032146E-35
   2.310000        1.3086399E-35
   2.320000        1.3140509E-35
   2.330000        1.3194617E-35
   2.340000        1.3248872E-35
   2.350000        1.3302835E-35
   2.360000        1.3357088E-35
   2.370000        1.3411198E-35
   2.380000        1.3465306E-35
   2.390000        1.3519561E-35
   2.400000        1.3573669E-35
   2.410000        1.3627779E-35
   2.420000        1.3681888E-35
   2.430000        1.3736141E-35
   2.440000        1.3790104E-35
   2.450000        1.3844357E-35
   2.460000        1.3898612E-35
   2.470000        1.3952576E-35
   2.480000        1.4006830E-35
   2.490000        1.4060939E-35
   2.500000        1.4115047E-35
   2.510000        1.4169157E-35
   2.520000        1.4223410E-35
   2.530000        1.4277520E-35
   2.540000        1.4331628E-35
   2.550000        1.4385881E-35
   2.560000        1.4439846E-35
   2.570000        1.4494099E-35
   2.580000        1.4548209E-35
   2.590000        1.4602317E-35
   2.600000        1.4656571E-35
   2.610000        1.4710680E-35
   2.620000        1.4764789E-35
   2.630000        1.4818897E-35
   2.640000        1.4873150E-35
   2.650000        1.4927260E-35
   2.660000        1.4981368E-35
   2.670000        1.5035622E-35
   2.680000        1.5089587E-35
   2.690000        1.5143840E-35
   2.700000        1.5197950E-35
   2.710000        1.5252058E-35
   2.720000        1.5306456E-35
   2.730000        1.5360709E-35
   2.740000        1.5415107E-35
   2.750000        1.5469651E-35
   2.760000        1.5524049E-35
   2.770000        1.5578593E-35
   2.780000        1.5633136E-35
   2.790000        1.5687678E-35
   2.800000        1.5742221E-35
   2.810000        1.5796764E-35
   2.820000        1.5851307E-35
   2.830000        1.5905849E-35
   2.840000        1.5960394E-35
   2.850000        1.6014937E-35
   2.860000        1.6069480E-35
   2.870000        1.6124022E-35
   2.880000        1.6178420E-35
   2.890000        1.6232963E-35
   2.900000        1.6287506E-35
   2.910000        1.6342049E-35
   2.920000        1.6396592E-35
   2.930000        1.6451135E-35
   2.940000        1.6505678E-35
   2.950000        1.6560220E-35
   2.960000        1.6614763E-35
   2.970000        1.6669306E-35
   2.980000        1.6723851E-35
   2.990000        1.6778249E-35
   3.000000        1.6811524E-35
   3.010000        1.6839228E-35
   3.020000        1.6973923E-35
   3.030000        1.7133790E-35
   3.040000        1.7165257E-35
   3.050000        1.7157300E-35
   3.060000        1.7222838E-35
   3.070000        1.7382705E-35
   3.080000        1.7453742E-35
   3.090000        1.7520944E-35
   3.100000        1.7672998E-35
   3.110000        1.7715315E-35
   3.120000        1.7754740E-35
   3.130000        1.7900935E-35
   3.140000        1.8051542E-35
   3.150000        1.8192820E-35
   3.160000        1.8328309E-35
   3.170000        1.8467632E-35
   3.180000        1.8607896E-35
   3.190000        1.8770079E-35
   3.200000        1.8979354E-35
   3.210000        1.9138713E-35
   3.220000        1.9341043E-35
   3.230000        1.9688918E-35
   3.240000        2.0074189E-35
   3.250000        2.0412587E-35
   3.260000        2.0704399E-35
   3.270000        2.1043811E-35
   3.280000        2.1498746E-35
   3.290000        2.2012054E-35
   3.300000        2.2582803E-35
   3.310000        2.3320651E-35
   3.320000        2.4270451E-35
   3.330000        2.5239347E-35
   3.340000        2.6331435E-35
   3.350000        2.7691611E-35
   3.360000        2.9309812E-35
   3.370000        3.1256217E-35
   3.380000        3.3554326E-35
   3.390000        3.6030678E-35
   3.400000        3.8672392E-35
   3.410000        4.1805647E-35
   3.420000        4.5502267E-35
   3.430000        4.9345663E-35
   3.440000        5.4319198E-35
   3.450000        6.0615870E-35
   3.460000        6.7479092E-35
   3.470000        7.5064687E-35
   3.480000        8.3332069E-35
   3.490000        9.2826728E-35
   3.500000        1.0402655E-34
   3.510000        1.1686448E-34
   3.520000        1.3148762E-34
   3.530000        1.4759690E-34
   3.540000        1.6600578E-34
   3.550000        1.8767865E-34
   3.560000        2.1114087E-34
   3.570000        2.3786431E-34
   3.580000        2.6959187E-34
   3.590000        3.0489376E-34
   3.600000        3.4543848E-34
   3.610000        3.9141615E-34
   3.620000        4.4097862E-34
   3.630000        4.9439277E-34
   3.640000        5.5500465E-34
   3.650000        6.2078917E-34
   3.660000        6.8887275E-34
   3.670000        7.6638297E-34
   3.680000        8.6201793E-34
   3.690000        9.7392637E-34
   3.700000        1.0970334E-33
   3.710000        1.2354482E-33
   3.720000        1.3865027E-33
   3.730000        1.5523654E-33
   3.740000        1.7396218E-33
   3.750000        1.9495915E-33
   3.760000        2.1861627E-33
   3.770000        2.4433761E-33
   3.780000        2.7313197E-33
   3.790000        3.0552659E-33
   3.800000        3.4051360E-33
   3.810000        3.7938404E-33
   3.820000        4.2241364E-33
   3.830000        4.6940516E-33
   3.840000        5.2135966E-33
   3.850000        5.7838895E-33
   3.860000        6.4065118E-33
   3.870000        7.0891265E-33
   3.880000        7.8359313E-33
   3.890000        8.6557549E-33
   3.900000        9.5535210E-33
   3.910000        1.0530872E-32
   3.920000        1.1600771E-32
   3.930000        1.2776414E-32
   3.940000        1.4060464E-32
   3.950000        1.5459654E-32
   3.960000        1.6981449E-32
   3.970000        1.8637993E-32
   3.980000        2.0439798E-32
   3.990000        2.2389725E-32
   4.000000        2.4511461E-32
   4.010000        2.6824043E-32
   4.020000        2.9331267E-32
   4.030000        3.2047403E-32
   4.040000        3.4996891E-32
   4.050000        3.8199822E-32
   4.060000        4.1671054E-32
   4.070000        4.5425189E-32
   4.080000        4.9479472E-32
   4.090000        5.3860258E-32
   4.100000        5.8588143E-32
   4.110000        6.3686121E-32
   4.120000        6.9176667E-32
   4.130000        7.5088992E-32
   4.140000        8.1452584E-32
   4.150000        8.8287637E-32
   4.160000        9.5631279E-32
   4.170000        1.0351582E-31
   4.180000        1.1197738E-31
   4.190000        1.2105682E-31
   4.200000        1.3078869E-31
   4.210000        1.4121123E-31
   4.220000        1.5236174E-31
   4.230000        1.6428413E-31
   4.240000        1.7702508E-31
   4.250000        1.9062537E-31
   4.260000        2.0513439E-31
   4.270000        2.2059889E-31
   4.280000        2.3706858E-31
   4.290000        2.5459966E-31
   4.300000        2.7324289E-31
   4.310000        2.9305589E-31
   4.320000        3.1408758E-31
   4.330000        3.3639369E-31
   4.340000        3.6004654E-31
   4.350000        3.8510039E-31
   4.360000        4.1162046E-31
   4.370000        4.3967340E-31
   4.380000        4.6931170E-31
   4.390000        5.0060007E-31
   4.400000        5.3361016E-31
   4.410000        5.6840714E-31
   4.420000        6.0505450E-31
   4.430000        6.4362359E-31
   4.440000        6.8419037E-31
   4.450000        7.2682170E-31
   4.460000        7.7158147E-31
   4.470000        8.1853292E-31
   4.480000        8.6774278E-31
   4.490000        9.1928351E-31
   4.500000        9.7321246E-31
   4.510000        1.0295857E-30
   4.520000        1.0884675E-30
   4.530000        1.1499011E-30
   4.540000        1.2139357E-30
   4.550000        1.2806190E-30
   4.560000        1.3499949E-30
   4.570000        1.4221044E-30
   4.580000        1.4969754E-30
   4.590000        1.5746301E-30
   4.600000        1.6550836E-30
   4.610000        1.7383361E-30
   4.620000        1.8243930E-30
   4.630000        1.9132480E-30
   4.640000        2.0048611E-30
   4.650000        2.0991933E-30
   4.660000        2.1962062E-30
   4.670000        2.2958266E-30
   4.680000        2.3979773E-30
   4.690000        2.5025547E-30
   4.700000        2.6094421E-30
   4.710000        2.7185101E-30
   4.720000        2.8296128E-30
   4.730000        2.9425614E-30
   4.740000        3.0571486E-30
   4.750000        3.1731351E-30
   4.760000        3.2902685E-30
   4.770000        3.4082599E-30
   4.780000        3.5267761E-30
   4.790000        3.6454675E-30
   4.800000        3.7639370E-30
   4.810000        3.8817505E-30
   4.820000        3.9984228E-30
   4.830000        4.1134249E-30
   4.840000        4.2261960E-30
   4.850000        4.3361169E-30
   4.860000        4.4425103E-30
   4.870000        4.5446432E-30
   4.880000        4.6417240E-30
   4.890000        4.7328859E-30
   4.900000        4.8171992E-30
   4.910000        4.8936736E-30
   4.920000        4.9612264E-30
   4.930000        5.0186973E-30
   4.940000        5.0648418E-30
   4.950000        5.0983225E-30
   4.960000        5.1176977E-30
   4.970000        5.1214175E-30
   4.980000        5.1078307E-30
   4.990000        5.0751764E-30
   5.000000        5.0215667E-30
   5.010000        4.9449752E-30
   5.020000        4.8432429E-30
   5.030000        4.7140570E-30
   5.040000        4.5549564E-30
   5.050000        4.3632989E-30
   5.060000        4.1362878E-30
   5.070000        3.8709356E-30
   5.080000        3.5640564E-30
   5.090000        3.2122499E-30
   5.100000        2.8118946E-30
   5.110000        2.3591393E-30
   5.120000        1.8498967E-30
   5.130000        1.2797812E-30
   5.140000        6.4414001E-31
   5.150000       -6.1978210E-32
   5.160000       -8.4384893E-31
   5.170000       -1.7070781E-30
   5.180000       -2.6576270E-30
   5.190000       -3.7018412E-30
   5.200000       -4.8465075E-30
   5.210000       -6.0987720E-30
   5.220000       -7.4663030E-30
   5.230000       -8.9572038E-30
   5.240000       -1.0580152E-29
   5.250000       -1.2344338E-29
   5.260000       -1.4259534E-29
   5.270000       -1.6336153E-29
   5.280000       -1.8585293E-29
   5.290000       -2.1018727E-29
   5.300000       -2.3648914E-29
   5.310000       -2.6489249E-29
   5.320000       -2.9553973E-29
   5.330000       -3.2858098E-29
   5.340000       -3.6417596E-29
   5.350000       -4.0249640E-29
   5.360000       -4.4372394E-29
   5.370000       -4.8805084E-29
   5.380000       -5.3568231E-29
   5.390000       -5.8683820E-29
   5.400000       -6.4174881E-29
   5.410000       -7.0066078E-29
   5.420000       -7.6383886E-29
   5.430000       -8.3156256E-29
   5.440000       -9.0412679E-29
   5.450000       -9.8184817E-29
   5.460000       -1.0650643E-28
   5.470000       -1.1541294E-28
   5.480000       -1.2494226E-28
   5.490000       -1.3513484E-28
   5.500000       -1.4603345E-28
   5.510000       -1.5768359E-28
   5.520000       -1.7013341E-28
   5.530000       -1.8343502E-28
   5.540000       -1.9764130E-28
   5.550000       -2.1281155E-28
   5.560000       -2.2900619E-28
   5.570000       -2.4629110E-28
   5.580000       -2.6473491E-28
   5.590000       -2.8441137E-28
   5.600000       -3.0539796E-28
   5.610000       -3.2777736E-28
   5.620000       -3.5163732E-28
   5.630000       -3.7706961E-28
   5.640000       -4.0417354E-28
   5.650000       -4.3305156E-28
   5.660000       -4.6381381E-28
   5.670000       -4.9657720E-28
   5.680000       -5.3146518E-28
   5.690000       -5.6860823E-28
   5.700000       -6.0814339E-28
   5.710000       -6.5021687E-28
   5.720000       -6.9498333E-28
   5.730000       -7.4260402E-28
   5.740000       -7.9325159E-28
   5.750000       -8.4710835E-28
   5.760000       -9.0436384E-28
   5.770000       -9.6522053E-28
   5.780000       -1.0298907E-27
   5.790000       -1.0986002E-27
   5.800000       -1.1715854E-27
   5.810000       -1.2490955E-27
   5.820000       -1.3313915E-27
   5.830000       -1.4187495E-27
   5.840000       -1.5114624E-27
   5.850000       -1.6098328E-27
   5.860000       -1.7141803E-27
   5.870000       -1.8248492E-27
   5.880000       -1.9421871E-27
   5.890000       -2.0665656E-27
   5.900000       -2.1983820E-27
   5.910000       -2.3380443E-27
   5.920000       -2.4859727E-27
   5.930000       -2.6426261E-27
   5.940000       -2.8084669E-27
   5.950000       -2.9839954E-27
   5.960000       -3.1697257E-27
   5.970000       -3.3662004E-27
   5.980000       -3.5739806E-27
   5.990000       -3.7936591E-27
   6.000000       -4.0258476E-27
   6.010000       -4.2711930E-27
   6.020000       -4.5303581E-27
   6.030000       -4.8040589E-27
   6.040000       -5.0930212E-27
   6.050000       -5.3979911E-27
   6.060000       -5.7197566E-27
   6.070000       -6.0591613E-27
   6.080000       -6.4170510E-27
   6.090000       -6.7943211E-27
   6.100000       -7.1919047E-27
   6.110000       -7.6107605E-27
   6.120000       -8.0518724E-27
   6.130000       -8.5162611E-27
   6.140000       -9.0050344E-27
   6.150000       -9.5192701E-27
   6.160000       -1.0060142E-26
   6.170000       -1.0628835E-26
   6.180000       -1.1226584E-26
   6.190000       -1.1854657E-26
   6.200000       -1.2514340E-26
   6.210000       -1.3207018E-26
   6.220000       -1.3934054E-26
   6.230000       -1.4696916E-26
   6.240000       -1.5497077E-26
   6.250000       -1.6336063E-26
   6.260000       -1.7215412E-26
   6.270000       -1.8136769E-26
   6.280000       -1.9101794E-26
   6.290000       -2.0112177E-26
   6.300000       -2.1169663E-26
   6.310000       -2.2275973E-26
   6.320000       -2.3432967E-26
   6.330000       -2.4642512E-26
   6.340000       -2.5906519E-26
   6.350000       -2.7226887E-26
   6.360000       -2.8605582E-26
   6.370000       -3.0044649E-26
   6.380000       -3.1546098E-26
   6.390000       -3.3112042E-26
   6.400000       -3.4744565E-26
   6.410000       -3.6445725E-26
   6.420000       -3.8217775E-26
   6.430000       -4.0062813E-26
   6.440000       -4.1983131E-26
   6.450000       -4.3980817E-26
   6.460000       -4.6058091E-26
   6.470000       -4.8217271E-26
   6.480000       -5.0460431E-26
   6.490000       -5.2789912E-26
   6.500000       -5.5207974E-26
   6.510000       -5.7716817E-26
   6.520000       -6.0318394E-26
   6.530000       -6.3015183E-26
   6.540000       -6.5808965E-26
   6.550000       -6.8702056E-26
   6.560000       -7.1696542E-26
   6.570000       -7.4794251E-26
   6.580000       -7.7996995E-26
   6.590000       -8.1306833E-26
   6.600000       -8.4725436E-26
   6.610000       -8.8254387E-26
   6.620000       -9.1895337E-26
   6.630000       -9.5649853E-26
   6.640000       -9.9519111E-26
   6.650000       -1.0350409E-25
   6.660000       -1.0760622E-25
   6.670000       -1.1182607E-25
   6.680000       -1.1616453E-25
   6.690000       -1.2062191E-25
   6.700000       -1.2519830E-25
   6.710000       -1.2989395E-25
   6.720000       -1.3470867E-25
   6.730000       -1.3964177E-25
   6.740000       -1.4469260E-25
   6.750000       -1.4986013E-25
   6.760000       -1.5514286E-25
   6.770000       -1.6053904E-25
   6.780000       -1.6604648E-25
   6.790000       -1.7166283E-25
   6.800000       -1.7738484E-25
   6.810000       -1.8320953E-25
   6.820000       -1.8913268E-25
   6.830000       -1.9515035E-25
   6.840000       -2.0125712E-25
   6.850000       -2.0744796E-25
   6.860000       -2.1371647E-25
   6.870000       -2.2005610E-25
   6.880000       -2.2645985E-25
   6.890000       -2.3291979E-25
   6.900000       -2.3942668E-25
   6.910000       -2.4597188E-25
   6.920000       -2.5254440E-25
   6.930000       -2.5913366E-25
   6.940000       -2.6572767E-25
   6.950000       -2.7231340E-25
   6.960000       -2.7887774E-25
   6.970000       -2.8540544E-25
   6.980000       -2.9188122E-25
   6.990000       -2.9828820E-25
   7.000000       -3.0460868E-25
   7.010000       -3.1082310E-25
   7.020000       -3.1691188E-25
   7.030000       -3.2285313E-25
   7.040000       -3.2862481E-25
   7.050000       -3.3420233E-25
   7.060000       -3.3956025E-25
   7.070000       -3.4467256E-25
   7.080000       -3.4951025E-25
   7.090000       -3.5404381E-25
   7.100000       -3.5824173E-25
   7.110000       -3.6207121E-25
   7.120000       -3.6549765E-25
   7.130000       -3.6848494E-25
   7.140000       -3.7099470E-25
   7.150000       -3.7298680E-25
   7.160000       -3.7441979E-25
   7.170000       -3.7524987E-25
   7.180000       -3.7543116E-25
   7.190000       -3.7491633E-25
   7.200000       -3.7365558E-25
   7.210000       -3.7159700E-25
   7.220000       -3.6868679E-25
   7.230000       -3.6486846E-25
   7.240000       -3.6008384E-25
   7.250000       -3.5427208E-25
   7.260000       -3.4737017E-25
   7.270000       -3.3931272E-25
   7.280000       -3.3003179E-25
   7.290000       -3.1945696E-25
   7.300000       -3.0751531E-25
   7.310000       -2.9413150E-25
   7.320000       -2.7922765E-25
   7.330000       -2.6272315E-25
   7.340000       -2.4453478E-25
   7.350000       -2.2457697E-25
   7.360000       -2.0276094E-25
   7.370000       -1.7899557E-25
   7.380000       -1.5318733E-25
   7.390000       -1.2523900E-25
   7.400000       -9.5051675E-26
   7.410000       -6.2523384E-26
   7.420000       -2.7548869E-26
   7.430000        9.9792029E-27
   7.440000        5.0171285E-26
   7.450000        9.3140006E-26
   7.460000        1.3900047E-25
   7.470000        1.8787137E-25
   7.480000        2.3987355E-25
   7.490000        2.9513081E-25
   7.500000        3.5376965E-25
   7.510000        4.1591523E-25
   7.520000        4.8170159E-25
   7.530000        5.5126039E-25
   7.540000        6.2472676E-25
   7.550000        7.0223920E-25
   7.560000        7.8393639E-25
   7.570000        8.6996044E-25
   7.580000        9.6045610E-25
   7.590000        1.0555635E-24
   7.600000        1.1554341E-24
   7.610000        1.2602121E-24
   7.620000        1.3700466E-24
   7.630000        1.4850926E-24
   7.640000        1.6054959E-24
   7.650000        1.7314136E-24
   7.660000        1.8630001E-24
   7.670000        2.0003978E-24
   7.680000        2.1437731E-24
   7.690000        2.2932683E-24
   7.700000        2.4490339E-24
   7.710000        2.6112247E-24
   7.720000        2.7799943E-24
   7.730000        2.9554832E-24
   7.740000        3.1378463E-24
   7.750000        3.3272248E-24
   7.760000        3.5237624E-24
   7.770000        3.7275950E-24
   7.780000        3.9388638E-24
   7.790000        4.1577013E-24
   7.800000        4.3842290E-24
   7.810000        4.6185838E-24
   7.820000        4.8608647E-24
   7.830000        5.1112057E-24
   7.840000        5.3697139E-24
   7.850000        5.6364841E-24
   7.860000        5.9116128E-24
   7.870000        6.1951755E-24
   7.880000        6.4872639E-24
   7.890000        6.7879525E-24
   7.900000        7.0972774E-24
   7.910000        7.4153130E-24
   7.920000        7.7420781E-24
   7.930000        8.0776154E-24
   7.940000        8.4219271E-24
   7.950000        8.7750300E-24
   7.960000        9.1368741E-24
   7.970000        9.5074676E-24
   7.980000        9.8867574E-24
   7.990000        1.0274692E-23
   8.000000        1.0671183E-23
   8.010000        1.1076128E-23
   8.020000        1.1489464E-23
   8.030000        1.1910990E-23
   8.040000        1.2340574E-23
   8.050000        1.2778047E-23
   8.060000        1.3223224E-23
   8.070000        1.3675847E-23
   8.080000        1.4135707E-23
   8.090000        1.4602483E-23
   8.100000        1.5075908E-23
   8.110000        1.5555649E-23
   8.120000        1.6041327E-23
   8.130000        1.6532582E-23
   8.140000        1.7028965E-23
   8.150000        1.7530029E-23
   8.160000        1.8035298E-23
   8.170000        1.8544208E-23
   8.180000        1.9056249E-23
   8.190000        1.9570801E-23
   8.200000        2.0087221E-23
   8.210000        2.0604816E-23
   8.220000        2.1122858E-23
   8.230000        2.1640618E-23
   8.240000        2.2157282E-23
   8.250000        2.2671989E-23
   8.260000        2.3183841E-23
   8.270000        2.3691867E-23
   8.280000        2.4195126E-23
   8.290000        2.4692526E-23
   8.300000        2.5182953E-23
   8.310000        2.5665313E-23
   8.320000        2.6138329E-23
   8.330000        2.6600797E-23
   8.340000        2.7051340E-23
   8.350000        2.7488641E-23
   8.360000        2.7911208E-23
   8.370000        2.8317573E-23
   8.380000        2.8706143E-23
   8.390000        2.9075311E-23
   8.400000        2.9423423E-23
   8.410000        2.9748645E-23
   8.420000        3.0049217E-23
   8.430000        3.0323236E-23
   8.440000        3.0568729E-23
   8.450000        3.0783697E-23
   8.460000        3.0966037E-23
   8.470000        3.1113561E-23
   8.480000        3.1224036E-23
   8.490000        3.1295160E-23
   8.500000        3.1324543E-23
   8.510000        3.1309750E-23
   8.520000        3.1248207E-23
   8.530000        3.1137321E-23
   8.540000        3.0974437E-23
   8.550000        3.0756768E-23
   8.560000        3.0481510E-23
   8.570000        3.0145726E-23
   8.580000        2.9746459E-23
   8.590000        2.9280642E-23
   8.600000        2.8745142E-23
   8.610000        2.8136747E-23
   8.620000        2.7452189E-23
   8.630000        2.6688108E-23
   8.640000        2.5841095E-23
   8.650000        2.4907616E-23
   8.660000        2.3884141E-23
   8.670000        2.2767009E-23
   8.680000        2.1552545E-23
   8.690000        2.0236985E-23
   8.700000        1.8816467E-23
   8.710000        1.7287142E-23
   8.720000        1.5644999E-23
   8.730000        1.3886038E-23
   8.740000        1.2006210E-23
   8.750000        1.0001420E-23
   8.760000        7.8674226E-24
   8.770000        5.6000526E-24
   8.780000        3.1950450E-24
   8.790000        6.4816362E-25
   8.800000       -2.0449854E-24
   8.810000       -4.8888964E-24
   8.820000       -7.8878439E-24
   8.830000       -1.1046103E-23
   8.840000       -1.4368227E-23
   8.850000       -1.7858632E-23
   8.860000       -2.1521949E-23
   8.870000       -2.5362374E-23
   8.880000       -2.9384400E-23
   8.890000       -3.3592682E-23
   8.900000       -3.7991412E-23
   8.910000       -4.2585009E-23
   8.920000       -4.7377847E-23
   8.930000       -5.2374315E-23
   8.940000       -5.7578636E-23
   8.950000       -6.2995194E-23
   8.960000       -6.8627958E-23
   8.970000       -7.4480776E-23
   8.980000       -8.0558286E-23