 -0.1000000       -8.4193592E-36
 -9.0000004E-02   -2.5258079E-35
 -7.9999998E-02   -4.2096797E-35
 -7.0000000E-02   -5.8935521E-35
 -5.9999999E-02   -7.5774231E-35
 -5.0000001E-02   -9.2612941E-35
 -3.9999999E-02   -1.0945166E-34
 -2.9999999E-02   -1.2629037E-34
 -2.0000000E-02   -1.4312909E-34
 -9.9999998E-03   -1.5996779E-34
  0.0000000E+00   -1.7680652E-34
  9.9999998E-03   -1.9364522E-34
  2.0000000E-02   -2.1048395E-34
  2.9999999E-02   -2.2732265E-34
  3.9999999E-02   -2.4416136E-34
  5.0000001E-02   -2.6100008E-34
  5.9999999E-02   -2.7783881E-34
  7.0000000E-02   -2.9467752E-34
  7.9999998E-02   -3.1151622E-34
  9.0000004E-02   -3.2835497E-34
  0.1000000       -3.4519367E-34
  0.1100000       -3.6203238E-34
  0.1200000       -3.7887113E-34
  0.1300000       -3.9570983E-34
  0.1400000       -4.1254856E-34
  0.1500000       -4.2938724E-34
  0.1600000       -4.4622597E-34
  0.1700000       -4.6306469E-34
  0.1800000       -4.7990337E-34
  0.1900000       -4.9674210E-34
  0.2000000       -5.1358083E-34
  0.2100000       -5.3041956E-34
  0.2200000       -5.4725824E-34
  0.2300000       -5.6409701E-34
  0.2400000       -5.8093569E-34
  0.2500000       -5.9777442E-34
  0.2600000       -6.1461310E-34
  0.2700000       -6.3145183E-34
  0.2800000       -6.4829051E-34
  0.2900000       -6.6512919E-34
  0.3000000       -6.8196791E-34
  0.3100000       -6.9880660E-34
  0.3200000       -7.1564537E-34
  0.3300000       -7.3248410E-34
  0.3400000       -7.4932278E-34
  0.3500000       -7.6616150E-34
  0.3600000       -7.8300018E-34
  0.3700000       -7.9983887E-34
  0.3800000       -8.1667764E-34
  0.3900000       -8.3351632E-34
  0.4000000       -8.5035500E-34
  0.4100000       -8.6719368E-34
  0.4200000       -8.8403246E-34
  0.4300000       -9.0087114E-34
  0.4400000       -9.1770982E-34
  0.4500000       -9.3454859E-34
  0.4600000       -9.5138718E-34
  0.4700000       -9.6822595E-34
  0.4800000       -9.8506463E-34
  0.4900000       -1.0019034E-33
  0.5000000       -1.0187421E-33
  0.5100000       -1.0355808E-33
  0.5200000       -1.0524196E-33
  0.5300000       -1.0692582E-33
  0.5400000       -1.0860970E-33
  0.5500000       -1.1029358E-33
  0.5600000       -1.1197744E-33
  0.5700000       -1.1366131E-33
  0.5800000       -1.1534519E-33
  0.5900000       -1.1702906E-33
  0.6000000       -1.1871293E-33
  0.6100000       -1.2039679E-33
  0.6200000       -1.2208067E-33
  0.6300000       -1.2376455E-33
  0.6400000       -1.2544842E-33
  0.6500000       -1.2713228E-33
  0.6600000       -1.2881615E-33
  0.6700000       -1.3050002E-33
  0.6800000       -1.3218389E-33
  0.6900000       -1.3386777E-33
  0.7000000       -1.3555164E-33
  0.7100000       -1.3723550E-33
  0.7200000       -1.3891939E-33
  0.7300000       -1.4060326E-33
  0.7400000       -1.4228711E-33
  0.7500000       -1.4397100E-33
  0.7600000       -1.4565486E-33
  0.7700000       -1.4733872E-33
  0.7800000       -1.4902261E-33
  0.7900000       -1.5070648E-33
  0.8000000       -1.5239034E-33
  0.8100000       -1.5407422E-33
  0.8200000       -1.5575809E-33
  0.8300000       -1.5744197E-33
  0.8400000       -1.5912584E-33
  0.8500000       -1.6080968E-33
  0.8600000       -1.6249358E-33
  0.8700000       -1.6417744E-33
  0.8800000       -1.6586132E-33
  0.8900000       -1.6754518E-33
  0.9000000       -1.6922905E-33
  0.9100000       -1.7091293E-33
  0.9200000       -1.7259679E-33
  0.9300000       -1.7428067E-33
  0.9400000       -1.7596452E-33
  0.9500000       -1.7764840E-33
  0.9600000       -1.7933228E-33
  0.9700000       -1.8101614E-33
  0.9800000       -1.8270002E-33
  0.9900000       -1.8438389E-33
   1.000000       -1.8606775E-33
   1.010000       -1.8775161E-33
   1.020000       -1.8943551E-33
   1.030000       -1.9111937E-33
   1.040000       -1.9280322E-33
   1.050000       -1.9448712E-33
   1.060000       -1.9617098E-33
   1.070000       -1.9785486E-33
   1.080000       -1.9953873E-33
   1.090000       -2.0122257E-33
   1.100000       -2.0290645E-33
   1.110000       -2.0459035E-33
   1.120000       -2.0627421E-33
   1.130000       -2.0795806E-33
   1.140000       -2.0964196E-33
   1.150000       -2.1132584E-33
   1.160000       -2.1300975E-33
   1.170000       -2.1469363E-33
   1.180000       -2.1637752E-33
   1.190000       -2.1806142E-33
   1.200000       -2.1974530E-33
   1.210000       -2.2142919E-33
   1.220000       -2.2311309E-33
   1.230000       -2.2479697E-33
   1.240000       -2.2648088E-33
   1.250000       -2.2816476E-33
   1.260000       -2.2984863E-33
   1.270000       -2.3153253E-33
   1.280000       -2.3321641E-33
   1.290000       -2.3490030E-33
   1.300000       -2.3658420E-33
   1.310000       -2.3826809E-33
   1.320000       -2.3995197E-33
   1.330000       -2.4163587E-33
   1.340000       -2.4331976E-33
   1.350000       -2.4500366E-33
   1.360000       -2.4668752E-33
   1.370000       -2.4837141E-33
   1.380000       -2.5005535E-33
   1.390000       -2.5173920E-33
   1.400000       -2.5342310E-33
   1.410000       -2.5510700E-33
   1.420000       -2.5679089E-33
   1.430000       -2.5847477E-33
   1.440000       -2.6015866E-33
   1.450000       -2.6184256E-33
   1.460000       -2.6352642E-33
   1.470000       -2.6521035E-33
   1.480000       -2.6689421E-33
   1.490000       -2.6857811E-33
   1.500000       -2.7026200E-33
   1.510000       -2.7194590E-33
   1.520000       -2.7362978E-33
   1.530000       -2.7531367E-33
   1.540000       -2.7699758E-33
   1.550000       -2.7868146E-33
   1.560000       -2.8036536E-33
   1.570000       -2.8204925E-33
   1.580000       -2.8373315E-33
   1.590000       -2.8541701E-33
   1.600000       -2.8710090E-33
   1.610000       -2.8878480E-33
   1.620000       -2.9046868E-33
   1.630000       -2.9215259E-33
   1.640000       -2.9383647E-33
   1.650000       -2.9552036E-33
   1.660000       -2.9720426E-33
   1.670000       -2.9888815E-33
   1.680000       -3.0057201E-33
   1.690000       -3.0225591E-33
   1.700000       -3.0393984E-33
   1.710000       -3.0562368E-33
   1.720000       -3.0730760E-33
   1.730000       -3.0899151E-33
   1.740000       -3.1067541E-33
   1.750000       -3.1235926E-33
   1.760000       -3.1404316E-33
   1.770000       -3.1572706E-33
   1.780000       -3.1741092E-33
   1.790000       -3.1909485E-33
   1.800000       -3.2077871E-33
   1.810000       -3.2246260E-33
   1.820000       -3.2414650E-33
   1.830000       -3.2583039E-33
   1.840000       -3.2751429E-33
   1.850000       -3.2919815E-33
   1.860000       -3.3088208E-33
   1.870000       -3.3256594E-33
   1.880000       -3.3424984E-33
   1.890000       -3.3593377E-33
   1.900000       -3.3761766E-33
   1.910000       -3.3930152E-33
   1.920000       -3.4098542E-33
   1.930000       -3.4266931E-33
   1.940000       -3.4435321E-33
   1.950000       -3.4603710E-33
   1.960000       -3.4772100E-33
   1.970000       -3.4940490E-33
   1.980000       -3.5108879E-33
   1.990000       -3.5277269E-33
   2.000000       -3.5445655E-33
   2.010000       -3.5614048E-33
   2.020000       -3.5782437E-33
   2.030000       -3.5950823E-33
   2.040000       -3.6119213E-33
   2.050000       -3.6287602E-33
   2.060000       -3.6455996E-33
   2.070000       -3.6624382E-33
   2.080000       -3.6792771E-33
   2.090000       -3.6961161E-33
   2.100000       -3.7129547E-33
   2.110000       -3.7297940E-33
   2.120000       -3.7466326E-33
   2.130000       -3.7634715E-33
   2.140000       -3.7803105E-33
   2.150000       -3.7971494E-33
   2.160000       -3.8139880E-33
   2.170000       -3.8308270E-33
   2.180000       -3.8476663E-33
   2.190000       -3.8645049E-33
   2.200000       -3.8813439E-33
   2.210000       -3.8981828E-33
   2.220000       -3.9150218E-33
   2.230000       -3.9318607E-33
   2.240000       -3.9486993E-33
   2.250000       -3.9655386E-33
   2.260000       -3.9823776E-33
   2.270000       -3.9992166E-33
   2.280000       -4.0160555E-33
   2.290000       -4.0328941E-33
   2.300000       -4.0497334E-33
   2.310000       -4.0665724E-33
   2.320000       -4.0834110E-33
   2.330000       -4.1002499E-33
   2.340000       -4.1170889E-33
   2.350000       -4.1339278E-33
   2.360000       -4.1507664E-33
   2.370000       -4.1676054E-33
   2.380000       -4.1844440E-33
   2.390000       -4.2012829E-33
   2.400000       -4.2181219E-33
   2.410000       -4.2349612E-33
   2.420000       -4.2517994E-33
   2.430000       -4.2686388E-33
   2.440000       -4.2854777E-33
   2.450000       -4.3023163E-33
   2.460000       -4.3191553E-33
   2.470000       -4.3359942E-33
   2.480000       -4.3528332E-33
   2.490000       -4.3696721E-33
   2.500000       -4.3865111E-33
   2.510000       -4.4033500E-33
   2.520000       -4.4201890E-33
   2.530000       -4.4370280E-33
   2.540000       -4.4538665E-33
   2.550000       -4.4707059E-33
   2.560000       -4.4875448E-33
   2.570000       -4.5043838E-33
   2.580000       -4.5212224E-33
   2.590000       -4.5380613E-33
   2.600000       -4.5549007E-33
   2.610000       -4.5717389E-33
   2.620000       -4.5885782E-33
   2.630000       -4.6054172E-33
   2.640000       -4.6222557E-33
   2.650000       -4.6390951E-33
   2.660000       -4.6559337E-33
   2.670000       -4.6727726E-33
   2.680000       -4.6896116E-33
   2.690000       -4.7064505E-33
   2.700000       -4.7232891E-33
   2.710000       -4.7398460E-33
   2.720000       -4.7560446E-33
   2.730000       -4.7723054E-33
   2.740000       -4.7886984E-33
   2.750000       -4.8050084E-33
   2.760000       -4.8209606E-33
   2.770000       -4.8367622E-33
   2.780000       -4.8523375E-33
   2.790000       -4.8676865E-33
   2.800000       -4.8828019E-33
   2.810000       -4.8973321E-33
   2.820000       -4.9115919E-33
   2.830000       -4.9255722E-33
   2.840000       -4.9390941E-33
   2.850000       -4.9522181E-33
   2.860000       -4.9647257E-33
   2.870000       -4.9762210E-33
   2.880000       -4.9865510E-33
   2.890000       -4.9956974E-33
   2.900000       -5.0034939E-33
   2.910000       -5.0096473E-33
   2.920000       -5.0139610E-33
   2.930000       -5.0158057E-33
   2.940000       -5.0146291E-33
   2.950000       -5.0103595E-33
   2.960000       -5.0022876E-33
   2.970000       -4.9898325E-33
   2.980000       -4.9722687E-33
   2.990000       -4.9486916E-33
   3.000000       -4.9184260E-33
   3.010000       -4.8799480E-33
   3.020000       -4.8318945E-33
   3.030000       -4.7730537E-33
   3.040000       -4.7015351E-33
   3.050000       -4.6152634E-33
   3.060000       -4.5124043E-33
   3.070000       -4.3899777E-33
   3.080000       -4.2452229E-33
   3.090000       -4.0757287E-33
   3.100000       -3.8774471E-33
   3.110000       -3.6456954E-33
   3.120000       -3.3756403E-33
   3.130000       -3.0615738E-33
   3.140000       -2.6977941E-33
   3.150000       -2.2782333E-33
   3.160000       -1.7946236E-33
   3.170000       -1.2377659E-33
   3.180000       -5.9739472E-34
   3.190000        1.3770053E-34
   3.200000        9.7928129E-34
   3.210000        1.9414334E-33
   3.220000        3.0386424E-33
   3.230000        4.2890857E-33
   3.240000        5.7140681E-33
   3.250000        7.3344728E-33
   3.260000        9.1761484E-33
   3.270000        1.1261652E-32
   3.280000        1.3616386E-32
   3.290000        1.6275857E-32
   3.300000        1.9264621E-32
   3.310000        2.2612529E-32
   3.320000        2.6361387E-32
   3.330000        3.0563464E-32
   3.340000        3.5279983E-32
   3.350000        4.0570809E-32
   3.360000        4.6500194E-32
   3.370000        5.3135383E-32
   3.380000        6.0553370E-32
   3.390000        6.8832418E-32
   3.400000        7.8061482E-32
   3.410000        8.8352371E-32
   3.420000        9.9809074E-32
   3.430000        1.1255276E-31
   3.440000        1.2673036E-31
   3.450000        1.4247160E-31
   3.460000        1.5993409E-31
   3.470000        1.7929510E-31
   3.480000        2.0073459E-31
   3.490000        2.2446293E-31
   3.500000        2.5071110E-31
   3.510000        2.7971624E-31
   3.520000        3.1173224E-31
   3.530000        3.4704322E-31
   3.540000        3.8594230E-31
   3.550000        4.2875409E-31
   3.560000        4.7584862E-31
   3.570000        5.2761373E-31
   3.580000        5.8445504E-31
   3.590000        6.4682747E-31
   3.600000        7.1522032E-31
   3.610000        7.9013580E-31
   3.620000        8.7212079E-31
   3.630000        9.6177406E-31
   3.640000        1.0597268E-30
   3.650000        1.1666564E-30
   3.660000        1.2832927E-30
   3.670000        1.4104156E-30
   3.680000        1.5488571E-30
   3.690000        1.6995017E-30
   3.700000        1.8633019E-30
   3.710000        2.0412537E-30
   3.720000        2.2344146E-30
   3.730000        2.4439346E-30
   3.740000        2.6710224E-30
   3.750000        2.9169621E-30
   3.760000        3.1831213E-30
   3.770000        3.4709275E-30
   3.780000        3.7818696E-30
   3.790000        4.1175562E-30
   3.800000        4.4796878E-30
   3.810000        4.8700208E-30
   3.820000        5.2904284E-30
   3.830000        5.7428997E-30
   3.840000        6.2294877E-30
   3.850000        6.7523518E-30
   3.860000        7.3137852E-30
   3.870000        7.9161792E-30
   3.880000        8.5620112E-30
   3.890000        9.2538714E-30
   3.900000        9.9944825E-30
   3.910000        1.0786669E-29
   3.920000        1.1633365E-29
   3.930000        1.2537618E-29
   3.940000        1.3502606E-29
   3.950000        1.4531620E-29
   3.960000        1.5628047E-29
   3.970000        1.6795396E-29
   3.980000        1.8037295E-29
   3.990000        1.9357474E-29
   4.000000        2.0759769E-29
   4.010000        2.2248111E-29
   4.020000        2.3826531E-29
   4.030000        2.5499132E-29
   4.040000        2.7270133E-29
   4.050000        2.9143834E-29
   4.060000        3.1124554E-29
   4.070000        3.3216697E-29
   4.080000        3.5424710E-29
   4.090000        3.7753081E-29
   4.100000        4.0206306E-29
   4.110000        4.2788891E-29
   4.120000        4.5505310E-29
   4.130000        4.8360029E-29
   4.140000        5.1357456E-29
   4.150000        5.4501928E-29
   4.160000        5.7797669E-29
   4.170000        6.1248797E-29
   4.180000        6.4859272E-29
   4.190000        6.8632879E-29
   4.200000        7.2573157E-29
   4.210000        7.6683423E-29
   4.220000        8.0966673E-29
   4.230000        8.5425640E-29
   4.240000        9.0062623E-29
   4.250000        9.4879530E-29
   4.260000        9.9877824E-29
   4.270000        1.0505837E-28
   4.280000        1.1042153E-28
   4.290000        1.1596705E-28
   4.300000        1.2169387E-28
   4.310000        1.2760024E-28
   4.320000        1.3368360E-28
   4.330000        1.3994042E-28
   4.340000        1.4636622E-28
   4.350000        1.5295547E-28
   4.360000        1.5970140E-28
   4.370000        1.6659600E-28
   4.380000        1.7363001E-28
   4.390000        1.8079264E-28
   4.400000        1.8807159E-28
   4.410000        1.9545278E-28
   4.420000        2.0292046E-28
   4.430000        2.1045689E-28
   4.440000        2.1804238E-28
   4.450000        2.2565493E-28
   4.460000        2.3327022E-28
   4.470000        2.4086152E-28
   4.480000        2.4839941E-28
   4.490000        2.5585166E-28
   4.500000        2.6318312E-28
   4.510000        2.7035523E-28
   4.520000        2.7732635E-28
   4.530000        2.8405112E-28
   4.540000        2.9048041E-28
   4.550000        2.9656112E-28
   4.560000        3.0223578E-28
   4.570000        3.0744253E-28
   4.580000        3.1211469E-28
   4.590000        3.1618062E-28
   4.600000        3.1956322E-28
   4.610000        3.2217979E-28
   4.620000        3.2394175E-28
   4.630000        3.2475416E-28
   4.640000        3.2451546E-28
   4.650000        3.2311690E-28
   4.660000        3.2044248E-28
   4.670000        3.1636825E-28
   4.680000        3.1076201E-28
   4.690000        3.0348262E-28
   4.700000        2.9437976E-28
   4.710000        2.8329332E-28
   4.720000        2.7005267E-28
   4.730000        2.5447640E-28
   4.740000        2.3637128E-28
   4.750000        2.1553190E-28
   4.760000        1.9173974E-28
   4.770000        1.6476257E-28
   4.780000        1.3435347E-28
   4.790000        1.0025017E-28
   4.800000        6.2173966E-29
   4.810000        1.9828777E-29
   4.820000       -2.7099848E-29
   4.830000       -7.8945897E-29
   4.840000       -1.3606409E-28
   4.850000       -1.9883112E-28
   4.860000       -2.6764694E-28
   4.870000       -3.4293636E-28
   4.880000       -4.2515053E-28
   4.890000       -5.1476829E-28
   4.900000       -6.1229834E-28
   4.910000       -7.1828106E-28
   4.920000       -8.3329009E-28
   4.930000       -9.5793502E-28
   4.940000       -1.0928631E-27
   4.950000       -1.2387620E-27
   4.960000       -1.3963622E-27
   4.970000       -1.5664397E-27
   4.980000       -1.7498194E-27
   4.990000       -1.9473779E-27
   5.000000       -2.1600466E-27
   5.010000       -2.3888151E-27
   5.020000       -2.6347355E-27
   5.030000       -2.8989267E-27
   5.040000       -3.1825761E-27
   5.050000       -3.4869485E-27
   5.060000       -3.8133871E-27
   5.070000       -4.1633201E-27
   5.080000       -4.5382671E-27
   5.090000       -4.9398420E-27
   5.100000       -5.3697612E-27
   5.110000       -5.8298512E-27
   5.120000       -6.3220519E-27
   5.130000       -6.8484266E-27
   5.140000       -7.4111672E-27
   5.150000       -8.0126074E-27
   5.160000       -8.6552262E-27
   5.170000       -9.3416569E-27
   5.180000       -1.0074702E-26
   5.190000       -1.0857336E-26
   5.200000       -1.1692721E-26
   5.210000       -1.2584220E-26
   5.220000       -1.3535399E-26
   5.230000       -1.4550049E-26
   5.240000       -1.5632200E-26
   5.250000       -1.6786123E-26
   5.260000       -1.8016361E-26
   5.270000       -1.9327725E-26
   5.280000       -2.0725331E-26
   5.290000       -2.2214604E-26
   5.300000       -2.3801289E-26
   5.310000       -2.5491493E-26
   5.320000       -2.7291675E-26
   5.330000       -2.9208694E-26
   5.340000       -3.1249810E-26
   5.350000       -3.3422708E-26
   5.360000       -3.5735538E-26
   5.370000       -3.8196919E-26
   5.380000       -4.0815978E-26
   5.390000       -4.3602354E-26
   5.400000       -4.6566274E-26
   5.410000       -4.9718513E-26
   5.420000       -5.3070476E-26
   5.430000       -5.6634223E-26
   5.440000       -6.0422468E-26
   5.450000       -6.4448648E-26
   5.460000       -6.8726936E-26
   5.470000       -7.3272279E-26
   5.480000       -7.8100428E-26
   5.490000       -8.3228006E-26
   5.500000       -8.8672526E-26
   5.510000       -9.4452405E-26
   5.520000       -1.0058707E-25
   5.530000       -1.0709692E-25
   5.540000       -1.1400344E-25
   5.550000       -1.2132922E-25
   5.560000       -1.2909796E-25
   5.570000       -1.3733462E-25
   5.580000       -1.4606531E-25
   5.590000       -1.5531753E-25
   5.600000       -1.6512004E-25
   5.610000       -1.7550306E-25
   5.620000       -1.8649823E-25
   5.630000       -1.9813864E-25
   5.640000       -2.1045902E-25
   5.650000       -2.2349563E-25
   5.660000       -2.3728645E-25
   5.670000       -2.5187118E-25
   5.680000       -2.6729122E-25
   5.690000       -2.8358983E-25
   5.700000       -3.0081229E-25
   5.710000       -3.1900561E-25
   5.720000       -3.3821901E-25
   5.730000       -3.5850348E-25
   5.740000       -3.7991253E-25
   5.750000       -4.0250146E-25
   5.760000       -4.2632804E-25
   5.770000       -4.5145213E-25
   5.780000       -4.7793601E-25
   5.790000       -5.0584443E-25
   5.800000       -5.3524454E-25
   5.810000       -5.6620575E-25
   5.820000       -5.9880035E-25
   5.830000       -6.3310298E-25
   5.840000       -6.6919085E-25
   5.850000       -7.0714404E-25
   5.860000       -7.4704492E-25
   5.870000       -7.8897904E-25
   5.880000       -8.3303435E-25
   5.890000       -8.7930174E-25
   5.900000       -9.2787466E-25
   5.910000       -9.7884957E-25
   5.920000       -1.0323257E-24
   5.930000       -1.0884051E-24
   5.940000       -1.1471920E-24
   5.950000       -1.2087945E-24
   5.960000       -1.2733223E-24
   5.970000       -1.3408885E-24
   5.980000       -1.4116087E-24
   5.990000       -1.4856009E-24
   6.000000       -1.5629861E-24
   6.010000       -1.6438872E-24
   6.020000       -1.7284297E-24
   6.030000       -1.8167417E-24
   6.040000       -1.9089531E-24
   6.050000       -2.0051957E-24
   6.060000       -2.1056037E-24
   6.070000       -2.2103123E-24
   6.080000       -2.3194591E-24
   6.090000       -2.4331829E-24
   6.100000       -2.5516235E-24
   6.110000       -2.6749206E-24
   6.120000       -2.8032164E-24
   6.130000       -2.9366519E-24
   6.140000       -3.0753697E-24
   6.150000       -3.2195114E-24
   6.160000       -3.3692170E-24
   6.170000       -3.5246274E-24
   6.180000       -3.6858820E-24
   6.190000       -3.8531161E-24
   6.200000       -4.0264664E-24
   6.210000       -4.2060640E-24
   6.220000       -4.3920391E-24
   6.230000       -4.5845148E-24
   6.240000       -4.7836143E-24
   6.250000       -4.9894517E-24
   6.260000       -5.2021385E-24
   6.270000       -5.4217787E-24
   6.280000       -5.6484685E-24
   6.290000       -5.8822979E-24
   6.300000       -6.1233478E-24
   6.310000       -6.3716891E-24
   6.320000       -6.6273838E-24
   6.330000       -6.8904799E-24
   6.340000       -7.1610174E-24
   6.350000       -7.4390183E-24
   6.360000       -7.7244936E-24
   6.370000       -8.0174379E-24
   6.380000       -8.3178275E-24
   6.390000       -8.6256252E-24
   6.400000       -8.9407712E-24
   6.410000       -9.2631842E-24
   6.420000       -9.5927640E-24
   6.430000       -9.9293851E-24
   6.440000       -1.0272900E-23
   6.450000       -1.0623129E-23
   6.460000       -1.0979870E-23
   6.470000       -1.1342891E-23
   6.480000       -1.1711928E-23
   6.490000       -1.2086678E-23
   6.500000       -1.2466815E-23
   6.510000       -1.2851962E-23
   6.520000       -1.3241717E-23
   6.530000       -1.3635622E-23
   6.540000       -1.4033192E-23
   6.550000       -1.4433886E-23
   6.560000       -1.4837118E-23
   6.570000       -1.5242255E-23
   6.580000       -1.5648612E-23
   6.590000       -1.6055443E-23
   6.600000       -1.6461954E-23
   6.610000       -1.6867287E-23
   6.620000       -1.7270524E-23
   6.630000       -1.7670677E-23
   6.640000       -1.8066699E-23
   6.650000       -1.8457474E-23
   6.660000       -1.8841804E-23
   6.670000       -1.9218419E-23
   6.680000       -1.9585974E-23
   6.690000       -1.9943046E-23
   6.700000       -2.0288117E-23
   6.710000       -2.0619587E-23
   6.720000       -2.0935772E-23
   6.730000       -2.1234881E-23
   6.740000       -2.1515048E-23
   6.750000       -2.1774285E-23
   6.760000       -2.2010521E-23
   6.770000       -2.2221559E-23
   6.780000       -2.2405109E-23
   6.790000       -2.2558765E-23
   6.800000       -2.2680007E-23
   6.810000       -2.2766191E-23
   6.820000       -2.2814561E-23
   6.830000       -2.2822232E-23
   6.840000       -2.2786189E-23
   6.850000       -2.2703295E-23
   6.860000       -2.2570267E-23
   6.870000       -2.2383703E-23
   6.880000       -2.2140044E-23
   6.890000       -2.1835597E-23
   6.900000       -2.1466540E-23
   6.910000       -2.1028872E-23
   6.920000       -2.0518469E-23
   6.930000       -1.9931046E-23
   6.940000       -1.9262163E-23
   6.950000       -1.8507223E-23
   6.960000       -1.7661477E-23
   6.970000       -1.6720011E-23
   6.980000       -1.5677752E-23
   6.990000       -1.4529459E-23
   7.000000       -1.3269735E-23
   7.010000       -1.1893014E-23
   7.020000       -1.0393560E-23
   7.030000       -8.7654776E-24
   7.040000       -7.0026993E-24
   7.050000       -5.0989949E-24
   7.060000       -3.0479680E-24
   7.070000       -8.4305565E-25
   7.080000        1.5224700E-24
   7.090000        4.0554992E-24
   7.100000        6.7630836E-24
   7.110000        9.6524358E-24
   7.120000        1.2730921E-23
   7.130000        1.6006063E-23
   7.140000        1.9485532E-23
   7.150000        2.3177144E-23
   7.160000        2.7088859E-23
   7.170000        3.1228769E-23
   7.180000        3.5605108E-23
   7.190000        4.0226220E-23
   7.200000        4.5100576E-23
   7.210000        5.0236777E-23
   7.220000        5.5643484E-23
   7.230000        6.1329486E-23
   7.240000        6.7303650E-23
   7.250000        7.3574924E-23
   7.260000        8.0152301E-23
   7.270000        8.7044837E-23
   7.280000        9.4261627E-23
   7.290000        1.0181180E-22
   7.300000        1.0970450E-22
   7.310000        1.1794888E-22
   7.320000        1.2655403E-22
   7.330000        1.3552908E-22
   7.340000        1.4488303E-22
   7.350000        1.5462487E-22
   7.360000        1.6476345E-22
   7.370000        1.7530757E-22
   7.380000        1.8626586E-22
   7.390000        1.9764676E-22
   7.400000        2.0945863E-22
   7.410000        2.2170957E-22
   7.420000        2.3440741E-22
   7.430000        2.4755980E-22
   7.440000        2.6117407E-22
   7.450000        2.7525720E-22
   7.460000        2.8981594E-22
   7.470000        3.0485655E-22
   7.480000        3.2038494E-22
   7.490000        3.3640646E-22
   7.500000        3.5292615E-22
   7.510000        3.6994853E-22
   7.520000        3.8747729E-22
   7.530000        4.0551596E-22
   7.540000        4.2406704E-22
   7.550000        4.4313258E-22
   7.560000        4.6271370E-22
   7.570000        4.8281110E-22
   7.580000        5.0342437E-22
   7.590000        5.2455231E-22
   7.600000        5.4619280E-22
   7.610000        5.6834280E-22
   7.620000        5.9099823E-22
   7.630000        6.1415399E-22
   7.640000        6.3780371E-22
   7.650000        6.6194003E-22
   7.660000        6.8655430E-22
   7.670000        7.1163650E-22
   7.680000        7.3717540E-22
   7.690000        7.6315808E-22
   7.700000        7.8957045E-22
   7.710000        8.1639672E-22
   7.720000        8.4361972E-22
   7.730000        8.7122000E-22
   7.740000        8.9917703E-22
   7.750000        9.2746828E-22
   7.760000        9.5606923E-22
   7.770000        9.8495370E-22
   7.780000        1.0140931E-21
   7.790000        1.0434569E-21
   7.800000        1.0730126E-21
   7.810000        1.1027253E-21
   7.820000        1.1325577E-21
   7.830000        1.1624704E-21
   7.840000        1.1924211E-21
   7.850000        1.2223656E-21
   7.860000        1.2522569E-21
   7.870000        1.2820449E-21
   7.880000        1.3116773E-21
   7.890000        1.3410985E-21
   7.900000        1.3702501E-21
   7.910000        1.3990715E-21
   7.920000        1.4274978E-21
   7.930000        1.4554615E-21
   7.940000        1.4828925E-21
   7.950000        1.5097166E-21
   7.960000        1.5358572E-21
   7.970000        1.5612329E-21
   7.980000        1.5857599E-21
   7.990000        1.6093510E-21
   8.000000        1.6319143E-21
   8.010000        1.6533552E-21
   8.020000        1.6735752E-21
   8.030000        1.6924722E-21
   8.040000        1.7099398E-21
   8.050000        1.7258679E-21
   8.060000        1.7401422E-21
   8.070000        1.7526451E-21
   8.080000        1.7632542E-21
   8.090000        1.7718437E-21
   8.100000        1.7782826E-21
   8.110000        1.7824373E-21
   8.120000        1.7841690E-21
   8.130000        1.7833352E-21
   8.140000        1.7797885E-21
   8.150000        1.7733783E-21
   8.160000        1.7639487E-21
   8.170000        1.7513405E-21
   8.180000        1.7353898E-21
   8.190000        1.7159280E-21
   8.200000        1.6927836E-21
   8.210000        1.6657799E-21
   8.220000        1.6347362E-21
   8.230000        1.5994678E-21
   8.240000        1.5597865E-21
   8.250000        1.5154989E-21
   8.260000        1.4664087E-21
   8.270000        1.4123153E-21
   8.280000        1.3530146E-21
   8.290000        1.2882988E-21
   8.300000        1.2179559E-21
   8.310000        1.1417711E-21
   8.320000        1.0595260E-21
   8.330000        9.7099907E-22
   8.340000        8.7596589E-22
   8.350000        7.7419844E-22
   8.360000        6.6546695E-22
   8.370000        5.4953818E-22
   8.380000        4.2617704E-22
   8.390000        2.9514611E-22
   8.400000        1.5620607E-22
   8.410000        9.1159291E-24
   8.420000       -1.4636672E-22
   8.430000       -3.1048555E-22
   8.440000       -4.8348510E-22
   8.450000       -6.6561064E-22
   8.460000       -8.5710755E-22
   8.470000       -1.0582215E-21
   8.480000       -1.2691972E-21
   8.490000       -1.4902793E-21
   8.500000       -1.7217108E-21
   8.510000       -1.9637338E-21
   8.520000       -2.2165884E-21
   8.530000       -2.4805115E-21
   8.540000       -2.7557381E-21
   8.550000       -3.0424995E-21
   8.560000       -3.3410241E-21
   8.570000       -3.6515351E-21
   8.580000       -3.9742519E-21
   8.590000       -4.3093868E-21
   8.600000       -4.6571480E-21
   8.610000       -5.0177374E-21
   8.620000       -5.3913488E-21
   8.630000       -5.7781680E-21
   8.640000       -6.1783731E-21
   8.650000       -6.5921363E-21
   8.660000       -7.0196146E-21
   8.670000       -7.4609583E-21
   8.680000       -7.9163051E-21
   8.690000       -8.3857810E-21
   8.700000       -8.8695007E-21
   8.710000       -9.3675644E-21
   8.720000       -9.8800609E-21
   8.730000       -1.0407058E-20
   8.740000       -1.0948613E-20
   8.750000       -1.1504768E-20
   8.760000       -1.2075539E-20
   8.770000       -1.2660931E-20
   8.780000       -1.3260931E-20
   8.790000       -1.3875499E-20
   8.800000       -1.4504578E-20
   8.810000       -1.5148086E-20
   8.820000       -1.5805922E-20
   8.830000       -1.6477958E-20
   8.840000       -1.7164043E-20
   8.850000       -1.7863993E-20
   8.860000       -1.8577609E-20
   8.870000       -1.9304649E-20
   8.880000       -2.0044851E-20
   8.890000       -2.0797920E-20
   8.900000       -2.1563531E-20
   8.910000       -2.2341323E-20
   8.920000       -2.3130901E-20
   8.930000       -2.3931842E-20
   8.940000       -2.4743672E-20
   8.950000       -2.5565891E-20
   8.960000       -2.6397967E-20
   8.970000       -2.7239310E-20
   8.980000       -2.8089299E-20