 -0.1000000       -5.4760000E-26
 -9.0000004E-02   -1.6310731E-25
 -7.9999998E-02   -2.6804892E-25
 -7.0000000E-02   -3.6765967E-25
 -5.9999999E-02   -4.6043873E-25
 -5.0000001E-02   -5.4531967E-25
 -3.9999999E-02   -1.6713460E-18
 -2.9999999E-02   -9.9191421E-18
 -2.0000000E-02    1.3273992E-16
 -9.9999998E-03    2.9384511E-15
  0.0000000E+00    3.1464669E-14
  9.9999998E-03    2.4668269E-13
  2.0000000E-02    1.5724243E-12
  2.9999999E-02    8.5039155E-12
  3.9999999E-02    3.9882021E-11
  5.0000001E-02    1.6442146E-10
  5.9999999E-02    6.0180411E-10
  7.0000000E-02    1.9709128E-09
  7.9999998E-02    5.8125273E-09
  9.0000004E-02    1.5514937E-08
  0.1000000        3.7619579E-08
  0.1100000        8.3022805E-08
  0.1200000        1.6668642E-07
  0.1300000        3.0317088E-07
  0.1400000        4.9403963E-07
  0.1500000        7.0291691E-07
  0.1600000        8.1617412E-07
  0.1700000        5.9350231E-07
  0.1800000       -3.7590809E-07
  0.1900000       -2.6796704E-06
  0.2000000       -7.0014098E-06
  0.2100000       -1.3891532E-05
  0.2200000       -2.3334602E-05
  0.2300000       -3.4099347E-05
  0.2400000       -4.2949279E-05
  0.2500000       -4.3941756E-05
  0.2600000       -2.8233848E-05
  0.2700000        1.5013091E-05
  0.2800000        9.5988682E-05
  0.2900000        2.1942494E-04
  0.3000000        3.7781845E-04
  0.3100000        5.4393604E-04
  0.3200000        6.6520169E-04
  0.3300000        6.6378032E-04
  0.3400000        4.4658361E-04
  0.3500000       -7.1711838E-05
  0.3600000       -9.3279878E-04
  0.3700000       -2.0914644E-03
  0.3800000       -3.3766255E-03
  0.3900000       -4.4736150E-03
  0.4000000       -4.9460609E-03
  0.4100000       -4.3107294E-03
  0.4200000       -2.1661285E-03
  0.4300000        1.6431960E-03
  0.4400000        6.8654642E-03
  0.4500000        1.2737981E-02
  0.4600000        1.7997913E-02
  0.4700000        2.1048117E-02
  0.4800000        2.0282269E-02
  0.4900000        1.4523410E-02
  0.5000000        3.4791876E-03
  0.5100000       -1.1916988E-02
  0.5200000       -2.9410413E-02
  0.5300000       -4.5665029E-02
  0.5400000       -5.6847733E-02
  0.5500000       -5.9463844E-02
  0.5600000       -5.1256690E-02
  0.5700000       -3.1931199E-02
  0.5800000       -3.4757489E-03
  0.5900000        3.0056216E-02
  0.6000000        6.3297927E-02
  0.6100000        9.0685599E-02
  0.6200000        0.1076429    
  0.6300000        0.1114934    
  0.6400000        0.1018257    
  0.6500000        8.0203690E-02
  0.6600000        4.9337078E-02
  0.6700000        1.2031331E-02
  0.6800000       -2.9651571E-02
  0.6900000       -7.4630320E-02
  0.7000000       -0.1222458    
  0.7100000       -0.1710228    
  0.7200000       -0.2171913    
  0.7300000       -0.2536272    
  0.7400000       -0.2698858    
  0.7500000       -0.2537608    
  0.7600000       -0.1943449    
  0.7700000       -8.6008906E-02
  0.7800000        6.7773052E-02
  0.7900000        0.2520495    
  0.8000000        0.4406196    
  0.8100000        0.5994533    
  0.8200000        0.6930378    
  0.8300000        0.6924499    
  0.8400000        0.5832223    
  0.8500000        0.3708108    
  0.8600000        8.1822112E-02
  0.8700000       -0.2398812    
  0.8800000       -0.5417349    
  0.8900000       -0.7738478    
  0.9000000       -0.9003644    
  0.9100000       -0.9077242    
  0.9200000       -0.8073558    
  0.9300000       -0.6317690    
  0.9400000       -0.4248710    
  0.9500000       -0.2290951    
  0.9600000       -7.3049374E-02
  0.9700000        3.6541853E-02
  0.9800000        0.1159334    
  0.9900000        0.1978284    
   1.000000        0.3189204    
   1.010000        0.5051981    
   1.020000        0.7596523    
   1.030000         1.056563    
   1.040000         1.344703    
   1.050000         1.559089    
   1.060000         1.638116    
   1.070000         1.540986    
   1.080000         1.259919    
   1.090000        0.8229708    
   1.100000        0.2860674    
   1.110000       -0.2837037    
   1.120000       -0.8285466    
   1.130000        -1.317579    
   1.140000        -1.755512    
   1.150000        -2.178712    
   1.160000        -2.638696    
   1.170000        -3.177074    
   1.180000        -3.798838    
   1.190000        -4.451838    
   1.200000        -5.018870    
   1.210000        -5.325449    
   1.220000        -5.161980    
   1.230000        -4.315046    
   1.240000        -2.600042    
   1.250000        0.1127560    
   1.260000         3.884467    
   1.270000         8.708160    
   1.280000         14.52138    
   1.290000         21.22491    
   1.300000         28.70047    
   1.310000         36.82098    
   1.320000         45.44975    
   1.330000         54.42906    
   1.340000         63.56238    
   1.350000         72.59695    
   1.360000         81.21404    
   1.370000         89.03200    
   1.380000         95.62437    
   1.390000         100.5503    
   1.400000         103.3918    
   1.410000         103.7909    
   1.420000         101.4787    
   1.430000         96.29257    
   1.440000         88.18017    
   1.450000         77.19321    
   1.460000         63.47579    
   1.470000         47.25299    
   1.480000         28.82400    
   1.490000         8.560078    
   1.500000        -13.09474    
   1.510000        -35.62608    
   1.520000        -58.46046    
   1.530000        -80.98918    
   1.540000        -102.6055    
   1.550000        -122.7500    
   1.560000        -140.9560    
   1.570000        -156.8847    
   1.580000        -170.3415    
   1.590000        -181.2690    
   1.600000        -189.7194    
   1.610000        -195.8127    
   1.620000        -199.6942    
   1.630000        -201.5017    
   1.640000        -201.3503    
   1.650000        -199.3376    
   1.660000        -195.5617    
   1.670000        -190.1433    
   1.680000        -183.2377    
   1.690000        -175.0304    
   1.700000        -165.7126    
   1.710000        -155.4438    
   1.720000        -144.3135    
   1.730000        -132.3172    
   1.740000        -119.3582    
   1.750000        -105.2777    
   1.760000        -89.90841    
   1.770000        -73.13519    
   1.780000        -54.94547    
   1.790000        -35.45205    
   1.800000        -14.88081    
   1.810000         6.473447    
   1.820000         28.30890    
   1.830000         50.37509    
   1.840000         72.50784    
   1.850000         94.62752    
   1.860000         116.7002    
   1.870000         138.6734    
   1.880000         160.4076    
   1.890000         181.6276    
   1.900000         201.9109    
   1.910000         220.7210    
   1.920000         237.4767    
   1.930000         251.6419    
   1.940000         262.8079    
   1.950000         270.7503    
   1.960000         275.4442    
   1.970000         277.0369    
   1.980000         275.7913    
   1.990000         272.0145    
   2.000000         265.9957    
   2.010000         257.9673    
   2.020000         248.0949    
   2.030000         236.4964    
   2.040000         223.2769    
   2.050000         208.5671    
   2.060000         192.5520    
   2.070000         175.4807    
   2.080000         157.6555    
   2.090000         139.4042    
   2.100000         121.0408    
   2.110000         102.8242    
   2.120000         84.92083    
   2.130000         67.37834    
   2.140000         50.11364    
   2.150000         32.91778    
   2.160000         15.47914    
   2.170000        -2.576265    
   2.180000        -21.62976    
   2.190000        -42.00750    
   2.200000        -63.91825    
   2.210000        -87.40294    
   2.220000        -112.3048    
   2.230000        -138.2683    
   2.240000        -164.7668    
   2.250000        -191.1570    
   2.260000        -216.7489    
   2.270000        -240.8811    
   2.280000        -262.9876    
   2.290000        -282.6490    
   2.300000        -299.6215    
   2.310000        -313.8435    
   2.320000        -325.4248    
   2.330000        -334.6201    
   2.340000        -341.7947    
   2.350000        -347.3824    
   2.360000        -351.8416    
   2.370000        -355.6090    
   2.380000        -359.0553    
   2.390000        -362.4460    
   2.400000        -365.9127    
   2.410000        -369.4394    
   2.420000        -372.8677    
   2.430000        -375.9214    
   2.440000        -378.2470    
   2.450000        -379.4661    
   2.460000        -379.2306    
   2.470000        -377.2726    
   2.480000        -373.4416    
   2.490000        -367.7259    
   2.500000        -360.2526    
   2.510000        -351.2692    
   2.520000        -341.1092    
   2.530000        -330.1461    
   2.540000        -318.7448    
   2.550000        -307.2144    
   2.560000        -295.7738    
   2.570000        -284.5302    
   2.580000        -273.4769    
   2.590000        -262.5056    
   2.600000        -251.4296    
   2.610000        -240.0106    
   2.620000        -227.9832    
   2.630000        -215.0739    
   2.640000        -201.0151    
   2.650000        -185.5592    
   2.660000        -168.5007    
   2.670000        -149.7083    
   2.680000        -129.1702    
   2.690000        -107.0423    
   2.700000        -83.68837    
   2.710000        -59.69455    
   2.720000        -35.84681    
   2.730000        -13.06614    
   2.740000         7.691237    
   2.750000         25.55080    
   2.760000         39.82968    
   2.770000         50.11457    
   2.780000         56.29273    
   2.790000         58.53201    
   2.800000         57.22119    
   2.810000         52.89045    
   2.820000         46.13561    
   2.830000         37.56314    
   2.840000         27.76307    
   2.850000         17.30370    
   2.860000         6.733276    
   2.870000        -3.427459    
   2.880000        -12.71208    
   2.890000        -20.75419    
   2.900000        -27.34015    
   2.910000        -32.44933    
   2.920000        -36.26421    
   2.930000        -39.13968    
   2.940000        -41.53643    
   2.950000        -43.93425    
   2.960000        -46.74986    
   2.970000        -50.28222    
   2.980000        -54.69818    
   2.990000        -60.05712    
   3.000000        -66.35904    
   3.010000        -73.59269    
   3.020000        -81.76218    
   3.030000        -90.88052    
   3.040000        -100.9340    
   3.050000        -111.8345    
   3.060000        -123.3838    
   3.070000        -135.2725    
   3.080000        -147.1206    
   3.090000        -158.5541    
   3.100000        -169.2921    
   3.110000        -179.2167    
   3.120000        -188.3960    
   3.130000        -197.0510    
   3.140000        -205.4693    
   3.150000        -213.8945    
   3.160000        -222.4228    
   3.170000        -230.9434    
   3.180000        -239.1423    
   3.190000        -246.5682    
   3.200000        -252.7419    
   3.210000        -257.2726    
   3.220000        -259.9447    
   3.230000        -260.7477    
   3.240000        -259.8394    
   3.250000        -257.4589    
   3.260000        -253.8176    
   3.270000        -249.0074    
   3.280000        -242.9600    
   3.290000        -235.4706    
   3.300000        -226.2837    
   3.310000        -215.2121    
   3.320000        -202.2531    
   3.330000        -187.6615    
   3.340000        -171.9545    
   3.350000        -155.8416    
   3.360000        -140.0975    
   3.370000        -125.4140    
   3.380000        -112.2724    
   3.390000        -100.8735    
   3.400000        -91.14629    
   3.410000        -82.82790    
   3.420000        -75.59073    
   3.430000        -69.17288    
   3.440000        -63.47036    
   3.450000        -58.56023    
   3.460000        -54.64731    
   3.470000        -51.95304    
   3.480000        -50.58466    
   3.490000        -50.43149    
   3.500000        -51.12716    
   3.510000        -52.09544    
   3.520000        -52.66970    
   3.530000        -52.25023    
   3.540000        -50.44925    
   3.550000        -47.17558    
   3.560000        -42.62908    
   3.570000        -37.20421    
   3.580000        -31.33247    
   3.590000        -25.31406    
   3.600000        -19.19456    
   3.610000        -12.72818    
   3.620000        -5.441635    
   3.630000         3.220272    
   3.640000         13.71309    
   3.650000         26.23271    
   3.660000         40.62749    
   3.670000         56.40985    
   3.680000         72.86249    
   3.690000         89.20515    
   3.700000         104.7696    
   3.710000         119.1311    
   3.720000         132.1608    
   3.730000         143.9907    
   3.740000         154.9110    
   3.750000         165.2411    
   3.760000         175.2179    
   3.770000         184.9384    
   3.780000         194.3693    
   3.790000         203.4121    
   3.800000         211.9955    
   3.810000         220.1545    
   3.820000         228.0663    
   3.830000         236.0257    
   3.840000         244.3677    
   3.850000         253.3630    
   3.860000         263.1197    
   3.870000         273.5279    
   3.880000         284.2679    
   3.890000         294.8828    
   3.900000         304.8987    
   3.910000         313.9593    
   3.920000         321.9349    
   3.930000         328.9758    
   3.940000         335.4872    
   3.950000         342.0327    
   3.960000         349.1843    
   3.970000         357.3583    
   3.980000         366.6779    
   3.990000         376.8981    
   4.000000         387.4161    
   4.010000         397.3641    
   4.020000         405.7634    
   4.030000         411.7017    
   4.040000         414.4890    
   4.050000         413.7546    
   4.060000         409.4652    
   4.070000         401.8654    
   4.080000         391.3673    
   4.090000         378.4250    
   4.100000         363.4361    
   4.110000         346.6982    
   4.120000         328.4275    
   4.130000         308.8254    
   4.140000         288.1596    
   4.150000         266.8210    
   4.160000         245.3290    
   4.170000         224.2729    
   4.180000         204.2077    
   4.190000         185.5365    
   4.200000         168.4212    
   4.210000         152.7567    
   4.220000         138.2201    
   4.230000         124.3823    
   4.240000         110.8447    
   4.250000         97.35622    
   4.260000         83.87090    
   4.270000         70.52686    
   4.280000         57.55632    
   4.290000         45.16171    
   4.300000         33.40408    
   4.310000         22.14665    
   4.320000         11.07593    
   4.330000       -0.2061401    
   4.340000        -12.05127    
   4.350000        -24.64320    
   4.360000        -37.92925    
   4.370000        -51.63108    
   4.380000        -65.33064    
   4.390000        -78.60102    
   4.400000        -91.13392    
   4.410000        -102.8173    
   4.420000        -113.7353    
   4.430000        -124.0893    
   4.440000        -134.0705    
   4.450000        -143.7309    
   4.460000        -152.9026    
   4.470000        -161.1981    
   4.480000        -168.0958    
   4.490000        -173.0857    
   4.500000        -175.8272    
   4.510000        -176.2648    
   4.520000        -174.6630    
   4.530000        -171.5461    
   4.540000        -167.5603    
   4.550000        -163.3013    
   4.560000        -159.1629    
   4.570000        -155.2507    
   4.580000        -151.3876    
   4.590000        -147.2045    
   4.600000        -142.2827    
   4.610000        -136.3008    
   4.620000        -129.1376    
   4.630000        -120.9006    
   4.640000        -111.8745    
   4.650000        -102.4153    
   4.660000        -92.82742    
   4.670000        -83.27271    
   4.680000        -73.74261    
   4.690000        -64.10502    
   4.700000        -54.20829    
   4.710000        -44.00533    
   4.720000        -33.65009    
   4.730000        -23.52829    
   4.740000        -14.20359    
   4.750000        -6.289023    
   4.760000       -0.2798055    
   4.770000         3.602280    
   4.780000         5.502832    
   4.790000         5.934303    
   4.800000         5.676451    
   4.810000         5.604008    
   4.820000         6.490218    
   4.830000         8.843564    
   4.840000         12.82524    
   4.850000         18.26953    
   4.860000         24.79728    
   4.870000         31.98241    
   4.880000         39.51592    
   4.890000         47.31183    
   4.900000         55.52032    
   4.910000         64.44481    
   4.920000         74.39261    
   4.930000         85.51322    
   4.940000         97.68382    
   4.950000         110.4866    
   4.960000         123.2922    
   4.970000         135.4283    
   4.980000         146.3780    
   4.990000         155.9453    
   5.000000         164.3282    
   5.010000         172.0723    
   5.020000         179.9151    
   5.030000         188.5682    
   5.040000         198.5072    
   5.050000         209.8359    
   5.060000         222.2680    
   5.070000         235.2307    
   5.080000         248.0522    
   5.090000         260.1682    
   5.100000         271.2749    
   5.110000         281.3781    
   5.120000         290.7211    
   5.130000         299.6223    
   5.140000         308.2822    
   5.150000         316.6343    
   5.160000         324.2985    
   5.170000         330.6594    
   5.180000         335.0479    
   5.190000         336.9673    
   5.200000         336.2842    
   5.210000         333.3171    
   5.220000         328.7871    
   5.230000         323.6418    
   5.240000         318.8053    
   5.250000         314.9327    
   5.260000         312.2462    
   5.270000         310.5042    
   5.280000         309.1061    
   5.290000         307.2991    
   5.300000         304.4149    
   5.310000         300.0630    
   5.320000         294.2203    
   5.330000         287.1989    
   5.340000         279.5095    
   5.350000         271.6736    
   5.360000         264.0505    
   5.370000         256.7318    
   5.380000         249.5341    
   5.390000         242.0818    
   5.400000         233.9436    
   5.410000         224.7741    
   5.420000         214.4117    
   5.430000         202.9068    
   5.440000         190.4792    
   5.450000         177.4272    
   5.460000         164.0262    
   5.470000         150.4528    
   5.480000         136.7576    
   5.490000         122.8900    
   5.500000         108.7626    
   5.510000         94.32574    
   5.520000         79.62884    
   5.530000         64.84486    
   5.540000         50.25427    
   5.550000         36.19471    
   5.560000         22.99313    
   5.570000         10.90028    
   5.580000        4.5070037E-02
   5.590000        -9.580685    
   5.600000        -18.10606    
   5.610000        -25.73837    
   5.620000        -32.70606    
   5.630000        -39.19970    
   5.640000        -45.32507    
   5.650000        -51.07817    
   5.660000        -56.34781    
   5.670000        -60.94476    
   5.680000        -64.65018    
   5.690000        -67.27039    
   5.700000        -68.68288    
   5.710000        -68.86005    
   5.720000        -67.86465    
   5.730000        -65.81977    
   5.740000        -62.86549    
   5.750000        -59.12127    
   5.760000        -54.67026    
   5.770000        -49.57505    
   5.780000        -43.92028    
   5.790000        -37.86456    
   5.800000        -31.67638    
   5.810000        -25.73036    
   5.820000        -20.45231    
   5.830000        -16.22090    
   5.840000        -13.25261    
   5.850000        -11.50860    
   5.860000        -10.66085    
   5.870000        -10.13864    
   5.880000        -9.251555    
   5.890000        -7.356881    
   5.900000        -4.022480    
   5.910000        0.8673132    
   5.920000         7.098092    
   5.930000         14.21009    
   5.940000         21.65389    
   5.950000         28.96474    
   5.960000         35.89590    
   5.970000         42.46576    
   5.980000         48.90324    
   5.990000         55.51295    
   6.000000         62.51055    
   6.010000         69.89026    
   6.020000         77.37505    
   6.030000         84.47075    
   6.040000         90.60658    
   6.050000         95.31319    
   6.060000         98.37390    
   6.070000         99.89319    
   6.080000         100.2554    
   6.090000         99.98522    
   6.100000         99.55650    
   6.110000         99.21642    
   6.120000         98.88676    
   6.130000         98.17929    
   6.140000         96.52353    
   6.150000         93.36683    
   6.160000         88.38137    
   6.170000         81.60986    
   6.180000         73.50014    
   6.190000         64.81479    
   6.200000         56.44122    
   6.210000         49.15888    
   6.220000         43.43381    
   6.230000         39.30184    
   6.240000         36.37487    
   6.250000         33.96750    
   6.260000         31.30625    
   6.270000         27.75990    
   6.280000         23.02441    
   6.290000         17.21063    
   6.300000         10.81125    
   6.310000         4.558292    
   6.320000       -0.7865759    
   6.330000        -4.648549    
   6.340000        -6.801745    
   6.350000        -7.431743    
   6.360000        -7.082699    
   6.370000        -6.505953    
   6.380000        -6.456306    
   6.390000        -7.495684    
   6.400000        -9.863241    
   6.410000        -13.44877    
   6.420000        -17.87682    
   6.430000        -22.67288    
   6.440000        -27.45845    
   6.450000        -32.11008    
   6.460000        -36.82972    
   6.470000        -42.09981    
   6.480000        -48.53400    
   6.490000        -56.67006    
   6.500000        -66.77027    
   6.510000        -78.69646    
   6.520000        -91.90338    
   6.530000        -105.5568    
   6.540000        -118.7435    
   6.550000        -130.7079    
   6.560000        -141.0427    
   6.570000        -149.7739    
   6.580000        -157.3143    
   6.590000        -164.3034    
   6.600000        -171.3870    
   6.610000        -179.0081    
   6.620000        -187.2759    
   6.630000        -195.9516    
   6.640000        -204.5496    
   6.650000        -212.5151    
   6.660000        -219.4150    
   6.670000        -225.0775    
   6.680000        -229.6370    
   6.690000        -233.4728    
   6.700000        -237.0696    
   6.710000        -240.8486    
   6.720000        -245.0285    
   6.730000        -249.5597    
   6.740000        -254.1480    
   6.750000        -258.3539    
   6.760000        -261.7283    
   6.770000        -263.9391    
   6.780000        -264.8473    
   6.790000        -264.5169    
   6.800000        -263.1621    
   6.810000        -261.0589    
   6.820000        -258.4553    
   6.830000        -255.5097    
   6.840000        -252.2738    
   6.850000        -248.7178    
   6.860000        -244.7804    
   6.870000        -240.4213    
   6.880000        -235.6545    
   6.890000        -230.5522    
   6.900000        -225.2207    
   6.910000        -219.7598    
   6.920000        -214.2216    
   6.930000        -208.5823    
   6.940000        -202.7353    
   6.950000        -196.5045    
   6.960000        -189.6710    
   6.970000        -182.0051    
   6.980000        -173.2948    
   6.990000        -163.3678    
   7.000000        -152.1063    
   7.010000        -139.4568    
   7.020000        -125.4381    
   7.030000        -110.1489    
   7.040000        -93.77289    
   7.050000        -76.57976    
   7.060000        -58.91742    
   7.070000        -41.19413    
   7.080000        -23.84977    
   7.090000        -7.317790    
   7.100000         8.016918    
   7.110000         21.85942    
   7.120000         34.03778    
   7.130000         44.52196    
   7.140000         53.42249    
   7.150000         60.96693    
   7.160000         67.45557    
   7.170000         73.20320    
   7.180000         78.47862    
   7.190000         83.45612    
   7.200000         88.19247    
   7.210000         92.63709    
   7.220000         96.67488    
   7.230000         100.1899    
   7.240000         103.1316    
   7.250000         105.5607    
   7.260000         107.6588    
   7.270000         109.6938    
   7.280000         111.9495    
   7.290000         114.6409    
   7.300000         117.8405    
   7.310000         121.4437    
   7.320000         125.1850    
   7.330000         128.7033    
   7.340000         131.6364    
   7.350000         133.7149    
   7.360000         134.8243    
   7.370000         135.0145    
   7.380000         134.4539    
   7.390000         133.3436    
   7.400000         131.8223    
   7.410000         129.8949    
   7.420000         127.4113    
   7.430000         124.1052    
   7.440000         119.6795    
   7.450000         113.9117    
   7.460000         106.7439    
   7.470000         98.32570    
   7.480000         88.99368    
   7.490000         79.19331    
   7.500000         69.36475    
   7.510000         59.82878    
   7.520000         50.70763    
   7.530000         41.90513    
   7.540000         33.15282    
   7.550000         24.10772    
   7.560000         14.47237    
   7.570000         4.100265    
   7.580000        -6.944673    
   7.590000        -18.39289    
   7.600000        -29.83719    
   7.610000        -40.84361    
   7.620000        -51.07237    
   7.630000        -60.37279    
   7.640000        -68.82316    
   7.650000        -76.70306    
   7.660000        -84.40566    
   7.670000        -92.31528    
   7.680000        -100.6875    
   7.690000        -109.5681    
   7.700000        -118.7773    
   7.710000        -127.9637    
   7.720000        -136.7151    
   7.730000        -144.6894    
   7.740000        -151.7263    
   7.750000        -157.9025    
   7.760000        -163.5123    
   7.770000        -168.9787    
   7.780000        -174.7212    
   7.790000        -181.0260    
   7.800000        -187.9591    
   7.810000        -195.3531    
   7.820000        -202.8723    
   7.830000        -210.1334    
   7.840000        -216.8431    
   7.850000        -222.9014    
   7.860000        -228.4364    
   7.870000        -233.7561    
   7.880000        -239.2319    
   7.890000        -245.1540    
   7.900000        -251.6085    
   7.910000        -258.4203    
   7.920000        -265.1831    
   7.930000        -271.3688    
   7.940000        -276.4816    
   7.950000        -280.2046    
   7.960000        -282.4919    
   7.970000        -283.5741    
   7.980000        -283.8754    
   7.990000        -283.8717    
   8.000000        -283.9335    
   8.010000        -284.2063    
   8.020000        -284.5656    
   8.030000        -284.6580    
   8.040000        -284.0127    
   8.050000        -282.1849    
   8.060000        -278.8849    
   8.070000        -274.0516    
   8.080000        -267.8518    
   8.090000        -260.6083    
   8.100000        -252.6843    
   8.110000        -244.3646    
   8.120000        -235.7711    
   8.130000        -226.8395    
   8.140000        -217.3614    
   8.150000        -207.0789    
   8.160000        -195.7968    
   8.170000        -183.4801    
   8.180000        -170.3038    
   8.190000        -156.6403    
   8.200000        -142.9878    
   8.210000        -129.8589    
   8.220000        -117.6626    
   8.230000        -106.6119    
   8.240000        -96.68333    
   8.250000        -87.63916    
   8.260000        -79.10594    
   8.270000        -70.68567    
   8.280000        -62.06810    
   8.290000        -53.11145    
   8.300000        -43.86872    
   8.310000        -34.55321    
   8.320000        -25.45527    
   8.330000        -16.83767    
   8.340000        -8.842967    
   8.350000        -1.443769    
   8.360000         5.548511    
   8.370000         12.41922    
   8.380000         19.45166    
   8.390000         26.82744    
   8.400000         34.55937    
   8.410000         42.47961    
   8.420000         50.28625    
   8.430000         57.63189    
   8.440000         64.22317    
   8.450000         69.89622    
   8.460000         74.64299    
   8.470000         78.58082    
   8.480000         81.87898    
   8.490000         84.67090    
   8.500000         86.98579    
   8.510000         88.72629    
   8.520000         89.70007    
   8.530000         89.69355    
   8.540000         88.56036    
   8.550000         86.29089    
   8.560000         83.03771    
   8.570000         79.08750    
   8.580000         74.79013    
   8.590000         70.47118    
   8.600000         66.35841    
   8.610000         62.54691    
   8.620000         59.01130    
   8.630000         55.65584    
   8.640000         52.37915    
   8.650000         49.12665    
   8.660000         45.91045    
   8.670000         42.79096    
   8.680000         39.83092    
   8.690000         37.04357    
   8.700000         34.35904    
   8.710000         31.62555    
   8.720000         28.64737    
   8.730000         25.24727    
   8.740000         21.33079    
   8.750000         16.92920    
   8.760000         12.20531    
   8.770000         7.419929    
   8.780000         2.870510    
   8.790000        -1.178225    
   8.800000        -4.550383    
   8.810000        -7.186953    
   8.820000        -9.141848    
   8.830000        -10.55255    
   8.840000        -11.59899    
   8.850000        -12.46486    
   8.860000        -13.31132    
   8.870000        -14.26597    
   8.880000        -15.42342    
   8.890000        -16.85068    
   8.900000        -18.59154    
   8.910000        -20.66703    
   8.920000        -23.07346    
   8.930000        -25.78149    
   8.940000        -28.73886    
   8.950000        -31.87705    
   8.960000        -35.11866    
   8.970000        -38.38109    
   8.980000        -41.57343    