 -0.1000000       -5.4760000E-26
 -9.0000004E-02   -1.6310731E-25
 -7.9999998E-02   -2.6804892E-25
 -7.0000000E-02   -3.6765967E-25
 -5.9999999E-02   -4.6043873E-25
 -5.0000001E-02   -5.4531967E-25
 -3.9999999E-02   -6.2157733E-25
 -2.9999999E-02   -1.9873539E-23
 -2.0000000E-02   -3.3728507E-22
 -9.9999998E-03   -3.3242270E-21
  0.0000000E+00   -2.4653931E-20
  9.9999998E-03   -1.5199228E-19
  2.0000000E-02   -8.1202946E-19
  2.9999999E-02   -3.8514414E-18
  3.9999999E-02   -1.6589891E-17
  5.0000001E-02   -6.6455115E-17
  5.9999999E-02   -2.5236084E-16
  7.0000000E-02   -9.1527447E-16
  7.9999998E-02   -3.1505238E-15
  9.0000004E-02   -1.0140759E-14
  0.1000000       -3.0022202E-14
  0.1100000       -8.0558776E-14
  0.1200000       -1.9330999E-13
  0.1300000       -4.0843172E-13
  0.1400000       -7.4130605E-13
  0.1500000       -1.0974095E-12
  0.1600000       -1.1344737E-12
  0.1700000       -1.5367971E-13
  0.1800000        2.7395165E-12
  0.1900000        7.7876317E-12
  0.2000000        1.2635745E-11
  0.2100000        9.4205546E-12
  0.2200000       -1.7549554E-11
  0.2300000       -8.9731736E-11
  0.2400000       -2.2213312E-10
  0.2500000       -3.9590289E-10
  0.2600000       -5.1751592E-10
  0.2700000       -3.8162518E-10
  0.2800000        3.2369413E-10
  0.2900000        1.9129542E-09
  0.3000000        4.4503503E-09
  0.3100000        7.3517419E-09
  0.3200000        8.9610896E-09
  0.3300000        6.3811432E-09
  0.3400000       -4.0250905E-09
  0.3500000       -2.5053005E-08
  0.3600000       -5.5877663E-08
  0.3700000       -8.8619217E-08
  0.3800000       -1.0574173E-07
  0.3900000       -8.0679250E-08
  0.4000000        1.5645499E-08
  0.4100000        2.0080806E-07
  0.4200000        4.6065782E-07
  0.4300000        7.2869221E-07
  0.4400000        8.7577621E-07
  0.4500000        7.2391811E-07
  0.4600000        9.5791442E-08
  0.4700000       -1.0978395E-06
  0.4800000       -2.7480021E-06
  0.4900000       -4.4517237E-06
  0.5000000       -5.4859938E-06
  0.5100000       -4.9108426E-06
  0.5200000       -1.8394749E-06
  0.5300000        4.1388275E-06
  0.5400000        1.2474549E-05
  0.5500000        2.1285781E-05
  0.5600000        2.7323747E-05
  0.5700000        2.6485621E-05
  0.5800000        1.4970246E-05
  0.5900000       -9.0427675E-06
  0.6000000       -4.3586679E-05
  0.6100000       -8.1624879E-05
  0.6200000       -1.1106075E-04
  0.6300000       -1.1667762E-04
  0.6400000       -8.4203959E-05
  0.6500000       -5.9769936E-06
  0.6600000        1.1316260E-04
  0.6700000        2.5180393E-04
  0.6800000        3.7199995E-04
  0.6900000        4.2514058E-04
  0.7000000        3.6401604E-04
  0.7100000        1.5936303E-04
  0.7200000       -1.8305329E-04
  0.7300000       -6.1045273E-04
  0.7400000       -1.0221100E-03
  0.7500000       -1.2838278E-03
  0.7600000       -1.2585017E-03
  0.7700000       -8.4834191E-04
  0.7800000       -3.9000104E-05
  0.7900000        1.0679135E-03
  0.8000000        2.2479263E-03
  0.8100000        3.1824871E-03
  0.8200000        3.5251677E-03
  0.8300000        2.9957786E-03
  0.8400000        1.4815446E-03
  0.8500000       -8.8329002E-04
  0.8600000       -3.6889403E-03
  0.8700000       -6.2941257E-03
  0.8800000       -7.9475977E-03
  0.8900000       -7.9701552E-03
  0.9000000       -5.9584561E-03
  0.9100000       -1.9570773E-03
  0.9200000        3.4566484E-03
  0.9300000        9.2165451E-03
  0.9400000        1.3952875E-02
  0.9500000        1.6293764E-02
  0.9600000        1.5220410E-02
  0.9700000        1.0388172E-02
  0.9800000        2.3213390E-03
  0.9900000       -7.5894413E-03
   1.000000       -1.7313750E-02
   1.010000       -2.4600841E-02
   1.020000       -2.7504392E-02
   1.030000       -2.4886467E-02
   1.040000       -1.6767016E-02
   1.050000       -4.4140965E-03
   1.060000        9.8691778E-03
   1.070000        2.3226680E-02
   1.080000        3.2891102E-02
   1.090000        3.6826577E-02
   1.100000        3.4204707E-02
   1.110000        2.5584703E-02
   1.120000        1.2745533E-02
   1.130000       -1.7867361E-03
   1.140000       -1.5385835E-02
   1.150000       -2.5963243E-02
   1.160000       -3.2413390E-02
   1.170000       -3.4736864E-02
   1.180000       -3.3808738E-02
   1.190000       -3.0870173E-02
   1.200000       -2.6914217E-02
   1.210000       -2.2181613E-02
   1.220000       -1.5961528E-02
   1.230000       -6.8075261E-03
   1.240000        6.8489141E-03
   1.250000        2.5841245E-02
   1.260000        4.9424659E-02
   1.270000        7.4741609E-02
   1.280000        9.6843742E-02
   1.290000        0.1093915    
   1.300000        0.1059746    
   1.310000        8.1811503E-02
   1.320000        3.5440829E-02
   1.330000       -3.0038692E-02
   1.340000       -0.1065780    
   1.350000       -0.1818790    
   1.360000       -0.2412003    
   1.370000       -0.2700196    
   1.380000       -0.2570825    
   1.390000       -0.1972189    
   1.400000       -9.3300119E-02
   1.410000        4.3177772E-02
   1.420000        0.1931533    
   1.430000        0.3326562    
   1.440000        0.4366848    
   1.450000        0.4836494    
   1.460000        0.4595684    
   1.470000        0.3611936    
   1.480000        0.1974031    
   1.490000       -1.1500801E-02
   1.500000       -0.2365613    
   1.510000       -0.4445788    
   1.520000       -0.6034079    
   1.530000       -0.6871941    
   1.540000       -0.6806068    
   1.550000       -0.5813115    
   1.560000       -0.4002711    
   1.570000       -0.1598963    
   1.580000        0.1095278    
   1.590000        0.3743959    
   1.600000        0.6024483    
   1.610000        0.7667435    
   1.620000        0.8483829    
   1.630000        0.8377853    
   1.640000        0.7346665    
   1.650000        0.5471488    
   1.660000        0.2905239    
   1.670000       -1.3901127E-02
   1.680000       -0.3396931    
   1.690000       -0.6560538    
   1.700000       -0.9288691    
   1.710000        -1.122587    
   1.720000        -1.203369    
   1.730000        -1.143653    
   1.740000       -0.9277518    
   1.750000       -0.5576547    
   1.760000       -5.7722215E-02
   1.770000        0.5231300    
   1.780000         1.113020    
   1.790000         1.623188    
   1.800000         1.958537    
   1.810000         2.031672    
   1.820000         1.778679    
   1.830000         1.174294    
   1.840000        0.2439303    
   1.850000       -0.9297329    
   1.860000        -2.207230    
   1.870000        -3.400556    
   1.880000        -4.288784    
   1.890000        -4.639595    
   1.900000        -4.234419    
   1.910000        -2.894324    
   1.920000       -0.5036042    
   1.930000         2.971747    
   1.940000         7.472987    
   1.950000         12.84647    
   1.960000         18.85085    
   1.970000         25.17315    
   1.980000         31.45201    
   1.990000         37.30570    
   2.000000         42.36196    
   2.010000         46.28631    
   2.020000         48.80584    
   2.030000         49.72609    
   2.040000         48.93950    
   2.050000         46.42543    
   2.060000         42.24245    
   2.070000         36.51533    
   2.080000         29.41917    
   2.090000         21.16361    
   2.100000         11.97943    
   2.110000         2.108912    
   2.120000        -8.199786    
   2.130000        -18.69527    
   2.140000        -29.12434    
   2.150000        -39.23445    
   2.160000        -48.77889    
   2.170000        -57.52570    
   2.180000        -65.27000    
   2.190000        -71.84805    
   2.200000        -77.15057    
   2.210000        -81.13248    
   2.220000        -83.81623    
   2.230000        -85.28769    
   2.240000        -85.68406    
   2.250000        -85.17567    
   2.260000        -83.94437    
   2.270000        -82.16190    
   2.280000        -79.97189    
   2.290000        -77.47764    
   2.300000        -74.73752    
   2.310000        -71.76714    
   2.320000        -68.54701    
   2.330000        -65.03281    
   2.340000        -61.16561    
   2.350000        -56.87969    
   2.360000        -52.10613    
   2.370000        -46.77267    
   2.380000        -40.80058    
   2.390000        -34.10110    
   2.400000        -26.57416    
   2.410000        -18.11190    
   2.420000        -8.608908    
   2.430000         2.020478    
   2.440000         13.81913    
   2.450000         26.76126    
   2.460000         40.72798    
   2.470000         55.48925    
   2.480000         70.69689    
   2.490000         85.89181    
   2.500000         100.5272    
   2.510000         114.0065    
   2.520000         125.7316    
   2.530000         135.1570    
   2.540000         141.8420    
   2.550000         145.4938    
   2.560000         145.9975    
   2.570000         143.4283    
   2.580000         138.0464    
   2.590000         130.2759    
   2.600000         120.6718    
   2.610000         109.8798    
   2.620000         98.59232    
   2.630000         87.50546    
   2.640000         77.27644    
   2.650000         68.48413    
   2.660000         61.59145    
   2.670000         56.91077    
   2.680000         54.57344    
   2.690000         54.50641    
   2.700000         56.42012    
   2.710000         59.81120    
   2.720000         63.98395    
   2.730000         68.09143    
   2.740000         71.19481    
   2.750000         72.33661    
   2.760000         70.62098    
   2.770000         65.29263    
   2.780000         55.80628    
   2.790000         41.87963    
   2.800000         23.52497    
   2.810000         1.057704    
   2.820000        -24.91805    
   2.830000        -53.54406    
   2.840000        -83.75924    
   2.850000        -114.3633    
   2.860000        -144.0893    
   2.870000        -171.6797    
   2.880000        -195.9640    
   2.890000        -215.9325    
   2.900000        -230.8006    
   2.910000        -240.0610    
   2.920000        -243.5167    
   2.930000        -241.2913    
   2.940000        -233.8141    
   2.950000        -221.7802    
   2.960000        -206.0876    
   2.970000        -187.7593    
   2.980000        -167.8569    
   2.990000        -147.3977    
   3.000000        -127.2840    
   3.010000        -108.2535    
   3.020000        -90.85632    
   3.030000        -75.45756    
   3.040000        -62.26402    
   3.050000        -51.36552    
   3.060000        -42.78145    
   3.070000        -36.50132    
   3.080000        -32.51125    
   3.090000        -30.80051    
   3.100000        -31.34882    
   3.110000        -34.09915    
   3.120000        -38.92484    
   3.130000        -45.60179    
   3.140000        -53.79447    
   3.150000        -63.06191    
   3.160000        -72.88332    
   3.170000        -82.69875    
   3.180000        -91.95537    
   3.190000        -100.1486    
   3.200000        -106.8499    
   3.210000        -111.7151    
   3.220000        -114.4763    
   3.230000        -114.9216    
   3.240000        -112.8733    
   3.250000        -108.1740    
   3.260000        -100.6883    
   3.270000        -90.32001    
   3.280000        -77.04370    
   3.290000        -60.93898    
   3.300000        -42.21892    
   3.310000        -21.24199    
   3.320000         1.497775    
   3.330000         25.40254    
   3.340000         49.81894    
   3.350000         74.09381    
   3.360000         97.62731    
   3.370000         119.9146    
   3.380000         140.5711    
   3.390000         159.3398    
   3.400000         176.0833    
   3.410000         190.7644    
   3.420000         203.4196    
   3.430000         214.1288    
   3.440000         222.9844    
   3.450000         230.0591    
   3.460000         235.3759    
   3.470000         238.8812    
   3.480000         240.4241    
   3.490000         239.7469    
   3.500000         236.4881    
   3.510000         230.2019    
   3.520000         220.3918    
   3.530000         206.5568    
   3.540000         188.2443    
   3.550000         165.1044    
   3.560000         136.9411    
   3.570000         103.7541    
   3.580000         65.76896    
   3.590000         23.45352    
   3.600000        -22.48356    
   3.610000        -71.11203    
   3.620000        -121.3185    
   3.630000        -171.8634    
   3.640000        -221.4519    
   3.650000        -268.8126    
   3.660000        -312.7742    
   3.670000        -352.3302    
   3.680000        -386.6816    
   3.690000        -415.2552    
   3.700000        -437.6951    
   3.710000        -453.8347    
   3.720000        -463.6585    
   3.730000        -467.2628    
   3.740000        -464.8242    
   3.750000        -456.5773    
   3.760000        -442.8018    
   3.770000        -423.8121    
   3.780000        -399.9429    
   3.790000        -371.5283    
   3.800000        -338.8744    
   3.810000        -302.2301    
   3.820000        -261.7677    
   3.830000        -217.5809    
   3.840000        -169.7064    
   3.850000        -118.1691    
   3.860000        -63.04366    
   3.870000        -4.518451    
   3.880000         57.05117    
   3.890000         121.1136    
   3.900000         186.9219    
   3.910000         253.5644    
   3.920000         320.0167    
   3.930000         385.2038    
   3.940000         448.0592    
   3.950000         507.5726    
   3.960000         562.8204    
   3.970000         612.9802    
   3.980000         657.3358    
   3.990000         695.2754    
   4.000000         726.2932    
   4.010000         749.9942    
   4.020000         766.1063    
   4.030000         774.4922    
   4.040000         775.1641    
   4.050000         768.2906    
   4.060000         754.1968    
   4.070000         733.3530    
   4.080000         706.3492    
   4.090000         673.8582    
   4.100000         636.5863    
   4.110000         595.2189    
   4.120000         550.3668    
   4.130000         502.5213    
   4.140000         452.0309    
   4.150000         399.1035    
   4.160000         343.8376    
   4.170000         286.2794    
   4.180000         226.4933    
   4.190000         164.6305    
   4.200000         100.9772    
   4.210000         35.97166    
   4.220000        -29.81960    
   4.230000        -95.75858    
   4.240000        -161.2144    
   4.250000        -225.6422    
   4.260000        -288.6422    
   4.270000        -349.9832    
   4.280000        -409.5843    
   4.290000        -467.4601    
   4.300000        -523.6432    
   4.310000        -578.1044    
   4.320000        -630.6891    
   4.330000        -681.0855    
   4.340000        -728.8275    
   4.350000        -773.3295    
   4.360000        -813.9417    
   4.370000        -850.0118    
   4.380000        -880.9414    
   4.390000        -906.2276    
   4.400000        -925.4893    
   4.410000        -938.4792    
   4.420000        -945.0861    
   4.430000        -945.3331    
   4.440000        -939.3724    
   4.450000        -927.4784    
   4.460000        -910.0341    
   4.470000        -887.5115    
   4.480000        -860.4429    
   4.490000        -829.3882    
   4.500000        -794.9003    
   4.510000        -757.4953    
   4.520000        -717.6347    
   4.530000        -675.7182    
   4.540000        -632.0906    
   4.550000        -587.0574    
   4.560000        -540.9057    
   4.570000        -493.9268    
   4.580000        -446.4374    
   4.590000        -398.7957    
   4.600000        -351.4168    
   4.610000        -304.7797    
   4.620000        -259.4283    
   4.630000        -215.9597    
   4.640000        -174.9985    
   4.650000        -137.1526    
   4.660000        -102.9585    
   4.670000        -72.82075    
   4.680000        -46.96081    
   4.690000        -25.38747    
   4.700000        -7.901059    
   4.710000         5.867238    
   4.720000         16.38710    
   4.730000         24.14751    
   4.740000         29.58312    
   4.750000         33.02710    
   4.760000         34.70352    
   4.770000         34.75847    
   4.780000         33.31814    
   4.790000         30.55279    
   4.800000         26.72388    
   4.810000         22.19738    
   4.820000         17.41774    
   4.830000         12.85134    
   4.840000         8.917929    
   4.850000         5.933257    
   4.860000         4.081529    
   4.870000         3.425576    
   4.880000         3.948864    
   4.890000         5.612335    
   4.900000         8.404677    
   4.910000         12.36767    
   4.920000         17.58939    
   4.930000         24.17025    
   4.940000         32.17878    
   4.950000         41.61724    
   4.960000         52.41359    
   4.970000         64.44540    
   4.980000         77.58751    
   4.990000         91.76589    
   5.000000         106.9954    
   5.010000         123.3850    
   5.020000         141.1059    
   5.030000         160.3311    
   5.040000         181.1685    
   5.050000         203.6091    
   5.060000         227.5094    
   5.070000         252.6151    
   5.080000         278.6143    
   5.090000         305.2044    
   5.100000         332.1440    
   5.110000         359.2745    
   5.120000         386.5038    
   5.130000         413.7570    
   5.140000         440.9168    
   5.150000         467.7709    
   5.160000         493.9891    
   5.170000         519.1349    
   5.180000         542.7078    
   5.190000         564.2013    
   5.200000         583.1562    
   5.210000         599.1978    
   5.220000         612.0443    
   5.230000         621.4959    
   5.240000         627.4116    
   5.250000         629.6865    
   5.260000         628.2421    
   5.270000         623.0294    
   5.280000         614.0424    
   5.290000         601.3299    
   5.300000         584.9990    
   5.310000         565.2034    
   5.320000         542.1202    
   5.330000         515.9214    
   5.340000         486.7521    
   5.350000         454.7244    
   5.360000         419.9301    
   5.370000         382.4712    
   5.380000         342.4992    
   5.390000         300.2525    
   5.400000         256.0815    
   5.410000         210.4566    
   5.420000         163.9547    
   5.430000         117.2300    
   5.440000         70.97143    
   5.450000         25.85454    
   5.460000        -17.50620    
   5.470000        -58.59959    
   5.480000        -97.04910    
   5.490000        -132.6280    
   5.500000        -165.2563    
   5.510000        -194.9779    
   5.520000        -221.9219    
   5.530000        -246.2559    
   5.540000        -268.1418    
   5.550000        -287.7050    
   5.560000        -305.0240    
   5.570000        -320.1402    
   5.580000        -333.0812    
   5.590000        -343.8850    
   5.600000        -352.6128    
   5.610000        -359.3424    
   5.620000        -364.1422    
   5.630000        -367.0367    
   5.640000        -367.9799    
   5.650000        -366.8524    
   5.660000        -363.4888    
   5.670000        -357.7361    
   5.680000        -349.5220    
   5.690000        -338.9139    
   5.700000        -326.1437    
   5.710000        -311.5847    
   5.720000        -295.6849    
   5.730000        -278.8731    
   5.740000        -261.4683    
   5.750000        -243.6207    
   5.760000        -225.3055    
   5.770000        -206.3700    
   5.780000        -186.6201    
   5.790000        -165.9150    
   5.800000        -144.2407    
   5.810000        -121.7360    
   5.820000        -98.66740    
   5.830000        -75.36207    
   5.840000        -52.12637    
   5.850000        -29.17841    
   5.860000        -6.618266    
   5.870000         15.55637    
   5.880000         37.39723    
   5.890000         58.93701    
   5.900000         80.13114    
   5.910000         100.8298    
   5.920000         120.7883    
   5.930000         139.7089    
   5.940000         157.2971    
   5.950000         173.3115    
   5.960000         187.5916    
   5.970000         200.0573    
   5.980000         210.6855    
   5.990000         219.4794    
   6.000000         226.4432    
   6.010000         231.5745    
   6.020000         234.8766    
   6.030000         236.3822    
   6.040000         236.1770    
   6.050000         234.4105    
   6.060000         231.2857    
   6.070000         227.0310    
   6.080000         221.8602    
   6.090000         215.9366    
   6.100000         209.3516    
   6.110000         202.1272    
   6.120000         194.2411    
   6.130000         185.6678    
   6.140000         176.4222    
   6.150000         166.5952    
   6.160000         156.3689    
   6.170000         146.0094    
   6.180000         135.8375    
   6.190000         126.1869    
   6.200000         117.3580    
   6.210000         109.5786    
   6.220000         102.9810    
   6.230000         97.59732    
   6.240000         93.37418    
   6.250000         90.20203    
   6.260000         87.94932    
   6.270000         86.49256    
   6.280000         85.73392    
   6.290000         85.60129    
   6.300000         86.03173    
   6.310000         86.94547    
   6.320000         88.22098    
   6.330000         89.68276    
   6.340000         91.11028    
   6.350000         92.26807    
   6.360000         92.94968    
   6.370000         93.02098    
   6.380000         92.44576    
   6.390000         91.28128    
   6.400000         89.64062    
   6.410000         87.63081    
   6.420000         85.28641    
   6.430000         82.52194    
   6.440000         79.12358    
   6.450000         74.78767    
   6.460000         69.19851    
   6.470000         62.12257    
   6.480000         53.48864    
   6.490000         43.42581    
   6.500000         32.24312    
   6.510000         20.35439    
   6.520000         8.169369    
   6.530000        -4.014360    
   6.540000        -16.08438    
   6.550000        -28.12698    
   6.560000        -40.37718    
   6.570000        -53.12150    
   6.580000        -66.58574    
   6.590000        -80.84482    
   6.600000        -95.78362    
   6.610000        -111.1205    
   6.620000        -126.4832    
   6.630000        -141.5101    
   6.640000        -155.9422    
   6.650000        -169.6730    
   6.660000        -182.7421    
   6.670000        -195.2751    
   6.680000        -207.3901    
   6.690000        -219.1050    
   6.700000        -230.2743    
   6.710000        -240.5781    
   6.720000        -249.5654    
   6.730000        -256.7391    
   6.740000        -261.6561    
   6.750000        -264.0143    
   6.760000        -263.7010    
   6.770000        -260.7930    
   6.780000        -255.5103    
   6.790000        -248.1407    
   6.800000        -238.9569    
   6.810000        -228.1494    
   6.820000        -215.7913    
   6.830000        -201.8411    
   6.840000        -186.1790    
   6.850000        -168.6635    
   6.860000        -149.1908    
   6.870000        -127.7410    
   6.880000        -104.4009    
   6.890000        -79.35617    
   6.900000        -52.86111    
   6.910000        -25.19223    
   6.920000         3.398179    
   6.930000         32.71605    
   6.940000         62.63665    
   6.950000         93.09127    
   6.960000         124.0310    
   6.970000         155.3805    
   6.980000         186.9934    
   6.990000         218.6252    
   7.000000         249.9303    
   7.010000         280.4882    
   7.020000         309.8495    
   7.030000         337.5937    
   7.040000         363.3803    
   7.050000         386.9827    
   7.060000         408.2969    
   7.070000         427.3251    
   7.080000         444.1426    
   7.090000         458.8594    
   7.100000         471.5871    
   7.110000         482.4214    
   7.120000         491.4385    
   7.130000         498.7033    
   7.140000         504.2809    
   7.150000         508.2420    
   7.160000         510.6596    
   7.170000         511.5970    
   7.180000         511.0953    
   7.190000         509.1660    
   7.200000         505.7976    
   7.210000         500.9758    
   7.220000         494.7133    
   7.230000         487.0764    
   7.240000         478.1998    
   7.250000         468.2769    
   7.260000         457.5265    
   7.270000         446.1423    
   7.280000         434.2394    
   7.290000         421.8141    
   7.300000         408.7332    
   7.310000         394.7564    
   7.320000         379.5893    
   7.330000         362.9529    
   7.340000         344.6494    
   7.350000         324.6085    
   7.360000         302.8991    
   7.370000         279.7091    
   7.380000         255.2986    
   7.390000         229.9459    
   7.400000         203.9022    
   7.410000         177.3685    
   7.420000         150.5009    
   7.430000         123.4358    
   7.440000         96.32538    
   7.450000         69.36502    
   7.460000         42.80048    
   7.470000         16.90957    
   7.480000        -8.037972    
   7.490000        -31.83037    
   7.500000        -54.35733    
   7.510000        -75.63227    
   7.520000        -95.78489    
   7.530000        -115.0243    
   7.540000        -133.5823    
   7.550000        -151.6514    
   7.560000        -169.3356    
   7.570000        -186.6250    
   7.580000        -203.4008    
   7.590000        -219.4685    
   7.600000        -234.6073    
   7.610000        -248.6229    
   7.620000        -261.3896    
   7.630000        -272.8709    
   7.640000        -283.1167    
   7.650000        -292.2397    
   7.660000        -300.3785    
   7.670000        -307.6623    
   7.680000        -314.1821    
   7.690000        -319.9803    
   7.700000        -325.0574    
   7.710000        -329.3944    
   7.720000        -332.9830    
   7.730000        -335.8566    
   7.740000        -338.1118    
   7.750000        -339.9160    
   7.760000        -341.4974    
   7.770000        -343.1190    
   7.780000        -345.0408    
   7.790000        -347.4770    
   7.800000        -350.5571    
   7.810000        -354.2976    
   7.820000        -358.5912    
   7.830000        -363.2151    
   7.840000        -367.8588    
   7.850000        -372.1652    
   7.860000        -375.7783    
   7.870000        -378.3879    
   7.880000        -379.7621    
   7.890000        -379.7625    
   7.900000        -378.3396    
   7.910000        -375.5108    
   7.920000        -371.3291    
   7.930000        -365.8525    
   7.940000        -359.1214    
   7.950000        -351.1518    
   7.960000        -341.9458    
   7.970000        -331.5128    
   7.980000        -319.8952    
   7.990000        -307.1861    
   8.000000        -293.5308    
   8.010000        -279.1086    
   8.020000        -264.0974    
   8.030000        -248.6304    
   8.040000        -232.7581    
   8.050000        -216.4281    
   8.060000        -199.4920    
   8.070000        -181.7394    
   8.080000        -162.9529    
   8.090000        -142.9683    
   8.100000        -121.7249    
   8.110000        -99.29088    
   8.120000        -75.85731    
   8.130000        -51.70390    
   8.140000        -27.14647    
   8.150000        -2.484126    
   8.160000         22.03905    
   8.170000         46.24606    
   8.180000         70.01173    
   8.190000         93.22784    
   8.200000         115.7631    
   8.210000         137.4348    
   8.220000         158.0036    
   8.230000         177.1959    
   8.240000         194.7484    
   8.250000         210.4608    
   8.260000         224.2403    
   8.270000         236.1236    
   8.280000         246.2689    
   8.290000         254.9196    
   8.300000         262.3509    
   8.310000         268.8115    
   8.320000         274.4773    
   8.330000         279.4253    
   8.340000         283.6303    
   8.350000         286.9819    
   8.360000         289.3105    
   8.370000         290.4178    
   8.380000         290.1010    
   8.390000         288.1725    
   8.400000         284.4733    
   8.410000         278.8858    
   8.420000         271.3466    
   8.430000         261.8575    
   8.440000         250.4946    
   8.450000         237.4073    
   8.460000         222.8065    
   8.470000         206.9416    
   8.480000         190.0721    
   8.490000         172.4407    
   8.500000         154.2567    
   8.510000         135.6939    
   8.520000         116.9015    
   8.530000         98.02174    
   8.540000         79.20316    
   8.550000         60.60066    
   8.560000         42.35743    
   8.570000         24.57359    
   8.580000         7.271930    
   8.590000        -9.623116    
   8.600000        -26.28042    
   8.610000        -42.92516    
   8.620000        -59.77532    
   8.630000        -76.96835    
   8.640000        -94.50026    
   8.650000        -112.1988    
   8.660000        -129.7430    
   8.670000        -146.7268    
   8.680000        -162.7506    
   8.690000        -177.5140    
   8.700000        -190.8801    
   8.710000        -202.8917    
   8.720000        -213.7342    
   8.730000        -223.6551    
   8.740000        -232.8694    
   8.750000        -241.4796    
   8.760000        -249.4394    
   8.770000        -256.5716    
   8.780000        -262.6351    
   8.790000        -267.4180    
   8.800000        -270.8231    
   8.810000        -272.9161    
   8.820000        -273.9190    
   8.830000        -274.1461    
   8.840000        -273.9060    
   8.850000        -273.3993    
   8.860000        -272.6475    
   8.870000        -271.4785    
   8.880000        -269.5750    
   8.890000        -266.5715    
   8.900000        -262.1701    
   8.910000        -256.2367    
   8.920000        -248.8466    
   8.930000        -240.2627    
   8.940000        -230.8536    
   8.950000        -220.9765    
   8.960000        -210.8637    
   8.970000        -200.5495    
   8.980000        -189.8642    