 -0.1000000        0.0000000E+00
 -9.0000004E-02    0.0000000E+00
 -7.9999998E-02    0.0000000E+00
 -7.0000000E-02    0.0000000E+00
 -5.9999999E-02    0.0000000E+00
 -5.0000001E-02    0.0000000E+00
 -3.9999999E-02    0.0000000E+00
 -2.9999999E-02    5.0226076E-24
 -2.0000000E-02    1.0246309E-22
 -9.9999998E-03    1.1497770E-21
  0.0000000E+00    9.3837162E-21
  9.9999998E-03    6.1618791E-20
  2.0000000E-02    3.3996454E-19
  2.9999999E-02    1.6061625E-18
  3.9999999E-02    6.5471867E-18
  5.0000001E-02    2.3037270E-17
  5.9999999E-02    6.9465648E-17
  7.0000000E-02    1.7566087E-16
  7.9999998E-02    3.5058956E-16
  9.0000004E-02    4.3569519E-16
  0.1000000       -3.2547839E-16
  0.1100000       -4.2613152E-15
  0.1200000       -1.7024619E-14
  0.1300000       -4.9990190E-14
  0.1400000       -1.2217725E-13
  0.1500000       -2.5886555E-13
  0.1600000       -4.8208058E-13
  0.1700000       -7.8720336E-13
  0.1800000       -1.1024240E-12
  0.1900000       -1.2361005E-12
  0.2000000       -8.3220702E-13
  0.2100000        6.2708264E-13
  0.2200000        3.7189891E-12
  0.2300000        8.8309395E-12
  0.2400000        1.5757612E-11
  0.2500000        2.3217848E-11
  0.2600000        2.8473800E-11
  0.2700000        2.7332591E-11
  0.2800000        1.4835768E-11
  0.2900000       -1.3171800E-11
  0.3000000       -5.7691029E-11
  0.3100000       -1.1396658E-10
  0.3200000       -1.6961879E-10
  0.3300000       -2.0476421E-10
  0.3400000       -1.9523054E-10
  0.3500000       -1.1925033E-10
  0.3600000        3.3251946E-11
  0.3700000        2.5117908E-10
  0.3800000        4.9620885E-10
  0.3900000        7.0405448E-10
  0.4000000        7.9569473E-10
  0.4100000        6.9842782E-10
  0.4200000        3.7273637E-10
  0.4300000       -1.6277800E-10
  0.4400000       -8.1816348E-10
  0.4500000       -1.4392793E-09
  0.4600000       -1.8392353E-09
  0.4700000       -1.8501649E-09
  0.4800000       -1.3826602E-09
  0.4900000       -4.7376525E-10
  0.5000000        6.9657630E-10
  0.5100000        1.8343429E-09
  0.5200000        2.6060616E-09
  0.5300000        2.7429392E-09
  0.5400000        2.1433975E-09
  0.5500000        9.3642405E-10
  0.5600000       -5.2578597E-10
  0.5700000       -1.7578863E-09
  0.5800000       -2.2977373E-09
  0.5900000       -1.8839996E-09
  0.6000000       -5.9235261E-10
  0.6100000        1.1300585E-09
  0.6200000        2.5667874E-09
  0.6300000        2.9610223E-09
  0.6400000        1.8114749E-09
  0.6500000       -8.6330565E-10
  0.6600000       -4.3999808E-09
  0.6700000       -7.5841244E-09
  0.6800000       -8.9776613E-09
  0.6900000       -7.4118276E-09
  0.7000000       -2.5020579E-09
  0.7100000        4.9978692E-09
  0.7200000        1.3166536E-08
  0.7300000        1.9293873E-08
  0.7400000        2.0627091E-08
  0.7500000        1.5306135E-08
  0.7600000        3.2129595E-09
  0.7700000       -1.3566760E-08
  0.7800000       -3.0899667E-08
  0.7900000       -4.3448591E-08
  0.8000000       -4.6067541E-08
  0.8100000       -3.5413638E-08
  0.8200000       -1.1319436E-08
  0.8300000        2.2528443E-08
  0.8400000        5.8917642E-08
  0.8500000        8.8504414E-08
  0.8600000        1.0202911E-07
  0.8700000        9.2840210E-08
  0.8800000        5.9065300E-08
  0.8900000        4.7897264E-09
  0.9000000       -6.0190651E-08
  0.9100000       -1.2213263E-07
  0.9200000       -1.6631660E-07
  0.9300000       -1.8057034E-07
  0.9400000       -1.5849241E-07
  0.9500000       -1.0152868E-07
  0.9600000       -1.9289741E-08
  0.9700000        7.2104442E-08
  0.9800000        1.5338868E-07
  0.9900000        2.0651709E-07
   1.000000        2.1902828E-07
   1.010000        1.8734390E-07
   1.020000        1.1812194E-07
   1.030000        2.7200940E-08
   1.040000       -6.3780128E-08
   1.050000       -1.3242793E-07
   1.060000       -1.6119000E-07
   1.070000       -1.4215891E-07
   1.080000       -7.9820417E-08
   1.090000        9.1238226E-09
   1.100000        9.9087401E-08
   1.110000        1.6154601E-07
   1.120000        1.7234926E-07
   1.130000        1.1867542E-07
   1.140000        3.8142334E-09
   1.150000       -1.5167278E-07
   1.160000       -3.1309861E-07
   1.170000       -4.3875755E-07
   1.180000       -4.8960578E-07
   1.190000       -4.3933679E-07
   1.200000       -2.8236818E-07
   1.210000       -3.7556408E-08
   1.220000        2.5365199E-07
   1.230000        5.3465499E-07
   1.240000        7.4535842E-07
   1.250000        8.3559001E-07
   1.260000        7.7723337E-07
   1.270000        5.7219432E-07
   1.280000        2.5417589E-07
   1.290000       -1.1638816E-07
   1.300000       -4.6334233E-07
   1.310000       -7.0949437E-07
   1.320000       -7.9184207E-07
   1.330000       -6.7406216E-07
   1.340000       -3.5354356E-07
   1.350000        1.3859078E-07
   1.360000        7.4458075E-07
   1.370000        1.3928019E-06
   1.380000        2.0136147E-06
   1.390000        2.5550271E-06
   1.400000        2.9949344E-06
   1.410000        3.3470258E-06
   1.420000        3.6591130E-06
   1.430000        4.0037567E-06
   1.440000        4.4626208E-06
   1.450000        5.1076795E-06
   1.460000        5.9829890E-06
   1.470000        7.0907690E-06
   1.480000        8.3853502E-06
   1.490000        9.7761631E-06
   1.500000        1.1140103E-05
   1.510000        1.2340686E-05
   1.520000        1.3250975E-05
   1.530000        1.3774516E-05
   1.540000        1.3860798E-05
   1.550000        1.3511843E-05
   1.560000        1.2778501E-05
   1.570000        1.1747546E-05
   1.580000        1.0522337E-05
   1.590000        9.2015543E-06
   1.600000        7.8600651E-06
   1.610000        6.5358677E-06
   1.620000        5.2249998E-06
   1.630000        3.8850835E-06
   1.640000        2.4461506E-06
   1.650000        8.2606010E-07
   1.660000       -1.0523564E-06
   1.670000       -3.2458750E-06
   1.680000       -5.7795041E-06
   1.690000       -8.6409946E-06
   1.700000       -1.1781522E-05
   1.710000       -1.5123419E-05
   1.720000       -1.8571891E-05
   1.730000       -2.2030174E-05
   1.740000       -2.5414714E-05
   1.750000       -2.8667375E-05
   1.760000       -3.1763069E-05
   1.770000       -3.4709232E-05
   1.780000       -3.7538670E-05
   1.790000       -4.0295999E-05
   1.800000       -4.3020078E-05
   1.810000       -4.5727415E-05
   1.820000       -4.8399008E-05
   1.830000       -5.0975785E-05
   1.840000       -5.3360993E-05
   1.850000       -5.5432451E-05
   1.860000       -5.7060570E-05
   1.870000       -5.8128146E-05
   1.880000       -5.8547437E-05
   1.890000       -5.8273374E-05
   1.900000       -5.7306726E-05
   1.910000       -5.5688910E-05
   1.920000       -5.3490843E-05
   1.930000       -5.0794100E-05
   1.940000       -4.7675432E-05
   1.950000       -4.4189808E-05
   1.960000       -4.0361989E-05
   1.970000       -3.6184258E-05
   1.980000       -3.1621224E-05
   1.990000       -2.6620826E-05
   2.000000       -2.1129237E-05
   2.010000       -1.5104345E-05
   2.020000       -8.5270558E-06
   2.030000       -1.4059906E-06
   2.040000        6.2240942E-06
   2.050000        1.4310681E-05
   2.060000        2.2794315E-05
   2.070000        3.1620486E-05
   2.080000        4.0747407E-05
   2.090000        5.0147653E-05
   2.100000        5.9802696E-05
   2.110000        6.9691938E-05
   2.120000        7.9778707E-05
   2.130000        9.0000016E-05
   2.140000        1.0025963E-04
   2.150000        1.1043034E-04
   2.160000        1.2036382E-04
   2.170000        1.2990573E-04
   2.180000        1.3891351E-04
   2.190000        1.4727107E-04
   2.200000        1.5489783E-04
   2.210000        1.6174898E-04
   2.220000        1.6781034E-04
   2.230000        1.7308205E-04
   2.240000        1.7756422E-04
   2.250000        1.8124034E-04
   2.260000        1.8406207E-04
   2.270000        1.8594123E-04
   2.280000        1.8674500E-04
   2.290000        1.8630245E-04
   2.300000        1.8441571E-04
   2.310000        1.8088019E-04
   2.320000        1.7550730E-04
   2.330000        1.6814900E-04
   2.340000        1.5871765E-04
   2.350000        1.4720017E-04
   2.360000        1.3366033E-04
   2.370000        1.1822189E-04
   2.380000        1.0104531E-04
   2.390000        8.2295097E-05
   2.400000        6.2100837E-05
   2.410000        4.0532301E-05
   2.420000        1.7583498E-05
   2.430000       -6.8269869E-06
   2.440000       -3.2837848E-05
   2.450000       -6.0614500E-05
   2.460000       -9.0314694E-05
   2.470000       -1.2205446E-04
   2.480000       -1.5588260E-04
   2.490000       -1.9177127E-04
   2.500000       -2.2961140E-04
   2.510000       -2.6922772E-04
   2.520000       -3.1040391E-04
   2.530000       -3.5290173E-04
   2.540000       -3.9649315E-04
   2.550000       -4.4097949E-04
   2.560000       -4.8622122E-04
   2.570000       -5.3214061E-04
   2.580000       -5.7873485E-04
   2.590000       -6.2607246E-04
   2.600000       -6.7426701E-04
   2.610000       -7.2346942E-04
   2.620000       -7.7383267E-04
   2.630000       -8.2548603E-04
   2.640000       -8.7851583E-04
   2.650000       -9.3293638E-04
   2.660000       -9.8870299E-04
   2.670000       -1.0457165E-03
   2.680000       -1.1038301E-03
   2.690000       -1.1628941E-03
   2.700000       -1.2227626E-03
   2.710000       -1.2833475E-03
   2.720000       -1.3446012E-03
   2.730000       -1.4065577E-03
   2.740000       -1.4693314E-03
   2.750000       -1.5331082E-03
   2.760000       -1.5981160E-03
   2.770000       -1.6646230E-03
   2.780000       -1.7328759E-03
   2.790000       -1.8030915E-03
   2.800000       -1.8754132E-03
   2.810000       -1.9498969E-03
   2.820000       -2.0265162E-03
   2.830000       -2.1051553E-03
   2.840000       -2.1856723E-03
   2.850000       -2.2679276E-03
   2.860000       -2.3518151E-03
   2.870000       -2.4373042E-03
   2.880000       -2.5244367E-03
   2.890000       -2.6133705E-03
   2.900000       -2.7043105E-03
   2.910000       -2.7974660E-03
   2.920000       -2.8930742E-03
   2.930000       -2.9913022E-03
   2.940000       -3.0922319E-03
   2.950000       -3.1958560E-03
   2.960000       -3.3020542E-03
   2.970000       -3.4105894E-03
   2.980000       -3.5212070E-03
   2.990000       -3.6335839E-03
   3.000000       -3.7473876E-03
   3.010000       -3.8623691E-03
   3.020000       -3.9783046E-03
   3.030000       -4.0950342E-03
   3.040000       -4.2125010E-03
   3.050000       -4.3306821E-03
   3.060000       -4.4495682E-03
   3.070000       -4.5691645E-03
   3.080000       -4.6894420E-03
   3.090000       -4.8102294E-03
   3.100000       -4.9313325E-03
   3.110000       -5.0524645E-03
   3.120000       -5.1732641E-03
   3.130000       -5.2933223E-03
   3.140000       -5.4122387E-03
   3.150000       -5.5296463E-03
   3.160000       -5.6451312E-03
   3.170000       -5.7584089E-03
   3.180000       -5.8692088E-03
   3.190000       -5.9772995E-03
   3.200000       -6.0824570E-03
   3.210000       -6.1844750E-03
   3.220000       -6.2832148E-03
   3.230000       -6.3784579E-03
   3.240000       -6.4700153E-03
   3.250000       -6.5576662E-03
   3.260000       -6.6411835E-03
   3.270000       -6.7203385E-03
   3.280000       -6.7948801E-03
   3.290000       -6.8646413E-03
   3.300000       -6.9293757E-03
   3.310000       -6.9889915E-03
   3.320000       -7.0434022E-03
   3.330000       -7.0924768E-03
   3.340000       -7.1361335E-03
   3.350000       -7.1742688E-03
   3.360000       -7.2067310E-03
   3.370000       -7.2334250E-03
   3.380000       -7.2540962E-03
   3.390000       -7.2686151E-03
   3.400000       -7.2769029E-03
   3.410000       -7.2789015E-03
   3.420000       -7.2746384E-03
   3.430000       -7.2642495E-03
   3.440000       -7.2478377E-03
   3.450000       -7.2255516E-03
   3.460000       -7.1975393E-03
   3.470000       -7.1638231E-03
   3.480000       -7.1244719E-03
   3.490000       -7.0793978E-03
   3.500000       -7.0285825E-03
   3.510000       -6.9719912E-03
   3.520000       -6.9095707E-03
   3.530000       -6.8413103E-03
   3.540000       -6.7673200E-03
   3.550000       -6.6876672E-03
   3.560000       -6.6025010E-03
   3.570000       -6.5119695E-03
   3.580000       -6.4163730E-03
   3.590000       -6.3158744E-03
   3.600000       -6.2107248E-03
   3.610000       -6.1011137E-03
   3.620000       -5.9872586E-03
   3.630000       -5.8692927E-03
   3.640000       -5.7472982E-03
   3.650000       -5.6213522E-03
   3.660000       -5.4914728E-03
   3.670000       -5.3577255E-03
   3.680000       -5.2201524E-03
   3.690000       -5.0787558E-03
   3.700000       -4.9336776E-03
   3.710000       -4.7850232E-03
   3.720000       -4.6329871E-03
   3.730000       -4.4777477E-03
   3.740000       -4.3195868E-03
   3.750000       -4.1587236E-03
   3.760000       -3.9954400E-03
   3.770000       -3.8299186E-03
   3.780000       -3.6623981E-03
   3.790000       -3.4929779E-03
   3.800000       -3.3217524E-03
   3.810000       -3.1487644E-03
   3.820000       -2.9739938E-03
   3.830000       -2.7974145E-03
   3.840000       -2.6190872E-03
   3.850000       -2.4390237E-03
   3.860000       -2.2573983E-03
   3.870000       -2.0744051E-03
   3.880000       -1.8903058E-03
   3.890000       -1.7054315E-03
   3.900000       -1.5200708E-03
   3.910000       -1.3345201E-03
   3.920000       -1.1490607E-03
   3.930000       -9.6388994E-04
   3.940000       -7.7919808E-04
   3.950000       -5.9513317E-04
   3.960000       -4.1183576E-04
   3.970000       -2.2940099E-04
   3.980000       -4.7950358E-05
   3.990000        1.3242492E-04
   4.000000        3.1163363E-04
   4.010000        4.8953516E-04
   4.020000        6.6597387E-04
   4.030000        8.4075570E-04
   4.040000        1.0136794E-03
   4.050000        1.1845058E-03
   4.060000        1.3529514E-03
   4.070000        1.5187884E-03
   4.080000        1.6817566E-03
   4.090000        1.8416278E-03
   4.100000        1.9982236E-03
   4.110000        2.1513577E-03
   4.120000        2.3008571E-03
   4.130000        2.4465474E-03
   4.140000        2.5882497E-03
   4.150000        2.7258121E-03
   4.160000        2.8591107E-03
   4.170000        2.9880523E-03
   4.180000        3.1125878E-03
   4.190000        3.2327010E-03
   4.200000        3.3483885E-03
   4.210000        3.4596494E-03
   4.220000        3.5664600E-03
   4.230000        3.6687618E-03
   4.240000        3.7664694E-03
   4.250000        3.8594829E-03
   4.260000        3.9477004E-03
   4.270000        4.0310295E-03
   4.280000        4.1094036E-03
   4.290000        4.1827820E-03
   4.300000        4.2511462E-03
   4.310000        4.3145097E-03
   4.320000        4.3729013E-03
   4.330000        4.4263829E-03
   4.340000        4.4750464E-03
   4.350000        4.5190286E-03
   4.360000        4.5584855E-03
   4.370000        4.5935996E-03
   4.380000        4.6245581E-03
   4.390000        4.6515325E-03
   4.400000        4.6746489E-03
   4.410000        4.6939705E-03
   4.420000        4.7095371E-03
   4.430000        4.7213365E-03
   4.440000        4.7293575E-03
   4.450000        4.7335569E-03
   4.460000        4.7339760E-03
   4.470000        4.7306167E-03
   4.480000        4.7235815E-03
   4.490000        4.7130007E-03
   4.500000        4.6990248E-03
   4.510000        4.6818610E-03
   4.520000        4.6617389E-03
   4.530000        4.6388754E-03
   4.540000        4.6135127E-03
   4.550000        4.5858710E-03
   4.560000        4.5560552E-03
   4.570000        4.5241253E-03
   4.580000        4.4900882E-03
   4.590000        4.4538490E-03
   4.600000        4.4152937E-03
   4.610000        4.3742834E-03
   4.620000        4.3307431E-03
   4.630000        4.2846585E-03
   4.640000        4.2360681E-03
   4.650000        4.1851480E-03
   4.660000        4.1320943E-03
   4.670000        4.0771333E-03
   4.680000        4.0204357E-03
   4.690000        3.9622141E-03
   4.700000        3.9025603E-03
   4.710000        3.8415156E-03
   4.720000        3.7790842E-03
   4.730000        3.7151743E-03
   4.740000        3.6497219E-03
   4.750000        3.5825744E-03
   4.760000        3.5135807E-03
   4.770000        3.4426239E-03
   4.780000        3.3696308E-03
   4.790000        3.2946083E-03
   4.800000        3.2175379E-03
   4.810000        3.1385636E-03
   4.820000        3.0578375E-03
   4.830000        2.9755156E-03
   4.840000        2.8917878E-03
   4.850000        2.8067413E-03
   4.860000        2.7204619E-03
   4.870000        2.6329379E-03
   4.880000        2.5441316E-03
   4.890000        2.4539875E-03
   4.900000        2.3623882E-03
   4.910000        2.2692881E-03
   4.920000        2.1745691E-03
   4.930000        2.0782105E-03
   4.940000        1.9802065E-03
   4.950000        1.8805326E-03
   4.960000        1.7792170E-03
   4.970000        1.6763473E-03
   4.980000        1.5719921E-03
   4.990000        1.4662497E-03
   5.000000        1.3592439E-03
   5.010000        1.2511095E-03
   5.020000        1.1419245E-03
   5.030000        1.0317763E-03
   5.040000        9.2068373E-04
   5.050000        8.0869062E-04
   5.060000        6.9579890E-04
   5.070000        5.8200466E-04
   5.080000        4.6736875E-04
   5.090000        3.5195387E-04
   5.100000        2.3585504E-04
   5.110000        1.1916913E-04
   5.120000        2.0215223E-06
   5.130000       -1.1546237E-04
   5.140000       -2.3315905E-04
   5.150000       -3.5093172E-04
   5.160000       -4.6864362E-04
   5.170000       -5.8617501E-04
   5.180000       -7.0338434E-04
   5.190000       -8.2016527E-04
   5.200000       -9.3639235E-04
   5.210000       -1.0519763E-03
   5.220000       -1.1668535E-03
   5.230000       -1.2809575E-03
   5.240000       -1.3942082E-03
   5.250000       -1.5065244E-03
   5.260000       -1.6178079E-03
   5.270000       -1.7279342E-03
   5.280000       -1.8367706E-03
   5.290000       -1.9442039E-03
   5.300000       -2.0501430E-03
   5.310000       -2.1545410E-03
   5.320000       -2.2573778E-03
   5.330000       -2.3586645E-03
   5.340000       -2.4584210E-03
   5.350000       -2.5566672E-03
   5.360000       -2.6534039E-03
   5.370000       -2.7486072E-03
   5.380000       -2.8422221E-03
   5.390000       -2.9341562E-03
   5.400000       -3.0242873E-03
   5.410000       -3.1124556E-03
   5.420000       -3.1984737E-03
   5.430000       -3.2821374E-03
   5.440000       -3.3632421E-03
   5.450000       -3.4416078E-03
   5.460000       -3.5171043E-03
   5.470000       -3.5896730E-03
   5.480000       -3.6593280E-03
   5.490000       -3.7261527E-03
   5.500000       -3.7902747E-03
   5.510000       -3.8518328E-03
   5.520000       -3.9109462E-03
   5.530000       -3.9676833E-03
   5.540000       -4.0220399E-03
   5.550000       -4.0739463E-03
   5.560000       -4.1232747E-03
   5.570000       -4.1698576E-03
   5.580000       -4.2135012E-03
   5.590000       -4.2540086E-03
   5.600000       -4.2911875E-03
   5.610000       -4.3248930E-03
   5.620000       -4.3550036E-03
   5.630000       -4.3814480E-03
   5.640000       -4.4042342E-03
   5.650000       -4.4234060E-03
   5.660000       -4.4390829E-03
   5.670000       -4.4514071E-03
   5.680000       -4.4605462E-03
   5.690000       -4.4666268E-03
   5.700000       -4.4697518E-03
   5.710000       -4.4699525E-03
   5.720000       -4.4671874E-03
   5.730000       -4.4614044E-03
   5.740000       -4.4525075E-03
   5.750000       -4.4404296E-03
   5.760000       -4.4251545E-03
   5.770000       -4.4066776E-03
   5.780000       -4.3850793E-03
   5.790000       -4.3604444E-03
   5.800000       -4.3329108E-03
   5.810000       -4.3025822E-03
   5.820000       -4.2695855E-03
   5.830000       -4.2340443E-03
   5.840000       -4.1960175E-03
   5.850000       -4.1555851E-03
   5.860000       -4.1127913E-03
   5.870000       -4.0676491E-03
   5.880000       -4.0202057E-03
   5.890000       -3.9705089E-03
   5.900000       -3.9186226E-03
   5.910000       -3.8646986E-03
   5.920000       -3.8089282E-03
   5.930000       -3.7515522E-03
   5.940000       -3.6928845E-03
   5.950000       -3.6332018E-03
   5.960000       -3.5728069E-03
   5.970000       -3.5119029E-03
   5.980000       -3.4506342E-03
   5.990000       -3.3890498E-03
   6.000000       -3.3271371E-03
   6.010000       -3.2648137E-03
   6.020000       -3.2019736E-03
   6.030000       -3.1385713E-03
   6.040000       -3.0745550E-03
   6.050000       -3.0099649E-03
   6.060000       -2.9449060E-03
   6.070000       -2.8795390E-03
   6.080000       -2.8140731E-03
   6.090000       -2.7487762E-03
   6.100000       -2.6839681E-03
   6.110000       -2.6199347E-03
   6.120000       -2.5569864E-03
   6.130000       -2.4953545E-03
   6.140000       -2.4352334E-03
   6.150000       -2.3766889E-03
   6.160000       -2.3197292E-03
   6.170000       -2.2642836E-03
   6.180000       -2.2102308E-03
   6.190000       -2.1574716E-03
   6.200000       -2.1059134E-03
   6.210000       -2.0555083E-03
   6.220000       -2.0062583E-03
   6.230000       -1.9582168E-03
   6.240000       -1.9114900E-03
   6.250000       -1.8662090E-03
   6.260000       -1.8224879E-03
   6.270000       -1.7804709E-03
   6.280000       -1.7402723E-03
   6.290000       -1.7019775E-03
   6.300000       -1.6656698E-03
   6.310000       -1.6313648E-03
   6.320000       -1.5990431E-03
   6.330000       -1.5686273E-03
   6.340000       -1.5400010E-03
   6.350000       -1.5130145E-03
   6.360000       -1.4875080E-03
   6.370000       -1.4633124E-03
   6.380000       -1.4403138E-03
   6.390000       -1.4184171E-03
   6.400000       -1.3975825E-03
   6.410000       -1.3777681E-03
   6.420000       -1.3589760E-03
   6.430000       -1.3411775E-03
   6.440000       -1.3243612E-03
   6.450000       -1.3084874E-03
   6.460000       -1.2934798E-03
   6.470000       -1.2792894E-03
   6.480000       -1.2658074E-03
   6.490000       -1.2529126E-03
   6.500000       -1.2405061E-03
   6.510000       -1.2284282E-03
   6.520000       -1.2165061E-03
   6.530000       -1.2046107E-03
   6.540000       -1.1925804E-03
   6.550000       -1.1803220E-03
   6.560000       -1.1677541E-03
   6.570000       -1.1548440E-03
   6.580000       -1.1415882E-03
   6.590000       -1.1279886E-03
   6.600000       -1.1140336E-03
   6.610000       -1.0997062E-03
   6.620000       -1.0849496E-03
   6.630000       -1.0696712E-03
   6.640000       -1.0537698E-03
   6.650000       -1.0371398E-03
   6.660000       -1.0196795E-03
   6.670000       -1.0012729E-03
   6.680000       -9.8181295E-04
   6.690000       -9.6118829E-04
   6.700000       -9.3930680E-04
   6.710000       -9.1606501E-04
   6.720000       -8.9136598E-04
   6.730000       -8.6512323E-04
   6.740000       -8.3728071E-04
   6.750000       -8.0781576E-04
   6.760000       -7.7672629E-04
   6.770000       -7.4402377E-04
   6.780000       -7.0973579E-04
   6.790000       -6.7387370E-04
   6.800000       -6.3647935E-04
   6.810000       -5.9756695E-04
   6.820000       -5.5715931E-04
   6.830000       -5.1528204E-04
   6.840000       -4.7196180E-04
   6.850000       -4.2721001E-04
   6.860000       -3.8102275E-04
   6.870000       -3.3337926E-04
   6.880000       -2.8422812E-04
   6.890000       -2.3349439E-04
   6.900000       -1.8109154E-04
   6.910000       -1.2694362E-04
   6.920000       -7.0975577E-05
   6.930000       -1.3151295E-05
   6.940000        4.6538713E-05
   6.950000        1.0805455E-04
   6.960000        1.7133067E-04
   6.970000        2.3625593E-04
   6.980000        3.0269541E-04
   6.990000        3.7048670E-04
   7.000000        4.3946120E-04
   7.010000        5.0945289E-04
   7.020000        5.8031012E-04
   7.030000        6.5191748E-04
   7.040000        7.2420127E-04
   7.050000        7.9713220E-04
   7.060000        8.7072660E-04
   7.070000        9.4502675E-04
   7.080000        1.0200780E-03
   7.090000        1.0959136E-03
   7.100000        1.1725347E-03
   7.110000        1.2499070E-03
   7.120000        1.3279547E-03
   7.130000        1.4065661E-03
   7.140000        1.4856065E-03
   7.150000        1.5649190E-03
   7.160000        1.6443325E-03
   7.170000        1.7236642E-03
   7.180000        1.8027135E-03
   7.190000        1.8812731E-03
   7.200000        1.9591420E-03
   7.210000        2.0361338E-03
   7.220000        2.1120857E-03
   7.230000        2.1868793E-03
   7.240000        2.2604456E-03
   7.250000        2.3327565E-03
   7.260000        2.4038085E-03
   7.270000        2.4736242E-03
   7.280000        2.5422145E-03
   7.290000        2.6095859E-03
   7.300000        2.6757156E-03
   7.310000        2.7405724E-03
   7.320000        2.8040854E-03
   7.330000        2.8661634E-03
   7.340000        2.9266949E-03
   7.350000        2.9855387E-03
   7.360000        3.0425442E-03
   7.370000        3.0975118E-03
   7.380000        3.1502559E-03
   7.390000        3.2005752E-03
   7.400000        3.2483204E-03
   7.410000        3.2933333E-03
   7.420000        3.3355614E-03
   7.430000        3.3749677E-03
   7.440000        3.4115850E-03
   7.450000        3.4454644E-03
   7.460000        3.4766688E-03
   7.470000        3.5052798E-03
   7.480000        3.5313508E-03
   7.490000        3.5549477E-03
   7.500000        3.5760843E-03
   7.510000        3.5947608E-03
   7.520000        3.6109786E-03
   7.530000        3.6246979E-03
   7.540000        3.6358675E-03
   7.550000        3.6443905E-03
   7.560000        3.6502159E-03
   7.570000        3.6532709E-03
   7.580000        3.6535063E-03
   7.590000        3.6509056E-03
   7.600000        3.6455209E-03
   7.610000        3.6373932E-03
   7.620000        3.6266434E-03
   7.630000        3.6133875E-03
   7.640000        3.5977077E-03
   7.650000        3.5797057E-03
   7.660000        3.5594145E-03
   7.670000        3.5368775E-03
   7.680000        3.5120796E-03
   7.690000        3.4849867E-03
   7.700000        3.4556480E-03
   7.710000        3.4240389E-03
   7.720000        3.3901653E-03
   7.730000        3.3540989E-03
   7.740000        3.3158972E-03
   7.750000        3.2756357E-03
   7.760000        3.2333604E-03
   7.770000        3.1891682E-03
   7.780000        3.1431403E-03
   7.790000        3.0953307E-03
   7.800000        3.0457957E-03
   7.810000        2.9945814E-03
   7.820000        2.9416587E-03
   7.830000        2.8870304E-03
   7.840000        2.8306500E-03
   7.850000        2.7724837E-03
   7.860000        2.7124840E-03
   7.870000        2.6506318E-03
   7.880000        2.5869426E-03
   7.890000        2.5214653E-03
   7.900000        2.4542650E-03
   7.910000        2.3854268E-03
   7.920000        2.3150668E-03
   7.930000        2.2432932E-03
   7.940000        2.1702049E-03
   7.950000        2.0958723E-03
   7.960000        2.0203709E-03
   7.970000        1.9437260E-03
   7.980000        1.8659525E-03
   7.990000        1.7870333E-03
   8.000000        1.7069818E-03
   8.010000        1.6257162E-03
   8.020000        1.5431739E-03
   8.030000        1.4592884E-03
   8.040000        1.3740120E-03
   8.050000        1.2872765E-03
   8.060000        1.1990553E-03
   8.070000        1.1093408E-03
   8.080000        1.0181708E-03
   8.090000        9.2560839E-04
   8.100000        8.3177286E-04
   8.110000        7.3674798E-04
   8.120000        6.4066105E-04
   8.130000        5.4359954E-04
   8.140000        4.4566399E-04
   8.150000        3.4686967E-04
   8.160000        2.4725081E-04
   8.170000        1.4681116E-04
   8.180000        4.5512752E-05
   8.190000       -5.6674824E-05
   8.200000       -1.5979716E-04
   8.210000       -2.6388656E-04
   8.220000       -3.6897627E-04
   8.230000       -4.7509762E-04
   8.240000       -5.8224780E-04
   8.250000       -6.9041445E-04
   8.260000       -7.9955294E-04
   8.270000       -9.0960524E-04
   8.280000       -1.0204794E-03
   8.290000       -1.1320753E-03
   8.300000       -1.2442850E-03
   8.310000       -1.3570039E-03
   8.320000       -1.4701426E-03
   8.330000       -1.5836196E-03
   8.340000       -1.6973891E-03
   8.350000       -1.8114184E-03
   8.360000       -1.9256910E-03
   8.370000       -2.0401964E-03
   8.380000       -2.1549249E-03
   8.390000       -2.2698552E-03
   8.400000       -2.3849572E-03
   8.410000       -2.5001925E-03
   8.420000       -2.6155098E-03
   8.430000       -2.7308529E-03
   8.440000       -2.8461635E-03
   8.450000       -2.9613792E-03
   8.460000       -3.0764325E-03
   8.470000       -3.1912376E-03
   8.480000       -3.3057111E-03
   8.490000       -3.4197522E-03
   8.500000       -3.5332411E-03
   8.510000       -3.6460634E-03
   8.520000       -3.7580843E-03
   8.530000       -3.8691701E-03
   8.540000       -3.9791805E-03
   8.550000       -4.0879762E-03
   8.560000       -4.1954229E-03
   8.570000       -4.3014027E-03
   8.580000       -4.4057709E-03
   8.590000       -4.5084339E-03
   8.600000       -4.6092859E-03
   8.610000       -4.7082626E-03
   8.620000       -4.8053293E-03
   8.630000       -4.9004550E-03
   8.640000       -4.9936450E-03
   8.650000       -5.0849076E-03
   8.660000       -5.1742080E-03
   8.670000       -5.2615097E-03
   8.680000       -5.3467387E-03
   8.690000       -5.4297750E-03
   8.700000       -5.5104457E-03
   8.710000       -5.5885934E-03
   8.720000       -5.6640301E-03
   8.730000       -5.7365824E-03
   8.740000       -5.8060740E-03
   8.750000       -5.8724084E-03
   8.760000       -5.9354631E-03
   8.770000       -5.9951609E-03
   8.780000       -6.0514691E-03
   8.790000       -6.1043934E-03
   8.800000       -6.1539127E-03
   8.810000       -6.2000393E-03
   8.820000       -6.2427307E-03
   8.830000       -6.2819719E-03
   8.840000       -6.3177054E-03
   8.850000       -6.3498146E-03
   8.860000       -6.3781766E-03
   8.870000       -6.4027007E-03
   8.880000       -6.4232009E-03
   8.890000       -6.4395899E-03
   8.900000       -6.4517492E-03
   8.910000       -6.4596189E-03
   8.920000       -6.4631528E-03
   8.930000       -6.4623738E-03
   8.940000       -6.4573120E-03
   8.950000       -6.4480063E-03
   8.960000       -6.4344867E-03
   8.970000       -6.4168745E-03
   8.980000       -6.3951924E-03