 -0.1000000        0.0000000E+00
 -9.0000004E-02    0.0000000E+00
 -7.9999998E-02    0.0000000E+00
 -7.0000000E-02    0.0000000E+00
 -5.9999999E-02    0.0000000E+00
 -5.0000001E-02    0.0000000E+00
 -3.9999999E-02    0.0000000E+00
 -2.9999999E-02   -2.8075543E-30
 -2.0000000E-02   -5.8129784E-29
 -9.9999998E-03   -6.8100430E-28
  0.0000000E+00   -5.9358906E-27
  9.9999998E-03   -4.2385441E-26
  2.0000000E-02   -2.5885758E-25
  2.9999999E-02   -1.3841330E-24
  3.9999999E-02   -6.5788787E-24
  5.0000001E-02   -2.8099869E-23
  5.9999999E-02   -1.0870497E-22
  7.0000000E-02   -3.8289970E-22
  7.9999998E-02   -1.2316864E-21
  9.0000004E-02   -3.6212796E-21
  0.1000000       -9.7198795E-21
  0.1100000       -2.3737030E-20
  0.1200000       -5.2407136E-20
  0.1300000       -1.0341977E-19
  0.1400000       -1.7852445E-19
  0.1500000       -2.5717787E-19
  0.1600000       -2.6929798E-19
  0.1700000       -6.6082942E-20
  0.1800000        5.8143461E-19
  0.1900000        1.9001869E-18
  0.2000000        3.8809246E-18
  0.2100000        5.8614535E-18
  0.2200000        6.0246583E-18
  0.2300000        1.1384131E-18
  0.2400000       -1.2872913E-17
  0.2500000       -3.8827325E-17
  0.2600000       -7.4287920E-17
  0.2700000       -1.0633748E-16
  0.2800000       -1.0752207E-16
  0.2900000       -3.7251506E-17
  0.3000000        1.4621001E-16
  0.3100000        4.5986589E-16
  0.3200000        8.5874921E-16
  0.3300000        1.1995138E-15
  0.3400000        1.2277523E-15
  0.3500000        6.1802864E-16
  0.3600000       -9.1030620E-16
  0.3700000       -3.4021877E-15
  0.3800000       -6.4429925E-15
  0.3900000       -8.9934655E-15
  0.4000000       -9.4113229E-15
  0.4100000       -5.7843342E-15
  0.4200000        3.3681314E-15
  0.4300000        1.8105424E-14
  0.4400000        3.6052094E-14
  0.4500000        5.1797610E-14
  0.4600000        5.7224977E-14
  0.4700000        4.3183810E-14
  0.4800000        2.5957479E-15
  0.4900000       -6.5455406E-14
  0.5000000       -1.5172515E-13
  0.5100000       -2.3450680E-13
  0.5200000       -2.8080869E-13
  0.5300000       -2.5238362E-13
  0.5400000       -1.1688466E-13
  0.5500000        1.3727646E-13
  0.5600000        4.8585170E-13
  0.5700000        8.5866698E-13
  0.5800000        1.1405894E-12
  0.5900000        1.1885840E-12
  0.6000000        8.6682278E-13
  0.6100000        9.6488715E-14
  0.6200000       -1.0899418E-12
  0.6300000       -2.5063413E-12
  0.6400000       -3.8028370E-12
  0.6500000       -4.5064287E-12
  0.6600000       -4.1216735E-12
  0.6700000       -2.2841499E-12
  0.6800000        1.0625835E-12
  0.6900000        5.5166726E-12
  0.7000000        1.0157424E-11
  0.7100000        1.3631814E-11
  0.7200000        1.4419529E-11
  0.7300000        1.1256532E-11
  0.7400000        3.6339727E-12
  0.7500000       -7.7657256E-12
  0.7600000       -2.0866614E-11
  0.7700000       -3.2380227E-11
  0.7800000       -3.8439436E-11
  0.7900000       -3.5620753E-11
  0.8000000       -2.2138560E-11
  0.8100000        1.1306328E-12
  0.8200000        3.0182939E-11
  0.8300000        5.8294251E-11
  0.8400000        7.7395160E-11
  0.8500000        8.0215348E-11
  0.8600000        6.2682318E-11
  0.8700000        2.5837547E-11
  0.8800000       -2.3468163E-11
  0.8900000       -7.3606982E-11
  0.9000000       -1.1093969E-10
  0.9100000       -1.2375691E-10
  0.9200000       -1.0627801E-10
  0.9300000       -6.1355296E-11
  0.9400000       -7.1377995E-13
  0.9500000        5.7820818E-11
  0.9600000        9.5679971E-11
  0.9700000        1.0006775E-10
  0.9800000        6.9490420E-11
  0.9900000        1.6095437E-11
   1.000000       -3.6661313E-11
   1.010000       -6.1101624E-11
   1.020000       -3.5541101E-11
   1.030000        4.5498119E-11
   1.040000        1.6482937E-10
   1.050000        2.8310812E-10
   1.060000        3.4765446E-10
   1.070000        3.0830175E-10
   1.080000        1.3621226E-10
   1.090000       -1.6023821E-10
   1.100000       -5.2851107E-10
   1.110000       -8.7806817E-10
   1.120000       -1.1001406E-09
   1.130000       -1.0971770E-09
   1.140000       -8.1430784E-10
   1.150000       -2.6325886E-10
   1.160000        4.6984677E-10
   1.170000        1.2373464E-09
   1.180000        1.8622677E-09
   1.190000        2.1824027E-09
   1.200000        2.0943025E-09
   1.210000        1.5841857E-09
   1.220000        7.3574519E-10
   1.230000       -2.8870514E-10
   1.240000       -1.2892448E-09
   1.250000       -2.0799200E-09
   1.260000       -2.5353841E-09
   1.270000       -2.6182063E-09
   1.280000       -2.3782618E-09
   1.290000       -1.9246380E-09
   1.300000       -1.3796502E-09
   1.310000       -8.3109347E-10
   1.320000       -3.0006253E-10
   1.330000        2.6302160E-10
   1.340000        9.5089858E-10
   1.350000        1.8481661E-09
   1.360000        2.9730525E-09
   1.370000        4.2331219E-09
   1.380000        5.4127414E-09
   1.390000        6.2014278E-09
   1.400000        6.2596732E-09
   1.410000        5.3068825E-09
   1.420000        3.2085024E-09
   1.430000        3.8705605E-11
   1.440000       -3.8994288E-09
   1.450000       -8.1025444E-09
   1.460000       -1.1939140E-08
   1.470000       -1.4749626E-08
   1.480000       -1.5954143E-08
   1.490000       -1.5149045E-08
   1.500000       -1.2178283E-08
   1.510000       -7.1726580E-09
   1.520000       -5.5533012E-10
   1.530000        6.9856765E-09
   1.540000        1.4557616E-08
   1.550000        2.1156801E-08
   1.560000        2.5794838E-08
   1.570000        2.7650799E-08
   1.580000        2.6231259E-08
   1.590000        2.1508571E-08
   1.600000        1.3998496E-08
   1.610000        4.7390474E-09
   1.620000       -4.8530313E-09
   1.630000       -1.3245610E-08
   1.640000       -1.9136351E-08
   1.650000       -2.1805770E-08
   1.660000       -2.1388239E-08
   1.670000       -1.8967981E-08
   1.680000       -1.6438459E-08
   1.690000       -1.6112640E-08
   1.700000       -2.0134841E-08
   1.710000       -2.9801532E-08
   1.720000       -4.4931912E-08
   1.730000       -6.3430093E-08
   1.740000       -8.1141636E-08
   1.750000       -9.2040409E-08
   1.760000       -8.8700617E-08
   1.770000       -6.2942675E-08
   1.780000       -6.5038930E-09
   1.790000        8.8415796E-08
   1.800000        2.2882641E-07
   1.810000        4.2085389E-07
   1.820000        6.6981846E-07
   1.830000        9.8035241E-07
   1.840000        1.3563883E-06
   1.850000        1.8009368E-06
   1.860000        2.3155694E-06
   1.870000        2.8996283E-06
   1.880000        3.5493679E-06
   1.890000        4.2571428E-06
   1.900000        5.0109757E-06
   1.910000        5.7945404E-06
   1.920000        6.5875774E-06
   1.930000        7.3669485E-06
   1.940000        8.1078142E-06
   1.950000        8.7848512E-06
   1.960000        9.3735416E-06
   1.970000        9.8510545E-06
   1.980000        1.0196653E-05
   1.990000        1.0392015E-05
   2.000000        1.0421170E-05
   2.010000        1.0270594E-05
   2.020000        9.9292456E-06
   2.030000        9.3886447E-06
   2.040000        8.6432174E-06
   2.050000        7.6904180E-06
   2.060000        6.5309268E-06
   2.070000        5.1683969E-06
   2.080000        3.6090839E-06
   2.090000        1.8613983E-06
   2.100000       -6.4642975E-08
   2.110000       -2.1578207E-06
   2.120000       -4.4057601E-06
   2.130000       -6.7948959E-06
   2.140000       -9.3101216E-06
   2.150000       -1.1934406E-05
   2.160000       -1.4648994E-05
   2.170000       -1.7433596E-05
   2.180000       -2.0266796E-05
   2.190000       -2.3126877E-05
   2.200000       -2.5992502E-05
   2.210000       -2.8843000E-05
   2.220000       -3.1657401E-05
   2.230000       -3.4413973E-05
   2.240000       -3.7087764E-05
   2.250000       -3.9649534E-05
   2.260000       -4.2064115E-05
   2.270000       -4.4289864E-05
   2.280000       -4.6278852E-05
   2.290000       -4.7978738E-05
   2.300000       -4.9335729E-05
   2.310000       -5.0297349E-05
   2.320000       -5.0815790E-05
   2.330000       -5.0850242E-05
   2.340000       -5.0369203E-05
   2.350000       -4.9350310E-05
   2.360000       -4.7780522E-05
   2.370000       -4.5655783E-05
   2.380000       -4.2979053E-05
   2.390000       -3.9759805E-05
   2.400000       -3.6012731E-05
   2.410000       -3.1757001E-05
   2.420000       -2.7015492E-05
   2.430000       -2.1813790E-05
   2.440000       -1.6179492E-05
   2.450000       -1.0141012E-05
   2.460000       -3.7269815E-06
   2.470000        3.0343431E-06
   2.480000        1.0115345E-05
   2.490000        1.7488517E-05
   2.500000        2.5126044E-05
   2.510000        3.2999033E-05
   2.520000        4.1076881E-05
   2.530000        4.9326736E-05
   2.540000        5.7713045E-05
   2.550000        6.6198241E-05
   2.560000        7.4740783E-05
   2.570000        8.3296545E-05
   2.580000        9.1815753E-05
   2.590000        1.0024240E-04
   2.600000        1.0851178E-04
   2.610000        1.1655060E-04
   2.620000        1.2427483E-04
   2.630000        1.3159322E-04
   2.640000        1.3840862E-04
   2.650000        1.4462168E-04
   2.660000        1.5013739E-04
   2.670000        1.5486579E-04
   2.680000        1.5872881E-04
   2.690000        1.6165944E-04
   2.700000        1.6360219E-04
   2.710000        1.6451052E-04
   2.720000        1.6434370E-04
   2.730000        1.6306093E-04
   2.740000        1.6061965E-04
   2.750000        1.5697132E-04
   2.760000        1.5206149E-04
   2.770000        1.4583026E-04
   2.780000        1.3821630E-04
   2.790000        1.2915889E-04
   2.800000        1.1860389E-04
   2.810000        1.0650563E-04
   2.820000        9.2830698E-05
   2.830000        7.7557961E-05
   2.840000        6.0679609E-05
   2.850000        4.2199816E-05
   2.860000        2.2133067E-05
   2.870000        5.0253072E-07
   2.880000       -2.2662389E-05
   2.890000       -4.7328012E-05
   2.900000       -7.3458636E-05
   2.910000       -1.0102042E-04
   2.920000       -1.2998386E-04
   2.930000       -1.6032784E-04
   2.940000       -1.9204152E-04
   2.950000       -2.2512591E-04
   2.960000       -2.5959106E-04
   2.970000       -2.9545790E-04
   2.980000       -3.3274418E-04
   2.990000       -3.7147111E-04
   3.000000       -4.1164650E-04
   3.010000       -4.5326794E-04
   3.020000       -4.9631792E-04
   3.030000       -5.4076314E-04
   3.040000       -5.8656355E-04
   3.050000       -6.3367555E-04
   3.060000       -6.8205857E-04
   3.070000       -7.3167140E-04
   3.080000       -7.8248919E-04
   3.090000       -8.3449541E-04
   3.100000       -8.8767416E-04
   3.110000       -9.4201043E-04
   3.120000       -9.9749537E-04
   3.130000       -1.0541142E-03
   3.140000       -1.1118449E-03
   3.150000       -1.1706628E-03
   3.160000       -1.2305385E-03
   3.170000       -1.2914365E-03
   3.180000       -1.3533086E-03
   3.190000       -1.4161110E-03
   3.200000       -1.4797819E-03
   3.210000       -1.5442579E-03
   3.220000       -1.6094553E-03
   3.230000       -1.6752902E-03
   3.240000       -1.7416754E-03
   3.250000       -1.8085168E-03
   3.260000       -1.8757352E-03
   3.270000       -1.9432436E-03
   3.280000       -2.0109660E-03
   3.290000       -2.0788293E-03
   3.300000       -2.1467509E-03
   3.310000       -2.2146530E-03
   3.320000       -2.2824383E-03
   3.330000       -2.3500093E-03
   3.340000       -2.4172564E-03
   3.350000       -2.4840587E-03
   3.360000       -2.5502967E-03
   3.370000       -2.6158413E-03
   3.380000       -2.6805843E-03
   3.390000       -2.7444058E-03
   3.400000       -2.8072095E-03
   3.410000       -2.8688954E-03
   3.420000       -2.9293967E-03
   3.430000       -2.9886507E-03
   3.440000       -3.0466120E-03
   3.450000       -3.1032877E-03
   3.460000       -3.1586722E-03
   3.470000       -3.2128107E-03
   3.480000       -3.2657695E-03
   3.490000       -3.3176241E-03
   3.500000       -3.3684690E-03
   3.510000       -3.4184058E-03
   3.520000       -3.4675454E-03
   3.530000       -3.5159953E-03
   3.540000       -3.5638518E-03
   3.550000       -3.6112322E-03
   3.560000       -3.6582458E-03
   3.570000       -3.7049965E-03
   3.580000       -3.7515855E-03
   3.590000       -3.7981423E-03
   3.600000       -3.8447815E-03
   3.610000       -3.8916240E-03
   3.620000       -3.9387844E-03
   3.630000       -3.9863829E-03
   3.640000       -4.0345234E-03
   3.650000       -4.0833079E-03
   3.660000       -4.1327942E-03
   3.670000       -4.1830502E-03
   3.680000       -4.2341100E-03
   3.690000       -4.2859809E-03
   3.700000       -4.3386524E-03
   3.710000       -4.3921163E-03
   3.720000       -4.4463472E-03
   3.730000       -4.5013176E-03
   3.740000       -4.5570168E-03
   3.750000       -4.6134312E-03
   3.760000       -4.6705576E-03
   3.770000       -4.7283857E-03
   3.780000       -4.7869291E-03
   3.790000       -4.8461761E-03
   3.800000       -4.9061142E-03
   3.810000       -4.9667186E-03
   3.820000       -5.0279689E-03
   3.830000       -5.0897943E-03
   3.840000       -5.1521156E-03
   3.850000       -5.2148234E-03
   3.860000       -5.2777920E-03
   3.870000       -5.3408383E-03
   3.880000       -5.4037864E-03
   3.890000       -5.4664114E-03
   3.900000       -5.5284752E-03
   3.910000       -5.5897287E-03
   3.920000       -5.6499145E-03
   3.930000       -5.7087634E-03
   3.940000       -5.7660150E-03
   3.950000       -5.8213873E-03
   3.960000       -5.8746161E-03
   3.970000       -5.9254360E-03
   3.980000       -5.9735728E-03
   3.990000       -6.0187853E-03
   4.000000       -6.0608294E-03
   4.010000       -6.0994802E-03
   4.020000       -6.1345282E-03
   4.030000       -6.1657764E-03
   4.040000       -6.1930316E-03
   4.050000       -6.2161186E-03
   4.060000       -6.2348545E-03
   4.070000       -6.2490758E-03
   4.080000       -6.2586092E-03
   4.090000       -6.2633101E-03
   4.100000       -6.2630349E-03
   4.110000       -6.2576602E-03
   4.120000       -6.2470841E-03
   4.130000       -6.2311990E-03
   4.140000       -6.2099267E-03
   4.150000       -6.1831814E-03
   4.160000       -6.1508883E-03
   4.170000       -6.1129886E-03
   4.180000       -6.0694190E-03
   4.190000       -6.0201311E-03
   4.200000       -5.9651039E-03
   4.210000       -5.9043090E-03
   4.220000       -5.8377427E-03
   4.230000       -5.7654087E-03
   4.240000       -5.6873015E-03
   4.250000       -5.6034257E-03
   4.260000       -5.5137952E-03
   4.270000       -5.4184264E-03
   4.280000       -5.3173467E-03
   4.290000       -5.2105957E-03
   4.300000       -5.0982353E-03
   4.310000       -4.9803546E-03
   4.320000       -4.8570479E-03
   4.330000       -4.7284197E-03
   4.340000       -4.5946050E-03
   4.350000       -4.4557480E-03
   4.360000       -4.3119928E-03
   4.370000       -4.1634948E-03
   4.380000       -4.0104445E-03
   4.390000       -3.8530158E-03
   4.400000       -3.6914062E-03
   4.410000       -3.5258087E-03
   4.420000       -3.3564244E-03
   4.430000       -3.1834457E-03
   4.440000       -3.0070543E-03
   4.450000       -2.8274066E-03
   4.460000       -2.6446795E-03
   4.470000       -2.4590413E-03
   4.480000       -2.2706673E-03
   4.490000       -2.0797341E-03
   4.500000       -1.8864414E-03
   4.510000       -1.6909749E-03
   4.520000       -1.4935517E-03
   4.530000       -1.2943576E-03
   4.540000       -1.0936132E-03
   4.550000       -8.9151226E-04
   4.560000       -6.8827707E-04
   4.570000       -4.8413180E-04
   4.580000       -2.7929878E-04
   4.590000       -7.3994561E-05
   4.600000        1.3155854E-04
   4.610000        3.3715725E-04
   4.620000        5.4261537E-04
   4.630000        7.4773148E-04
   4.640000        9.5234037E-04
   4.650000        1.1562653E-03
   4.660000        1.3593142E-03
   4.670000        1.5612973E-03
   4.680000        1.7619922E-03
   4.690000        1.9611805E-03
   4.700000        2.1586134E-03
   4.710000        2.3540570E-03
   4.720000        2.5472322E-03
   4.730000        2.7378725E-03
   4.740000        2.9257128E-03
   4.750000        3.1104770E-03
   4.760000        3.2919315E-03
   4.770000        3.4697913E-03
   4.780000        3.6438208E-03
   4.790000        3.8137538E-03
   4.800000        3.9793933E-03
   4.810000        4.1404883E-03
   4.820000        4.2968676E-03
   4.830000        4.4483216E-03
   4.840000        4.5946767E-03
   4.850000        4.7357278E-03
   4.860000        4.8712911E-03
   4.870000        5.0011701E-03
   4.880000        5.1251519E-03
   4.890000        5.2430802E-03
   4.900000        5.3547542E-03
   4.910000        5.4600332E-03
   4.920000        5.5587897E-03
   4.930000        5.6508617E-03
   4.940000        5.7361764E-03
   4.950000        5.8146617E-03
   4.960000        5.8862665E-03
   4.970000        5.9509743E-03
   4.980000        6.0087889E-03
   4.990000        6.0597523E-03
   5.000000        6.1038956E-03
   5.010000        6.1413241E-03
   5.020000        6.1721276E-03
   5.030000        6.1963936E-03
   5.040000        6.2141921E-03
   5.050000        6.2256372E-03
   5.060000        6.2308218E-03
   5.070000        6.2298286E-03
   5.080000        6.2227892E-03
   5.090000        6.2098089E-03
   5.100000        6.1909957E-03
   5.110000        6.1664945E-03
   5.120000        6.1364411E-03
   5.130000        6.1009829E-03
   5.140000        6.0602808E-03
   5.150000        6.0145003E-03
   5.160000        5.9638177E-03
   5.170000        5.9084138E-03
   5.180000        5.8484753E-03
   5.190000        5.7842121E-03
   5.200000        5.7158186E-03
   5.210000        5.6434995E-03
   5.220000        5.5674347E-03
   5.230000        5.4878108E-03
   5.240000        5.4048132E-03
   5.250000        5.3186170E-03
   5.260000        5.2294065E-03
   5.270000        5.1373551E-03
   5.280000        5.0426535E-03
   5.290000        4.9454700E-03
   5.300000        4.8459973E-03
   5.310000        4.7444007E-03
   5.320000        4.6408642E-03
   5.330000        4.5355647E-03
   5.340000        4.4286908E-03
   5.350000        4.3204254E-03
   5.360000        4.2109648E-03
   5.370000        4.1005053E-03
   5.380000        3.9892425E-03
   5.390000        3.8773620E-03
   5.400000        3.7650375E-03
   5.410000        3.6524215E-03
   5.420000        3.5396453E-03
   5.430000        3.4268219E-03
   5.440000        3.3140443E-03
   5.450000        3.2013918E-03
   5.460000        3.0889271E-03
   5.470000        2.9767063E-03
   5.480000        2.8647773E-03
   5.490000        2.7531821E-03
   5.500000        2.6419533E-03
   5.510000        2.5311287E-03
   5.520000        2.4207423E-03
   5.530000        2.3108313E-03
   5.540000        2.2014356E-03
   5.550000        2.0926008E-03
   5.560000        1.9843748E-03
   5.570000        1.8767978E-03
   5.580000        1.7699156E-03
   5.590000        1.6637438E-03
   5.600000        1.5583053E-03
   5.610000        1.4536037E-03
   5.620000        1.3496226E-03
   5.630000        1.2463441E-03
   5.640000        1.1437380E-03
   5.650000        1.0417784E-03
   5.660000        9.4043062E-04
   5.670000        8.3967089E-04
   5.680000        7.3948107E-04
   5.690000        6.3983654E-04
   5.700000        5.4072967E-04
   5.710000        4.4215863E-04
   5.720000        3.4412617E-04
   5.730000        2.4664661E-04
   5.740000        1.4974465E-04
   5.750000        5.3435448E-05
   5.760000       -4.2269578E-05
   5.770000       -1.3735048E-04
   5.780000       -2.3178730E-04
   5.790000       -3.2557148E-04
   5.800000       -4.1870307E-04
   5.810000       -5.1117438E-04
   5.820000       -6.0298928E-04
   5.830000       -6.9414213E-04
   5.840000       -7.8461663E-04
   5.850000       -8.7440910E-04
   5.860000       -9.6350239E-04
   5.870000       -1.0518812E-03
   5.880000       -1.1395117E-03
   5.890000       -1.2263629E-03
   5.900000       -1.3124183E-03
   5.910000       -1.3976509E-03
   5.920000       -1.4820286E-03
   5.930000       -1.5655352E-03
   5.940000       -1.6481505E-03
   5.950000       -1.7298608E-03
   5.960000       -1.8106495E-03
   5.970000       -1.8905072E-03
   5.980000       -1.9694378E-03
   5.990000       -2.0474412E-03
   6.000000       -2.1245116E-03
   6.010000       -2.2006466E-03
   6.020000       -2.2758485E-03
   6.030000       -2.3501320E-03
   6.040000       -2.4234841E-03
   6.050000       -2.4959152E-03
   6.060000       -2.5674151E-03
   6.070000       -2.6379670E-03
   6.080000       -2.7075708E-03
   6.090000       -2.7762074E-03
   6.100000       -2.8438696E-03
   6.110000       -2.9105362E-03
   6.120000       -2.9762054E-03
   6.130000       -3.0408180E-03
   6.140000       -3.1043554E-03
   6.150000       -3.1667375E-03
   6.160000       -3.2278963E-03
   6.170000       -3.2877305E-03
   6.180000       -3.3461477E-03
   6.190000       -3.4030210E-03
   6.200000       -3.4582424E-03
   6.210000       -3.5117052E-03
   6.220000       -3.5632874E-03
   6.230000       -3.6128955E-03
   6.240000       -3.6604279E-03
   6.250000       -3.7058068E-03
   6.260000       -3.7489445E-03
   6.270000       -3.7897853E-03
   6.280000       -3.8282836E-03
   6.290000       -3.8643812E-03
   6.300000       -3.8980406E-03
   6.310000       -3.9292430E-03
   6.320000       -3.9579403E-03
   6.330000       -3.9840913E-03
   6.340000       -4.0076273E-03
   6.350000       -4.0285029E-03
   6.360000       -4.0466292E-03
   6.370000       -4.0619429E-03
   6.380000       -4.0743831E-03
   6.390000       -4.0838863E-03
   6.400000       -4.0904232E-03
   6.410000       -4.0939716E-03
   6.420000       -4.0945318E-03
   6.430000       -4.0921071E-03
   6.440000       -4.0867119E-03
   6.450000       -4.0783589E-03
   6.460000       -4.0670652E-03
   6.470000       -4.0528476E-03
   6.480000       -4.0357211E-03
   6.490000       -4.0157102E-03
   6.500000       -3.9928304E-03
   6.510000       -3.9670919E-03
   6.520000       -3.9385087E-03
   6.530000       -3.9070868E-03
   6.540000       -3.8728360E-03
   6.550000       -3.8357598E-03
   6.560000       -3.7958727E-03
   6.570000       -3.7532027E-03
   6.580000       -3.7077903E-03
   6.590000       -3.6596968E-03
   6.600000       -3.6090042E-03
   6.610000       -3.5558119E-03
   6.620000       -3.5002367E-03
   6.630000       -3.4424097E-03
   6.640000       -3.3824730E-03
   6.650000       -3.3205808E-03
   6.660000       -3.2568963E-03
   6.670000       -3.1915908E-03
   6.680000       -3.1248427E-03
   6.690000       -3.0568338E-03
   6.700000       -2.9877492E-03
   6.710000       -2.9177647E-03
   6.720000       -2.8470529E-03
   6.730000       -2.7757701E-03
   6.740000       -2.7040627E-03
   6.750000       -2.6320834E-03
   6.760000       -2.5599545E-03
   6.770000       -2.4878168E-03
   6.780000       -2.4157905E-03
   6.790000       -2.3440064E-03
   6.800000       -2.2725896E-03
   6.810000       -2.2016724E-03
   6.820000       -2.1313794E-03
   6.830000       -2.0618530E-03
   6.840000       -1.9932115E-03
   6.850000       -1.9255960E-03
   6.860000       -1.8591376E-03
   6.870000       -1.7939737E-03
   6.880000       -1.7302264E-03
   6.890000       -1.6680182E-03
   6.900000       -1.6074523E-03
   6.910000       -1.5486059E-03
   6.920000       -1.4915424E-03
   6.930000       -1.4363097E-03
   6.940000       -1.3829379E-03
   6.950000       -1.3314423E-03
   6.960000       -1.2818408E-03
   6.970000       -1.2341546E-03
   6.980000       -1.1883891E-03
   6.990000       -1.1445759E-03
   7.000000       -1.1027424E-03
   7.010000       -1.0629151E-03
   7.020000       -1.0251398E-03
   7.030000       -9.8943734E-04
   7.040000       -9.5584471E-04
   7.050000       -9.2439621E-04
   7.060000       -8.9509081E-04
   7.070000       -8.6792751E-04
   7.080000       -8.4288645E-04
   7.090000       -8.1991730E-04
   7.100000       -7.9894590E-04
   7.110000       -7.7987445E-04
   7.120000       -7.6260505E-04
   7.130000       -7.4700662E-04
   7.140000       -7.3296996E-04
   7.150000       -7.2037446E-04
   7.160000       -7.0910977E-04
   7.170000       -6.9908763E-04
   7.180000       -6.9021690E-04
   7.190000       -6.8240915E-04
   7.200000       -6.7558559E-04
   7.210000       -6.6965114E-04
   7.220000       -6.6452130E-04
   7.230000       -6.6010398E-04
   7.240000       -6.5628707E-04
   7.250000       -6.5296883E-04
   7.260000       -6.5003533E-04
   7.270000       -6.4737641E-04
   7.280000       -6.4487418E-04
   7.290000       -6.4241234E-04
   7.300000       -6.3986646E-04
   7.310000       -6.3711964E-04
   7.320000       -6.3404837E-04
   7.330000       -6.3054397E-04
   7.340000       -6.2649808E-04
   7.350000       -6.2182144E-04
   7.360000       -6.1641895E-04
   7.370000       -6.1019912E-04
   7.380000       -6.0306530E-04
   7.390000       -5.9492036E-04
   7.400000       -5.8565824E-04
   7.410000       -5.7516206E-04
   7.420000       -5.6331506E-04
   7.430000       -5.4998655E-04
   7.440000       -5.3505792E-04
   7.450000       -5.1840843E-04
   7.460000       -4.9991923E-04
   7.470000       -4.7946366E-04
   7.480000       -4.5692199E-04
   7.490000       -4.3217116E-04
   7.500000       -4.0509200E-04
   7.510000       -3.7557186E-04
   7.520000       -3.4351583E-04
   7.530000       -3.0885500E-04
   7.540000       -2.7153757E-04
   7.550000       -2.3154030E-04
   7.560000       -1.8886368E-04
   7.570000       -1.4351384E-04
   7.580000       -9.5517877E-05
   7.590000       -4.4914275E-05
   7.600000        8.2703818E-06
   7.610000        6.3982894E-05
   7.620000        1.2217861E-04
   7.630000        1.8278485E-04
   7.640000        2.4574605E-04
   7.650000        3.1099049E-04
   7.660000        3.7844502E-04
   7.670000        4.4805600E-04
   7.680000        5.1976019E-04
   7.690000        5.9350871E-04
   7.700000        6.6925591E-04
   7.710000        7.4695062E-04
   7.720000        8.2653761E-04
   7.730000        9.0794091E-04
   7.740000        9.9107984E-04
   7.750000        1.0758698E-03
   7.760000        1.1622120E-03
   7.770000        1.2500209E-03
   7.780000        1.3392091E-03
   7.790000        1.4297026E-03
   7.800000        1.5214188E-03
   7.810000        1.6142739E-03
   7.820000        1.7081863E-03
   7.830000        1.8030469E-03
   7.840000        1.8987462E-03
   7.850000        1.9951588E-03
   7.860000        2.0921463E-03
   7.870000        2.1895682E-03
   7.880000        2.2872558E-03
   7.890000        2.3850410E-03
   7.900000        2.4827363E-03
   7.910000        2.5801428E-03
   7.920000        2.6770427E-03
   7.930000        2.7732169E-03
   7.940000        2.8684328E-03
   7.950000        2.9624696E-03
   7.960000        3.0551036E-03
   7.970000        3.1461301E-03
   7.980000        3.2353383E-03
   7.990000        3.3225382E-03
   8.000000        3.4075265E-03
   8.010000        3.4901109E-03
   8.020000        3.5700968E-03
   8.030000        3.6473004E-03
   8.040000        3.7215361E-03
   8.050000        3.7926266E-03
   8.060000        3.8604075E-03
   8.070000        3.9247251E-03
   8.080000        3.9854418E-03
   8.090000        4.0424289E-03
   8.100000        4.0955679E-03
   8.110000        4.1447612E-03
   8.120000        4.1899034E-03
   8.130000        4.2309198E-03
   8.140000        4.2677489E-03
   8.150000        4.3003508E-03
   8.160000        4.3286872E-03
   8.170000        4.3527461E-03
   8.180000        4.3725171E-03
   8.190000        4.3879990E-03
   8.200000        4.3991958E-03
   8.210000        4.4061206E-03
   8.220000        4.4087837E-03
   8.230000        4.4072107E-03
   8.240000        4.4014384E-03
   8.250000        4.3915133E-03
   8.260000        4.3774866E-03
   8.270000        4.3594148E-03
   8.280000        4.3373574E-03
   8.290000        4.3113683E-03
   8.300000        4.2815013E-03
   8.310000        4.2478018E-03
   8.320000        4.2103129E-03
   8.330000        4.1690688E-03
   8.340000        4.1240989E-03
   8.350000        4.0754313E-03
   8.360000        4.0230867E-03
   8.370000        3.9670854E-03
   8.380000        3.9074514E-03
   8.390000        3.8442106E-03
   8.400000        3.7773999E-03
   8.410000        3.7070669E-03
   8.420000        3.6332775E-03
   8.430000        3.5561111E-03
   8.440000        3.4756626E-03
   8.450000        3.3920365E-03
   8.460000        3.3053462E-03
   8.470000        3.2157034E-03
   8.480000        3.1232275E-03
   8.490000        3.0280254E-03
   8.500000        2.9302095E-03
   8.510000        2.8298921E-03
   8.520000        2.7271763E-03
   8.530000        2.6221757E-03
   8.540000        2.5149956E-03
   8.550000        2.4057438E-03
   8.560000        2.2945339E-03
   8.570000        2.1814744E-03
   8.580000        2.0666893E-03
   8.590000        1.9503111E-03
   8.600000        1.8324693E-03
   8.610000        1.7133100E-03
   8.620000        1.5929763E-03
   8.630000        1.4716255E-03
   8.640000        1.3493961E-03
   8.650000        1.2264266E-03
   8.660000        1.1028392E-03
   8.670000        9.7873970E-04
   8.680000        8.5422286E-04
   8.690000        7.2936394E-04
   8.700000        6.0422049E-04
   8.710000        4.7884905E-04
   8.720000        3.5329713E-04
   8.730000        2.2761790E-04
   8.740000        1.0186791E-04
   8.750000       -2.3896331E-05
   8.760000       -1.4961261E-04
   8.770000       -2.7520442E-04
   8.780000       -4.0060579E-04
   8.790000       -5.2576110E-04
   8.800000       -6.5061764E-04
   8.810000       -7.7513035E-04
   8.820000       -8.9928578E-04
   8.830000       -1.0230746E-03
   8.840000       -1.1464910E-03
   8.850000       -1.2695479E-03
   8.860000       -1.3922494E-03
   8.870000       -1.5146048E-03
   8.880000       -1.6366179E-03
   8.890000       -1.7582765E-03
   8.900000       -1.8795588E-03
   8.910000       -2.0004413E-03
   8.920000       -2.1208918E-03
   8.930000       -2.2408650E-03
   8.940000       -2.3603146E-03
   8.950000       -2.4791942E-03
   8.960000       -2.5974538E-03
   8.970000       -2.7150398E-03
   8.980000       -2.8319040E-03