 -0.1000000        0.0000000E+00
 -9.0000004E-02    3.1474341E-38
 -7.9999998E-02    4.1965787E-38
 -7.0000000E-02    0.0000000E+00
 -5.9999999E-02   -5.9951130E-38
 -5.0000001E-02   -1.1990226E-37
 -3.9999999E-02   -2.1582407E-37
 -2.9999999E-02   -2.8776538E-37
 -2.0000000E-02   -4.7960904E-37
 -9.9999998E-03   -5.7553077E-37
  0.0000000E+00    2.6954028E-35
  9.9999998E-03    6.3404310E-34
  2.0000000E-02    7.7919193E-33
  2.9999999E-02    6.7783712E-32
  3.9999999E-02    4.6599079E-31
  5.0000001E-02    2.6620868E-30
  5.9999999E-02    1.2928349E-29
  7.0000000E-02    5.3818084E-29
  7.9999998E-02    1.9191779E-28
  9.0000004E-02    5.8153426E-28
  0.1000000        1.4713012E-27
  0.1100000        3.0120140E-27
  0.1200000        4.7773239E-27
  0.1300000        6.2708441E-27
  0.1400000        1.5120595E-26
  0.1500000        8.2756667E-26
  0.1600000        4.0504864E-25
  0.1700000        1.5163719E-24
  0.1800000        4.4745287E-24
  0.1900000        1.0500787E-23
  0.2000000        1.8622977E-23
  0.2100000        1.8623592E-23
  0.2200000       -2.3805621E-23
  0.2300000       -1.8934351E-22
  0.2400000       -6.2222879E-22
  0.2500000       -1.5049197E-21
  0.2600000       -2.9192628E-21
  0.2700000       -4.5054189E-21
  0.2800000       -4.8831670E-21
  0.2900000       -1.0056791E-21
  0.3000000        1.1964511E-20
  0.3100000        3.9092006E-20
  0.3200000        8.0843289E-20
  0.3300000        1.2387845E-19
  0.3400000        1.2863346E-19
  0.3500000        1.9784364E-20
  0.3600000       -3.0719821E-19
  0.3700000       -9.4382962E-19
  0.3800000       -1.8719682E-18
  0.3900000       -2.8112002E-18
  0.4000000       -3.0504725E-18
  0.4100000       -1.3700047E-18
  0.4200000        3.7698769E-18
  0.4300000        1.3566534E-17
  0.4400000        2.7613076E-17
  0.4500000        4.2169989E-17
  0.4600000        4.8566676E-17
  0.4700000        3.2909318E-17
  0.4800000       -2.1282705E-17
  0.4900000       -1.2599485E-16
  0.5000000       -2.7681092E-16
  0.5100000       -4.3828428E-16
  0.5200000       -5.3231420E-16
  0.5300000       -4.3896842E-16
  0.5400000       -2.0968459E-17
  0.5500000        8.1978459E-16
  0.5600000        2.0551054E-15
  0.5700000        3.4316765E-15
  0.5800000        4.4011260E-15
  0.5900000        4.1382396E-15
  0.6000000        1.7097215E-15
  0.6100000       -3.5694100E-15
  0.6200000       -1.1617243E-14
  0.6300000       -2.1025845E-14
  0.6400000       -2.8690897E-14
  0.6500000       -2.9935845E-14
  0.6600000       -1.9424571E-14
  0.6700000        6.9960517E-15
  0.6800000        4.9698869E-14
  0.6900000        1.0254289E-13
  0.7000000        1.5107625E-13
  0.7100000        1.7302380E-13
  0.7200000        1.4227875E-13
  0.7300000        3.6904683E-14
  0.7400000       -1.4968301E-13
  0.7500000       -3.9694498E-13
  0.7600000       -6.4913998E-13
  0.7700000       -8.1614430E-13
  0.7800000       -7.8774341E-13
  0.7900000       -4.6322527E-13
  0.8000000        2.0672892E-13
  0.8100000        1.1750103E-12
  0.8200000        2.2647806E-12
  0.8300000        3.1657574E-12
  0.8400000        3.4757728E-12
  0.8500000        2.7944255E-12
  0.8600000        8.6029496E-13
  0.8700000       -2.2959169E-12
  0.8800000       -6.2276924E-12
  0.8900000       -1.0033252E-11
  0.9000000       -1.2449661E-11
  0.9100000       -1.2105136E-11
  0.9200000       -7.9114050E-12
  0.9300000        4.7558854E-13
  0.9400000        1.2248408E-11
  0.9500000        2.5244978E-11
  0.9600000        3.6090377E-11
  0.9700000        4.0765485E-11
  0.9800000        3.5578530E-11
  0.9900000        1.8381076E-11
   1.000000       -1.0259247E-11
   1.010000       -4.6298576E-11
   1.020000       -8.2230944E-11
   1.030000       -1.0811730E-10
   1.040000       -1.1363806E-10
   1.050000       -9.0875169E-11
   1.060000       -3.7228800E-11
   1.070000        4.2333116E-11
   1.080000        1.3451801E-10
   1.090000        2.1905597E-10
   1.100000        2.7231281E-10
   1.110000        2.7272212E-10
   1.120000        2.0696396E-10
   1.130000        7.5356776E-11
   1.140000       -1.0519143E-10
   1.150000       -3.0200020E-10
   1.160000       -4.7174864E-10
   1.170000       -5.6937643E-10
   1.180000       -5.5905303E-10
   1.190000       -4.2462794E-10
   1.200000       -1.7666965E-10
   1.210000        1.4633857E-10
   1.220000        4.8382559E-10
   1.230000        7.6537965E-10
   1.240000        9.2691249E-10
   1.250000        9.2677399E-10
   1.260000        7.5734802E-10
   1.270000        4.4838971E-10
   1.280000        6.0344570E-11
   1.290000       -3.3131875E-10
   1.300000       -6.5684164E-10
   1.310000       -8.7195734E-10
   1.320000       -9.7018615E-10
   1.330000       -9.8260466E-10
   1.340000       -9.6342989E-10
   1.350000       -9.6429842E-10
   1.360000       -1.0045634E-09
   1.370000       -1.0478598E-09
   1.380000       -9.9535957E-10
   1.390000       -7.0293837E-10
   1.400000       -2.3232218E-11
   1.410000        1.1344322E-09
   1.420000        2.7408971E-09
   1.430000        4.6004036E-09
   1.440000        6.3399259E-09
   1.450000        7.4486914E-09
   1.460000        7.3710247E-09
   1.470000        5.6413518E-09
   1.480000        2.0360251E-09
   1.490000       -3.2937642E-09
   1.500000       -9.7465946E-09
   1.510000       -1.6285201E-08
   1.520000       -2.1557099E-08
   1.530000       -2.4115575E-08
   1.540000       -2.2710351E-08
   1.550000       -1.6596161E-08
   1.560000       -5.7952128E-09
   1.570000        8.7500558E-09
   1.580000        2.5182693E-08
   1.590000        4.0917545E-08
   1.600000        5.2996246E-08
   1.610000        5.8564222E-08
   1.620000        5.5395116E-08
   1.630000        4.2372850E-08
   1.640000        1.9842259E-08
   1.650000       -1.0243368E-08
   1.660000       -4.4419217E-08
   1.670000       -7.8053631E-08
   1.680000       -1.0590539E-07
   1.690000       -1.2282558E-07
   1.700000       -1.2451409E-07
   1.710000       -1.0823194E-07
   1.720000       -7.3375112E-08
   1.730000       -2.1829145E-08
   1.740000        4.1952848E-08
   1.750000        1.1118132E-07
   1.760000        1.7727483E-07
   1.770000        2.3069370E-07
   1.780000        2.6200993E-07
   1.790000        2.6313018E-07
   1.800000        2.2855866E-07
   1.810000        1.5655937E-07
   1.820000        5.0056144E-08
   1.830000       -8.2896143E-08
   1.840000       -2.2922350E-07
   1.850000       -3.7163773E-07
   1.860000       -4.9017501E-07
   1.870000       -5.6441002E-07
   1.880000       -5.7617285E-07
   1.890000       -5.1248077E-07
   1.900000       -3.6830124E-07
   1.910000       -1.4870768E-07
   1.920000        1.3000539E-07
   1.930000        4.4060400E-07
   1.940000        7.4680105E-07
   1.950000        1.0067483E-06
   1.960000        1.1778900E-06
   1.970000        1.2226982E-06
   1.980000        1.1145958E-06
   1.990000        8.4326228E-07
   2.000000        4.1847861E-07
   2.010000       -1.2821724E-07
   2.020000       -7.4458836E-07
   2.030000       -1.3616698E-06
   2.040000       -1.9004814E-06
   2.050000       -2.2809243E-06
   2.060000       -2.4319431E-06
   2.070000       -2.3017876E-06
   2.080000       -1.8670635E-06
   2.090000       -1.1392920E-06
   2.100000       -1.6787301E-07
   2.110000        9.6130032E-07
   2.120000        2.1318879E-06
   2.130000        3.2075748E-06
   2.140000        4.0461796E-06
   2.150000        4.5161009E-06
   2.160000        4.5133856E-06
   2.170000        3.9774491E-06
   2.180000        2.9034513E-06
   2.190000        1.3494745E-06
   2.200000       -5.6290639E-07
   2.210000       -2.6554640E-06
   2.220000       -4.7075955E-06
   2.230000       -6.4771848E-06
   2.240000       -7.7263330E-06
   2.250000       -8.2494789E-06
   2.260000       -7.9008742E-06
   2.270000       -6.6181092E-06
   2.280000       -4.4385129E-06
   2.290000       -1.5057195E-06
   2.300000        1.9353749E-06
   2.310000        5.5559194E-06
   2.320000        8.9718469E-06
   2.330000        1.1781834E-05
   2.340000        1.3610954E-05
   2.350000        1.4155458E-05
   2.360000        1.3223596E-05
   2.370000        1.0767473E-05
   2.380000        6.9014668E-06
   2.390000        1.9040943E-06
   2.400000       -3.7982124E-06
   2.410000       -9.6649492E-06
   2.420000       -1.5090497E-05
   2.430000       -1.9463849E-05
   2.440000       -2.2233287E-05
   2.450000       -2.2969340E-05
   2.460000       -2.1419142E-05
   2.470000       -1.7545912E-05
   2.480000       -1.1548465E-05
   2.490000       -3.8576072E-06
   2.500000        4.8915958E-06
   2.510000        1.3910112E-05
   2.520000        2.2323953E-05
   2.530000        2.9255947E-05
   2.540000        3.3912660E-05
   2.550000        3.5668116E-05
   2.560000        3.4135774E-05
   2.570000        2.9221101E-05
   2.580000        2.1148560E-05
   2.590000        1.0459146E-05
   2.600000       -2.0227071E-06
   2.610000       -1.5251080E-05
   2.620000       -2.8044737E-05
   2.630000       -3.9190363E-05
   2.640000       -4.7553800E-05
   2.650000       -5.2189080E-05
   2.660000       -5.2434869E-05
   2.670000       -4.7988917E-05
   2.680000       -3.8952614E-05
   2.690000       -2.5840514E-05
   2.700000       -9.5526138E-06
   2.710000        8.6893406E-06
   2.720000        2.7436961E-05
   2.730000        4.5134253E-05
   2.740000        6.0250466E-05
   2.750000        7.1415518E-05
   2.760000        7.7545817E-05
   2.770000        7.7949240E-05
   2.780000        7.2399074E-05
   2.790000        6.1169812E-05
   2.800000        4.5030247E-05
   2.810000        2.5193385E-05
   2.820000        3.2261207E-06
   2.830000       -1.9074525E-05
   2.840000       -3.9829203E-05
   2.850000       -5.7235597E-05
   2.860000       -6.9726368E-05
   2.870000       -7.6112192E-05
   2.880000       -7.5696800E-05
   2.890000       -6.8354064E-05
   2.900000       -5.4558801E-05
   2.910000       -3.5367815E-05
   2.920000       -1.2350836E-05
   2.930000        1.2524568E-05
   2.940000        3.7045498E-05
   2.950000        5.8932721E-05
   2.960000        7.6031400E-05
   2.970000        8.6498047E-05
   2.980000        8.8967019E-05
   2.990000        8.2681843E-05
   3.000000        6.7577908E-05
   3.010000        4.4308254E-05
   3.020000        1.4207711E-05
   3.030000       -2.0802301E-05
   3.040000       -5.8361620E-05
   3.050000       -9.5858682E-05
   3.060000       -1.3064026E-04
   3.070000       -1.6022516E-04
   3.080000       -1.8250167E-04
   3.090000       -1.9589052E-04
   3.100000       -1.9946074E-04
   3.110000       -1.9298786E-04
   3.120000       -1.7695273E-04
   3.130000       -1.5248348E-04
   3.140000       -1.2124898E-04
   3.150000       -8.5315245E-05
   3.160000       -4.6980269E-05
   3.170000       -8.6007913E-06
   3.180000        2.7574590E-05
   3.190000        5.9554699E-05
   3.200000        8.5728359E-05
   3.210000        1.0495479E-04
   3.220000        1.1661761E-04
   3.230000        1.2064380E-04
   3.240000        1.1748632E-04
   3.250000        1.0807494E-04
   3.260000        9.3738126E-05
   3.270000        7.6101518E-05
   3.280000        5.6969548E-05
   3.290000        3.8196460E-05
   3.300000        2.1557240E-05
   3.310000        8.6255495E-06
   3.320000        6.6967232E-07
   3.330000       -1.4260362E-06
   3.340000        2.7920096E-06
   3.350000        1.3335738E-05
   3.360000        2.9800089E-05
   3.370000        5.1419716E-05
   3.380000        7.7148921E-05
   3.390000        1.0575799E-04
   3.400000        1.3593274E-04
   3.410000        1.6636732E-04
   3.420000        1.9584141E-04
   3.430000        2.2327763E-04
   3.440000        2.4777401E-04
   3.450000        2.6861316E-04
   3.460000        2.8525462E-04
   3.470000        2.9731164E-04
   3.480000        3.0452191E-04
   3.490000        3.0671657E-04
   3.500000        3.0379405E-04
   3.510000        2.9570120E-04
   3.520000        2.8242249E-04
   3.530000        2.6398202E-04
   3.540000        2.4045119E-04
   3.550000        2.1196489E-04
   3.560000        1.7874228E-04
   3.570000        1.4110735E-04
   3.580000        9.9511999E-05
   3.590000        5.4549637E-05
   3.600000        6.9677449E-06
   3.610000       -4.2333937E-05
   3.620000       -9.2314243E-05
   3.630000       -1.4181495E-04
   3.640000       -1.8960143E-04
   3.650000       -2.3441834E-04
   3.660000       -2.7505809E-04
   3.670000       -3.1044061E-04
   3.680000       -3.3969872E-04
   3.690000       -3.6225945E-04
   3.700000       -3.7791644E-04
   3.710000       -3.8688057E-04
   3.720000       -3.8980215E-04
   3.730000       -3.8775863E-04
   3.740000       -3.8220637E-04
   3.750000       -3.7489767E-04
   3.760000       -3.6777087E-04
   3.770000       -3.6282063E-04
   3.780000       -3.6196792E-04
   3.790000       -3.6693338E-04
   3.800000       -3.7913042E-04
   3.810000       -3.9958602E-04
   3.820000       -4.2888572E-04
   3.830000       -4.6715641E-04
   3.840000       -5.1406538E-04
   3.850000       -5.6884385E-04
   3.860000       -6.3032622E-04
   3.870000       -6.9700106E-04
   3.880000       -7.6706207E-04
   3.890000       -8.3847746E-04
   3.900000       -9.0905570E-04
   3.910000       -9.7652257E-04
   3.920000       -1.0386094E-03
   3.930000       -1.0931486E-03
   3.940000       -1.1381722E-03
   3.950000       -1.1720108E-03
   3.960000       -1.1933874E-03
   3.970000       -1.2014987E-03
   3.980000       -1.1960729E-03
   3.990000       -1.1773980E-03
   4.000000       -1.1463237E-03
   4.010000       -1.1042248E-03
   4.020000       -1.0529291E-03
   4.030000       -9.9462038E-04
   4.040000       -9.3172037E-04
   4.050000       -8.6675049E-04
   4.060000       -8.0220046E-04
   4.070000       -7.4039394E-04
   4.080000       -6.8336766E-04
   4.090000       -6.3278497E-04
   4.100000       -5.8986369E-04
   4.110000       -5.5534008E-04
   4.120000       -5.2945834E-04
   4.130000       -5.1199802E-04
   4.140000       -5.0232932E-04
   4.150000       -4.9947848E-04
   4.160000       -5.0222676E-04
   4.170000       -5.0920510E-04
   4.180000       -5.1899545E-04
   4.190000       -5.3022691E-04
   4.200000       -5.4164830E-04
   4.210000       -5.5218721E-04
   4.220000       -5.6097342E-04
   4.230000       -5.6732487E-04
   4.240000       -5.7073234E-04
   4.250000       -5.7078176E-04
   4.260000       -5.6709402E-04
   4.270000       -5.5922638E-04
   4.280000       -5.4661470E-04
   4.290000       -5.2851223E-04
   4.300000       -5.0396897E-04
   4.310000       -4.7186302E-04
   4.320000       -4.3095951E-04
   4.330000       -3.8001867E-04
   4.340000       -3.1793569E-04
   4.350000       -2.4388317E-04
   4.360000       -1.5746025E-04
   4.370000       -5.8803693E-05
   4.380000        5.1342202E-05
   4.390000        1.7160995E-04
   4.400000        3.0005310E-04
   4.410000        4.3424920E-04
   4.420000        5.7143770E-04
   4.430000        7.0868892E-04
   4.440000        8.4307382E-04
   4.450000        9.7182981E-04
   4.460000        1.0925010E-03
   4.470000        1.2030487E-03
   4.480000        1.3019256E-03
   4.490000        1.3881219E-03
   4.500000        1.4611799E-03
   4.510000        1.5211853E-03
   4.520000        1.5687334E-03
   4.530000        1.6048856E-03
   4.540000        1.6310945E-03
   4.550000        1.6491296E-03
   4.560000        1.6609727E-03
   4.570000        1.6687202E-03
   4.580000        1.6744732E-03
   4.590000        1.6802294E-03
   4.600000        1.6877945E-03
   4.610000        1.6987247E-03
   4.620000        1.7142748E-03
   4.630000        1.7354067E-03
   4.640000        1.7628045E-03
   4.650000        1.7969453E-03
   4.660000        1.8381575E-03
   4.670000        1.8867148E-03
   4.680000        1.9428929E-03
   4.690000        2.0070239E-03
   4.700000        2.0795099E-03
   4.710000        2.1607983E-03
   4.720000        2.2513336E-03
   4.730000        2.3514447E-03
   4.740000        2.4612851E-03
   4.750000        2.5806900E-03
   4.760000        2.7091003E-03
   4.770000        2.8454845E-03
   4.780000        2.9883287E-03
   4.790000        3.1355978E-03
   4.800000        3.2848103E-03
   4.810000        3.4330655E-03
   4.820000        3.5771560E-03
   4.830000        3.7136772E-03
   4.840000        3.8391179E-03
   4.850000        3.9499979E-03
   4.860000        4.0430217E-03
   4.870000        4.1151964E-03
   4.880000        4.1639484E-03
   4.890000        4.1872337E-03
   4.900000        4.1836621E-03
   4.910000        4.1525485E-03
   4.920000        4.0939706E-03
   4.930000        4.0087206E-03
   4.940000        3.8983198E-03
   4.950000        3.7649486E-03
   4.960000        3.6113395E-03
   4.970000        3.4406614E-03
   4.980000        3.2564520E-03
   4.990000        3.0624545E-03
   5.000000        2.8624986E-03
   5.010000        2.6604526E-03
   5.020000        2.4600332E-03
   5.030000        2.2647928E-03
   5.040000        2.0779769E-03
   5.050000        1.9024501E-03
   5.060000        1.7407017E-03
   5.070000        1.5946999E-03
   5.080000        1.4659152E-03
   5.090000        1.3553471E-03
   5.100000        1.2635427E-03
   5.110000        1.1906311E-03
   5.120000        1.1364527E-03
   5.130000        1.1006809E-03
   5.140000        1.0829279E-03
   5.150000        1.0828901E-03
   5.160000        1.1003693E-03
   5.170000        1.1354345E-03
   5.180000        1.1884120E-03
   5.190000        1.2598569E-03
   5.200000        1.3505138E-03
   5.210000        1.4612568E-03
   5.220000        1.5930356E-03
   5.230000        1.7466788E-03
   5.240000        1.9228933E-03
   5.250000        2.1221044E-03
   5.260000        2.3444644E-03
   5.270000        2.5896842E-03
   5.280000        2.8570797E-03
   5.290000        3.1455343E-03
   5.300000        3.4535201E-03
   5.310000        3.7791068E-03
   5.320000        4.1200602E-03
   5.330000        4.4739102E-03
   5.340000        4.8380196E-03
   5.350000        5.2097444E-03
   5.360000        5.5864239E-03
   5.370000        5.9655430E-03
   5.380000        6.3447380E-03
   5.390000        6.7218812E-03
   5.400000        7.0949350E-03
   5.410000        7.4620396E-03
   5.420000        7.8213764E-03
   5.430000        8.1710992E-03
   5.440000        8.5091647E-03
   5.450000        8.8332314E-03
   5.460000        9.1406712E-03
   5.470000        9.4283419E-03
   5.480000        9.6926074E-03
   5.490000        9.9293608E-03
   5.500000        1.0134013E-02
   5.510000        1.0301670E-02
   5.520000        1.0427172E-02
   5.530000        1.0505327E-02
   5.540000        1.0531022E-02
   5.550000        1.0499400E-02
   5.560000        1.0405916E-02
   5.570000        1.0246541E-02
   5.580000        1.0017829E-02
   5.590000        9.7169867E-03
   5.600000        9.3419710E-03
   5.610000        8.8914456E-03
   5.620000        8.3650136E-03
   5.630000        7.7630715E-03
   5.640000        7.0869862E-03
   5.650000        6.3388711E-03
   5.660000        5.5216742E-03
   5.670000        4.6389531E-03
   5.680000        3.6947804E-03
   5.690000        2.6936405E-03
   5.700000        1.6402146E-03
   5.710000        5.3926004E-04
   5.720000       -6.0454156E-04
   5.730000       -1.7864633E-03
   5.740000       -3.0019456E-03
   5.750000       -4.2464281E-03
   5.760000       -5.5154422E-03
   5.770000       -6.8043913E-03
   5.780000       -8.1086522E-03
   5.790000       -9.4234860E-03
   5.800000       -1.0743974E-02
   5.810000       -1.2065092E-02
   5.820000       -1.3381695E-02
   5.830000       -1.4688610E-02
   5.840000       -1.5980598E-02
   5.850000       -1.7252583E-02
   5.860000       -1.8499682E-02
   5.870000       -1.9717321E-02
   5.880000       -2.0901447E-02
   5.890000       -2.2048531E-02
   5.900000       -2.3155753E-02
   5.910000       -2.4221091E-02
   5.920000       -2.5243273E-02
   5.930000       -2.6221847E-02
   5.940000       -2.7157007E-02
   5.950000       -2.8049609E-02
   5.960000       -2.8900927E-02
   5.970000       -2.9712576E-02
   5.980000       -3.0486353E-02
   5.990000       -3.1224119E-02
   6.000000       -3.1927668E-02
   6.010000       -3.2598667E-02
   6.020000       -3.3238541E-02
   6.030000       -3.3848494E-02
   6.040000       -3.4429468E-02
   6.050000       -3.4982119E-02
   6.060000       -3.5506893E-02
   6.070000       -3.6003973E-02
   6.080000       -3.6473323E-02
   6.090000       -3.6914811E-02
   6.100000       -3.7328087E-02
   6.110000       -3.7712693E-02
   6.120000       -3.8068093E-02
   6.130000       -3.8393542E-02
   6.140000       -3.8688183E-02
   6.150000       -3.8951043E-02
   6.160000       -3.9180964E-02
   6.170000       -3.9376702E-02
   6.180000       -3.9536919E-02
   6.190000       -3.9660171E-02
   6.200000       -3.9745122E-02
   6.210000       -3.9790202E-02
   6.220000       -3.9793894E-02
   6.230000       -3.9754681E-02
   6.240000       -3.9670929E-02
   6.250000       -3.9540779E-02
   6.260000       -3.9362445E-02
   6.270000       -3.9133936E-02
   6.280000       -3.8853236E-02
   6.290000       -3.8518269E-02
   6.300000       -3.8127035E-02
   6.310000       -3.7677623E-02
   6.320000       -3.7168168E-02
   6.330000       -3.6597066E-02
   6.340000       -3.5962794E-02
   6.350000       -3.5264317E-02
   6.360000       -3.4500729E-02
   6.370000       -3.3671662E-02
   6.380000       -3.2777086E-02
   6.390000       -3.1817604E-02
   6.400000       -3.0794047E-02
   6.410000       -2.9708050E-02
   6.420000       -2.8561527E-02
   6.430000       -2.7356973E-02
   6.440000       -2.6097033E-02
   6.450000       -2.4784898E-02
   6.460000       -2.3424124E-02
   6.470000       -2.2018179E-02
   6.480000       -2.0571012E-02
   6.490000       -1.9086787E-02
   6.500000       -1.7569734E-02
   6.510000       -1.6024077E-02
   6.520000       -1.4454463E-02
   6.530000       -1.2865302E-02
   6.540000       -1.1261460E-02
   6.550000       -9.6473731E-03
   6.560000       -8.0281189E-03
   6.570000       -6.4082257E-03
   6.580000       -4.7927406E-03
   6.590000       -3.1864969E-03
   6.600000       -1.5945099E-03
   6.610000       -2.1552773E-05
   6.620000        1.5274198E-03
   6.630000        3.0476653E-03
   6.640000        4.5346241E-03
   6.650000        5.9838276E-03
   6.660000        7.3911417E-03
   6.670000        8.7525835E-03
   6.680000        1.0064658E-02
   6.690000        1.1324416E-02
   6.700000        1.2529183E-02
   6.710000        1.3677073E-02
   6.720000        1.4766597E-02
   6.730000        1.5797088E-02
   6.740000        1.6768331E-02
   6.750000        1.7680751E-02
   6.760000        1.8535171E-02
   6.770000        1.9332988E-02
   6.780000        2.0075874E-02
   6.790000        2.0765657E-02
   6.800000        2.1404456E-02
   6.810000        2.1994438E-02
   6.820000        2.2537574E-02
   6.830000        2.3035809E-02
   6.840000        2.3490729E-02
   6.850000        2.3903605E-02
   6.860000        2.4275504E-02
   6.870000        2.4607109E-02
   6.880000        2.4898892E-02
   6.890000        2.5151202E-02
   6.900000        2.5364375E-02
   6.910000        2.5538713E-02
   6.920000        2.5674611E-02
   6.930000        2.5772586E-02
   6.940000        2.5833309E-02
   6.950000        2.5857627E-02
   6.960000        2.5846517E-02
   6.970000        2.5801282E-02
   6.980000        2.5723295E-02
   6.990000        2.5614131E-02
   7.000000        2.5475444E-02
   7.010000        2.5309172E-02
   7.020000        2.5117196E-02
   7.030000        2.4901409E-02
   7.040000        2.4663737E-02
   7.050000        2.4406044E-02
   7.060000        2.4130242E-02
   7.070000        2.3838248E-02
   7.080000        2.3532147E-02
   7.090000        2.3214191E-02
   7.100000        2.2886824E-02
   7.110000        2.2552704E-02
   7.120000        2.2214726E-02
   7.130000        2.1875935E-02
   7.140000        2.1539439E-02
   7.150000        2.1208405E-02
   7.160000        2.0885943E-02
   7.170000        2.0575073E-02
   7.180000        2.0278648E-02
   7.190000        1.9999286E-02
   7.200000        1.9739326E-02
   7.210000        1.9500740E-02
   7.220000        1.9285064E-02
   7.230000        1.9093342E-02
   7.240000        1.8926080E-02
   7.250000        1.8783228E-02
   7.260000        1.8664218E-02
   7.270000        1.8567979E-02
   7.280000        1.8493002E-02
   7.290000        1.8437456E-02
   7.300000        1.8399227E-02
   7.310000        1.8376052E-02
   7.320000        1.8365556E-02
   7.330000        1.8365325E-02
   7.340000        1.8372944E-02
   7.350000        1.8386049E-02
   7.360000        1.8402306E-02
   7.370000        1.8419454E-02
   7.380000        1.8435335E-02
   7.390000        1.8447842E-02
   7.400000        1.8455066E-02
   7.410000        1.8455135E-02
   7.420000        1.8446384E-02
   7.430000        1.8427297E-02
   7.440000        1.8396538E-02
   7.450000        1.8352952E-02
   7.460000        1.8295599E-02
   7.470000        1.8223660E-02
   7.480000        1.8136589E-02
   7.490000        1.8033978E-02
   7.500000        1.7915629E-02
   7.510000        1.7781585E-02
   7.520000        1.7632097E-02
   7.530000        1.7467692E-02
   7.540000        1.7289100E-02
   7.550000        1.7097253E-02
   7.560000        1.6893269E-02
   7.570000        1.6678410E-02
   7.580000        1.6454045E-02
   7.590000        1.6221607E-02
   7.600000        1.5982574E-02
   7.610000        1.5738433E-02
   7.620000        1.5490584E-02
   7.630000        1.5240333E-02
   7.640000        1.4988813E-02
   7.650000        1.4736837E-02
   7.660000        1.4484937E-02
   7.670000        1.4233235E-02
   7.680000        1.3981472E-02
   7.690000        1.3729131E-02
   7.700000        1.3475317E-02
   7.710000        1.3218978E-02
   7.720000        1.2958825E-02
   7.730000        1.2693579E-02
   7.740000        1.2421814E-02
   7.750000        1.2142039E-02
   7.760000        1.1852686E-02
   7.770000        1.1552119E-02
   7.780000        1.1238600E-02
   7.790000        1.0910384E-02
   7.800000        1.0565693E-02
   7.810000        1.0202654E-02
   7.820000        9.8196436E-03
   7.830000        9.4150351E-03
   7.840000        8.9872321E-03
   7.850000        8.5347760E-03
   7.860000        8.0563901E-03
   7.870000        7.5507662E-03
   7.880000        7.0168865E-03
   7.890000        6.4537786E-03
   7.900000        5.8608339E-03
   7.910000        5.2377186E-03
   7.920000        4.5844936E-03
   7.930000        3.9014318E-03
   7.940000        3.1894152E-03
   7.950000        2.4495532E-03
   7.960000        1.6833809E-03
   7.970000        8.9269213E-04
   7.980000        7.9690537E-05
   7.990000       -7.5334386E-04
   8.000000       -1.6037056E-03
   8.010000       -2.4685524E-03
   8.020000       -3.3448746E-03
   8.030000       -4.2295265E-03
   8.040000       -5.1191933E-03
   8.050000       -6.0105179E-03
   8.060000       -6.8999724E-03
   8.070000       -7.7840006E-03
   8.080000       -8.6589549E-03
   8.090000       -9.5211426E-03
   8.100000       -1.0366853E-02
   8.110000       -1.1192424E-02
   8.120000       -1.1994224E-02
   8.130000       -1.2768817E-02
   8.140000       -1.3512858E-02
   8.150000       -1.4223204E-02
   8.160000       -1.4896811E-02
   8.170000       -1.5530786E-02
   8.180000       -1.6122332E-02
   8.190000       -1.6668804E-02
   8.200000       -1.7167725E-02
   8.210000       -1.7616821E-02
   8.220000       -1.8014112E-02
   8.230000       -1.8357977E-02
   8.240000       -1.8647213E-02
   8.250000       -1.8881125E-02
   8.260000       -1.9059453E-02
   8.270000       -1.9182438E-02
   8.280000       -1.9250767E-02
   8.290000       -1.9265572E-02
   8.300000       -1.9228373E-02
   8.310000       -1.9141123E-02
   8.320000       -1.9006092E-02
   8.330000       -1.8825898E-02
   8.340000       -1.8603379E-02
   8.350000       -1.8341560E-02
   8.360000       -1.8043496E-02
   8.370000       -1.7712224E-02
   8.380000       -1.7350661E-02
   8.390000       -1.6961562E-02
   8.400000       -1.6547510E-02
   8.410000       -1.6110925E-02
   8.420000       -1.5654095E-02
   8.430000       -1.5179235E-02
   8.440000       -1.4688496E-02
   8.450000       -1.4183992E-02
   8.460000       -1.3667770E-02
   8.470000       -1.3141817E-02
   8.480000       -1.2608015E-02
   8.490000       -1.2068104E-02
   8.500000       -1.1523704E-02
   8.510000       -1.0976290E-02
   8.520000       -1.0427235E-02
   8.530000       -9.8778103E-03
   8.540000       -9.3292268E-03
   8.550000       -8.7826159E-03
   8.560000       -8.2390467E-03
   8.570000       -7.6994845E-03
   8.580000       -7.1648187E-03
   8.590000       -6.6357953E-03
   8.600000       -6.1130608E-03
   8.610000       -5.5972044E-03
   8.620000       -5.0887684E-03
   8.630000       -4.5883353E-03
   8.640000       -4.0966189E-03
   8.650000       -3.6144592E-03
   8.660000       -3.1428896E-03
   8.670000       -2.6831301E-03
   8.680000       -2.2365674E-03
   8.690000       -1.8046723E-03
   8.700000       -1.3890177E-03
   8.710000       -9.9121477E-04
   8.720000       -6.1294687E-04
   8.730000       -2.5595055E-04
   8.740000        7.7897013E-05
   8.750000        3.8658196E-04
   8.760000        6.6791935E-04
   8.770000        9.1961026E-04
   8.780000        1.1392665E-03
   8.790000        1.3245493E-03
   8.800000        1.4732509E-03
   8.810000        1.5833649E-03
   8.820000        1.6531816E-03
   8.830000        1.6812872E-03
   8.840000        1.6665513E-03
   8.850000        1.6081154E-03
   8.860000        1.5053587E-03
   8.870000        1.3579197E-03
   8.880000        1.1657277E-03
   8.890000        9.2907000E-04
   8.900000        6.4865645E-04
   8.910000        3.2564273E-04
   8.920000       -3.8357626E-05
   8.930000       -4.4133168E-04
   8.940000       -8.8096398E-04
   8.950000       -1.3547423E-03
   8.960000       -1.8600578E-03
   8.970000       -2.3942827E-03
   8.980000       -2.9547669E-03