 -0.1000000        0.0000000E+00
 -9.0000004E-02    0.0000000E+00
 -7.9999998E-02    0.0000000E+00
 -7.0000000E-02    0.0000000E+00
 -5.9999999E-02    0.0000000E+00
 -5.0000001E-02    0.0000000E+00
 -3.9999999E-02    0.0000000E+00
 -2.9999999E-02    0.0000000E+00
 -2.0000000E-02   -1.1990226E-38
 -9.9999998E-03    0.0000000E+00
  0.0000000E+00    0.0000000E+00
  9.9999998E-03   -9.5921806E-38
  2.0000000E-02   -3.1893998E-36
  2.9999999E-02   -3.8752407E-35
  3.9999999E-02   -3.1965941E-34
  5.0000001E-02   -2.0037106E-33
  5.9999999E-02   -9.6977417E-33
  7.0000000E-02   -3.3939243E-32
  7.9999998E-02   -5.4391981E-32
  9.0000004E-02    3.2176095E-31
  0.1000000        3.7542720E-30
  0.1100000        2.3181200E-29
  0.1200000        1.0923049E-28
  0.1300000        4.2694439E-28
  0.1400000        1.4270156E-27
  0.1500000        4.1191416E-27
  0.1600000        1.0219757E-26
  0.1700000        2.1247680E-26
  0.1800000        3.4233001E-26
  0.1900000        2.9924329E-26
  0.2000000       -5.0674240E-26
  0.2100000       -3.3868981E-25
  0.2200000       -1.0539187E-24
  0.2300000       -2.4381348E-24
  0.2400000       -4.4867083E-24
  0.2500000       -6.3534601E-24
  0.2600000       -5.4521940E-24
  0.2700000        3.2751874E-24
  0.2800000        2.6651637E-23
  0.2900000        6.8949100E-23
  0.3000000        1.2166391E-22
  0.3100000        1.4727343E-22
  0.3200000        6.3096459E-23
  0.3300000       -2.5797683E-22
  0.3400000       -9.4156479E-22
  0.3500000       -1.9896733E-21
  0.3600000       -3.0734911E-21
  0.3700000       -3.2953024E-21
  0.3800000       -1.0799865E-21
  0.3900000        5.5258084E-21
  0.4000000        1.7822390E-20
  0.4100000        3.4522603E-20
  0.4200000        4.9222853E-20
  0.4300000        4.8420830E-20
  0.4400000        1.2199218E-20
  0.4500000       -7.9723383E-20
  0.4600000       -2.3452812E-19
  0.4700000       -4.2613018E-19
  0.4800000       -5.7421849E-19
  0.4900000       -5.3508856E-19
  0.5000000       -1.2225220E-19
  0.5100000        8.2567716E-19
  0.5200000        2.3237838E-18
  0.5300000        4.0858189E-18
  0.5400000        5.3921059E-18
  0.5500000        5.0749032E-18
  0.5600000        1.7339886E-18
  0.5700000       -5.7322074E-18
  0.5800000       -1.7289296E-17
  0.5900000       -3.0797559E-17
  0.6000000       -4.1291010E-17
  0.6100000       -4.1059419E-17
  0.6200000       -2.1123771E-17
  0.6300000        2.5522942E-17
  0.6400000        9.9094193E-17
  0.6500000        1.8765487E-16
  0.6600000        2.6327835E-16
  0.6700000        2.8254311E-16
  0.6800000        1.9424795E-16
  0.6900000       -4.3935222E-17
  0.7000000       -4.4087271E-16
  0.7100000       -9.4452210E-16
  0.7200000       -1.4213950E-15
  0.7300000       -1.6562805E-15
  0.7400000       -1.3859131E-15
  0.7500000       -3.7501820E-16
  0.7600000        1.4690674E-15
  0.7700000        3.9655215E-15
  0.7800000        6.5562502E-15
  0.7900000        8.2888891E-15
  0.8000000        7.9478177E-15
  0.8100000        4.3717420E-15
  0.8200000       -3.0567920E-15
  0.8300000       -1.3843045E-14
  0.8400000       -2.5913950E-14
  0.8500000       -3.5499300E-14
  0.8600000       -3.7606664E-14
  0.8700000       -2.7238603E-14
  0.8800000       -1.2854611E-15
  0.8900000        3.9276704E-14
  0.9000000        8.7573205E-14
  0.9100000        1.3030523E-13
  0.9200000        1.4937597E-13
  0.9300000        1.2613032E-13
  0.9400000        4.7893974E-14
  0.9500000       -8.4549284E-14
  0.9600000       -2.5089227E-13
  0.9700000       -4.0956859E-13
  0.9800000       -5.0294561E-13
  0.9900000       -4.7059801E-13
   1.000000       -2.6929246E-13
   1.010000        1.0473531E-13
   1.020000        5.9831014E-13
   1.030000        1.0968575E-12
   1.040000        1.4396199E-12
   1.050000        1.4566489E-12
   1.060000        1.0226314E-12
   1.070000        1.1479993E-13
   1.080000       -1.1438025E-12
   1.090000       -2.4756798E-12
   1.100000       -3.4892705E-12
   1.110000       -3.7703933E-12
   1.120000       -3.0095351E-12
   1.130000       -1.1327053E-12
   1.140000        1.6072426E-12
   1.150000        4.6206151E-12
   1.160000        7.0779875E-12
   1.170000        8.1105062E-12
   1.180000        7.0731494E-12
   1.190000        3.7996741E-12
   1.200000       -1.2372065E-12
   1.210000       -6.9347058E-12
   1.220000       -1.1772360E-11
   1.230000       -1.4201314E-11
   1.240000       -1.3118918E-11
   1.250000       -8.2891263E-12
   1.260000       -5.6066274E-13
   1.270000        8.2257673E-12
   1.280000        1.5664319E-11
   1.290000        1.9459562E-11
   1.300000        1.8165799E-11
   1.310000        1.1753945E-11
   1.320000        1.7897900E-12
   1.330000       -8.8927702E-12
   1.340000       -1.6983812E-11
   1.350000       -1.9748654E-11
   1.360000       -1.6012823E-11
   1.370000       -6.7320476E-12
   1.380000        5.1048315E-12
   1.390000        1.5291808E-11
   1.400000        1.9747317E-11
   1.410000        1.5976970E-11
   1.420000        4.1586908E-12
   1.430000       -1.2578220E-11
   1.440000       -2.8873973E-11
   1.450000       -3.8722220E-11
   1.460000       -3.7455587E-11
   1.470000       -2.3476639E-11
   1.480000        8.9901957E-13
   1.490000        2.9869138E-11
   1.500000        5.5800562E-11
   1.510000        7.1612632E-11
   1.520000        7.3075726E-11
   1.530000        6.0165255E-11
   1.540000        3.6883246E-11
   1.550000        9.5177659E-12
   1.560000       -1.6081834E-11
   1.570000       -3.7141699E-11
   1.580000       -5.5313868E-11
   1.590000       -7.5890162E-11
   1.600000       -1.0477084E-10
   1.610000       -1.4403496E-10
   1.620000       -1.8776319E-10
   1.630000       -2.2009040E-10
   1.640000       -2.1711327E-10
   1.650000       -1.5317668E-10
   1.660000       -1.0553706E-11
   1.670000        2.1003453E-10
   1.680000        4.8159771E-10
   1.690000        7.4932466E-10
   1.700000        9.3767927E-10
   1.710000        9.6627084E-10
   1.720000        7.7189632E-10
   1.730000        3.3162706E-10
   1.740000       -3.1963682E-10
   1.750000       -1.0834570E-09
   1.760000       -1.8081201E-09
   1.770000       -2.3153452E-09
   1.780000       -2.4393416E-09
   1.790000       -2.0701612E-09
   1.800000       -1.1907584E-09
   1.810000        1.0277491E-10
   1.820000        1.6054350E-09
   1.830000        3.0343912E-09
   1.840000        4.0828261E-09
   1.850000        4.4861364E-09
   1.860000        4.0858135E-09
   1.870000        2.8753098E-09
   1.880000        1.0152630E-09
   1.890000       -1.1883504E-09
   1.900000       -3.3407668E-09
   1.910000       -5.0386362E-09
   1.920000       -5.9560632E-09
   1.930000       -5.9161160E-09
   1.940000       -4.9297944E-09
   1.950000       -3.1919141E-09
   1.960000       -1.0336521E-09
   1.970000        1.1569491E-09
   1.980000        3.0265992E-09
   1.990000        4.3359289E-09
   2.000000        5.0049671E-09
   2.010000        5.1114153E-09
   2.020000        4.8422777E-09
   2.030000        4.4121857E-09
   2.040000        3.9734784E-09
   2.050000        3.5472048E-09
   2.060000        3.0000835E-09
   2.070000        2.0803064E-09
   2.080000        5.0815968E-10
   2.090000       -1.9010125E-09
   2.100000       -5.1172209E-09
   2.110000       -8.8186320E-09
   2.120000       -1.2389344E-08
   2.130000       -1.5007890E-08
   2.140000       -1.5815365E-08
   2.150000       -1.4131070E-08
   2.160000       -9.6629318E-09
   2.170000       -2.6563711E-09
   2.180000        6.0667005E-09
   2.190000        1.5201127E-08
   2.200000        2.3176218E-08
   2.210000        2.8458492E-08
   2.220000        2.9872986E-08
   2.230000        2.6869039E-08
   2.240000        1.9664197E-08
   2.250000        9.2311963E-09
   2.260000       -2.8779679E-09
   2.270000       -1.4828714E-08
   2.280000       -2.4857579E-08
   2.290000       -3.1599306E-08
   2.300000       -3.4312041E-08
   2.310000       -3.2957196E-08
   2.320000       -2.8118722E-08
   2.330000       -2.0797266E-08
   2.340000       -1.2138011E-08
   2.350000       -3.1692220E-09
   2.360000        5.3780145E-09
   2.370000        1.3129010E-08
   2.380000        1.9995504E-08
   2.390000        2.6012659E-08
   2.400000        3.1144033E-08
   2.410000        3.5123371E-08
   2.420000        3.7394145E-08
   2.430000        3.7177006E-08
   2.440000        3.3648039E-08
   2.450000        2.6190966E-08
   2.460000        1.4646276E-08
   2.470000       -5.1430749E-10
   2.480000       -1.8140563E-08
   2.490000       -3.6505757E-08
   2.500000       -5.3536798E-08
   2.510000       -6.7116453E-08
   2.520000       -7.5391064E-08
   2.530000       -7.7008615E-08
   2.540000       -7.1250859E-08
   2.550000       -5.8045529E-08
   2.560000       -3.7894871E-08
   2.570000       -1.1775715E-08
   2.580000        1.8941014E-08
   2.590000        5.2492961E-08
   2.600000        8.6668052E-08
   2.610000        1.1871344E-07
   2.620000        1.4529536E-07
   2.630000        1.6259938E-07
   2.640000        1.6662339E-07
   2.650000        1.5371853E-07
   2.660000        1.2131632E-07
   2.670000        6.8727516E-08
   2.680000       -2.1251838E-09
   2.690000       -8.6254040E-08
   2.700000       -1.7557488E-07
   2.710000       -2.5940312E-07
   2.720000       -3.2545225E-07
   2.730000       -3.6124104E-07
   2.740000       -3.5569732E-07
   2.750000       -3.0068779E-07
   2.760000       -1.9221221E-07
   2.770000       -3.1002301E-08
   2.780000        1.7752558E-07
   2.790000        4.2400438E-07
   2.800000        6.9638099E-07
   2.810000        9.8148064E-07
   2.820000        1.2665315E-06
   2.830000        1.5404042E-06
   2.840000        1.7943786E-06
   2.850000        2.0223072E-06
   2.860000        2.2202976E-06
   2.870000        2.3860300E-06
   2.880000        2.5179925E-06
   2.890000        2.6148944E-06
   2.900000        2.6753960E-06
   2.910000        2.6982514E-06
   2.920000        2.6827936E-06
   2.930000        2.6295293E-06
   2.940000        2.5405984E-06
   2.950000        2.4198368E-06
   2.960000        2.2722909E-06
   2.970000        2.1031501E-06
   2.980000        1.9162899E-06
   2.990000        1.7127140E-06
   3.000000        1.4893012E-06
   3.010000        1.2382177E-06
   3.020000        9.4725755E-07
   3.030000        6.0116423E-07
   3.040000        1.8376190E-07
   3.050000       -3.1944066E-07
   3.060000       -9.1867196E-07
   3.070000       -1.6178465E-06
   3.080000       -2.4134583E-06
   3.090000       -3.2946107E-06
   3.100000       -4.2441402E-06
   3.110000       -5.2407036E-06
   3.120000       -6.2612244E-06
   3.130000       -7.2833332E-06
   3.140000       -8.2874167E-06
   3.150000       -9.2575774E-06
   3.160000       -1.0181847E-05
   3.170000       -1.1051348E-05
   3.180000       -1.1858765E-05
   3.190000       -1.2596684E-05
   3.200000       -1.3255728E-05
   3.210000       -1.3823565E-05
   3.220000       -1.4284468E-05
   3.230000       -1.4620049E-05
   3.240000       -1.4810688E-05
   3.250000       -1.4837940E-05
   3.260000       -1.4687039E-05
   3.270000       -1.4349470E-05
   3.280000       -1.3824795E-05
   3.290000       -1.3121577E-05
   3.300000       -1.2256935E-05
   3.310000       -1.1254704E-05
   3.320000       -1.0142386E-05
   3.330000       -8.9473033E-06
   3.340000       -7.6925153E-06
   3.350000       -6.3931698E-06
   3.360000       -5.0539429E-06
   3.370000       -3.6680781E-06
   3.380000       -2.2181705E-06
   3.390000       -6.7871832E-07
   3.400000        9.7995598E-07
   3.410000        2.7871131E-06
   3.420000        4.7668573E-06
   3.430000        6.9341436E-06
   3.440000        9.2919199E-06
   3.450000        1.1829910E-05
   3.460000        1.4524882E-05
   3.470000        1.7342330E-05
   3.480000        2.0239520E-05
   3.490000        2.3168732E-05
   3.500000        2.6081027E-05
   3.510000        2.8929351E-05
   3.520000        3.1671494E-05
   3.530000        3.4271656E-05
   3.540000        3.6701484E-05
   3.550000        3.8940059E-05
   3.560000        4.0972645E-05
   3.570000        4.2789408E-05
   3.580000        4.4383036E-05
   3.590000        4.5746190E-05
   3.600000        4.6869536E-05
   3.610000        4.7739970E-05
   3.620000        4.8339574E-05
   3.630000        4.8645612E-05
   3.640000        4.8631260E-05
   3.650000        4.8267466E-05
   3.660000        4.7525507E-05
   3.670000        4.6379628E-05
   3.680000        4.4809403E-05
   3.690000        4.2802010E-05
   3.700000        4.0353261E-05
   3.710000        3.7467882E-05
   3.720000        3.4158398E-05
   3.730000        3.0443491E-05
   3.740000        2.6345169E-05
   3.750000        2.1885715E-05
   3.760000        1.7084511E-05
   3.770000        1.1955105E-05
   3.780000        6.5030049E-06
   3.790000        7.2447335E-07
   3.800000       -5.3933286E-06
   3.810000       -1.1871249E-05
   3.820000       -1.8735329E-05
   3.830000       -2.6013577E-05
   3.840000       -3.3731987E-05
   3.850000       -4.1911069E-05
   3.860000       -5.0562969E-05
   3.870000       -5.9689770E-05
   3.880000       -6.9284251E-05
   3.890000       -7.9330515E-05
   3.900000       -8.9806897E-05
   3.910000       -1.0068841E-04
   3.920000       -1.1194887E-04
   3.930000       -1.2356178E-04
   3.940000       -1.3550102E-04
   3.950000       -1.4773871E-04
   3.960000       -1.6024361E-04
   3.970000       -1.7298045E-04
   3.980000       -1.8590970E-04
   3.990000       -1.9898938E-04
   4.000000       -2.1217916E-04
   4.010000       -2.2544543E-04
   4.020000       -2.3876633E-04
   4.030000       -2.5213469E-04
   4.040000       -2.6555947E-04
   4.050000       -2.7906318E-04
   4.060000       -2.9267525E-04
   4.070000       -3.0642338E-04
   4.080000       -3.2032430E-04
   4.090000       -3.3437493E-04
   4.100000       -3.4854814E-04
   4.110000       -3.6279278E-04
   4.120000       -3.7703707E-04
   4.130000       -3.9119853E-04
   4.140000       -4.0519430E-04
   4.150000       -4.1895540E-04
   4.160000       -4.3243504E-04
   4.170000       -4.4561556E-04
   4.180000       -4.5851248E-04
   4.190000       -4.7116843E-04
   4.200000       -4.8364833E-04
   4.210000       -4.9602822E-04
   4.220000       -5.0838420E-04
   4.230000       -5.2078074E-04
   4.240000       -5.3326006E-04
   4.250000       -5.4583920E-04
   4.260000       -5.5850437E-04
   4.270000       -5.7121256E-04
   4.280000       -5.8389839E-04
   4.290000       -5.9648103E-04
   4.300000       -6.0887315E-04
   4.310000       -6.2099134E-04
   4.320000       -6.3276617E-04
   4.330000       -6.4414548E-04
   4.340000       -6.5509859E-04
   4.350000       -6.6561409E-04
   4.360000       -6.7569397E-04
   4.370000       -6.8534666E-04
   4.380000       -6.9457898E-04
   4.390000       -7.0338906E-04
   4.400000       -7.1176130E-04
   4.410000       -7.1966648E-04
   4.420000       -7.2706380E-04
   4.430000       -7.3390716E-04
   4.440000       -7.4015179E-04
   4.450000       -7.4576278E-04
   4.460000       -7.5071980E-04
   4.470000       -7.5502181E-04
   4.480000       -7.5868680E-04
   4.490000       -7.6175033E-04
   4.500000       -7.6426129E-04
   4.510000       -7.6627673E-04
   4.520000       -7.6785614E-04
   4.530000       -7.6905778E-04
   4.540000       -7.6993345E-04
   4.550000       -7.7052735E-04
   4.560000       -7.7087415E-04
   4.570000       -7.7099743E-04
   4.580000       -7.7091140E-04
   4.590000       -7.7061879E-04
   4.600000       -7.7011395E-04
   4.610000       -7.6938054E-04
   4.620000       -7.6839677E-04
   4.630000       -7.6713570E-04
   4.640000       -7.6556869E-04
   4.650000       -7.6366687E-04
   4.660000       -7.6140690E-04
   4.670000       -7.5877050E-04
   4.680000       -7.5574871E-04
   4.690000       -7.5233873E-04
   4.700000       -7.4854906E-04
   4.710000       -7.4439048E-04
   4.720000       -7.3987793E-04
   4.730000       -7.3502591E-04
   4.740000       -7.2984508E-04
   4.750000       -7.2434125E-04
   4.760000       -7.1851420E-04
   4.770000       -7.1235577E-04
   4.780000       -7.0585543E-04
   4.790000       -6.9900119E-04
   4.800000       -6.9178786E-04
   4.810000       -6.8421196E-04
   4.820000       -6.7628850E-04
   4.830000       -6.6803879E-04
   4.840000       -6.5949932E-04
   4.850000       -6.5071858E-04
   4.860000       -6.4174784E-04
   4.870000       -6.3264481E-04
   4.880000       -6.2345940E-04
   4.890000       -6.1423692E-04
   4.900000       -6.0501747E-04
   4.910000       -5.9583230E-04
   4.920000       -5.8670767E-04
   4.930000       -5.7766523E-04
   4.940000       -5.6873553E-04
   4.950000       -5.5994838E-04
   4.960000       -5.5134081E-04
   4.970000       -5.4294307E-04
   4.980000       -5.3478713E-04
   4.990000       -5.2688539E-04
   5.000000       -5.1923771E-04
   5.010000       -5.1180902E-04
   5.020000       -5.0455984E-04
   5.030000       -4.9742177E-04
   5.040000       -4.9033173E-04
   5.050000       -4.8322696E-04
   5.060000       -4.7607420E-04
   5.070000       -4.6886876E-04
   5.080000       -4.6163762E-04
   5.090000       -4.5443830E-04
   5.100000       -4.4735442E-04
   5.110000       -4.4048097E-04
   5.120000       -4.3390345E-04
   5.130000       -4.2769735E-04
   5.140000       -4.2190586E-04
   5.150000       -4.1654854E-04
   5.160000       -4.1160587E-04
   5.170000       -4.0705083E-04
   5.180000       -4.0283203E-04
   5.190000       -3.9891058E-04
   5.200000       -3.9524326E-04
   5.210000       -3.9180581E-04
   5.220000       -3.8857877E-04
   5.230000       -3.8557308E-04
   5.240000       -3.8279491E-04
   5.250000       -3.8026564E-04
   5.260000       -3.7800378E-04
   5.270000       -3.7602879E-04
   5.280000       -3.7434784E-04
   5.290000       -3.7298322E-04
   5.300000       -3.7194302E-04
   5.310000       -3.7124765E-04
   5.320000       -3.7093367E-04
   5.330000       -3.7104246E-04
   5.340000       -3.7164043E-04
   5.350000       -3.7280226E-04
   5.360000       -3.7461100E-04
   5.370000       -3.7715168E-04
   5.380000       -3.8048890E-04
   5.390000       -3.8467156E-04
   5.400000       -3.8971493E-04
   5.410000       -3.9559710E-04
   5.420000       -4.0225920E-04
   5.430000       -4.0961715E-04
   5.440000       -4.1756310E-04
   5.450000       -4.2598075E-04
   5.460000       -4.3475936E-04
   5.470000       -4.4378021E-04
   5.480000       -4.5295307E-04
   5.490000       -4.6221141E-04
   5.500000       -4.7150633E-04
   5.510000       -4.8081833E-04
   5.520000       -4.9012707E-04
   5.530000       -4.9944234E-04
   5.540000       -5.0876534E-04
   5.550000       -5.1809585E-04
   5.560000       -5.2742357E-04
   5.570000       -5.3672178E-04
   5.580000       -5.4595160E-04
   5.590000       -5.5505609E-04
   5.600000       -5.6396483E-04
   5.610000       -5.7262374E-04
   5.620000       -5.8096537E-04
   5.630000       -5.8896502E-04
   5.640000       -5.9657707E-04
   5.650000       -6.0379680E-04
   5.660000       -6.1062322E-04
   5.670000       -6.1707536E-04
   5.680000       -6.2314473E-04
   5.690000       -6.2883116E-04
   5.700000       -6.3411769E-04
   5.710000       -6.3896063E-04
   5.720000       -6.4331049E-04
   5.730000       -6.4709707E-04
   5.740000       -6.5026141E-04
   5.750000       -6.5271236E-04
   5.760000       -6.5438234E-04
   5.770000       -6.5520313E-04
   5.780000       -6.5510150E-04
   5.790000       -6.5403280E-04
   5.800000       -6.5194571E-04
   5.810000       -6.4881938E-04
   5.820000       -6.4463576E-04
   5.830000       -6.3938909E-04
   5.840000       -6.3310133E-04
   5.850000       -6.2580366E-04
   5.860000       -6.1752758E-04
   5.870000       -6.0831103E-04
   5.880000       -5.9819105E-04
   5.890000       -5.8719050E-04
   5.900000       -5.7532737E-04
   5.910000       -5.6261732E-04
   5.920000       -5.4907467E-04
   5.930000       -5.3471356E-04
   5.940000       -5.1956595E-04
   5.950000       -5.0367211E-04
   5.960000       -4.8709376E-04
   5.970000       -4.6990422E-04
   5.980000       -4.5218645E-04
   5.990000       -4.3402932E-04
   6.000000       -4.1551748E-04
   6.010000       -3.9672066E-04
   6.020000       -3.7769487E-04
   6.030000       -3.5847511E-04
   6.040000       -3.3907586E-04
   6.050000       -3.1949434E-04
   6.060000       -2.9971538E-04
   6.070000       -2.7971438E-04
   6.080000       -2.5947305E-04
   6.090000       -2.3896569E-04
   6.100000       -2.1818667E-04
   6.110000       -1.9713452E-04
   6.120000       -1.7582209E-04
   6.130000       -1.5428073E-04
   6.140000       -1.3255791E-04
   6.150000       -1.1071445E-04
   6.160000       -8.8820641E-05
   6.170000       -6.6932524E-05
   6.180000       -4.5117569E-05
   6.190000       -2.3432751E-05
   6.200000       -1.9075267E-06
   6.210000        1.9464753E-05
   6.220000        4.0701187E-05
   6.230000        6.1829327E-05
   6.240000        8.2903316E-05
   6.250000        1.0396400E-04
   6.260000        1.2505225E-04
   6.270000        1.4617089E-04
   6.280000        1.6730568E-04
   6.290000        1.8843666E-04
   6.300000        2.0951255E-04
   6.310000        2.3047635E-04
   6.320000        2.5127296E-04
   6.330000        2.7185105E-04
   6.340000        2.9218788E-04
   6.350000        3.1222263E-04
   6.360000        3.3194004E-04
   6.370000        3.5129650E-04
   6.380000        3.7022360E-04
   6.390000        3.8863768E-04
   6.400000        4.0647801E-04
   6.410000        4.2365713E-04
   6.420000        4.4007061E-04
   6.430000        4.5564430E-04
   6.440000        4.7034974E-04
   6.450000        4.8413940E-04
   6.460000        4.9697724E-04
   6.470000        5.0889351E-04
   6.480000        5.1994546E-04
   6.490000        5.3018227E-04
   6.500000        5.3965527E-04
   6.510000        5.4846337E-04
   6.520000        5.5665773E-04
   6.530000        5.6427071E-04
   6.540000        5.7134987E-04
   6.550000        5.7788560E-04
   6.560000        5.8386847E-04
   6.570000        5.8923574E-04
   6.580000        5.9397041E-04
   6.590000        5.9803622E-04
   6.600000        6.0136867E-04
   6.610000        6.0395262E-04
   6.620000        6.0578412E-04
   6.630000        6.0689368E-04
   6.640000        6.0728507E-04
   6.650000        6.0699630E-04
   6.660000        6.0604821E-04
   6.670000        6.0453400E-04
   6.680000        6.0248200E-04
   6.690000        5.9995323E-04
   6.700000        5.9698935E-04
   6.710000        5.9363979E-04
   6.720000        5.8993872E-04
   6.730000        5.8592233E-04
   6.740000        5.8160571E-04
   6.750000        5.7697360E-04
   6.760000        5.7205284E-04
   6.770000        5.6680903E-04
   6.780000        5.6124607E-04
   6.790000        5.5536954E-04
   6.800000        5.4923852E-04
   6.810000        5.4290605E-04
   6.820000        5.3646910E-04
   6.830000        5.3003785E-04
   6.840000        5.2373961E-04
   6.850000        5.1771873E-04
   6.860000        5.1207596E-04
   6.870000        5.0691189E-04
   6.880000        5.0228182E-04
   6.890000        4.9822545E-04
   6.900000        4.9474480E-04
   6.910000        4.9178471E-04
   6.920000        4.8928818E-04
   6.930000        4.8716602E-04
   6.940000        4.8534965E-04
   6.950000        4.8378413E-04
   6.960000        4.8242757E-04
   6.970000        4.8125911E-04
   6.980000        4.8030537E-04
   6.990000        4.7960429E-04
   7.000000        4.7919486E-04
   7.010000        4.7911220E-04
   7.020000        4.7938770E-04
   7.030000        4.8002228E-04
   7.040000        4.8099976E-04
   7.050000        4.8227177E-04
   7.060000        4.8378506E-04
   7.070000        4.8545891E-04
   7.080000        4.8721160E-04
   7.090000        4.8897899E-04
   7.100000        4.9069320E-04
   7.110000        4.9230718E-04
   7.120000        4.9379107E-04
   7.130000        4.9513334E-04
   7.140000        4.9633457E-04
   7.150000        4.9740565E-04
   7.160000        4.9835985E-04
   7.170000        4.9921725E-04
   7.180000        4.9998477E-04
   7.190000        5.0066167E-04
   7.200000        5.0123589E-04
   7.210000        5.0168426E-04
   7.220000        5.0197024E-04
   7.230000        5.0205761E-04
   7.240000        5.0189876E-04
   7.250000        5.0144439E-04
   7.260000        5.0064112E-04
   7.270000        4.9943046E-04
   7.280000        4.9775071E-04
   7.290000        4.9554079E-04
   7.300000        4.9274013E-04
   7.310000        4.8929645E-04
   7.320000        4.8516839E-04
   7.330000        4.8032886E-04
   7.340000        4.7476671E-04
   7.350000        4.6848590E-04
   7.360000        4.6149702E-04
   7.370000        4.5381940E-04
   7.380000        4.4547280E-04
   7.390000        4.3648234E-04
   7.400000        4.2686728E-04
   7.410000        4.1665634E-04
   7.420000        4.0587547E-04
   7.430000        3.9456211E-04
   7.440000        3.8275454E-04
   7.450000        3.7049525E-04
   7.460000        3.5782749E-04
   7.470000        3.4478545E-04
   7.480000        3.3141091E-04
   7.490000        3.1772480E-04
   7.500000        3.0376224E-04
   7.510000        2.8955552E-04
   7.520000        2.7512608E-04
   7.530000        2.6049613E-04
   7.540000        2.4569192E-04
   7.550000        2.3073427E-04
   7.560000        2.1562367E-04
   7.570000        2.0035679E-04
   7.580000        1.8493558E-04
   7.590000        1.6935568E-04
   7.600000        1.5361670E-04
   7.610000        1.3772761E-04
   7.620000        1.2170933E-04
   7.630000        1.0558369E-04
   7.640000        8.9379217E-05
   7.650000        7.3112991E-05
   7.660000        5.6796416E-05
   7.670000        4.0436145E-05
   7.680000        2.4017927E-05
   7.690000        7.5427106E-06
   7.700000       -8.9961541E-06
   7.710000       -2.5600566E-05
   7.720000       -4.2253429E-05
   7.730000       -5.8946185E-05
   7.740000       -7.5649390E-05
   7.750000       -9.2329807E-05
   7.760000       -1.0894561E-04
   7.770000       -1.2547024E-04
   7.780000       -1.4183906E-04
   7.790000       -1.5799033E-04
   7.800000       -1.7388132E-04
   7.810000       -1.8944363E-04
   7.820000       -2.0461454E-04
   7.830000       -2.1935703E-04
   7.840000       -2.3366537E-04
   7.850000       -2.4750823E-04
   7.860000       -2.6091698E-04
   7.870000       -2.7391341E-04
   7.880000       -2.8653370E-04
   7.890000       -2.9880530E-04
   7.900000       -3.1073214E-04
   7.910000       -3.2233022E-04
   7.920000       -3.3357399E-04
   7.930000       -3.4443205E-04
   7.940000       -3.5485224E-04
   7.950000       -3.6480214E-04
   7.960000       -3.7421059E-04
   7.970000       -3.8299299E-04
   7.980000       -3.9111706E-04
   7.990000       -3.9852297E-04
   8.000000       -4.0515850E-04
   8.010000       -4.1102263E-04
   8.020000       -4.1610491E-04
   8.030000       -4.2041586E-04
   8.040000       -4.2398390E-04
   8.050000       -4.2683951E-04
   8.060000       -4.2900161E-04
   8.070000       -4.3050447E-04
   8.080000       -4.3137273E-04
   8.090000       -4.3160832E-04
   8.100000       -4.3121123E-04
   8.110000       -4.3018337E-04
   8.120000       -4.2851525E-04
   8.130000       -4.2619067E-04
   8.140000       -4.2318975E-04
   8.150000       -4.1947729E-04
   8.160000       -4.1503148E-04
   8.170000       -4.0984276E-04
   8.180000       -4.0389597E-04
   8.190000       -3.9721964E-04
   8.200000       -3.8986691E-04
   8.210000       -3.8190908E-04
   8.220000       -3.7343826E-04
   8.230000       -3.6457321E-04
   8.240000       -3.5542695E-04
   8.250000       -3.4610211E-04
   8.260000       -3.3669840E-04
   8.270000       -3.2728998E-04
   8.280000       -3.1794282E-04
   8.290000       -3.0869729E-04
   8.300000       -2.9957478E-04
   8.310000       -2.9058859E-04
   8.320000       -2.8172738E-04
   8.330000       -2.7296346E-04
   8.340000       -2.6427084E-04
   8.350000       -2.5561522E-04
   8.360000       -2.4697531E-04
   8.370000       -2.3835298E-04
   8.380000       -2.2977575E-04
   8.390000       -2.2129757E-04
   8.400000       -2.1299583E-04
   8.410000       -2.0496579E-04
   8.420000       -1.9730101E-04
   8.430000       -1.9008735E-04
   8.440000       -1.8339444E-04
   8.450000       -1.7727251E-04
   8.460000       -1.7175240E-04
   8.470000       -1.6684983E-04
   8.480000       -1.6256761E-04
   8.490000       -1.5889826E-04
   8.500000       -1.5582358E-04
   8.510000       -1.5331627E-04
   8.520000       -1.5133750E-04
   8.530000       -1.4984285E-04
   8.540000       -1.4878981E-04
   8.550000       -1.4814183E-04
   8.560000       -1.4787797E-04
   8.570000       -1.4799600E-04
   8.580000       -1.4850494E-04
   8.590000       -1.4942356E-04
   8.600000       -1.5077156E-04
   8.610000       -1.5255464E-04
   8.620000       -1.5476401E-04
   8.630000       -1.5737429E-04
   8.640000       -1.6034434E-04
   8.650000       -1.6363383E-04
   8.660000       -1.6720498E-04
   8.670000       -1.7102693E-04
   8.680000       -1.7508469E-04
   8.690000       -1.7937543E-04
   8.700000       -1.8389251E-04
   8.710000       -1.8863306E-04
   8.720000       -1.9358379E-04
   8.730000       -1.9871787E-04
   8.740000       -2.0399943E-04
   8.750000       -2.0938479E-04
   8.760000       -2.1482380E-04
   8.770000       -2.2026518E-04
   8.780000       -2.2565883E-04
   8.790000       -2.3095870E-04
   8.800000       -2.3612293E-04
   8.810000       -2.4112426E-04
   8.820000       -2.4594675E-04
   8.830000       -2.5059277E-04
   8.840000       -2.5508110E-04
   8.850000       -2.5943859E-04
   8.860000       -2.6369587E-04
   8.870000       -2.6787500E-04
   8.880000       -2.7197920E-04
   8.890000       -2.7598659E-04
   8.900000       -2.7985059E-04
   8.910000       -2.8350181E-04
   8.920000       -2.8685603E-04
   8.930000       -2.8982296E-04
   8.940000       -2.9231515E-04
   8.950000       -2.9425361E-04
   8.960000       -2.9557117E-04
   8.970000       -2.9621503E-04
   8.980000       -2.9614876E-04