 -0.1000000        0.0000000E+00
 -9.0000004E-02    3.1474341E-38
 -7.9999998E-02    4.1965787E-38
 -7.0000000E-02    0.0000000E+00
 -5.9999999E-02   -5.9951130E-38
 -5.0000001E-02   -1.1990226E-37
 -3.9999999E-02   -2.1582407E-37
 -2.9999999E-02   -2.8776538E-37
 -2.0000000E-02   -4.7960904E-37
 -9.9999998E-03   -8.0881257E-34
  0.0000000E+00   -1.0370298E-32
  9.9999998E-03   -2.8476498E-32
  2.0000000E-02    6.0915429E-31
  2.9999999E-02    1.0338868E-29
  3.9999999E-02    9.8286043E-29
  5.0000001E-02    7.0636851E-28
  5.9999999E-02    4.1744505E-27
  7.0000000E-02    2.1018020E-26
  7.9999998E-02    9.1804323E-26
  9.0000004E-02    3.5154152E-25
  0.1000000        1.1879578E-24
  0.1100000        3.5577548E-24
  0.1200000        9.4682841E-24
  0.1300000        2.2439360E-23
  0.1400000        4.7537872E-23
  0.1500000        9.1040449E-23
  0.1600000        1.6273283E-22
  0.1700000        2.9176645E-22
  0.1800000        5.7965994E-22
  0.1900000        1.3205145E-21
  0.2000000        3.1862006E-21
  0.2100000        7.3464762E-21
  0.2200000        1.5119947E-20
  0.2300000        2.6376840E-20
  0.2400000        3.5730025E-20
  0.2500000        2.6224445E-20
  0.2600000       -3.7277650E-20
  0.2700000       -2.0787293E-19
  0.2800000       -5.3596077E-19
  0.2900000       -1.0108678E-18
  0.3000000       -1.4550927E-18
  0.3100000       -1.3915871E-18
  0.3200000        3.6197007E-20
  0.3300000        3.9331173E-18
  0.3400000        1.1094959E-17
  0.3500000        2.0854312E-17
  0.3600000        2.9405229E-17
  0.3700000        2.8196900E-17
  0.3800000        3.7113423E-18
  0.3900000       -5.9412836E-17
  0.4000000       -1.6994189E-16
  0.4100000       -3.1569656E-16
  0.4200000       -4.4602468E-16
  0.4300000       -4.5898953E-16
  0.4400000       -2.0668000E-16
  0.4500000        4.6525434E-16
  0.4600000        1.6323046E-15
  0.4700000        3.1645197E-15
  0.4800000        4.5916466E-15
  0.4900000        5.0287300E-15
  0.5000000        3.2597593E-15
  0.5100000       -1.9232501E-15
  0.5200000       -1.1081728E-14
  0.5300000       -2.3269840E-14
  0.5400000       -3.5207761E-14
  0.5500000       -4.0933508E-14
  0.5600000       -3.2486644E-14
  0.5700000       -2.0924456E-15
  0.5800000        5.4060414E-14
  0.5900000        1.3104600E-13
  0.6000000        2.1091910E-13
  0.6100000        2.6122266E-13
  0.6200000        2.3887695E-13
  0.6300000        1.0136327E-13
  0.6400000       -1.7485353E-13
  0.6500000       -5.7189339E-13
  0.6600000       -1.0109692E-12
  0.6700000       -1.3457643E-12
  0.6800000       -1.3791541E-12
  0.6900000       -9.1026037E-13
  0.7000000        1.8948248E-13
  0.7100000        1.8849046E-12
  0.7200000        3.8974540E-12
  0.7300000        5.6743442E-12
  0.7400000        6.4439964E-12
  0.7500000        5.3816153E-12
  0.7600000        1.8792281E-12
  0.7700000       -4.1270611E-12
  0.7800000       -1.1863395E-11
  0.7900000       -1.9579168E-11
  0.8000000       -2.4683663E-11
  0.8100000       -2.4235506E-11
  0.8200000       -1.5772047E-11
  0.8300000        1.6578880E-12
  0.8400000        2.6521505E-11
  0.8500000        5.4240799E-11
  0.8600000        7.7395396E-11
  0.8700000        8.6925550E-11
  0.8800000        7.4331333E-11
  0.8900000        3.4537279E-11
  0.9000000       -3.1244302E-11
  0.9100000       -1.1355417E-10
  0.9200000       -1.9455990E-10
  0.9300000       -2.5042871E-10
  0.9400000       -2.5630634E-10
  0.9500000       -1.9323927E-10
  0.9600000       -5.5575638E-11
  0.9700000        1.4320864E-10
  0.9800000        3.6844525E-10
  0.9900000        5.6766353E-10
   1.000000        6.7998823E-10
   1.010000        6.5048916E-10
   1.020000        4.4671328E-10
   1.030000        7.3301060E-11
   1.040000       -4.1986137E-10
   1.050000       -9.3974217E-10
   1.060000       -1.3642759E-09
   1.070000       -1.5672783E-09
   1.080000       -1.4497037E-09
   1.090000       -9.7014663E-10
   1.100000       -1.6634329E-10
   1.110000        8.3962493E-10
   1.120000        1.8565599E-09
   1.130000        2.6591198E-09
   1.140000        3.0364296E-09
   1.150000        2.8437066E-09
   1.160000        2.0440436E-09
   1.170000        7.2852391E-10
   1.180000       -8.9270280E-10
   1.190000       -2.5287423E-09
   1.200000       -3.8681383E-09
   1.210000       -4.6467914E-09
   1.220000       -4.7063007E-09
   1.230000       -4.0269077E-09
   1.240000       -2.7254954E-09
   1.250000       -1.0187604E-09
   1.260000        8.3784946E-10
   1.270000        2.6166709E-09
   1.280000        4.1680912E-09
   1.290000        5.4365219E-09
   1.300000        6.4342420E-09
   1.310000        7.1794823E-09
   1.320000        7.6194206E-09
   1.330000        7.5684756E-09
   1.340000        6.6935200E-09
   1.350000        4.5684816E-09
   1.360000        8.0216156E-10
   1.370000       -4.7809445E-09
   1.380000       -1.1950339E-08
   1.390000       -1.9928512E-08
   1.400000       -2.7359306E-08
   1.410000       -3.2430094E-08
   1.420000       -3.3160383E-08
   1.430000       -2.7827879E-08
   1.440000       -1.5459946E-08
   1.450000        3.7141585E-09
   1.460000        2.7968106E-08
   1.470000        5.4044772E-08
   1.480000        7.7448334E-08
   1.490000        9.3065140E-08
   1.500000        9.6044623E-08
   1.510000        8.2804959E-08
   1.520000        5.1981477E-08
   1.530000        5.1204041E-09
   1.540000       -5.3055221E-08
   1.550000       -1.1492035E-07
   1.560000       -1.7078769E-07
   1.570000       -2.1023506E-07
   1.580000       -2.2374758E-07
   1.590000       -2.0442967E-07
   1.600000       -1.4950841E-07
   1.610000       -6.1361696E-08
   1.620000        5.2138486E-08
   1.630000        1.7808496E-07
   1.640000        2.9979753E-07
   1.650000        3.9877315E-07
   1.660000        4.5710323E-07
   1.670000        4.6006372E-07
   1.680000        3.9854663E-07
   1.690000        2.7100580E-07
   1.700000        8.4632205E-08
   1.710000       -1.4445017E-07
   1.720000       -3.9208652E-07
   1.730000       -6.2809517E-07
   1.740000       -8.1926771E-07
   1.750000       -9.3314611E-07
   1.760000       -9.4224509E-07
   1.770000       -8.2829956E-07
   1.780000       -5.8603661E-07
   1.790000       -2.2594213E-07
   1.800000        2.2450138E-07
   1.810000        7.2153614E-07
   1.820000        1.2080845E-06
   1.830000        1.6189670E-06
   1.840000        1.8881046E-06
   1.850000        1.9570944E-06
   1.860000        1.7842229E-06
   1.870000        1.3527472E-06
   1.880000        6.7715274E-07
   1.890000       -1.9381807E-07
   1.900000       -1.1783139E-06
   1.910000       -2.1671842E-06
   1.920000       -3.0343360E-06
   1.930000       -3.6508504E-06
   1.940000       -3.9014358E-06
   1.950000       -3.7012935E-06
   1.960000       -3.0111696E-06
   1.970000       -1.8483802E-06
   1.980000       -2.9188510E-07
   1.990000        1.5199161E-06
   2.000000        3.3991721E-06
   2.010000        5.1259149E-06
   2.020000        6.4713204E-06
   2.030000        7.2246098E-06
   2.040000        7.2206676E-06
   2.050000        6.3650632E-06
   2.060000        4.6532500E-06
   2.070000        2.1810570E-06
   2.080000       -8.5559884E-07
   2.090000       -4.1727635E-06
   2.100000       -7.4220011E-06
   2.110000       -1.0223802E-05
   2.120000       -1.2207932E-05
   2.130000       -1.3056720E-05
   2.140000       -1.2546668E-05
   2.150000       -1.0583391E-05
   2.160000       -7.2253802E-06
   2.170000       -2.6927839E-06
   2.180000        2.6411476E-06
   2.190000        8.2766019E-06
   2.200000        1.3630388E-05
   2.210000        1.8092425E-05
   2.220000        2.1090415E-05
   2.230000        2.2156146E-05
   2.240000        2.0986201E-05
   2.250000        1.7489794E-05
   2.260000        1.1817319E-05
   2.270000        4.3648365E-06
   2.280000       -4.2478832E-06
   2.290000       -1.3225458E-05
   2.300000       -2.1667758E-05
   2.310000       -2.8657390E-05
   2.320000       -3.3355467E-05
   2.330000       -3.5095698E-05
   2.340000       -3.3466396E-05
   2.350000       -2.8370996E-05
   2.360000       -2.0059038E-05
   2.370000       -9.1228221E-06
   2.380000        3.5418350E-06
   2.390000        1.6808372E-05
   2.400000        2.9419813E-05
   2.410000        4.0107501E-05
   2.420000        4.7716811E-05
   2.430000        5.1327352E-05
   2.440000        5.0355604E-05
   2.450000        4.4629094E-05
   2.460000        3.4424069E-05
   2.470000        2.0462050E-05
   2.480000        3.8644180E-06
   2.490000       -1.3931902E-05
   2.500000       -3.1291063E-05
   2.510000       -4.6517565E-05
   2.520000       -5.8006575E-05
   2.530000       -6.4392443E-05
   2.540000       -6.4682943E-05
   2.550000       -5.8366753E-05
   2.560000       -4.5484838E-05
   2.570000       -2.6657455E-05
   2.580000       -3.0631759E-06
   2.590000        2.3630799E-05
   2.600000        5.1383657E-05
   2.610000        7.7933837E-05
   2.620000        1.0097850E-04
   2.630000        1.1836599E-04
   2.640000        1.2828523E-04
   2.650000        1.2943483E-04
   2.660000        1.2115650E-04
   2.670000        1.0351885E-04
   2.680000        7.7341276E-05
   2.690000        4.4153712E-05
   2.700000        6.0917005E-06
   2.710000       -3.4264875E-05
   2.720000       -7.4097647E-05
   2.730000       -1.1058215E-04
   2.740000       -1.4112610E-04
   2.750000       -1.6359135E-04
   2.760000       -1.7647828E-04
   2.770000       -1.7905529E-04
   2.780000       -1.7142011E-04
   2.790000       -1.5448844E-04
   2.800000       -1.2991030E-04
   2.810000       -9.9923898E-05
   2.820000       -6.7160909E-05
   2.830000       -3.4422563E-05
   2.840000       -4.4473136E-06
   2.850000        2.0309211E-05
   2.860000        3.7864538E-05
   2.870000        4.6854158E-05
   2.880000        4.6623409E-05
   2.890000        3.7259735E-05
   2.900000        1.9568892E-05
   2.910000       -5.0020326E-06
   2.920000       -3.4486289E-05
   2.930000       -6.6550703E-05
   2.940000       -9.8670753E-05
   2.950000       -1.2831228E-04
   2.960000       -1.5310752E-04
   2.970000       -1.7101254E-04
   2.980000       -1.8043649E-04
   2.990000       -1.8033359E-04
   3.000000       -1.7025252E-04
   3.010000       -1.5034157E-04
   3.020000       -1.2131200E-04
   3.030000       -8.4363113E-05
   3.040000       -4.1078321E-05
   3.050000        6.6970051E-06
   3.060000        5.6986766E-05
   3.070000        1.0781029E-04
   3.080000        1.5729613E-04
   3.090000        2.0377427E-04
   3.100000        2.4584276E-04
   3.110000        2.8240646E-04
   3.120000        3.1269024E-04
   3.130000        3.3622904E-04
   3.140000        3.5284221E-04
   3.150000        3.6259514E-04
   3.160000        3.6575852E-04
   3.170000        3.6276609E-04
   3.180000        3.5417679E-04
   3.190000        3.4064535E-04
   3.200000        3.2289789E-04
   3.210000        3.0171892E-04
   3.220000        2.7794141E-04
   3.230000        2.5244331E-04
   3.240000        2.2614356E-04
   3.250000        1.9999713E-04
   3.260000        1.7498042E-04
   3.270000        1.5206933E-04
   3.280000        1.3220096E-04
   3.290000        1.1622483E-04
   3.300000        1.0483844E-04
   3.310000        9.8517870E-05
   3.320000        9.7445947E-05
   3.330000        1.0144850E-04
   3.340000        1.0994807E-04
   3.350000        1.2194302E-04
   3.360000        1.3601578E-04
   3.370000        1.5037732E-04
   3.380000        1.6294250E-04
   3.390000        1.7143565E-04
   3.400000        1.7351891E-04
   3.410000        1.6693519E-04
   3.420000        1.4965583E-04
   3.430000        1.2002148E-04
   3.440000        7.6870572E-05
   3.450000        1.9644653E-05
   3.460000       -5.1540508E-05
   3.470000       -1.3586116E-04
   3.480000       -2.3179370E-04
   3.490000       -3.3716924E-04
   3.500000       -4.4927056E-04
   3.510000       -5.6496687E-04
   3.520000       -6.8087591E-04
   3.530000       -7.9354714E-04
   3.540000       -8.9964806E-04
   3.550000       -9.9614530E-04
   3.560000       -1.0804669E-03
   3.570000       -1.1506373E-03
   3.580000       -1.2053727E-03
   3.590000       -1.2441451E-03
   3.600000       -1.2671887E-03
   3.610000       -1.2754772E-03
   3.620000       -1.2706451E-03
   3.630000       -1.2548851E-03
   3.640000       -1.2308040E-03
   3.650000       -1.2012641E-03
   3.660000       -1.1692180E-03
   3.670000       -1.1375443E-03
   3.680000       -1.1089072E-03
   3.690000       -1.0856369E-03
   3.700000       -1.0696441E-03
   3.710000       -1.0623798E-03
   3.720000       -1.0648140E-03
   3.730000       -1.0774534E-03
   3.740000       -1.1003799E-03
   3.750000       -1.1332904E-03
   3.760000       -1.1755580E-03
   3.770000       -1.2262746E-03
   3.780000       -1.2842803E-03
   3.790000       -1.3482072E-03
   3.800000       -1.4164934E-03
   3.810000       -1.4873940E-03
   3.820000       -1.5590003E-03
   3.830000       -1.6292521E-03
   3.840000       -1.6959641E-03
   3.850000       -1.7568825E-03
   3.860000       -1.8097204E-03
   3.870000       -1.8522455E-03
   3.880000       -1.8823793E-03
   3.890000       -1.8982778E-03
   3.900000       -1.8984489E-03
   3.910000       -1.8818263E-03
   3.920000       -1.8478499E-03
   3.930000       -1.7965063E-03
   3.940000       -1.7283483E-03
   3.950000       -1.6444913E-03
   3.960000       -1.5465576E-03
   3.970000       -1.4366145E-03
   3.980000       -1.3171129E-03
   3.990000       -1.1907791E-03
   4.000000       -1.0605202E-03
   4.010000       -9.2933787E-04
   4.020000       -8.0022454E-04
   4.030000       -6.7608524E-04
   4.040000       -5.5964250E-04
   4.050000       -4.5337199E-04
   4.060000       -3.5940728E-04
   4.070000       -2.7948117E-04
   4.080000       -2.1485705E-04
   4.090000       -1.6626071E-04
   4.100000       -1.3386316E-04
   4.110000       -1.1721790E-04
   4.120000       -1.1528568E-04
   4.130000       -1.2644964E-04
   4.140000       -1.4855053E-04
   4.150000       -1.7898358E-04
   4.160000       -2.1477630E-04
   4.170000       -2.5270076E-04
   4.180000       -2.8939117E-04
   4.190000       -3.2144960E-04
   4.200000       -3.4556919E-04
   4.210000       -3.5863210E-04
   4.220000       -3.5780945E-04
   4.230000       -3.4063982E-04
   4.240000       -3.0512543E-04
   4.250000       -2.4977865E-04
   4.260000       -1.7369133E-04
   4.270000       -7.6564203E-05
   4.280000        4.1288262E-05
   4.290000        1.7895413E-04
   4.300000        3.3496282E-04
   4.310000        5.0736411E-04
   4.320000        6.9381343E-04
   4.330000        8.9167448E-04
   4.340000        1.0981283E-03
   4.350000        1.3102808E-03
   4.360000        1.5252540E-03
   4.370000        1.7402701E-03
   4.380000        1.9527137E-03
   4.390000        2.1601706E-03
   4.400000        2.3604510E-03
   4.410000        2.5515801E-03
   4.420000        2.7317840E-03
   4.430000        2.8994475E-03
   4.440000        3.0530782E-03
   4.450000        3.1912590E-03
   4.460000        3.3126103E-03
   4.470000        3.4157848E-03
   4.480000        3.4994641E-03
   4.490000        3.5623705E-03
   4.500000        3.6033427E-03
   4.510000        3.6213747E-03
   4.520000        3.6157244E-03
   4.530000        3.5859926E-03
   4.540000        3.5322150E-03
   4.550000        3.4549774E-03
   4.560000        3.3554574E-03
   4.570000        3.2354961E-03
   4.580000        3.0975763E-03
   4.590000        2.9448073E-03
   4.600000        2.7808130E-03
   4.610000        2.6095686E-03
   4.620000        2.4352430E-03
   4.630000        2.2619772E-03
   4.640000        2.0936739E-03
   4.650000        1.9338180E-03
   4.660000        1.7853196E-03
   4.670000        1.6504629E-03
   4.680000        1.5308624E-03
   4.690000        1.4275253E-03
   4.700000        1.3409343E-03
   4.710000        1.2712032E-03
   4.720000        1.2181724E-03
   4.730000        1.1815571E-03
   4.740000        1.1610719E-03
   4.750000        1.1565501E-03
   4.760000        1.1679535E-03
   4.770000        1.1954417E-03
   4.780000        1.2394061E-03
   4.790000        1.3004621E-03
   4.800000        1.3793659E-03
   4.810000        1.4770564E-03
   4.820000        1.5945138E-03
   4.830000        1.7327106E-03
   4.840000        1.8925059E-03
   4.850000        2.0746291E-03
   4.860000        2.2795706E-03
   4.870000        2.5075390E-03
   4.880000        2.7584354E-03
   4.890000        3.0318580E-03
   4.900000        3.3271825E-03
   4.910000        3.6434140E-03
   4.920000        3.9794501E-03
   4.930000        4.3339082E-03
   4.940000        4.7052302E-03
   4.950000        5.0916523E-03
   4.960000        5.4911766E-03
   4.970000        5.9014927E-03
   4.980000        6.3200085E-03
   4.990000        6.7436923E-03
   5.000000        7.1691009E-03
   5.010000        7.5923363E-03
   5.020000        8.0090743E-03
   5.030000        8.4145945E-03
   5.040000        8.8038286E-03
   5.050000        9.1714719E-03
   5.060000        9.5121218E-03
   5.070000        9.8204035E-03
   5.080000        1.0091037E-02
   5.090000        1.0318937E-02
   5.100000        1.0499400E-02
   5.110000        1.0628040E-02
   5.120000        1.0700868E-02
   5.130000        1.0714289E-02
   5.140000        1.0665081E-02
   5.150000        1.0550302E-02
   5.160000        1.0367431E-02
   5.170000        1.0114148E-02
   5.180000        9.7884247E-03
   5.190000        9.3886498E-03
   5.200000        8.9135608E-03
   5.210000        8.3624609E-03
   5.220000        7.7352412E-03
   5.230000        7.0324810E-03
   5.240000        6.2554716E-03
   5.250000        5.4062195E-03
   5.260000        4.4876272E-03
   5.270000        3.5030853E-03
   5.280000        2.4566816E-03
   5.290000        1.3530065E-03
   5.300000        1.9706042E-04
   5.310000       -1.0059278E-03
   5.320000       -2.2503496E-03
   5.330000       -3.5305205E-03
   5.340000       -4.8407102E-03
   5.350000       -6.1751273E-03
   5.360000       -7.5281491E-03
   5.370000       -8.8943336E-03
   5.380000       -1.0268459E-02
   5.390000       -1.1645725E-02
   5.400000       -1.3021568E-02
   5.410000       -1.4391817E-02
   5.420000       -1.5752576E-02
   5.430000       -1.7100165E-02
   5.440000       -1.8431133E-02
   5.450000       -1.9742150E-02
   5.460000       -2.1030033E-02
   5.470000       -2.2291729E-02
   5.480000       -2.3524234E-02
   5.490000       -2.4724746E-02
   5.500000       -2.5890579E-02
   5.510000       -2.7019259E-02
   5.520000       -2.8108554E-02
   5.530000       -2.9156491E-02
   5.540000       -3.0161439E-02
   5.550000       -3.1122141E-02
   5.560000       -3.2037783E-02
   5.570000       -3.2908000E-02
   5.580000       -3.3732947E-02
   5.590000       -3.4513202E-02
   5.600000       -3.5249796E-02
   5.610000       -3.5944059E-02
   5.620000       -3.6597576E-02
   5.630000       -3.7211981E-02
   5.640000       -3.7788883E-02
   5.650000       -3.8329769E-02
   5.660000       -3.8835842E-02
   5.670000       -3.9307993E-02
   5.680000       -3.9746761E-02
   5.690000       -4.0152375E-02
   5.700000       -4.0524635E-02
   5.710000       -4.0863112E-02
   5.720000       -4.1167058E-02
   5.730000       -4.1435570E-02
   5.740000       -4.1667696E-02
   5.750000       -4.1862383E-02
   5.760000       -4.2018712E-02
   5.770000       -4.2135809E-02
   5.780000       -4.2212822E-02
   5.790000       -4.2249180E-02
   5.800000       -4.2244177E-02
   5.810000       -4.2197134E-02
   5.820000       -4.2107400E-02
   5.830000       -4.1973930E-02
   5.840000       -4.1795537E-02
   5.850000       -4.1570675E-02
   5.860000       -4.1297697E-02
   5.870000       -4.0974345E-02
   5.880000       -4.0598463E-02
   5.890000       -4.0167652E-02
   5.900000       -3.9679386E-02
   5.910000       -3.9131414E-02
   5.920000       -3.8521584E-02
   5.930000       -3.7847944E-02
   5.940000       -3.7108921E-02
   5.950000       -3.6303289E-02
   5.960000       -3.5430416E-02
   5.970000       -3.4490090E-02
   5.980000       -3.3482824E-02
   5.990000       -3.2409564E-02
   6.000000       -3.1271946E-02
   6.010000       -3.0072136E-02
   6.020000       -2.8812652E-02
   6.030000       -2.7496565E-02
   6.040000       -2.6126854E-02
   6.050000       -2.4706986E-02
   6.060000       -2.3240576E-02
   6.070000       -2.1731062E-02
   6.080000       -2.0182302E-02
   6.090000       -1.8598035E-02
   6.100000       -1.6982216E-02
   6.110000       -1.5338947E-02
   6.120000       -1.3672483E-02
   6.130000       -1.1987233E-02
   6.140000       -1.0287724E-02
   6.150000       -8.5784290E-03
   6.160000       -6.8641175E-03
   6.170000       -5.1495624E-03
   6.180000       -3.4396281E-03
   6.190000       -1.7393300E-03
   6.200000       -5.3775533E-05
   6.210000        1.6121413E-03
   6.220000        3.2532222E-03
   6.230000        4.8647556E-03
   6.240000        6.4421813E-03
   6.250000        7.9813348E-03
   6.260000        9.4785988E-03
   6.270000        1.0930903E-02
   6.280000        1.2335421E-02
   6.290000        1.3690387E-02
   6.300000        1.4994346E-02
   6.310000        1.6246321E-02
   6.320000        1.7445920E-02
   6.330000        1.8593263E-02
   6.340000        1.9688776E-02
   6.350000        2.0732945E-02
   6.360000        2.1726653E-02
   6.370000        2.2670658E-02
   6.380000        2.3565631E-02
   6.390000        2.4412025E-02
   6.400000        2.5210420E-02
   6.410000        2.5960937E-02
   6.420000        2.6663635E-02
   6.430000        2.7318489E-02
   6.440000        2.7925339E-02
   6.450000        2.8484041E-02
   6.460000        2.8994376E-02
   6.470000        2.9456118E-02
   6.480000        2.9869011E-02
   6.490000        3.0232869E-02
   6.500000        3.0547436E-02
   6.510000        3.0812636E-02
   6.520000        3.1028651E-02
   6.530000        3.1195706E-02
   6.540000        3.1314384E-02
   6.550000        3.1385530E-02
   6.560000        3.1410214E-02
   6.570000        3.1389728E-02
   6.580000        3.1325571E-02
   6.590000        3.1219432E-02
   6.600000        3.1073140E-02
   6.610000        3.0888710E-02
   6.620000        3.0668348E-02
   6.630000        3.0414479E-02
   6.640000        3.0129660E-02
   6.650000        2.9816763E-02
   6.660000        2.9478857E-02
   6.670000        2.9119125E-02
   6.680000        2.8740926E-02
   6.690000        2.8347649E-02
   6.700000        2.7942622E-02
   6.710000        2.7529124E-02
   6.720000        2.7110264E-02
   6.730000        2.6689004E-02
   6.740000        2.6268153E-02
   6.750000        2.5850361E-02
   6.760000        2.5438191E-02
   6.770000        2.5034100E-02
   6.780000        2.4640448E-02
   6.790000        2.4259469E-02
   6.800000        2.3893226E-02
   6.810000        2.3543501E-02
   6.820000        2.3211773E-02
   6.830000        2.2899169E-02
   6.840000        2.2606416E-02
   6.850000        2.2333872E-02
   6.860000        2.2081558E-02
   6.870000        2.1849168E-02
   6.880000        2.1636110E-02
   6.890000        2.1441534E-02
   6.900000        2.1264274E-02
   6.910000        2.1102900E-02
   6.920000        2.0955663E-02
   6.930000        2.0820608E-02
   6.940000        2.0695541E-02
   6.950000        2.0578198E-02
   6.960000        2.0466316E-02
   6.970000        2.0357737E-02
   6.980000        2.0250516E-02
   6.990000        2.0142883E-02
   7.000000        2.0033292E-02
   7.010000        1.9920385E-02
   7.020000        1.9802909E-02
   7.030000        1.9679703E-02
   7.040000        1.9549793E-02
   7.050000        1.9412201E-02
   7.060000        1.9266149E-02
   7.070000        1.9110940E-02
   7.080000        1.8946072E-02
   7.090000        1.8771105E-02
   7.100000        1.8585663E-02
   7.110000        1.8389378E-02
   7.120000        1.8181846E-02
   7.130000        1.7962586E-02
   7.140000        1.7731197E-02
   7.150000        1.7487384E-02
   7.160000        1.7230865E-02
   7.170000        1.6961727E-02
   7.180000        1.6680220E-02
   7.190000        1.6386673E-02
   7.200000        1.6081758E-02
   7.210000        1.5766036E-02
   7.220000        1.5440221E-02
   7.230000        1.5104906E-02
   7.240000        1.4760639E-02
   7.250000        1.4408089E-02
   7.260000        1.4047757E-02
   7.270000        1.3680249E-02
   7.280000        1.3306116E-02
   7.290000        1.2925948E-02
   7.300000        1.2539960E-02
   7.310000        1.2148331E-02
   7.320000        1.1750927E-02
   7.330000        1.1347109E-02
   7.340000        1.0936086E-02
   7.350000        1.0516689E-02
   7.360000        1.0087579E-02
   7.370000        9.6473284E-03
   7.380000        9.1946591E-03
   7.390000        8.7281894E-03
   7.400000        8.2466416E-03
   7.410000        7.7488297E-03
   7.420000        7.2336150E-03
   7.430000        6.6999481E-03
   7.440000        6.1468417E-03
   7.450000        5.5734129E-03
   7.460000        4.9788426E-03
   7.470000        4.3626735E-03
   7.480000        3.7245560E-03
   7.490000        3.0644760E-03
   7.500000        2.3825236E-03
   7.510000        1.6790642E-03
   7.520000        9.5444731E-04
   7.530000        2.0914395E-04
   7.540000       -5.5648107E-04
   7.550000       -1.3420325E-03
   7.560000       -2.1470238E-03
   7.570000       -2.9708778E-03
   7.580000       -3.8127734E-03
   7.590000       -4.6714037E-03
   7.600000       -5.5450508E-03
   7.610000       -6.4314506E-03
   7.620000       -7.3277601E-03
   7.630000       -8.2306964E-03
   7.640000       -9.1366274E-03
   7.650000       -1.0041632E-02
   7.660000       -1.0941466E-02
   7.670000       -1.1831864E-02
   7.680000       -1.2708414E-02
   7.690000       -1.3566786E-02
   7.700000       -1.4402678E-02
   7.710000       -1.5211819E-02
   7.720000       -1.5990213E-02
   7.730000       -1.6734146E-02
   7.740000       -1.7440282E-02
   7.750000       -1.8105712E-02
   7.760000       -1.8728068E-02
   7.770000       -1.9305402E-02
   7.780000       -1.9836273E-02
   7.790000       -2.0319590E-02
   7.800000       -2.0754576E-02
   7.810000       -2.1140747E-02
   7.820000       -2.1477809E-02
   7.830000       -2.1765700E-02
   7.840000       -2.2004560E-02
   7.850000       -2.2194704E-02
   7.860000       -2.2336675E-02
   7.870000       -2.2431139E-02
   7.880000       -2.2478942E-02
   7.890000       -2.2481054E-02
   7.900000       -2.2438545E-02
   7.910000       -2.2352628E-02
   7.920000       -2.2224652E-02
   7.930000       -2.2056101E-02
   7.940000       -2.1848673E-02
   7.950000       -2.1604242E-02
   7.960000       -2.1324849E-02
   7.970000       -2.1012662E-02
   7.980000       -2.0669917E-02
   7.990000       -2.0298865E-02
   8.000000       -1.9901672E-02
   8.010000       -1.9480392E-02
   8.020000       -1.9036910E-02
   8.030000       -1.8572884E-02
   8.040000       -1.8089730E-02
   8.050000       -1.7588558E-02
   8.060000       -1.7070152E-02
   8.070000       -1.6534954E-02
   8.080000       -1.5983092E-02
   8.090000       -1.5414375E-02
   8.100000       -1.4828411E-02
   8.110000       -1.4224674E-02
   8.120000       -1.3602645E-02
   8.130000       -1.2961930E-02
   8.140000       -1.2302347E-02
   8.150000       -1.1624061E-02
   8.160000       -1.0927594E-02
   8.170000       -1.0213844E-02
   8.180000       -9.4841318E-03
   8.190000       -8.7401280E-03
   8.200000       -7.9838885E-03
   8.210000       -7.2177961E-03
   8.220000       -6.4445673E-03
   8.230000       -5.6671817E-03
   8.240000       -4.8889224E-03
   8.250000       -4.1132392E-03
   8.260000       -3.3437498E-03
   8.270000       -2.5841403E-03
   8.280000       -1.8380806E-03
   8.290000       -1.1091394E-03
   8.300000       -4.0076679E-04
   8.310000        2.8378071E-04
   8.320000        9.4144809E-04
   8.330000        1.5693891E-03
   8.340000        2.1649289E-03
   8.350000        2.7255935E-03
   8.360000        3.2490538E-03
   8.370000        3.7331476E-03
   8.380000        4.1758516E-03
   8.390000        4.5752958E-03
   8.400000        4.9297158E-03
   8.410000        5.2374853E-03
   8.420000        5.4970551E-03
   8.430000        5.7069724E-03
   8.440000        5.8658747E-03
   8.450000        5.9725288E-03
   8.460000        6.0258978E-03
   8.470000        6.0252044E-03
   8.480000        5.9700296E-03
   8.490000        5.8603850E-03
   8.500000        5.6967526E-03
   8.510000        5.4801079E-03
   8.520000        5.2118963E-03
   8.530000        4.8939888E-03
   8.540000        4.5286356E-03
   8.550000        4.1184151E-03
   8.560000        3.6662102E-03
   8.570000        3.1752016E-03
   8.580000        2.6488479E-03
   8.590000        2.0908623E-03
   8.600000        1.5051384E-03
   8.610000        8.9564460E-04
   8.620000        2.6628713E-04
   8.630000       -3.7922259E-04
   8.640000       -1.0375169E-03
   8.650000       -1.7056253E-03
   8.660000       -2.3809858E-03
   8.670000       -3.0613772E-03
   8.680000       -3.7448464E-03
   8.690000       -4.4295732E-03
   8.700000       -5.1137884E-03
   8.710000       -5.7957657E-03
   8.720000       -6.4738095E-03
   8.730000       -7.1463129E-03
   8.740000       -7.8117889E-03
   8.750000       -8.4689362E-03
   8.760000       -9.1165584E-03
   8.770000       -9.7535104E-03
   8.780000       -1.0378598E-02
   8.790000       -1.0990546E-02
   8.800000       -1.1587853E-02
   8.810000       -1.2168937E-02
   8.820000       -1.2732152E-02
   8.830000       -1.3275930E-02
   8.840000       -1.3798957E-02
   8.850000       -1.4300208E-02
   8.860000       -1.4779023E-02
   8.870000       -1.5235089E-02
   8.880000       -1.5668266E-02
   8.890000       -1.6078588E-02
   8.900000       -1.6466098E-02
   8.910000       -1.6830755E-02
   8.920000       -1.7172551E-02
   8.930000       -1.7491367E-02
   8.940000       -1.7787093E-02
   8.950000       -1.8059552E-02
   8.960000       -1.8308420E-02
   8.970000       -1.8533224E-02
   8.980000       -1.8733144E-02