 -0.1000000        0.0000000E+00
 -9.0000004E-02    3.1474341E-38
 -7.9999998E-02    4.1965787E-38
 -7.0000000E-02    0.0000000E+00
 -5.9999999E-02   -5.9951130E-38
 -5.0000001E-02   -1.1990226E-37
 -3.9999999E-02   -2.1582407E-37
 -2.9999999E-02   -4.9073104E-31
 -2.0000000E-02    1.0849130E-29
 -9.9999998E-03    3.1831007E-28
  0.0000000E+00    3.9555997E-27
  9.9999998E-03    3.4104207E-26
  2.0000000E-02    2.3380121E-25
  2.9999999E-02    1.3472752E-24
  3.9999999E-02    6.7015327E-24
  5.0000001E-02    2.9243538E-23
  5.9999999E-02    1.1349493E-22
  7.0000000E-02    3.9756714E-22
  7.9999998E-02    1.2786844E-21
  9.0000004E-02    3.8483940E-21
  0.1000000        1.1034244E-20
  0.1100000        3.0504282E-20
  0.1200000        8.1477426E-20
  0.1300000        2.0864559E-19
  0.1400000        5.0526777E-19
  0.1500000        1.1392480E-18
  0.1600000        2.3542625E-18
  0.1700000        4.3818015E-18
  0.1800000        7.1688129E-18
  0.1900000        9.8567967E-18
  0.2000000        1.0137859E-17
  0.2100000        4.0465163E-18
  0.2200000       -1.2628618E-17
  0.2300000       -3.9683755E-17
  0.2400000       -6.3507837E-17
  0.2500000       -4.5312822E-17
  0.2600000        8.6451048E-17
  0.2700000        4.2533058E-16
  0.2800000        1.0386270E-15
  0.2900000        1.8673388E-15
  0.3000000        2.5834287E-15
  0.3100000        2.4603904E-15
  0.3200000        3.7493180E-16
  0.3300000       -4.8949513E-15
  0.3400000       -1.3928643E-14
  0.3500000       -2.5474446E-14
  0.3600000       -3.5110336E-14
  0.3700000       -3.4465706E-14
  0.3800000       -1.2088817E-14
  0.3900000        4.2902940E-14
  0.4000000        1.3384808E-13
  0.4100000        2.4716066E-13
  0.4200000        3.4367821E-13
  0.4300000        3.5619912E-13
  0.4400000        1.9989227E-13
  0.4500000       -1.9916437E-13
  0.4600000       -8.5739440E-13
  0.4700000       -1.6785069E-12
  0.4800000       -2.4105156E-12
  0.4900000       -2.6450775E-12
  0.5000000       -1.8901102E-12
  0.5100000        2.6674201E-13
  0.5200000        3.9168308E-12
  0.5300000        8.5686597E-12
  0.5400000        1.2968558E-11
  0.5500000        1.5134442E-11
  0.5600000        1.2719502E-11
  0.5700000        3.7500328E-12
  0.5800000       -1.2350917E-11
  0.5900000       -3.3710777E-11
  0.6000000       -5.5334622E-11
  0.6100000       -6.9285917E-11
  0.6200000       -6.6100965E-11
  0.6300000       -3.7525798E-11
  0.6400000        1.9804059E-11
  0.6500000        1.0066330E-10
  0.6600000        1.8887972E-10
  0.6700000        2.5780961E-10
  0.6800000        2.7475922E-10
  0.6900000        2.0952125E-10
  0.7000000        4.5790531E-11
  0.7100000       -2.0730424E-10
  0.7200000       -5.0747440E-10
  0.7300000       -7.7949452E-10
  0.7400000       -9.2639058E-10
  0.7500000       -8.5202806E-10
  0.7600000       -4.9188664E-10
  0.7700000        1.5502621E-10
  0.7800000        1.0029645E-09
  0.7900000        1.8752422E-09
  0.8000000        2.5266180E-09
  0.8100000        2.6938176E-09
  0.8200000        2.1674251E-09
  0.8300000        8.6975604E-10
  0.8400000       -1.0829168E-09
  0.8500000       -3.3566705E-09
  0.8600000       -5.4322427E-09
  0.8700000       -6.6987207E-09
  0.8800000       -6.5972872E-09
  0.8900000       -4.7864117E-09
  0.9000000       -1.2870703E-09
  0.9100000        3.4369416E-09
  0.9200000        8.4998373E-09
  0.9300000        1.2731131E-08
  0.9400000        1.4915514E-08
  0.9500000        1.4090686E-08
  0.9600000        9.8350563E-09
  0.9700000        2.4684610E-09
  0.9800000       -6.8996662E-09
  0.9900000       -1.6509768E-08
   1.000000       -2.4270021E-08
   1.010000       -2.8196146E-08
   1.020000       -2.6878846E-08
   1.030000       -1.9867777E-08
   1.040000       -7.8716056E-09
   1.050000        7.2885009E-09
   1.060000        2.2977769E-08
   1.070000        3.6243225E-08
   1.080000        4.4399307E-08
   1.090000        4.5572396E-08
   1.100000        3.9081105E-08
   1.110000        2.5569499E-08
   1.120000        6.8715416E-09
   1.130000       -1.4348405E-08
   1.140000       -3.5081943E-08
   1.150000       -5.2468813E-08
   1.160000       -6.4184924E-08
   1.170000       -6.8658693E-08
   1.180000       -6.5108004E-08
   1.190000       -5.3448719E-08
   1.200000       -3.4163556E-08
   1.210000       -8.2245473E-09
   1.220000        2.2870433E-08
   1.230000        5.6946149E-08
   1.240000        9.0951872E-08
   1.250000        1.2084017E-07
   1.260000        1.4166602E-07
   1.270000        1.4802279E-07
   1.280000        1.3485706E-07
   1.290000        9.8596864E-08
   1.300000        3.8413287E-08
   1.310000       -4.2658375E-08
   1.320000       -1.3705375E-07
   1.330000       -2.3275945E-07
   1.340000       -3.1432549E-07
   1.350000       -3.6483235E-07
   1.360000       -3.6863500E-07
   1.370000       -3.1450710E-07
   1.380000       -1.9865135E-07
   1.390000       -2.6969680E-08
   1.400000        1.8398116E-07
   1.410000        4.0777158E-07
   1.420000        6.1078367E-07
   1.430000        7.5663507E-07
   1.440000        8.1183293E-07
   1.450000        7.5184533E-07
   1.460000        5.6658291E-07
   1.470000        2.6425533E-07
   1.480000       -1.2728118E-07
   1.490000       -5.6223161E-07
   1.500000       -9.8169733E-07
   1.510000       -1.3211775E-06
   1.520000       -1.5197789E-06
   1.530000       -1.5298095E-06
   1.540000       -1.3252680E-06
   1.550000       -9.0784249E-07
   1.560000       -3.0934530E-07
   1.570000        4.0996591E-07
   1.580000        1.1671389E-06
   1.590000        1.8657156E-06
   1.600000        2.4072540E-06
   1.610000        2.7037818E-06
   1.620000        2.6896830E-06
   1.630000        2.3316190E-06
   1.640000        1.6353152E-06
   1.650000        6.4836235E-07
   1.660000       -5.4145750E-07
   1.670000       -1.8124510E-06
   1.680000       -3.0196600E-06
   1.690000       -4.0092318E-06
   1.700000       -4.6354648E-06
   1.710000       -4.7790159E-06
   1.720000       -4.3643781E-06
   1.730000       -3.3744193E-06
   1.740000       -1.8597177E-06
   1.750000        5.9307258E-08
   1.760000        2.1988642E-06
   1.770000        4.3272385E-06
   1.780000        6.1883534E-06
   1.790000        7.5312587E-06
   1.800000        8.1421676E-06
   1.810000        7.8748926E-06
   1.820000        6.6753273E-06
   1.830000        4.5961160E-06
   1.840000        1.7987194E-06
   1.850000       -1.4581850E-06
   1.860000       -4.8432685E-06
   1.870000       -7.9874708E-06
   1.880000       -1.0525230E-05
   1.890000       -1.2137053E-05
   1.900000       -1.2588221E-05
   1.910000       -1.1758929E-05
   1.920000       -9.6622116E-06
   1.930000       -6.4475012E-06
   1.940000       -2.3892849E-06
   1.950000        2.1379665E-06
   1.960000        6.6961238E-06
   1.970000        1.0827339E-05
   1.980000        1.4101322E-05
   1.990000        1.6161401E-05
   2.000000        1.6764945E-05
   2.010000        1.5814288E-05
   2.020000        1.3374902E-05
   2.030000        9.6788535E-06
   2.040000        5.1127122E-06
   2.050000        1.9049875E-07
   2.060000       -4.4866238E-06
   2.070000       -8.2806355E-06
   2.080000       -1.0573237E-05
   2.090000       -1.0823942E-05
   2.100000       -8.6251566E-06
   2.110000       -3.7492462E-06
   2.120000        3.8158405E-06
   2.130000        1.3846876E-05
   2.140000        2.5883277E-05
   2.150000        3.9244431E-05
   2.160000        5.3067219E-05
   2.170000        6.6361288E-05
   2.180000        7.8080084E-05
   2.190000        8.7202199E-05
   2.200000        9.2816692E-05
   2.210000        9.4203759E-05
   2.220000        9.0902882E-05
   2.230000        8.2759114E-05
   2.240000        6.9942485E-05
   2.250000        5.2935888E-05
   2.260000        3.2491902E-05
   2.270000        9.5639361E-06
   2.280000       -1.4781343E-05
   2.290000       -3.9457835E-05
   2.300000       -6.3449712E-05
   2.310000       -8.5884894E-05
   2.320000       -1.0608510E-04
   2.330000       -1.2358831E-04
   2.340000       -1.3814391E-04
   2.350000       -1.4968663E-04
   2.360000       -1.5829662E-04
   2.370000       -1.6415484E-04
   2.380000       -1.6750416E-04
   2.390000       -1.6862233E-04
   2.400000       -1.6780941E-04
   2.410000       -1.6539029E-04
   2.420000       -1.6172585E-04
   2.430000       -1.5722917E-04
   2.440000       -1.5237444E-04
   2.450000       -1.4769290E-04
   2.460000       -1.4375204E-04
   2.470000       -1.4111286E-04
   2.480000       -1.4026876E-04
   2.490000       -1.4157449E-04
   2.500000       -1.4517175E-04
   2.510000       -1.5092487E-04
   2.520000       -1.5837471E-04
   2.530000       -1.6672275E-04
   2.540000       -1.7484980E-04
   2.550000       -1.8136787E-04
   2.560000       -1.8470437E-04
   2.570000       -1.8320960E-04
   2.580000       -1.7527895E-04
   2.590000       -1.5947678E-04
   2.600000       -1.3465447E-04
   2.610000       -1.0005467E-04
   2.620000       -5.5394034E-05
   2.630000       -9.2182086E-07
   2.640000        6.2543935E-05
   2.650000        1.3361344E-04
   2.660000        2.1034639E-04
   2.670000        2.9030957E-04
   2.680000        3.7066720E-04
   2.690000        4.4831063E-04
   2.700000        5.2002398E-04
   2.710000        5.8268319E-04
   2.720000        6.3347630E-04
   2.730000        6.7013281E-04
   2.740000        6.9113751E-04
   2.750000        6.9590576E-04
   2.760000        6.8489806E-04
   2.770000        6.5965194E-04
   2.780000        6.2271487E-04
   2.790000        5.7748088E-04
   2.800000        5.2793603E-04
   2.810000        4.7833729E-04
   2.820000        4.3284777E-04
   2.830000        3.9517510E-04
   2.840000        3.6824125E-04
   2.850000        3.5392409E-04
   2.860000        3.5289102E-04
   2.870000        3.6454279E-04
   2.880000        3.8705836E-04
   2.890000        4.1755787E-04
   2.900000        4.5232987E-04
   2.910000        4.8711992E-04
   2.920000        5.1744794E-04
   2.930000        5.3892331E-04
   2.940000        5.4754142E-04
   2.950000        5.3992460E-04
   2.960000        5.1351415E-04
   2.970000        4.6668999E-04
   2.980000        3.9882222E-04
   2.990000        3.1025332E-04
   3.000000        2.0222206E-04
   3.010000        7.6735676E-05
   3.020000       -6.3590087E-05
   3.030000       -2.1571296E-04
   3.040000       -3.7635371E-04
   3.050000       -5.4217339E-04
   3.060000       -7.0994266E-04
   3.070000       -8.7667926E-04
   3.080000       -1.0397624E-03
   3.090000       -1.1970141E-03
   3.100000       -1.3467463E-03
   3.110000       -1.4877733E-03
   3.120000       -1.6193929E-03
   3.130000       -1.7413379E-03
   3.140000       -1.8537013E-03
   3.150000       -1.9568435E-03
   3.160000       -2.0512983E-03
   3.170000       -2.1376887E-03
   3.180000       -2.2166444E-03
   3.190000       -2.2887574E-03
   3.200000       -2.3545853E-03
   3.210000       -2.4146496E-03
   3.220000       -2.4695052E-03
   3.230000       -2.5197810E-03
   3.240000       -2.5662770E-03
   3.250000       -2.6100173E-03
   3.260000       -2.6522952E-03
   3.270000       -2.6946978E-03
   3.280000       -2.7390639E-03
   3.290000       -2.7874401E-03
   3.300000       -2.8419411E-03
   3.310000       -2.9046237E-03
   3.320000       -2.9772902E-03
   3.330000       -3.0613504E-03
   3.340000       -3.1576254E-03
   3.350000       -3.2662272E-03
   3.360000       -3.3864737E-03
   3.370000       -3.5169036E-03
   3.380000       -3.6553000E-03
   3.390000       -3.7987996E-03
   3.400000       -3.9440622E-03
   3.410000       -4.0874649E-03
   3.420000       -4.2252704E-03
   3.430000       -4.3538655E-03
   3.440000       -4.4699125E-03
   3.450000       -4.5704986E-03
   3.460000       -4.6533016E-03
   3.470000       -4.7166753E-03
   3.480000       -4.7597275E-03
   3.490000       -4.7823028E-03
   3.500000       -4.7849966E-03
   3.510000       -4.7690943E-03
   3.520000       -4.7364421E-03
   3.530000       -4.6892744E-03
   3.540000       -4.6300916E-03
   3.550000       -4.5614243E-03
   3.560000       -4.4857166E-03
   3.570000       -4.4051553E-03
   3.580000       -4.3216157E-03
   3.590000       -4.2365487E-03
   3.600000       -4.1510519E-03
   3.610000       -4.0658670E-03
   3.620000       -3.9814189E-03
   3.630000       -3.8978977E-03
   3.640000       -3.8153727E-03
   3.650000       -3.7338203E-03
   3.660000       -3.6532481E-03
   3.670000       -3.5737248E-03
   3.680000       -3.4955086E-03
   3.690000       -3.4190440E-03
   3.700000       -3.3450383E-03
   3.710000       -3.2744862E-03
   3.720000       -3.2086081E-03
   3.730000       -3.1488631E-03
   3.740000       -3.0968583E-03
   3.750000       -3.0542810E-03
   3.760000       -3.0227345E-03
   3.770000       -3.0036897E-03
   3.780000       -2.9982636E-03
   3.790000       -3.0071854E-03
   3.800000       -3.0306876E-03
   3.810000       -3.0684201E-03
   3.820000       -3.1194596E-03
   3.830000       -3.1823285E-03
   3.840000       -3.2550613E-03
   3.850000       -3.3353295E-03
   3.860000       -3.4205487E-03
   3.870000       -3.5080707E-03
   3.880000       -3.5952888E-03
   3.890000       -3.6797749E-03
   3.900000       -3.7593665E-03
   3.910000       -3.8322213E-03
   3.920000       -3.8968262E-03
   3.930000       -3.9519775E-03
   3.940000       -3.9966865E-03
   3.950000       -4.0301671E-03
   3.960000       -4.0517082E-03
   3.970000       -4.0605012E-03
   3.980000       -4.0556714E-03
   3.990000       -4.0360568E-03
   4.000000       -4.0002433E-03
   4.010000       -3.9464599E-03
   4.020000       -3.8726858E-03
   4.030000       -3.7766064E-03
   4.040000       -3.6557673E-03
   4.050000       -3.5076796E-03
   4.060000       -3.3299490E-03
   4.070000       -3.1204780E-03
   4.080000       -2.8775837E-03
   4.090000       -2.6001718E-03
   4.100000       -2.2878998E-03
   4.110000       -1.9412580E-03
   4.120000       -1.5616374E-03
   4.130000       -1.1514166E-03
   4.140000       -7.1386149E-04
   4.150000       -2.5308167E-04
   4.160000        2.2615211E-04
   4.170000        7.1856380E-04
   4.180000        1.2185998E-03
   4.190000        1.7206110E-03
   4.200000        2.2190122E-03
   4.210000        2.7083992E-03
   4.220000        3.1836103E-03
   4.230000        3.6397520E-03
   4.240000        4.0722042E-03
   4.250000        4.4766325E-03
   4.260000        4.8490120E-03
   4.270000        5.1856572E-03
   4.280000        5.4833149E-03
   4.290000        5.7391762E-03
   4.300000        5.9509478E-03
   4.310000        6.1168019E-03
   4.320000        6.2353248E-03
   4.330000        6.3054208E-03
   4.340000        6.3261455E-03
   4.350000        6.2965788E-03
   4.360000        6.2156757E-03
   4.370000        6.0821832E-03
   4.380000        5.8945804E-03
   4.390000        5.6511164E-03
   4.400000        5.3498186E-03
   4.410000        4.9886080E-03
   4.420000        4.5654108E-03
   4.430000        4.0783379E-03
   4.440000        3.5258010E-03
   4.450000        2.9067821E-03
   4.460000        2.2208779E-03
   4.470000        1.4685371E-03
   4.480000        6.5106701E-04
   4.490000       -2.2926039E-04
   4.500000       -1.1693594E-03
   4.510000       -2.1654153E-03
   4.520000       -3.2130349E-03
   4.530000       -4.3074917E-03
   4.540000       -5.4438687E-03
   4.550000       -6.6172485E-03
   4.560000       -7.8227893E-03
   4.570000       -9.0558650E-03
   4.580000       -1.0312022E-02
   4.590000       -1.1587016E-02
   4.600000       -1.2876801E-02
   4.610000       -1.4177430E-02
   4.620000       -1.5485051E-02
   4.630000       -1.6795849E-02
   4.640000       -1.8105973E-02
   4.650000       -1.9411387E-02
   4.660000       -2.0707836E-02
   4.670000       -2.1990720E-02
   4.680000       -2.3255112E-02
   4.690000       -2.4495790E-02
   4.700000       -2.5707332E-02
   4.710000       -2.6884316E-02
   4.720000       -2.8021507E-02
   4.730000       -2.9114079E-02
   4.740000       -3.0157842E-02
   4.750000       -3.1149384E-02
   4.760000       -3.2086164E-02
   4.770000       -3.2966539E-02
   4.780000       -3.3789802E-02
   4.790000       -3.4556091E-02
   4.800000       -3.5266239E-02
   4.810000       -3.5921767E-02
   4.820000       -3.6524668E-02
   4.830000       -3.7077319E-02
   4.840000       -3.7582222E-02
   4.850000       -3.8041957E-02
   4.860000       -3.8458891E-02
   4.870000       -3.8835019E-02
   4.880000       -3.9171908E-02
   4.890000       -3.9470516E-02
   4.900000       -3.9731275E-02
   4.910000       -3.9954163E-02
   4.920000       -4.0138710E-02
   4.930000       -4.0284198E-02
   4.940000       -4.0389806E-02
   4.950000       -4.0454708E-02
   4.960000       -4.0478297E-02
   4.970000       -4.0460087E-02
   4.980000       -4.0399730E-02
   4.990000       -4.0297166E-02
   5.000000       -4.0152345E-02
   5.010000       -3.9965346E-02
   5.020000       -3.9736245E-02
   5.030000       -3.9465040E-02
   5.040000       -3.9151475E-02
   5.050000       -3.8795296E-02
   5.060000       -3.8395703E-02
   5.070000       -3.7951909E-02
   5.080000       -3.7462577E-02
   5.090000       -3.6926251E-02
   5.100000       -3.6341164E-02
   5.110000       -3.5705555E-02
   5.120000       -3.5017692E-02
   5.130000       -3.4276020E-02
   5.140000       -3.3479176E-02
   5.150000       -3.2626521E-02
   5.160000       -3.1717807E-02
   5.170000       -3.0753404E-02
   5.180000       -2.9734131E-02
   5.190000       -2.8661449E-02
   5.200000       -2.7537026E-02
   5.210000       -2.6362779E-02
   5.220000       -2.5140990E-02
   5.230000       -2.3873966E-02
   5.240000       -2.2563836E-02
   5.250000       -2.1213187E-02
   5.260000       -1.9824417E-02
   5.270000       -1.8400170E-02
   5.280000       -1.6943032E-02
   5.290000       -1.5455678E-02
   5.300000       -1.3941178E-02
   5.310000       -1.2402298E-02
   5.320000       -1.0842139E-02
   5.330000       -9.2637399E-03
   5.340000       -7.6703853E-03
   5.350000       -6.0653575E-03
   5.360000       -4.4520306E-03
   5.370000       -2.8338400E-03
   5.380000       -1.2144030E-03
   5.390000        4.0296692E-04
   5.400000        2.0149867E-03
   5.410000        3.6183731E-03
   5.420000        5.2101170E-03
   5.430000        6.7874207E-03
   5.440000        8.3474889E-03
   5.450000        9.8875239E-03
   5.460000        1.1404457E-02
   5.470000        1.2895306E-02
   5.480000        1.4356821E-02
   5.490000        1.5785718E-02
   5.500000        1.7178442E-02
   5.510000        1.8531796E-02
   5.520000        1.9842869E-02
   5.530000        2.1108463E-02
   5.540000        2.2326119E-02
   5.550000        2.3493798E-02
   5.560000        2.4609556E-02
   5.570000        2.5671784E-02
   5.580000        2.6679292E-02
   5.590000        2.7631169E-02
   5.600000        2.8526811E-02
   5.610000        2.9366124E-02
   5.620000        3.0149410E-02
   5.630000        3.0877249E-02
   5.640000        3.1550523E-02
   5.650000        3.2170385E-02
   5.660000        3.2737661E-02
   5.670000        3.3253282E-02
   5.680000        3.3717871E-02
   5.690000        3.4131750E-02
   5.700000        3.4495138E-02
   5.710000        3.4808151E-02
   5.720000        3.5071164E-02
   5.730000        3.5284653E-02
   5.740000        3.5449445E-02
   5.750000        3.5566863E-02
   5.760000        3.5638452E-02
   5.770000        3.5666145E-02
   5.780000        3.5652097E-02
   5.790000        3.5598747E-02
   5.800000        3.5508618E-02
   5.810000        3.5384391E-02
   5.820000        3.5228886E-02
   5.830000        3.5044897E-02
   5.840000        3.4835208E-02
   5.850000        3.4602351E-02
   5.860000        3.4348551E-02
   5.870000        3.4075595E-02
   5.880000        3.3784747E-02
   5.890000        3.3476848E-02
   5.900000        3.3152360E-02
   5.910000        3.2811571E-02
   5.920000        3.2454766E-02
   5.930000        3.2082297E-02
   5.940000        3.1694785E-02
   5.950000        3.1293105E-02
   5.960000        3.0878328E-02
   5.970000        3.0451741E-02
   5.980000        3.0014804E-02
   5.990000        2.9569101E-02
   6.000000        2.9116396E-02
   6.010000        2.8658642E-02
   6.020000        2.8197963E-02
   6.030000        2.7736677E-02
   6.040000        2.7277173E-02
   6.050000        2.6821826E-02
   6.060000        2.6372807E-02
   6.070000        2.5932010E-02
   6.080000        2.5500922E-02
   6.090000        2.5080601E-02
   6.100000        2.4671692E-02
   6.110000        2.4274485E-02
   6.120000        2.3889005E-02
   6.130000        2.3515025E-02
   6.140000        2.3152169E-02
   6.150000        2.2799861E-02
   6.160000        2.2457382E-02
   6.170000        2.2123752E-02
   6.180000        2.1797962E-02
   6.190000        2.1478895E-02
   6.200000        2.1165431E-02
   6.210000        2.0856563E-02
   6.220000        2.0551465E-02
   6.230000        2.0249482E-02
   6.240000        1.9950077E-02
   6.250000        1.9652754E-02
   6.260000        1.9356996E-02
   6.270000        1.9062143E-02
   6.280000        1.8767342E-02
   6.290000        1.8471455E-02
   6.300000        1.8173195E-02
   6.310000        1.7871125E-02
   6.320000        1.7563790E-02
   6.330000        1.7249741E-02
   6.340000        1.6927697E-02
   6.350000        1.6596455E-02
   6.360000        1.6255107E-02
   6.370000        1.5902860E-02
   6.380000        1.5539275E-02
   6.390000        1.5163880E-02
   6.400000        1.4776659E-02
   6.410000        1.4377538E-02
   6.420000        1.3966638E-02
   6.430000        1.3544200E-02
   6.440000        1.3110500E-02
   6.450000        1.2665841E-02
   6.460000        1.2210679E-02
   6.470000        1.1745379E-02
   6.480000        1.1270459E-02
   6.490000        1.0786403E-02
   6.500000        1.0293744E-02
   6.510000        9.7928774E-03
   6.520000        9.2841685E-03
   6.530000        8.7677678E-03
   6.540000        8.2436008E-03
   6.550000        7.7112871E-03
   6.560000        7.1702786E-03
   6.570000        6.6198017E-03
   6.580000        6.0587912E-03
   6.590000        5.4861074E-03
   6.600000        4.9004741E-03
   6.610000        4.3007354E-03
   6.620000        3.6856455E-03
   6.630000        3.0540186E-03
   6.640000        2.4049580E-03
   6.650000        1.7376732E-03
   6.660000        1.0518604E-03
   6.670000        3.4733705E-04
   6.680000       -3.7547117E-04
   6.690000       -1.1158499E-03
   6.700000       -1.8727505E-03
   6.710000       -2.6446832E-03
   6.720000       -3.4300219E-03
   6.730000       -4.2268513E-03
   6.740000       -5.0331652E-03
   6.750000       -5.8468962E-03
   6.760000       -6.6659930E-03
   6.770000       -7.4884938E-03
   6.780000       -8.3124693E-03
   6.790000       -9.1361720E-03
   6.800000       -9.9578826E-03
   6.810000       -1.0776006E-02
   6.820000       -1.1588992E-02
   6.830000       -1.2395124E-02
   6.840000       -1.3192668E-02
   6.850000       -1.3979830E-02
   6.860000       -1.4754666E-02
   6.870000       -1.5515169E-02
   6.880000       -1.6259363E-02
   6.890000       -1.6985407E-02
   6.900000       -1.7691514E-02
   6.910000       -1.8375896E-02
   6.920000       -1.9036857E-02
   6.930000       -1.9672666E-02
   6.940000       -2.0281600E-02
   6.950000       -2.0861806E-02
   6.960000       -2.1411555E-02
   6.970000       -2.1929095E-02
   6.980000       -2.2413060E-02
   6.990000       -2.2862218E-02
   7.000000       -2.3275753E-02
   7.010000       -2.3653135E-02
   7.020000       -2.3994042E-02
   7.030000       -2.4298320E-02
   7.040000       -2.4565822E-02
   7.050000       -2.4796402E-02
   7.060000       -2.4989847E-02
   7.070000       -2.5145913E-02
   7.080000       -2.5264416E-02
   7.090000       -2.5345255E-02
   7.100000       -2.5388375E-02
   7.110000       -2.5393803E-02
   7.120000       -2.5361547E-02
   7.130000       -2.5291525E-02
   7.140000       -2.5183488E-02
   7.150000       -2.5037047E-02
   7.160000       -2.4851734E-02
   7.170000       -2.4627127E-02
   7.180000       -2.4362961E-02
   7.190000       -2.4059311E-02
   7.200000       -2.3716634E-02
   7.210000       -2.3335816E-02
   7.220000       -2.2918142E-02
   7.230000       -2.2465223E-02
   7.240000       -2.1978900E-02
   7.250000       -2.1461211E-02
   7.260000       -2.0914318E-02
   7.270000       -2.0340484E-02
   7.280000       -1.9742096E-02
   7.290000       -1.9121632E-02
   7.300000       -1.8481586E-02
   7.310000       -1.7824348E-02
   7.320000       -1.7152162E-02
   7.330000       -1.6466960E-02
   7.340000       -1.5770325E-02
   7.350000       -1.5063472E-02
   7.360000       -1.4347360E-02
   7.370000       -1.3622796E-02
   7.380000       -1.2890602E-02
   7.390000       -1.2151689E-02
   7.400000       -1.1407208E-02
   7.410000       -1.0658568E-02
   7.420000       -9.9072531E-03
   7.430000       -9.1549121E-03
   7.440000       -8.4032258E-03
   7.450000       -7.6537421E-03
   7.460000       -6.9080889E-03
   7.470000       -6.1678397E-03
   7.480000       -5.4348023E-03
   7.490000       -4.7109602E-03
   7.500000       -3.9985711E-03
   7.510000       -3.3002340E-03
   7.520000       -2.6187152E-03
   7.530000       -1.9569020E-03
   7.540000       -1.3175994E-03
   7.550000       -7.0339860E-04
   7.560000       -1.1665552E-04
   7.570000        4.4064628E-04
   7.580000        9.6680445E-04
   7.590000        1.4603219E-03
   7.600000        1.9199142E-03
   7.610000        2.3444339E-03
   7.620000        2.7328853E-03
   7.630000        3.0843948E-03
   7.640000        3.3982929E-03
   7.650000        3.6741702E-03
   7.660000        3.9117597E-03
   7.670000        4.1110241E-03
   7.680000        4.2719855E-03
   7.690000        4.3946602E-03
   7.700000        4.4789943E-03
   7.710000        4.5248359E-03
   7.720000        4.5319418E-03
   7.730000        4.5000720E-03
   7.740000        4.4291248E-03
   7.750000        4.3192105E-03
   7.760000        4.1708034E-03
   7.770000        3.9847586E-03
   7.780000        3.7623609E-03
   7.790000        3.5052591E-03
   7.800000        3.2154480E-03
   7.810000        2.8952265E-03
   7.820000        2.5471030E-03
   7.830000        2.1737863E-03
   7.840000        1.7781684E-03
   7.850000        1.3632585E-03
   7.860000        9.3213463E-04
   7.870000        4.8782150E-04
   7.880000        3.3206925E-05
   7.890000       -4.2908711E-04
   7.900000       -8.9681114E-04
   7.910000       -1.3681450E-03
   7.920000       -1.8416904E-03
   7.930000       -2.3164100E-03
   7.940000       -2.7916199E-03
   7.950000       -3.2667574E-03
   7.960000       -3.7413819E-03
   7.970000       -4.2150258E-03
   7.980000       -4.6871882E-03
   7.990000       -5.1572951E-03
   8.000000       -5.6246123E-03
   8.010000       -6.0883691E-03
   8.020000       -6.5476466E-03
   8.030000       -7.0013492E-03
   8.040000       -7.4481852E-03
   8.050000       -7.8867180E-03
   8.060000       -8.3152624E-03
   8.070000       -8.7320153E-03
   8.080000       -9.1351075E-03
   8.090000       -9.5226998E-03
   8.100000       -9.8930951E-03
   8.110000       -1.0244764E-02
   8.120000       -1.0576431E-02
   8.130000       -1.0887031E-02
   8.140000       -1.1175614E-02
   8.150000       -1.1441315E-02
   8.160000       -1.1683274E-02
   8.170000       -1.1900573E-02
   8.180000       -1.2092237E-02
   8.190000       -1.2257220E-02
   8.200000       -1.2394532E-02
   8.210000       -1.2503184E-02
   8.220000       -1.2582343E-02
   8.230000       -1.2631224E-02
   8.240000       -1.2649045E-02
   8.250000       -1.2635077E-02
   8.260000       -1.2588491E-02
   8.270000       -1.2508413E-02
   8.280000       -1.2394030E-02
   8.290000       -1.2244483E-02
   8.300000       -1.2059156E-02
   8.310000       -1.1837656E-02
   8.320000       -1.1580056E-02
   8.330000       -1.1286570E-02
   8.340000       -1.0957776E-02
   8.350000       -1.0594373E-02
   8.360000       -1.0197030E-02
   8.370000       -9.7665666E-03
   8.380000       -9.3035325E-03
   8.390000       -8.8086240E-03
   8.400000       -8.2824500E-03
   8.410000       -7.7258940E-03
   8.420000       -7.1399868E-03
   8.430000       -6.5259757E-03
   8.440000       -5.8852900E-03
   8.450000       -5.2195098E-03
   8.460000       -4.5302468E-03
   8.470000       -3.8190661E-03
   8.480000       -3.0875942E-03
   8.490000       -2.3374574E-03
   8.500000       -1.5705405E-03
   8.510000       -7.8888010E-04
   8.520000        5.1982001E-06
   8.530000        8.0924731E-04
   8.540000        1.6206986E-03
   8.550000        2.4370288E-03
   8.560000        3.2560949E-03
   8.570000        4.0759668E-03
   8.580000        4.8949872E-03
   8.590000        5.7116668E-03
   8.600000        6.5246383E-03
   8.610000        7.3323958E-03
   8.620000        8.1332531E-03
   8.630000        8.9252340E-03
   8.640000        9.7062262E-03
   8.650000        1.0474024E-02
   8.660000        1.1226638E-02
   8.670000        1.1961986E-02
   8.680000        1.2678259E-02
   8.690000        1.3373693E-02
   8.700000        1.4046480E-02
   8.710000        1.4694811E-02
   8.720000        1.5316771E-02
   8.730000        1.5910354E-02
   8.740000        1.6473811E-02
   8.750000        1.7005578E-02
   8.760000        1.7504560E-02
   8.770000        1.7970117E-02
   8.780000        1.8401979E-02
   8.790000        1.8800205E-02
   8.800000        1.9165033E-02
   8.810000        1.9496504E-02
   8.820000        1.9794580E-02
   8.830000        2.0059057E-02
   8.840000        2.0289617E-02
   8.850000        2.0486062E-02
   8.860000        2.0648407E-02
   8.870000        2.0777002E-02
   8.880000        2.0872530E-02
   8.890000        2.0935964E-02
   8.900000        2.0968460E-02
   8.910000        2.0971265E-02
   8.920000        2.0945601E-02
   8.930000        2.0892723E-02
   8.940000        2.0813951E-02
   8.950000        2.0710794E-02
   8.960000        2.0584980E-02
   8.970000        2.0438572E-02
   8.980000        2.0273779E-02