 -0.1000000        0.0000000E+00
 -9.0000004E-02    0.0000000E+00
 -7.9999998E-02    0.0000000E+00
 -7.0000000E-02    0.0000000E+00
 -5.9999999E-02    0.0000000E+00
 -5.0000001E-02    0.0000000E+00
 -3.9999999E-02    0.0000000E+00
 -2.9999999E-02    0.0000000E+00
 -2.0000000E-02    0.0000000E+00
 -9.9999998E-03   -1.7485704E-33
  0.0000000E+00   -3.6930485E-32
  9.9999998E-03   -4.2094354E-31
  2.0000000E-02   -3.4459408E-30
  2.9999999E-02   -2.2540642E-29
  3.9999999E-02   -1.2343995E-28
  5.0000001E-02   -5.7755365E-28
  5.9999999E-02   -2.3280198E-27
  7.0000000E-02   -8.1074609E-27
  7.9999998E-02   -2.4403059E-26
  9.0000004E-02   -6.3480173E-26
  0.1000000       -1.4324621E-25
  0.1100000       -2.8589140E-25
  0.1200000       -5.3658748E-25
  0.1300000       -1.0658837E-24
  0.1400000       -2.4097963E-24
  0.1500000       -5.5341101E-24
  0.1600000       -1.0006310E-23
  0.1700000       -5.3094307E-24
  0.1800000        5.4424751E-23
  0.1900000        3.0401493E-22
  0.2000000        1.0489452E-21
  0.2100000        2.8313780E-21
  0.2200000        6.3491964E-21
  0.2300000        1.1987080E-20
  0.2400000        1.8681431E-20
  0.2500000        2.2063141E-20
  0.2600000        1.2526204E-20
  0.2700000       -2.4876384E-20
  0.2800000       -1.0540973E-19
  0.2900000       -2.3083633E-19
  0.3000000       -3.6567905E-19
  0.3100000       -4.0974006E-19
  0.3200000       -1.8508003E-19
  0.3300000        5.3168869E-19
  0.3400000        1.8973677E-18
  0.3500000        3.7952899E-18
  0.3600000        5.5723419E-18
  0.3700000        5.8452511E-18
  0.3800000        2.5929079E-18
  0.3900000       -6.2114659E-18
  0.4000000       -2.1272665E-17
  0.4100000       -4.0093646E-17
  0.4200000       -5.5180620E-17
  0.4300000       -5.3526212E-17
  0.4400000       -1.8891368E-17
  0.4500000        6.1879310E-17
  0.4600000        1.8852513E-16
  0.4700000        3.3531488E-16
  0.4800000        4.4239671E-16
  0.4900000        4.1798582E-16
  0.5000000        1.5895565E-16
  0.5100000       -4.0625490E-16
  0.5200000       -1.2567865E-15
  0.5300000       -2.2169686E-15
  0.5400000       -2.9212896E-15
  0.5500000       -2.8429833E-15
  0.5600000       -1.4178812E-15
  0.5700000        1.7268650E-15
  0.5800000        6.4704080E-15
  0.5900000        1.1906609E-14
  0.6000000        1.6197867E-14
  0.6100000        1.6732726E-14
  0.6200000        1.0716265E-14
  0.6300000       -3.7796762E-15
  0.6400000       -2.6457377E-14
  0.6500000       -5.3496321E-14
  0.6600000       -7.6892682E-14
  0.6700000       -8.5095803E-14
  0.6800000       -6.5463660E-14
  0.6900000       -8.6303221E-15
  0.7000000        8.5852583E-14
  0.7100000        2.0412402E-13
  0.7200000        3.1516451E-13
  0.7300000        3.7306833E-13
  0.7400000        3.2639264E-13
  0.7500000        1.3477602E-13
  0.7600000       -2.0976272E-13
  0.7700000       -6.6266740E-13
  0.7800000       -1.1162402E-12
  0.7900000       -1.4075856E-12
  0.8000000       -1.3513351E-12
  0.8100000       -7.9681167E-13
  0.8200000        3.0030665E-13
  0.8300000        1.8119807E-12
  0.8400000        3.4048068E-12
  0.8500000        4.5671756E-12
  0.8600000        4.7129687E-12
  0.8700000        3.3563790E-12
  0.8800000        3.2405990E-13
  0.8900000       -4.0572780E-12
  0.9000000       -8.8750405E-12
  0.9100000       -1.2716876E-11
  0.9200000       -1.3962715E-11
  0.9300000       -1.1255900E-11
  0.9400000       -4.0514705E-12
  0.9500000        6.9216828E-12
  0.9600000        1.9473711E-11
  0.9700000        3.0195804E-11
  0.9800000        3.5184963E-11
  0.9900000        3.1153850E-11
   1.000000        1.6665993E-11
   1.010000       -6.8790871E-12
   1.020000       -3.4909457E-11
   1.030000       -6.0276110E-11
   1.040000       -7.4825458E-11
   1.050000       -7.1678545E-11
   1.060000       -4.7643934E-11
   1.070000       -5.0174235E-12
   1.080000        4.7946515E-11
   1.090000        9.8319755E-11
   1.100000        1.3148574E-10
   1.110000        1.3520043E-10
   1.120000        1.0363781E-10
   1.130000        4.0143919E-11
   1.140000       -4.2384065E-11
   1.150000       -1.2397781E-10
   1.160000       -1.8256902E-10
   1.170000       -2.0023246E-10
   1.180000       -1.6890202E-10
   1.190000       -9.3681493E-11
   1.200000        7.5577105E-12
   1.210000        1.0856509E-10
   1.220000        1.8207719E-10
   1.230000        2.0807074E-10
   1.240000        1.8031196E-10
   1.250000        1.0892437E-10
   1.260000        1.7787593E-11
   1.270000       -6.2777755E-11
   1.280000       -1.0597599E-10
   1.290000       -9.8004375E-11
   1.300000       -4.3779806E-11
   1.310000        3.3352706E-11
   1.320000        9.8352007E-11
   1.330000        1.1595521E-10
   1.340000        6.3435028E-11
   1.350000       -5.9518127E-11
   1.360000       -2.2733329E-10
   1.370000       -3.9315992E-10
   1.380000       -5.0077548E-10
   1.390000       -5.0053189E-10
   1.400000       -3.6473033E-10
   1.410000       -9.7767010E-11
   1.420000        2.6205904E-10
   1.430000        6.4967720E-10
   1.440000        9.8719832E-10
   1.450000        1.2006034E-09
   1.460000        1.2345505E-09
   1.470000        1.0617199E-09
   1.480000        6.8533179E-10
   1.490000        1.3598964E-10
   1.500000       -5.3416127E-10
   1.510000       -1.2566059E-09
   1.520000       -1.9489212E-09
   1.530000       -2.5150346E-09
   1.540000       -2.8463818E-09
   1.550000       -2.8285689E-09
   1.560000       -2.3577571E-09
   1.570000       -1.3676181E-09
   1.580000        1.3666422E-10
   1.590000        2.0459463E-09
   1.600000        4.1285682E-09
   1.610000        6.0375758E-09
   1.620000        7.3516282E-09
   1.630000        7.6495139E-09
   1.640000        6.6076753E-09
   1.650000        4.1006643E-09
   1.660000        2.7901534E-10
   1.670000       -4.4006496E-09
   1.680000       -9.2110959E-09
   1.690000       -1.3259474E-08
   1.700000       -1.5647892E-08
   1.710000       -1.5660776E-08
   1.720000       -1.2939295E-08
   1.730000       -7.6003275E-09
   1.740000       -2.6826438E-10
   1.750000        7.9967775E-09
   1.760000        1.5866096E-08
   1.770000        2.1975424E-08
   1.780000        2.5177529E-08
   1.790000        2.4761293E-08
   1.800000        2.0591173E-08
   1.810000        1.3138026E-08
   1.820000        3.3965515E-09
   1.830000       -7.2910962E-09
   1.840000       -1.7464638E-08
   1.850000       -2.5778382E-08
   1.860000       -3.1191217E-08
   1.870000       -3.3080781E-08
   1.880000       -3.1269359E-08
   1.890000       -2.5974941E-08
   1.900000       -1.7714163E-08
   1.910000       -7.1958404E-09
   1.920000        4.7630953E-09
   1.930000        1.7278142E-08
   1.940000        2.9393620E-08
   1.950000        4.0056189E-08
   1.960000        4.8096815E-08
   1.970000        5.2261619E-08
   1.980000        5.1318615E-08
   1.990000        4.4251433E-08
   2.000000        3.0520390E-08
   2.010000        1.0342101E-08
   2.020000       -1.5075626E-08
   2.030000       -4.3423420E-08
   2.040000       -7.1366863E-08
   2.050000       -9.4850698E-08
   2.060000       -1.0962326E-07
   2.070000       -1.1191967E-07
   2.080000       -9.9197841E-08
   2.090000       -7.0791472E-08
   2.100000       -2.8331572E-08
   2.110000        2.4178613E-08
   2.120000        8.0699124E-08
   2.130000        1.3388559E-07
   2.140000        1.7611410E-07
   2.150000        2.0063533E-07
   2.160000        2.0264780E-07
   2.170000        1.8009207E-07
   2.180000        1.3402250E-07
   2.190000        6.8485733E-08
   2.200000       -1.0047905E-08
   2.210000       -9.3569433E-08
   2.220000       -1.7354148E-07
   2.230000       -2.4183697E-07
   2.240000       -2.9143192E-07
   2.250000       -3.1677411E-07
   2.260000       -3.1382643E-07
   2.270000       -2.7986468E-07
   2.280000       -2.1316940E-07
   2.290000       -1.1273487E-07
   2.300000        2.1897634E-08
   2.310000        1.9065659E-07
   2.320000        3.9282557E-07
   2.330000        6.2687161E-07
   2.340000        8.9029726E-07
   2.350000        1.1795872E-06
   2.360000        1.4902757E-06
   2.370000        1.8170649E-06
   2.380000        2.1540043E-06
   2.390000        2.4946144E-06
   2.400000        2.8320489E-06
   2.410000        3.1591296E-06
   2.420000        3.4684576E-06
   2.430000        3.7526565E-06
   2.440000        4.0046807E-06
   2.450000        4.2182423E-06
   2.460000        4.3882060E-06
   2.470000        4.5108250E-06
   2.480000        4.5836582E-06
   2.490000        4.6050409E-06
   2.500000        4.5731817E-06
   2.510000        4.4849398E-06
   2.520000        4.3346740E-06
   2.530000        4.1134531E-06
   2.540000        3.8089297E-06
   2.550000        3.4060947E-06
   2.560000        2.8888735E-06
   2.570000        2.2424106E-06
   2.580000        1.4555707E-06
   2.590000        5.2314459E-07
   2.600000       -5.5262228E-07
   2.610000       -1.7615533E-06
   2.620000       -3.0862170E-06
   2.630000       -4.5035617E-06
   2.640000       -5.9871359E-06
   2.650000       -7.5096546E-06
   2.660000       -9.0450667E-06
   2.670000       -1.0570181E-05
   2.680000       -1.2065635E-05
   2.690000       -1.3515911E-05
   2.700000       -1.4909039E-05
   2.710000       -1.6235930E-05
   2.720000       -1.7489474E-05
   2.730000       -1.8663657E-05
   2.740000       -1.9752850E-05
   2.750000       -2.0750693E-05
   2.760000       -2.1649261E-05
   2.770000       -2.2438278E-05
   2.780000       -2.3104232E-05
   2.790000       -2.3629735E-05
   2.800000       -2.3993829E-05
   2.810000       -2.4172601E-05
   2.820000       -2.4140554E-05
   2.830000       -2.3872388E-05
   2.840000       -2.3345405E-05
   2.850000       -2.2541239E-05
   2.860000       -2.1447329E-05
   2.870000       -2.0057900E-05
   2.880000       -1.8373841E-05
   2.890000       -1.6402226E-05
   2.900000       -1.4155566E-05
   2.910000       -1.1650784E-05
   2.920000       -8.9084069E-06
   2.930000       -5.9518702E-06
   2.940000       -2.8067673E-06
   2.950000        5.0019287E-07
   2.960000        3.9427273E-06
   2.970000        7.4969780E-06
   2.980000        1.1143821E-05
   2.990000        1.4870832E-05
   3.000000        1.8673722E-05
   3.010000        2.2556118E-05
   3.020000        2.6527738E-05
   3.030000        3.0600713E-05
   3.040000        3.4784887E-05
   3.050000        3.9081926E-05
   3.060000        4.3480646E-05
   3.070000        4.7953225E-05
   3.080000        5.2453273E-05
   3.090000        5.6917066E-05
   3.100000        6.1266350E-05
   3.110000        6.5412882E-05
   3.120000        6.9264483E-05
   3.130000        7.2731302E-05
   3.140000        7.5730648E-05
   3.150000        7.8193218E-05
   3.160000        8.0066697E-05
   3.170000        8.1317768E-05
   3.180000        8.1933402E-05
   3.190000        8.1918886E-05
   3.200000        8.1293962E-05
   3.210000        8.0086793E-05
   3.220000        7.8327001E-05
   3.230000        7.6036711E-05
   3.240000        7.3224146E-05
   3.250000        6.9879134E-05
   3.260000        6.5973480E-05
   3.270000        6.1464671E-05
   3.280000        5.6304532E-05
   3.290000        5.0449366E-05
   3.300000        4.3869553E-05
   3.310000        3.6556514E-05
   3.320000        2.8523940E-05
   3.330000        1.9803329E-05
   3.340000        1.0434214E-05
   3.350000        4.5164086E-07
   3.360000       -1.0126032E-05
   3.370000       -2.1305292E-05
   3.380000       -3.3119337E-05
   3.390000       -4.5622459E-05
   3.400000       -5.8879305E-05
   3.410000       -7.2949362E-05
   3.420000       -8.7873348E-05
   3.430000       -1.0366245E-04
   3.440000       -1.2029673E-04
   3.450000       -1.3772729E-04
   3.460000       -1.5588771E-04
   3.470000       -1.7470660E-04
   3.480000       -1.9412070E-04
   3.490000       -2.1408359E-04
   3.500000       -2.3457046E-04
   3.510000       -2.5557211E-04
   3.520000       -2.7708904E-04
   3.530000       -2.9912131E-04
   3.540000       -3.2165568E-04
   3.550000       -3.4466575E-04
   3.560000       -3.6810708E-04
   3.570000       -3.9191908E-04
   3.580000       -4.1603780E-04
   3.590000       -4.4039835E-04
   3.600000       -4.6494693E-04
   3.610000       -4.8964540E-04
   3.620000       -5.1446736E-04
   3.630000       -5.3940440E-04
   3.640000       -5.6445244E-04
   3.650000       -5.8961386E-04
   3.660000       -6.1489048E-04
   3.670000       -6.4027443E-04
   3.680000       -6.6575414E-04
   3.690000       -6.9130957E-04
   3.700000       -7.1691681E-04
   3.710000       -7.4254681E-04
   3.720000       -7.6817302E-04
   3.730000       -7.9377228E-04
   3.740000       -8.1932620E-04
   3.750000       -8.4482273E-04
   3.760000       -8.7025337E-04
   3.770000       -8.9561765E-04
   3.780000       -9.2091551E-04
   3.790000       -9.4614940E-04
   3.800000       -9.7131752E-04
   3.810000       -9.9641865E-04
   3.820000       -1.0214412E-03
   3.830000       -1.0463734E-03
   3.840000       -1.0711959E-03
   3.850000       -1.0958913E-03
   3.860000       -1.1204395E-03
   3.870000       -1.1448156E-03
   3.880000       -1.1689924E-03
   3.890000       -1.1929374E-03
   3.900000       -1.2166057E-03
   3.910000       -1.2399380E-03
   3.920000       -1.2628608E-03
   3.930000       -1.2852896E-03
   3.940000       -1.3071336E-03
   3.950000       -1.3283095E-03
   3.960000       -1.3487523E-03
   3.970000       -1.3684257E-03
   3.980000       -1.3873331E-03
   3.990000       -1.4055126E-03
   4.000000       -1.4230387E-03
   4.010000       -1.4400018E-03
   4.020000       -1.4564876E-03
   4.030000       -1.4725643E-03
   4.040000       -1.4882585E-03
   4.050000       -1.5035528E-03
   4.060000       -1.5183802E-03
   4.070000       -1.5326419E-03
   4.080000       -1.5462225E-03
   4.090000       -1.5590112E-03
   4.100000       -1.5709269E-03
   4.110000       -1.5819294E-03
   4.120000       -1.5920259E-03
   4.130000       -1.6012645E-03
   4.140000       -1.6097210E-03
   4.150000       -1.6174824E-03
   4.160000       -1.6246260E-03
   4.170000       -1.6312042E-03
   4.180000       -1.6372374E-03
   4.190000       -1.6427090E-03
   4.200000       -1.6475702E-03
   4.210000       -1.6517462E-03
   4.220000       -1.6551494E-03
   4.230000       -1.6576872E-03
   4.240000       -1.6592733E-03
   4.250000       -1.6598374E-03
   4.260000       -1.6593318E-03
   4.270000       -1.6577400E-03
   4.280000       -1.6550774E-03
   4.290000       -1.6513973E-03
   4.300000       -1.6467831E-03
   4.310000       -1.6413436E-03
   4.320000       -1.6351999E-03
   4.330000       -1.6284722E-03
   4.340000       -1.6212685E-03
   4.350000       -1.6136719E-03
   4.360000       -1.6057414E-03
   4.370000       -1.5975136E-03
   4.380000       -1.5890111E-03
   4.390000       -1.5802557E-03
   4.400000       -1.5712844E-03
   4.410000       -1.5621535E-03
   4.420000       -1.5529491E-03
   4.430000       -1.5437772E-03
   4.440000       -1.5347663E-03
   4.450000       -1.5260490E-03
   4.460000       -1.5177629E-03
   4.470000       -1.5100330E-03
   4.480000       -1.5029758E-03
   4.490000       -1.4966991E-03
   4.500000       -1.4913032E-03
   4.510000       -1.4868827E-03
   4.520000       -1.4835306E-03
   4.530000       -1.4813389E-03
   4.540000       -1.4803914E-03
   4.550000       -1.4807546E-03
   4.560000       -1.4824831E-03
   4.570000       -1.4856010E-03
   4.580000       -1.4901076E-03
   4.590000       -1.4959726E-03
   4.600000       -1.5031444E-03
   4.610000       -1.5115486E-03
   4.620000       -1.5210868E-03
   4.630000       -1.5316613E-03
   4.640000       -1.5431691E-03
   4.650000       -1.5555102E-03
   4.660000       -1.5685845E-03
   4.670000       -1.5822991E-03
   4.680000       -1.5965723E-03
   4.690000       -1.6113224E-03
   4.700000       -1.6264743E-03
   4.710000       -1.6419606E-03
   4.720000       -1.6577120E-03
   4.730000       -1.6736847E-03
   4.740000       -1.6898370E-03
   4.750000       -1.7061535E-03
   4.760000       -1.7226238E-03
   4.770000       -1.7392503E-03
   4.780000       -1.7560322E-03
   4.790000       -1.7729730E-03
   4.800000       -1.7900314E-03
   4.810000       -1.8071366E-03
   4.820000       -1.8241750E-03
   4.830000       -1.8409684E-03
   4.840000       -1.8573031E-03
   4.850000       -1.8729329E-03
   4.860000       -1.8875946E-03
   4.870000       -1.9010395E-03
   4.880000       -1.9130403E-03
   4.890000       -1.9234206E-03
   4.900000       -1.9320472E-03
   4.910000       -1.9388375E-03
   4.920000       -1.9437480E-03
   4.930000       -1.9467878E-03
   4.940000       -1.9479477E-03
   4.950000       -1.9472456E-03
   4.960000       -1.9446599E-03
   4.970000       -1.9401580E-03
   4.980000       -1.9336717E-03
   4.990000       -1.9250963E-03
   5.000000       -1.9143209E-03
   5.010000       -1.9012247E-03
   5.020000       -1.8857070E-03
   5.030000       -1.8676834E-03
   5.040000       -1.8471119E-03
   5.050000       -1.8239830E-03
   5.060000       -1.7983331E-03
   5.070000       -1.7702266E-03
   5.080000       -1.7397479E-03
   5.090000       -1.7069947E-03
   5.100000       -1.6720702E-03
   5.110000       -1.6350810E-03
   5.120000       -1.5961349E-03
   5.130000       -1.5553335E-03
   5.140000       -1.5127651E-03
   5.150000       -1.4685115E-03
   5.160000       -1.4226445E-03
   5.170000       -1.3752049E-03
   5.180000       -1.3262199E-03
   5.190000       -1.2756935E-03
   5.200000       -1.2236147E-03
   5.210000       -1.1699668E-03
   5.220000       -1.1147402E-03
   5.230000       -1.0579372E-03
   5.240000       -9.9958375E-04
   5.250000       -9.3972863E-04
   5.260000       -8.7843934E-04
   5.270000       -8.1579923E-04
   5.280000       -7.5189373E-04
   5.290000       -6.8681792E-04
   5.300000       -6.2064541E-04
   5.310000       -5.5345916E-04
   5.320000       -4.8531167E-04
   5.330000       -4.1626452E-04
   5.340000       -3.4635860E-04
   5.350000       -2.7565850E-04
   5.360000       -2.0420416E-04
   5.370000       -1.3205917E-04
   5.380000       -5.9317619E-05
   5.390000        1.3911266E-05
   5.400000        8.7513487E-05
   5.410000        1.6133420E-04
   5.420000        2.3523565E-04
   5.430000        3.0903833E-04
   5.440000        3.8260350E-04
   5.450000        4.5579820E-04
   5.460000        5.2851409E-04
   5.470000        6.0067716E-04
   5.480000        6.7222456E-04
   5.490000        7.4311276E-04
   5.500000        8.1329414E-04
   5.510000        8.8271557E-04
   5.520000        9.5129729E-04
   5.530000        1.0189422E-03
   5.540000        1.0855802E-03
   5.550000        1.1510821E-03
   5.560000        1.2153339E-03
   5.570000        1.2782159E-03
   5.580000        1.3396005E-03
   5.590000        1.3993646E-03
   5.600000        1.4573903E-03
   5.610000        1.5135977E-03
   5.620000        1.5678768E-03
   5.630000        1.6201950E-03
   5.640000        1.6705280E-03
   5.650000        1.7188299E-03
   5.660000        1.7651386E-03
   5.670000        1.8094373E-03
   5.680000        1.8517449E-03
   5.690000        1.8920385E-03
   5.700000        1.9302461E-03
   5.710000        1.9662802E-03
   5.720000        2.0000229E-03
   5.730000        2.0313563E-03
   5.740000        2.0601135E-03
   5.750000        2.0861691E-03
   5.760000        2.1094282E-03
   5.770000        2.1298029E-03
   5.780000        2.1472138E-03
   5.790000        2.1616155E-03
   5.800000        2.1729921E-03
   5.810000        2.1813670E-03
   5.820000        2.1867401E-03
   5.830000        2.1891871E-03
   5.840000        2.1887235E-03
   5.850000        2.1854367E-03
   5.860000        2.1793987E-03
   5.870000        2.1706971E-03
   5.880000        2.1594116E-03
   5.890000        2.1456482E-03
   5.900000        2.1295142E-03
   5.910000        2.1111495E-03
   5.920000        2.0906874E-03
   5.930000        2.0682758E-03
   5.940000        2.0440745E-03
   5.950000        2.0182163E-03
   5.960000        1.9908347E-03
   5.970000        1.9620585E-03
   5.980000        1.9319789E-03
   5.990000        1.9007250E-03
   6.000000        1.8684224E-03
   6.010000        1.8351319E-03
   6.020000        1.8009997E-03
   6.030000        1.7660810E-03
   6.040000        1.7304878E-03
   6.050000        1.6943188E-03
   6.060000        1.6576312E-03
   6.070000        1.6204497E-03
   6.080000        1.5828387E-03
   6.090000        1.5448459E-03
   6.100000        1.5065282E-03
   6.110000        1.4679559E-03
   6.120000        1.4292506E-03
   6.130000        1.3905509E-03
   6.140000        1.3519919E-03
   6.150000        1.3137197E-03
   6.160000        1.2759035E-03
   6.170000        1.2386669E-03
   6.180000        1.2021237E-03
   6.190000        1.1663691E-03
   6.200000        1.1314465E-03
   6.210000        1.0973806E-03
   6.220000        1.0641330E-03
   6.230000        1.0316432E-03
   6.240000        9.9983288E-04
   6.250000        9.6862460E-04
   6.260000        9.3794172E-04
   6.270000        9.0775755E-04
   6.280000        8.7807974E-04
   6.290000        8.4897102E-04
   6.300000        8.2053099E-04
   6.310000        7.9288136E-04
   6.320000        7.6614128E-04
   6.330000        7.4040866E-04
   6.340000        7.1573339E-04
   6.350000        6.9210352E-04
   6.360000        6.6945975E-04
   6.370000        6.4768514E-04
   6.380000        6.2664103E-04
   6.390000        6.0618285E-04
   6.400000        5.8617094E-04
   6.410000        5.6649512E-04
   6.420000        5.4707995E-04
   6.430000        5.2788737E-04
   6.440000        5.0891185E-04
   6.450000        4.9017160E-04
   6.460000        4.7169667E-04
   6.470000        4.5351367E-04
   6.480000        4.3563155E-04
   6.490000        4.1803217E-04
   6.500000        4.0066254E-04
   6.510000        3.8344279E-04
   6.520000        3.6626318E-04
   6.530000        3.4900426E-04
   6.540000        3.3155293E-04
   6.550000        3.1381618E-04
   6.560000        2.9572172E-04
   6.570000        2.7724067E-04
   6.580000        2.5836632E-04
   6.590000        2.3911484E-04
   6.600000        2.1951186E-04
   6.610000        1.9957878E-04
   6.620000        1.7932936E-04
   6.630000        1.5875031E-04
   6.640000        1.3780789E-04
   6.650000        1.1645318E-04
   6.660000        9.4611612E-05
   6.670000        7.2208626E-05
   6.680000        4.9162511E-05
   6.690000        2.5396324E-05
   6.700000        8.7586636E-07
   6.710000       -2.4435911E-05
   6.720000       -5.0516210E-05
   6.730000       -7.7322278E-05
   6.740000       -1.0477527E-04
   6.750000       -1.3278305E-04
   6.760000       -1.6125440E-04
   6.770000       -1.9009814E-04
   6.780000       -2.1924208E-04
   6.790000       -2.4868335E-04
   6.800000       -2.7842860E-04
   6.810000       -3.0851015E-04
   6.820000       -3.3898590E-04
   6.830000       -3.6992910E-04
   6.840000       -4.0139569E-04
   6.850000       -4.3344178E-04
   6.860000       -4.6610148E-04
   6.870000       -4.9941387E-04
   6.880000       -5.3341308E-04
   6.890000       -5.6808768E-04
   6.900000       -6.0340547E-04
   6.910000       -6.3929887E-04
   6.920000       -6.7567860E-04
   6.930000       -7.1240799E-04
   6.940000       -7.4933498E-04
   6.950000       -7.8629050E-04
   6.960000       -8.2311110E-04
   6.970000       -8.5967325E-04
   6.980000       -8.9588779E-04
   6.990000       -9.3168434E-04
   7.000000       -9.6705335E-04
   7.010000       -1.0019987E-03
   7.020000       -1.0365148E-03
   7.030000       -1.0706089E-03
   7.040000       -1.1042642E-03
   7.050000       -1.1374464E-03
   7.060000       -1.1700719E-03
   7.070000       -1.2020572E-03
   7.080000       -1.2332882E-03
   7.090000       -1.2636548E-03
   7.100000       -1.2930144E-03
   7.110000       -1.3212624E-03
   7.120000       -1.3482984E-03
   7.130000       -1.3740482E-03
   7.140000       -1.3984735E-03
   7.150000       -1.4215520E-03
   7.160000       -1.4432815E-03
   7.170000       -1.4636886E-03
   7.180000       -1.4827790E-03
   7.190000       -1.5005567E-03
   7.200000       -1.5170062E-03
   7.210000       -1.5320764E-03
   7.220000       -1.5457122E-03
   7.230000       -1.5578091E-03
   7.240000       -1.5682928E-03
   7.250000       -1.5770687E-03
   7.260000       -1.5840470E-03
   7.270000       -1.5891540E-03
   7.280000       -1.5923175E-03
   7.290000       -1.5934907E-03
   7.300000       -1.5926386E-03
   7.310000       -1.5897449E-03
   7.320000       -1.5848222E-03
   7.330000       -1.5778723E-03
   7.340000       -1.5689331E-03
   7.350000       -1.5580275E-03
   7.360000       -1.5452002E-03
   7.370000       -1.5304596E-03
   7.380000       -1.5138182E-03
   7.390000       -1.4952777E-03
   7.400000       -1.4748297E-03
   7.410000       -1.4524780E-03
   7.420000       -1.4282492E-03
   7.430000       -1.4021974E-03
   7.440000       -1.3744092E-03
   7.450000       -1.3449964E-03
   7.460000       -1.3141001E-03
   7.470000       -1.2818854E-03
   7.480000       -1.2485161E-03
   7.490000       -1.2141541E-03
   7.500000       -1.1789479E-03
   7.510000       -1.1430294E-03
   7.520000       -1.1065137E-03
   7.530000       -1.0694974E-03
   7.540000       -1.0320609E-03
   7.550000       -9.9427951E-04
   7.560000       -9.5622259E-04
   7.570000       -9.1796822E-04
   7.580000       -8.7960472E-04
   7.590000       -8.4123638E-04
   7.600000       -8.0298469E-04
   7.610000       -7.6498545E-04
   7.620000       -7.2737935E-04
   7.630000       -6.9030531E-04
   7.640000       -6.5389049E-04
   7.650000       -6.1824411E-04
   7.660000       -5.8345369E-04
   7.670000       -5.4958917E-04
   7.680000       -5.1670056E-04
   7.690000       -4.8482930E-04
   7.700000       -4.5400608E-04
   7.710000       -4.2425774E-04
   7.720000       -3.9560828E-04
   7.730000       -3.6807501E-04
   7.740000       -3.4167978E-04
   7.750000       -3.1643617E-04
   7.760000       -2.9237027E-04
   7.770000       -2.6951605E-04
   7.780000       -2.4792340E-04
   7.790000       -2.2765495E-04
   7.800000       -2.0878061E-04
   7.810000       -1.9137490E-04
   7.820000       -1.7550671E-04
   7.830000       -1.6122496E-04
   7.840000       -1.4854674E-04
   7.850000       -1.3746732E-04
   7.860000       -1.2793634E-04
   7.870000       -1.1988635E-04
   7.880000       -1.1322188E-04
   7.890000       -1.0782276E-04
   7.900000       -1.0356882E-04
   7.910000       -1.0033562E-04
   7.920000       -9.8005839E-05
   7.930000       -9.6474971E-05
   7.940000       -9.5658950E-05
   7.950000       -9.5503630E-05
   7.960000       -9.5980511E-05
   7.970000       -9.7091499E-05
   7.980000       -9.8852724E-05
   7.990000       -1.0129461E-04
   8.000000       -1.0444611E-04
   8.010000       -1.0832434E-04
   8.020000       -1.1292881E-04
   8.030000       -1.1822771E-04
   8.040000       -1.2416260E-04
   8.050000       -1.3064586E-04
   8.060000       -1.3756825E-04
   8.070000       -1.4480864E-04
   8.080000       -1.5223974E-04
   8.090000       -1.5973161E-04
   8.100000       -1.6716175E-04
   8.110000       -1.7442137E-04
   8.120000       -1.8142237E-04
   8.130000       -1.8809063E-04
   8.140000       -1.9437369E-04
   8.150000       -2.0023949E-04
   8.160000       -2.0566092E-04
   8.170000       -2.1061309E-04
   8.180000       -2.1505939E-04
   8.190000       -2.1895116E-04
   8.200000       -2.2221261E-04
   8.210000       -2.2474640E-04
   8.220000       -2.2643662E-04
   8.230000       -2.2715397E-04
   8.240000       -2.2676983E-04
   8.250000       -2.2516011E-04
   8.260000       -2.2222033E-04
   8.270000       -2.1786962E-04
   8.280000       -2.1204897E-04
   8.290000       -2.0472462E-04
   8.300000       -1.9588271E-04
   8.310000       -1.8552135E-04
   8.320000       -1.7364988E-04
   8.330000       -1.6027463E-04
   8.340000       -1.4540378E-04
   8.350000       -1.2903617E-04
   8.360000       -1.1116698E-04
   8.370000       -9.1791291E-05
   8.380000       -7.0908129E-05
   8.390000       -4.8527938E-05
   8.400000       -2.4673876E-05
   8.410000        6.1320139E-07
   8.420000        2.7277727E-05
   8.430000        5.5255579E-05
   8.440000        8.4478830E-05
   8.450000        1.1488763E-04
   8.460000        1.4643309E-04
   8.470000        1.7908403E-04
   8.480000        2.1282506E-04
   8.490000        2.4765215E-04
   8.500000        2.8356697E-04
   8.510000        3.2056138E-04
   8.520000        3.5861647E-04
   8.530000        3.9768656E-04
   8.540000        4.3770234E-04
   8.550000        4.7855836E-04
   8.560000        5.2013353E-04
   8.570000        5.6228909E-04
   8.580000        6.0487504E-04
   8.590000        6.4774114E-04
   8.600000        6.9076597E-04
   8.610000        7.3386298E-04
   8.620000        7.7695621E-04
   8.630000        8.2002080E-04
   8.640000        8.6305232E-04
   8.650000        9.0605812E-04
   8.660000        9.4904396E-04
   8.670000        9.9200697E-04
   8.680000        1.0348997E-03
   8.690000        1.0776481E-03
   8.700000        1.1201267E-03
   8.710000        1.1621978E-03
   8.720000        1.2036646E-03
   8.730000        1.2443496E-03
   8.740000        1.2840428E-03
   8.750000        1.3225639E-03
   8.760000        1.3597350E-03
   8.770000        1.3953977E-03
   8.780000        1.4294386E-03
   8.790000        1.4617449E-03
   8.800000        1.4922388E-03
   8.810000        1.5208632E-03
   8.820000        1.5475571E-03
   8.830000        1.5722808E-03
   8.840000        1.5949925E-03
   8.850000        1.6156523E-03
   8.860000        1.6341880E-03
   8.870000        1.6505464E-03
   8.880000        1.6646686E-03
   8.890000        1.6764539E-03
   8.900000        1.6858204E-03
   8.910000        1.6926753E-03
   8.920000        1.6969445E-03
   8.930000        1.6985518E-03
   8.940000        1.6974347E-03
   8.950000        1.6935589E-03
   8.960000        1.6868957E-03
   8.970000        1.6774646E-03
   8.980000        1.6652766E-03