 -0.1000000       -5.4759994E-26
 -9.0000004E-02   -1.6310857E-25
 -7.9999998E-02   -2.6805516E-25
 -7.0000000E-02   -3.6767653E-25
 -5.9999999E-02   -4.6047285E-25
 -5.0000001E-02   -5.4537731E-25
 -3.9999999E-02   -6.2166322E-25
 -2.9999999E-02   -6.8878034E-25
 -2.0000000E-02   -7.4617362E-25
 -9.9999998E-03   -7.9313988E-25
  0.0000000E+00   -8.2876879E-25
  9.9999998E-03   -8.5198644E-25
  2.0000000E-02   -8.6169160E-25
  2.9999999E-02   -8.5694562E-25
  3.9999999E-02   -8.3716148E-25
  5.0000001E-02   -8.0223826E-25
  5.9999999E-02   -7.5258982E-25
  7.0000000E-02   -6.8900970E-25
  7.9999998E-02   -6.1210908E-25
  9.0000004E-02   -5.2012148E-25
  0.1000000       -4.0036054E-25
  0.1100000       -1.9951890E-25
  0.1200000        2.6254385E-25
  0.1300000        1.4837505E-24
  0.1400000        4.5063155E-24
  0.1500000        1.0428213E-23
  0.1600000        1.6142259E-23
  0.1700000       -2.3762703E-24
  0.1800000       -1.3739009E-22
  0.1900000       -6.5174173E-22
  0.2000000       -2.1350471E-21
  0.2100000       -5.5878813E-21
  0.2200000       -1.1983893E-20
  0.2300000       -2.0293346E-20
  0.2400000       -2.2424382E-20
  0.2500000        5.8713110E-21
  0.2600000        1.1505651E-19
  0.2700000        3.7913343E-19
  0.2800000        8.4800685E-19
  0.2900000        1.4033139E-18
  0.3000000        1.4714157E-18
  0.3100000       -3.7188267E-19
  0.3200000       -6.6476792E-18
  0.3300000       -2.0419091E-17
  0.3400000       -4.2827690E-17
  0.3500000       -6.7500969E-17
  0.3600000       -7.1624027E-17
  0.3700000       -6.6184718E-18
  0.3800000        2.0276124E-16
  0.3900000        6.3466294E-16
  0.4000000        1.3009774E-15
  0.4100000        2.0195048E-15
  0.4200000        2.2454134E-15
  0.4300000        9.4350333E-16
  0.4400000       -3.3282775E-15
  0.4500000       -1.1877179E-14
  0.4600000       -2.4644025E-14
  0.4700000       -3.8267102E-14
  0.4800000       -4.3942738E-14
  0.4900000       -2.6388395E-14
  0.5000000        3.3925841E-14
  0.5100000        1.5274662E-13
  0.5200000        3.2663884E-13
  0.5300000        5.1179015E-13
  0.5400000        6.0421248E-13
  0.5500000        4.3562685E-13
  0.5600000       -1.9513536E-13
  0.5700000       -1.4364739E-12
  0.5800000       -3.2390791E-12
  0.5900000       -5.1770459E-12
  0.6000000       -6.3052020E-12
  0.6100000       -5.1693550E-12
  0.6200000       -1.0915849E-13
  0.6300000        1.0041160E-11
  0.6400000        2.4871978E-11
  0.6500000        4.1174810E-11
  0.6600000        5.2092441E-11
  0.6700000        4.7397513E-11
  0.6800000        1.5696149E-11
  0.6900000       -5.0976747E-11
  0.7000000       -1.5052336E-10
  0.7100000       -2.6372940E-10
  0.7200000       -3.4983128E-10
  0.7300000       -3.4874065E-10
  0.7400000       -1.9376575E-10
  0.7500000        1.6345721E-10
  0.7600000        7.1846690E-10
  0.7700000        1.3786421E-09
  0.7800000        1.9419240E-09
  0.7900000        2.1080564E-09
  0.8000000        1.5385825E-09
  0.8100000       -2.8724481E-11
  0.8200000       -2.6246867E-09
  0.8300000       -5.8915868E-09
  0.8400000       -8.9865289E-09
  0.8500000       -1.0619357E-08
  0.8600000       -9.2874561E-09
  0.8700000       -3.7266621E-09
  0.8800000        6.4762760E-09
  0.8900000        2.0255715E-08
  0.9000000        3.4652150E-08
  0.9100000        4.4876195E-08
  0.9200000        4.5073154E-08
  0.9300000        2.9861390E-08
  0.9400000       -3.5290617E-09
  0.9500000       -5.2990988E-08
  0.9600000       -1.0988826E-07
  0.9700000       -1.5888270E-07
  0.9800000       -1.7997721E-07
  0.9900000       -1.5307147E-07
   1.000000       -6.4591305E-08
   1.010000        8.5142631E-08
   1.020000        2.7595337E-07
   1.030000        4.6581852E-07
   1.040000        5.9514321E-07
   1.050000        5.9843484E-07
   1.060000        4.2254794E-07
   1.070000        4.8205134E-08
   1.080000       -4.9080785E-07
   1.090000       -1.0977319E-06
   1.100000       -1.6187678E-06
   1.110000       -1.8687691E-06
   1.120000       -1.6757724E-06
   1.130000       -9.3720894E-07
   1.140000        3.2547774E-07
   1.150000        1.9310908E-06
   1.160000        3.5390131E-06
   1.170000        4.6973150E-06
   1.180000        4.9393734E-06
   1.190000        3.9150832E-06
   1.200000        1.5277498E-06
   1.210000       -1.9628364E-06
   1.220000       -5.9122258E-06
   1.230000       -9.3683711E-06
   1.240000       -1.1260909E-05
   1.250000       -1.0677247E-05
   1.260000       -7.1662575E-06
   1.270000       -9.8540011E-07
   1.280000        6.7985429E-06
   1.290000        1.4423991E-05
   1.300000        1.9784913E-05
   1.310000        2.0969606E-05
   1.320000        1.6869324E-05
   1.330000        7.6856068E-06
   1.340000       -4.8467541E-06
   1.350000       -1.7660817E-05
   1.360000       -2.7022759E-05
   1.370000       -2.9563062E-05
   1.380000       -2.3432825E-05
   1.390000       -9.2428299E-06
   1.400000        9.5739142E-06
   1.410000        2.7239996E-05
   1.420000        3.7009973E-05
   1.430000        3.3225882E-05
   1.440000        1.3554530E-05
   1.450000       -1.9279210E-05
   1.460000       -5.6964269E-05
   1.470000       -8.6776010E-05
   1.480000       -9.4528841E-05
   1.490000       -6.8842695E-05
   1.500000       -5.7229536E-06
   1.510000        8.7897861E-05
   1.520000        1.9302570E-04
   1.530000        2.8084678E-04
   1.540000        3.1852737E-04
   1.550000        2.7773393E-04
   1.560000        1.4404046E-04
   1.570000       -7.5272452E-05
   1.580000       -3.4759953E-04
   1.590000       -6.1748939E-04
   1.600000       -8.1581227E-04
   1.610000       -8.7447604E-04
   1.620000       -7.4383622E-04
   1.630000       -4.0874080E-04
   1.640000        1.0113310E-04
   1.650000        7.1014307E-04
   1.660000        1.3063444E-03
   1.670000        1.7610088E-03
   1.680000        1.9544826E-03
   1.690000        1.8029682E-03
   1.700000        1.2801442E-03
   1.710000        4.2838603E-04
   1.720000       -6.4343924E-04
   1.730000       -1.7755730E-03
   1.740000       -2.7832363E-03
   1.750000       -3.4873458E-03
   1.760000       -3.7437829E-03
   1.770000       -3.4657191E-03
   1.780000       -2.6356732E-03
   1.790000       -1.3068420E-03
   1.800000        4.0413384E-04
   1.810000        2.3292894E-03
   1.820000        4.2627286E-03
   1.830000        5.9732730E-03
   1.840000        7.2168643E-03
   1.850000        7.7515687E-03
   1.860000        7.3591610E-03
   1.870000        5.8763418E-03
   1.880000        3.2355115E-03
   1.890000       -4.8970099E-04
   1.900000       -5.0439574E-03
   1.910000       -9.9681402E-03
   1.920000       -1.4609616E-02
   1.930000       -1.8175285E-02
   1.940000       -1.9830443E-02
   1.950000       -1.8836150E-02
   1.960000       -1.4706838E-02
   1.970000       -7.3607401E-03
   1.980000        2.7689082E-03
   1.990000        1.4692282E-02
   2.000000        2.6913106E-02
   2.010000        3.7578285E-02
   2.020000        4.4717174E-02
   2.030000        4.6542492E-02
   2.040000        4.1770134E-02
   2.050000        2.9906573E-02
   2.060000        1.1452371E-02
   2.070000       -1.2021194E-02
   2.080000       -3.7948951E-02
   2.090000       -6.3007198E-02
   2.100000       -8.3488919E-02
   2.110000       -9.5778540E-02
   2.120000       -9.6868806E-02
   2.130000       -8.4853180E-02
   2.140000       -5.9326027E-02
   2.150000       -2.1631094E-02
   2.160000        2.5086535E-02
   2.170000        7.6049246E-02
   2.180000        0.1252374    
   2.190000        0.1659788    
   2.200000        0.1916910    
   2.210000        0.1967114    
   2.220000        0.1771325    
   2.230000        0.1315499    
   2.240000        6.1623998E-02
   2.250000       -2.7640648E-02
   2.260000       -0.1279783    
   2.270000       -0.2283656    
   2.280000       -0.3159601    
   2.290000       -0.3774396    
   2.300000       -0.4006434    
   2.310000       -0.3763562    
   2.320000       -0.3000183    
   2.330000       -0.1731124    
   2.340000       -3.9718770E-03
   2.350000        0.1922096    
   2.360000        0.3943072    
   2.370000        0.5771619    
   2.380000        0.7143308    
   2.390000        0.7814319    
   2.400000        0.7596971    
   2.410000        0.6392577    
   2.420000        0.4216657    
   2.430000        0.1211998    
   2.440000       -0.2353743    
   2.450000       -0.6107322    
   2.460000       -0.9605342    
   2.470000        -1.238274    
   2.480000        -1.400920    
   2.490000        -1.414699    
   2.500000        -1.260273    
   2.510000       -0.9366309    
   2.520000       -0.4630765    
   2.530000        0.1210541    
   2.540000        0.7591137    
   2.550000         1.382159    
   2.560000         1.915857    
   2.570000         2.288635    
   2.580000         2.440246    
   2.590000         2.329809    
   2.600000         1.942374    
   2.610000         1.293143    
   2.620000        0.4286555    
   2.630000       -0.5754786    
   2.640000        -1.620372    
   2.650000        -2.592863    
   2.660000        -3.377004    
   2.670000        -3.866957    
   2.680000        -3.979921    
   2.690000        -3.667601    
   2.700000        -2.924734    
   2.710000        -1.793414    
   2.720000       -0.3623687    
   2.730000         1.239144    
   2.740000         2.852498    
   2.750000         4.304997    
   2.760000         5.427820    
   2.770000         6.074725    
   2.780000         6.139477    
   2.790000         5.569958    
   2.800000         4.377252    
   2.810000         2.638475    
   2.820000        0.4927406    
   2.830000        -1.869610    
   2.840000        -4.223679    
   2.850000        -6.331103    
   2.860000        -7.963574    
   2.870000        -8.926473    
   2.880000        -9.080212    
   2.890000        -8.357036    
   2.900000        -6.771391    
   2.910000        -4.422607    
   2.920000        -1.489310    
   2.930000         1.784123    
   2.940000         5.107990    
   2.950000         8.172780    
   2.960000         10.67743    
   2.970000         12.35769    
   2.980000         13.01197    
   2.990000         12.52220    
   3.000000         10.86781    
   3.010000         8.131364    
   3.020000         4.495493    
   3.030000        0.2309738    
   3.040000        -4.322970    
   3.050000        -8.784789    
   3.060000        -12.76119    
   3.070000        -15.87987    
   3.080000        -17.82185    
   3.090000        -18.35090    
   3.100000        -17.33754    
   3.110000        -14.77539    
   3.120000        -10.78808    
   3.130000        -5.625667    
   3.140000        0.3499576    
   3.150000         6.689945    
   3.160000         12.89227    
   3.170000         18.44188    
   3.180000         22.85398    
   3.190000         25.71682    
   3.200000         26.72984    
   3.210000         25.73385    
   3.220000         22.72992    
   3.230000         17.88512    
   3.240000         11.52421    
   3.250000         4.107694    
   3.260000        -3.802112    
   3.270000        -11.58436    
   3.280000        -18.60891    
   3.290000        -24.28771    
   3.300000        -28.12432    
   3.310000        -29.75781    
   3.320000        -28.99735    
   3.330000        -25.84472    
   3.340000        -20.50206    
   3.350000        -13.36391    
   3.360000        -4.992629    
   3.370000         3.921369    
   3.380000         12.61264    
   3.390000         20.30304    
   3.400000         26.26850    
   3.410000         29.90438    
   3.420000         30.78311    
   3.430000         28.69842    
   3.440000         23.69107    
   3.450000         16.05299    
   3.460000         6.308770    
   3.470000        -4.824429    
   3.480000        -16.49481    
   3.490000        -27.78658    
   3.500000        -37.79641    
   3.510000        -45.70861    
   3.520000        -50.86216    
   3.530000        -52.80338    
   3.540000        -51.32025    
   3.550000        -46.45592    
   3.560000        -38.50131    
   3.570000        -27.96858    
   3.580000        -15.54900    
   3.590000        -2.059547    
   3.600000         11.61678    
   3.610000         24.59224    
   3.620000         36.03318    
   3.630000         45.21321    
   3.640000         51.55824    
   3.650000         54.68195    
   3.660000         54.41040    
   3.670000         50.79459    
   3.680000         44.11040    
   3.690000         34.84464    
   3.700000         23.66707    
   3.710000         11.38854    
   3.720000        -1.093146    
   3.730000        -12.85674    
   3.740000        -23.02597    
   3.750000        -30.83721    
   3.760000        -35.70027    
   3.770000        -37.24628    
   3.780000        -35.35779    
   3.790000        -30.17791    
   3.800000        -22.09764    
   3.810000        -11.72294    
   3.820000        0.1752461    
   3.830000         12.72262    
   3.840000         25.00925    
   3.850000         36.15745    
   3.860000         45.38437    
   3.870000         52.05518    
   3.880000         55.72355    
   3.890000         56.15752    
   3.900000         53.34997    
   3.910000         47.51370    
   3.920000         39.06186    
   3.930000         28.57521    
   3.940000         16.75815    
   3.950000         4.386281    
   3.960000        -7.751199    
   3.970000        -18.91028    
   3.980000        -28.44749    
   3.990000        -35.86722    
   4.000000        -40.85646    
   4.010000        -43.30357    
   4.020000        -43.29872    
   4.030000        -41.11604    
   4.040000        -37.17908    
   4.050000        -32.01368    
   4.060000        -26.19351    
   4.070000        -20.28460    
   4.080000        -14.79485    
   4.090000        -10.13376    
   4.100000        -6.585641    
   4.110000        -4.297679    
   4.120000        -3.282237    
   4.130000        -3.430922    
   4.140000        -4.537193    
   4.150000        -6.323858    
   4.160000        -8.472263    
   4.170000        -10.65086    
   4.180000        -12.54164    
   4.190000        -13.86408    
   4.200000        -14.39625    
   4.210000        -13.99347    
   4.220000        -12.60373    
   4.230000        -10.27931    
   4.240000        -7.182637    
   4.250000        -3.584383    
   4.260000        0.1484173    
   4.270000         3.576001    
   4.280000         6.221800    
   4.290000         7.619512    
   4.300000         7.368142    
   4.310000         5.189683    
   4.320000        0.9824285    
   4.330000        -5.138044    
   4.340000        -12.81785    
   4.350000        -21.46983    
   4.360000        -30.30781    
   4.370000        -38.40949    
   4.380000        -44.80302    
   4.390000        -48.56858    
   4.400000        -48.94337    
   4.410000        -45.41686    
   4.420000        -37.80409    
   4.430000        -26.28679    
   4.440000        -11.41630    
   4.450000         5.923214    
   4.460000         24.58768    
   4.470000         43.27417    
   4.480000         60.63887    
   4.490000         75.41892    
   4.500000         86.54520    
   4.510000         93.23429    
   4.520000         95.05142    
   4.530000         91.93887    
   4.540000         84.20947    
   4.550000         72.50777    
   4.560000         57.74502    
   4.570000         41.01553    
   4.580000         23.50398    
   4.590000         6.391451    
   4.600000        -9.231909    
   4.610000        -22.44208    
   4.620000        -32.54000    
   4.630000        -39.09146    
   4.640000        -41.94687    
   4.650000        -41.24002    
   4.660000        -37.36661    
   4.670000        -30.94339    
   4.680000        -22.75070    
   4.690000        -13.66226    
   4.700000        -4.567686    
   4.710000         3.705408    
   4.720000         10.46255    
   4.730000         15.19988    
   4.740000         17.64241    
   4.750000         17.75989    
   4.760000         15.75942    
   4.770000         12.05679    
   4.780000         7.230137    
   4.790000         1.961058    
   4.800000        -3.031280    
   4.810000        -7.057611    
   4.820000        -9.522325    
   4.830000        -9.978860    
   4.840000        -8.172204    
   4.850000        -4.064819    
   4.860000         2.157169    
   4.870000         10.09897    
   4.880000         19.19305    
   4.890000         28.75298    
   4.900000         38.03984    
   4.910000         46.33384    
   4.920000         53.00266    
   4.930000         57.55855    
   4.940000         59.69781    
   4.950000         59.31916    
   4.960000         56.52077    
   4.970000         51.57873    
   4.980000         44.91223    
   4.990000         37.04150    
   5.000000         28.54472    
   5.010000         20.01861    
   5.020000         12.04552    
   5.030000         5.167836    
   5.040000       -0.1312802    
   5.050000        -3.442957    
   5.060000        -4.445751    
   5.070000        -2.918798    
   5.080000         1.244331    
   5.090000         8.021809    
   5.100000         17.25172    
   5.110000         28.62541    
   5.120000         41.68923    
   5.130000         55.85767    
   5.140000         70.43929    
   5.150000         84.67503    
   5.160000         97.78635    
   5.170000         109.0289    
   5.180000         117.7457    
   5.190000         123.4146    
   5.200000         125.6833    
   5.210000         124.3900    
   5.220000         119.5670    
   5.230000         111.4281    
   5.240000         100.3418    
   5.250000         86.79546    
   5.260000         71.35236    
   5.270000         54.60799    
   5.280000         37.14822    
   5.290000         19.51271    
   5.300000         2.165910    
   5.310000        -14.52310    
   5.320000        -30.29120    
   5.330000        -44.98254    
   5.340000        -58.54182    
   5.350000        -71.00032    
   5.360000        -82.45692    
   5.370000        -93.05455    
   5.380000        -102.9536    
   5.390000        -112.3020    
   5.400000        -121.2032    
   5.410000        -129.6828    
   5.420000        -137.6561    
   5.430000        -144.9016    
   5.440000        -151.0459    
   5.450000        -155.5653    
   5.460000        -157.8094    
   5.470000        -157.0495    
   5.480000        -152.5477    
   5.490000        -143.6408    
   5.500000        -129.8269    
   5.510000        -110.8427    
   5.520000        -86.71779    
   5.530000        -57.79766    
   5.540000        -24.73227    
   5.550000         11.56688    
   5.560000         49.99236    
   5.570000         89.31725    
   5.580000         128.2701    
   5.590000         165.5997    
   5.600000         200.1234    
   5.610000         230.7626    
   5.620000         256.5666    
   5.630000         276.7345    
   5.640000         290.6390    
   5.650000         297.8551    
   5.660000         298.1912    
   5.670000         291.7165    
   5.680000         278.7748    
   5.690000         259.9765    
   5.700000         236.1622    
   5.710000         208.3371    
   5.720000         177.5831    
   5.730000         144.9576    
   5.740000         111.3960    
   5.750000         77.63268    
   5.760000         44.15343    
   5.770000         11.18706    
   5.780000        -21.26229    
   5.790000        -53.34863    
   5.800000        -85.29465    
   5.810000        -117.2947    
   5.820000        -149.4251    
   5.830000        -181.5753    
   5.840000        -213.4101    
   5.850000        -244.3646    
   5.860000        -273.6738    
   5.870000        -300.4288    
   5.880000        -323.6525    
   5.890000        -342.3835    
   5.900000        -355.7586    
   5.910000        -363.0850    
   5.920000        -363.8932    
   5.930000        -357.9698    
   5.940000        -345.3651    
   5.950000        -326.3795    
   5.960000        -301.5318    
   5.970000        -271.5154    
   5.980000        -237.1461    
   5.990000        -199.3108    
   6.000000        -158.9171    
   6.010000        -116.8488    
   6.020000        -73.92875    
   6.030000        -30.88869    
   6.040000         11.65232    
   6.050000         53.20002    
   6.060000         93.38609    
   6.070000         131.9582    
   6.080000         168.7588    
   6.090000         203.6972    
   6.100000         236.7177    
   6.110000         267.7734    
   6.120000         296.8076    
   6.130000         323.7500    
   6.140000         348.5230    
   6.150000         371.0573    
   6.160000         391.3049    
   6.170000         409.2441    
   6.180000         424.8707    
   6.190000         438.1747    
   6.200000         449.1090    
   6.210000         457.5616    
   6.220000         463.3408    
   6.230000         466.1839    
   6.240000         465.7900    
   6.250000         461.8728    
   6.260000         454.2186    
   6.270000         442.7356    
   6.280000         427.4804    
   6.290000         408.6550    
   6.300000         386.5756    
   6.310000         361.6221    
   6.320000         334.1851    
   6.330000         304.6213    
   6.340000         273.2296    
   6.350000         240.2481    
   6.360000         205.8681    
   6.370000         170.2545    
   6.380000         133.5642    
   6.390000         95.95434    
   6.400000         57.58149    
   6.410000         18.59446    
   6.420000        -20.87169    
   6.430000        -60.69563    
   6.440000        -100.7610    
   6.450000        -140.9418    
   6.460000        -181.0877    
   6.470000        -221.0152    
   6.480000        -260.5081    
   6.490000        -299.3256    
   6.500000        -337.2145    
   6.510000        -373.9179    
   6.520000        -409.1757    
   6.530000        -442.7159    
   6.540000        -474.2412    
   6.550000        -503.4179    
   6.560000        -529.8734    
   6.570000        -553.2070    
   6.580000        -573.0123    
   6.590000        -588.9035    
   6.600000        -600.5380    
   6.610000        -607.6276    
   6.620000        -609.9374    
   6.630000        -607.2784    
   6.640000        -599.5029    
   6.650000        -586.5158    
   6.660000        -568.3060    
   6.670000        -544.9959    
   6.680000        -516.8975    
   6.690000        -484.5564    
   6.700000        -448.7641    
   6.710000        -410.5280    
   6.720000        -370.9976    
   6.730000        -331.3593    
   6.740000        -292.7227    
   6.750000        -256.0207    
   6.760000        -221.9470    
   6.770000        -190.9371    
   6.780000        -163.1932    
   6.790000        -138.7372    
   6.800000        -117.4747    
   6.810000        -99.25225    
   6.820000        -83.89746    
   6.830000        -71.23989    
   6.840000        -61.11550    
   6.850000        -53.36454    
   6.860000        -47.82839    
   6.870000        -44.34908    
   6.880000        -42.77153    
   6.890000        -42.94524    
   6.900000        -44.72343    
   6.910000        -47.95935    
   6.920000        -52.50316    
   6.930000        -58.20233    
   6.940000        -64.90869    
   6.950000        -72.49035    
   6.960000        -80.84304    
   6.970000        -89.89330    
   6.980000        -99.58668    
   6.990000        -109.8592    
   7.000000        -120.5964    
   7.010000        -131.5908    
   7.020000        -142.5108    
   7.030000        -152.8923    
   7.040000        -162.1572    
   7.050000        -169.6572    
   7.060000        -174.7302    
   7.070000        -176.7577    
   7.080000        -175.2123    
   7.090000        -169.6888    
   7.100000        -159.9201    
   7.110000        -145.7865    
   7.120000        -127.3225    
   7.130000        -104.7263    
   7.140000        -78.36825    
   7.150000        -48.78995    
   7.160000        -16.68409    
   7.170000         17.15186    
   7.180000         51.88588    
   7.190000         86.73554    
   7.200000         121.0479    
   7.210000         154.3560    
   7.220000         186.3996    
   7.230000         217.1046    
   7.240000         246.5308    
   7.250000         274.8035    
   7.260000         302.0481    
   7.270000         328.3435    
   7.280000         353.6995    
   7.290000         378.0557    
   7.300000         401.2937    
   7.310000         423.2484    
   7.320000         443.7142    
   7.330000         462.4436    
   7.340000         479.1440    
   7.350000         493.4814    
   7.360000         505.0971    
   7.370000         513.6356    
   7.380000         518.7814    
   7.390000         520.2894    
   7.400000         518.0026    
   7.410000         511.8500    
   7.420000         501.8283    
   7.430000         487.9782    
   7.440000         470.3657    
   7.450000         449.0816    
   7.460000         424.2592    
   7.470000         396.1059    
   7.480000         364.9342    
   7.490000         331.1766    
   7.500000         295.3758    
   7.510000         258.1430    
   7.520000         220.0973    
   7.530000         181.7957    
   7.540000         143.6747    
   7.550000         106.0140    
   7.560000         68.93116    
   7.570000         32.40228    
   7.580000        -3.696676    
   7.590000        -39.54016    
   7.600000        -75.30250    
   7.610000        -111.1118    
   7.620000        -147.0099    
   7.630000        -182.9189    
   7.640000        -218.6150    
   7.650000        -253.7148    
   7.660000        -287.6787    
   7.670000        -319.8360    
   7.680000        -349.4322    
   7.690000        -375.6933    
   7.700000        -397.8975    
   7.710000        -415.4386    
   7.720000        -427.8737    
   7.730000        -434.9467    
   7.740000        -436.5900    
   7.750000        -432.9116    
   7.760000        -424.1772    
   7.770000        -410.7916    
   7.780000        -393.2843    
   7.790000        -372.2922    
   7.800000        -348.5343    
   7.810000        -322.7739    
   7.820000        -295.7672    
   7.830000        -268.2083    
   7.840000        -240.6816    
   7.850000        -213.6351    
   7.860000        -187.3811    
   7.870000        -162.1232    
   7.880000        -137.9971    
   7.890000        -115.1106    
   7.900000        -93.56689    
   7.910000        -73.46449    
   7.920000        -54.87741    
   7.930000        -37.82757    
   7.940000        -22.26644    
   7.950000        -8.077868    
   7.960000         4.894467    
   7.970000         16.80404    
   7.980000         27.75893    
   7.990000         37.79781    
   8.000000         46.89437    
   8.010000         54.98909    
   8.020000         62.03445    
   8.030000         68.03335    
   8.040000         73.05283    
   8.050000         77.20522    
   8.060000         80.60345    
   8.070000         83.30949    
   8.080000         85.29922    
   8.090000         86.46224    
   8.100000         86.64075    
   8.110000         85.69567    
   8.120000         83.57598    
   8.130000         80.36420    
   8.140000         76.27963    
   8.150000         71.63696    
   8.160000         66.77551    
   8.170000         61.98600    
   8.180000         57.46246    
   8.190000         53.29663    
   8.200000         49.51430    
   8.210000         46.13583    
   8.220000         43.23330    
   8.230000         40.95797    
   8.240000         39.52481    
   8.250000         39.15854    
   8.260000         40.02218    
   8.270000         42.15657    
   8.280000         45.45453    
   8.290000         49.67990    
   8.300000         54.52335    
   8.310000         59.67236    
   8.320000         64.86957    
   8.330000         69.93905    
   8.340000         74.77670    
   8.350000         79.31643    
   8.360000         83.49524    
   8.370000         87.23935    
   8.380000         90.48404    
   8.390000         93.22173    
   8.400000         95.55822    
   8.410000         97.74885    
   8.420000         100.1912    
   8.430000         103.3658    
   8.440000         107.7352    
   8.450000         113.6297    
   8.460000         121.1524    
   8.470000         130.1333    
   8.480000         140.1437    
   8.490000         150.5634    
   8.500000         160.6777    
   8.510000         169.7732    
   8.520000         177.2081    
   8.530000         182.4460    
   8.540000         185.0588    
   8.550000         184.7155    
   8.560000         181.1775    
   8.570000         174.3134    
   8.580000         164.1317    
   8.590000         150.8198    
   8.600000         134.7650    
   8.610000         116.5414    
   8.620000         96.85074    
   8.630000         76.42796    
   8.640000         55.93056    
   8.650000         35.84167    
   8.660000         16.41293    
   8.670000        -2.338179    
   8.680000        -20.57832    
   8.690000        -38.57203    
   8.700000        -56.58567    
   8.710000        -74.80824    
   8.720000        -93.30812    
   8.730000        -112.0327    
   8.740000        -130.8439    
   8.750000        -149.5742    
   8.760000        -168.0822    
   8.770000        -186.2909    
   8.780000        -204.1961    
   8.790000        -221.8440    
   8.800000        -239.2837    
   8.810000        -256.5070    
   8.820000        -273.3912    
   8.830000        -289.6623    
   8.840000        -304.8867    
   8.850000        -318.5017    
   8.860000        -329.8769    
   8.870000        -338.3999    
   8.880000        -343.5657    
   8.890000        -345.0515    
   8.900000        -342.7588    
   8.910000        -336.8138    
   8.920000        -327.5276    
   8.930000        -315.3278    
   8.940000        -300.6815    
   8.950000        -284.0296    
   8.960000        -265.7476    
   8.970000        -246.1356    
   8.980000        -225.4302    