  -16.0000000       0.00000000    
  -15.9899998       0.00000000    
  -15.9799995       0.00000000    
  -15.9700003       0.00000000    
  -15.9600000       0.00000000    
  -15.9499998       0.00000000    
  -15.9399996       0.00000000    
  -15.9300003       0.00000000    
  -15.9200001       0.00000000    
  -15.9099998       0.00000000    
  -15.8999996       3.64591236E-40
  -15.8900003       1.78047526E-38
  -15.8800001       1.77203428E-37
  -15.8699999       6.88224984E-37
  -15.8599997      -2.34704534E-37
  -15.8500004      -1.48116249E-35
  -15.8400002      -7.27834878E-35
  -15.8299999      -1.64644250E-34
  -15.8199997      -3.47845940E-35
  -15.8100004       7.21727817E-34
  -15.8000002      -6.02261362E-34
  -15.7900000      -2.42612380E-32
  -15.7799997      -1.44767043E-31
  -15.7700005      -5.42259400E-31
  -15.7600002      -1.48299088E-30
  -15.7500000      -2.98218666E-30
  -15.7399998      -3.74128744E-30
  -15.7299995       8.85112169E-31
  -15.7200003       2.10613274E-29
  -15.7100000       7.14962913E-29
  -15.6999998       1.60900168E-28
  -15.6899996       2.64873073E-28
  -15.6800003       2.83359930E-28
  -15.6700001       6.61960102E-30
  -15.6599998      -8.51337206E-28
  -15.6499996      -2.46794287E-27
  -15.6400003      -4.52398325E-27
  -15.6300001      -5.70332722E-27
  -15.6199999      -3.43538717E-27
  -15.6099997       5.48962334E-27
  -15.6000004       2.27906569E-26
  -15.5900002       4.50288368E-26
  -15.5799999       5.98325728E-26
  -15.5699997       4.53432318E-26
  -15.5600004      -2.27321209E-26
  -15.5500002      -1.53846501E-25
  -15.5400000      -3.18653657E-25
  -15.5299997      -4.31541379E-25
  -15.5200005      -3.60811198E-25
  -15.5100002       1.51426134E-26
  -15.5000000       7.09448053E-25
  -15.4899998       1.53061774E-24
  -15.4799995       2.07279218E-24
  -15.4700003       1.87582702E-24
  -15.4600000       7.55443623E-25
  -15.4499998      -8.68880589E-25
  -15.4399996      -2.00705620E-24
  -15.4300003      -1.87541879E-24
  -15.4200001      -1.44242970E-24
  -15.4099998      -4.92784053E-24
  -15.3999996      -1.93758264E-23
  -15.3900003      -4.99198407E-23
  -15.3800001      -8.96121565E-23
  -15.3699999      -1.06691292E-22
  -15.3599997      -3.85532575E-23
  -15.3500004       1.92421173E-22
  -15.3400002       6.26462844E-22
  -15.3299999       1.17652235E-21
  -15.3199997       1.53099317E-21
  -15.3100004       1.12143982E-21
  -15.3000002      -7.40089965E-22
  -15.2900000      -4.46370650E-21
  -15.2799997      -9.53300372E-21
  -15.2700005      -1.38128726E-20
  -15.2600002      -1.32767957E-20
  -15.2500000      -2.80003626E-21
  -15.2399998       2.14251023E-20
  -15.2299995       5.78646572E-20
  -15.2200003       9.51382622E-20
  -15.2100000       1.09589670E-19
  -15.1999998       6.85600767E-20
  -15.1899996      -5.73221172E-20
  -15.1800003      -2.72268334E-19
  -15.1700001      -5.28894734E-19
  -15.1599998      -7.09629976E-19
  -15.1499996      -6.34488113E-19
  -15.1400003      -1.13720467E-19
  -15.1300001       9.47426928E-19
  -15.1199999       2.40972705E-18
  -15.1099997       3.77989445E-18
  -15.1000004       4.19531986E-18
  -15.0900002       2.60863855E-18
  -15.0799999      -1.77129292E-18
  -15.0699997      -8.82649525E-18
  -15.0600004      -1.68638536E-17
  -15.0500002      -2.22961455E-17
  -15.0400000      -2.01137337E-17
  -15.0299997      -5.49241930E-18
  -15.0200005       2.34767870E-17
  -15.0100002       6.25652151E-17
  -15.0000000       9.90437743E-17
  -14.9899998       1.12052718E-16
  -14.9799995       7.74777927E-17
  -14.9700003      -2.19908811E-17
  -14.9600000      -1.83149381E-16
  -14.9499998      -3.69384530E-16
  -14.9399996      -5.05692963E-16
  -14.9300003      -4.89517493E-16
  -14.9200001      -2.22656719E-16
  -14.9099998       3.37504619E-16
  -14.8999996       1.11989222E-15
  -14.8900003       1.89864659E-15
  -14.8800001       2.29996106E-15
  -14.8699999       1.88424173E-15
  -14.8599997       3.12051332E-16
  -14.8500004      -2.43234172E-15
  -14.8400002      -5.82934469E-15
  -14.8299999      -8.73062778E-15
  -14.8199997      -9.49915094E-15
  -14.8100004      -6.45854152E-15
  -14.8000002       1.36964635E-15
  -14.7900000       1.34062208E-14
  -14.7799997       2.68488472E-14
  -14.7700005       3.66112305E-14
  -14.7600002       3.62397422E-14
  -14.7500000       1.99551797E-14
  -14.7399998      -1.44468042E-14
  -14.7299995      -6.26256927E-14
  -14.7200003      -1.11904735E-13
  -14.7100000      -1.42068676E-13
  -14.6999998      -1.29800671E-13
  -14.6899996      -5.68098425E-14
  -14.6800003       7.98348407E-14
  -14.6700001       2.58342962E-13
  -14.6599998       4.28207898E-13
  -14.6499996       5.15964604E-13
  -14.6400003       4.43255485E-13
  -14.6300001       1.55980304E-13
  -14.6199999      -3.41802921E-13
  -14.6099997      -9.60544578E-13
  -14.6000004      -1.51853356E-12
  -14.5900002      -1.76841473E-12
  -14.5799999      -1.46212144E-12
  -14.5699997      -4.46738892E-13
  -14.5600004       1.23171720E-12
  -14.5500002       3.25312477E-12
  -14.5400000       5.01850341E-12
  -14.5299997       5.74899416E-12
  -14.5200005       4.69690085E-12
  -14.5100002       1.43824514E-12
  -14.5000000      -3.82746439E-12
  -14.4899998      -1.00787061E-11
  -14.4799995      -1.54908031E-11
  -14.4700003      -1.77560189E-11
  -14.4600000      -1.47123633E-11
  -14.4499998      -5.17902258E-12
  -14.4399996       1.02194052E-11
  -14.4300003       2.85394347E-11
  -14.4200001       4.46210013E-11
  -14.4099998       5.20088243E-11
  -14.3999996       4.46836596E-11
  -14.3900003       1.93063256E-11
  -14.3800001      -2.26120980E-11
  -14.3699999      -7.33894542E-11
  -14.3599997      -1.19464286E-10
  -14.3500004      -1.43783097E-10
  -14.3400002      -1.30221708E-10
  -14.3299999      -6.92695692E-11
  -14.3199997       3.64848013E-11
  -14.3100004       1.68958000E-10
  -14.3000002       2.95094060E-10
  -14.2900000       3.72442327E-10
  -14.2799997       3.59637709E-10
  -14.2700005       2.29979064E-10
  -14.2600002      -1.52760114E-11
  -14.2500000      -3.38248790E-10
  -14.2399998      -6.64613642E-10
  -14.2299995      -8.95274632E-10
  -14.2200003      -9.29362642E-10
  -14.2100000      -6.94750424E-10
  -14.1999998      -1.78817197E-10
  -14.1899996       5.49972456E-10
  -14.1800003       1.33893963E-09
  -14.1700001       1.97268180E-09
  -14.1599998       2.21951546E-09
  -14.1499996       1.89569804E-09
  -14.1400003       9.32955824E-10
  -14.1300001      -5.69949865E-10
  -14.1199999      -2.33110864E-09
  -14.1099997      -3.91871025E-09
  -14.1000004      -4.83646367E-09
  -14.0900002      -4.64933025E-09
  -14.0799999      -3.12303428E-09
  -14.0699997      -3.40441092E-10
  -14.0600004       3.24411253E-09
  -14.0500002       6.84263668E-09
  -14.0400000       9.47403489E-09
  -14.0299997       1.01910738E-08
  -14.0200005       8.34937808E-09
  -14.0100002       3.85254273E-09
  -14.0000000      -2.69997247E-09
  -13.9899998      -1.00237720E-08
  -13.9799995      -1.63495617E-08
  -13.9700003      -1.97964507E-08
  -13.9600000      -1.88518730E-08
  -13.9499998      -1.28490756E-08
  -13.9399996      -2.31278841E-09
  -13.9300003       1.09452802E-08
  -13.9200001       2.40540050E-08
  -13.9099998       3.36328085E-08
  -13.8999996       3.65769139E-08
  -13.8900003       3.09124282E-08
  -13.8800001       1.65082987E-08
  -13.8699999      -4.56655158E-09
  -13.8599997      -2.81947603E-08
  -13.8500004      -4.89163057E-08
  -13.8400002      -6.10962587E-08
  -13.8299999      -6.03266130E-08
  -13.8199997      -4.47370780E-08
  -13.8100004      -1.58631099E-08
  -13.8000002       2.12199964E-08
  -13.7900000       5.86417528E-08
  -13.7799997       8.72993766E-08
  -13.7700005       9.89588642E-08
  -13.7600002       8.84353710E-08
  -13.7500000       5.53089166E-08
  -13.7399998       4.67473882E-09
  -13.7299995      -5.33937090E-08
  -13.7200003      -1.05705226E-07
  -13.7100000      -1.38837464E-07
  -13.6999998      -1.42450901E-07
  -13.6899996      -1.12244820E-07
  -13.6800003      -5.17608605E-08
  -13.6700001       2.75665233E-08
  -13.6599998       1.08340700E-07
  -13.6499996       1.70865022E-07
  -13.6400003       1.97814771E-07
  -13.6300001       1.78851764E-07
  -13.6199999       1.14002653E-07
  -13.6099997       1.47979193E-08
  -13.6000004      -9.73757039E-08
  -13.5900002      -1.95607640E-07
  -13.5799999      -2.53680781E-07
  -13.5699997      -2.52799367E-07
  -13.5600004      -1.87168169E-07
  -13.5500002      -6.68714009E-08
  -13.5400000       8.29819200E-08
  -13.5299997       2.27036068E-07
  -13.5200005       3.27597945E-07
  -13.5100002       3.53996882E-07
  -13.5000000       2.91162280E-07
  -13.4899998       1.45149343E-07
  -13.4799995      -5.61189601E-08
  -13.4700003      -2.67582834E-07
  -13.4600000      -4.36616745E-07
  -13.4499998      -5.15508248E-07
  -13.4399996      -4.73978872E-07
  -13.4300003      -3.08585101E-07
  -13.4200001      -4.63212473E-08
  -13.4099998       2.59043958E-07
  -13.3999996       5.37663027E-07
  -13.3900003       7.19305717E-07
  -13.3800001       7.50575737E-07
  -13.3699999       6.09478434E-07
  -13.3599997       3.13475113E-07
  -13.3500004      -8.15262169E-08
  -13.3400002      -4.91718822E-07
  -13.3299999      -8.23598157E-07
  -13.3199997      -9.95854180E-07
  -13.3100004      -9.59762588E-07
  -13.3000002      -7.12879398E-07
  -13.2900000      -3.02166598E-07
  -13.2799997       1.84918903E-07
  -13.2700005       6.39875395E-07
  -13.2600002       9.58861733E-07
  -13.2500000       1.06848665E-06
  -13.2399998       9.45085674E-07
  -13.2299995       6.22146956E-07
  -13.2200003       1.83281031E-07
  -13.2100000      -2.58257018E-07
  -13.1999998      -5.88873434E-07
  -13.1899996      -7.25489599E-07
  -13.1800003      -6.39728512E-07
  -13.1700001      -3.68393046E-07
  -13.1599998      -6.34107122E-09
  -13.1499996       3.17688091E-07
  -13.1400003       4.77057938E-07
  -13.1300001       3.86094797E-07
  -13.1199999       3.12486641E-08
  -13.1099997      -5.14977557E-07
  -13.1000004      -1.10316660E-06
  -13.0900002      -1.53939379E-06
  -13.0799999      -1.63483674E-06
  -13.0699997      -1.26119721E-06
  -13.0600004      -3.97661637E-07
  -13.0500002       8.44314400E-07
  -13.0400000       2.22791550E-06
  -13.0299997       3.43194893E-06
  -13.0200005       4.11973679E-06
  -13.0100002       4.02187243E-06
  -13.0000000       3.01361274E-06
  -12.9899998       1.16680997E-06
  -12.9799995      -1.23961138E-06
  -12.9700003      -3.75809964E-06
  -12.9600000      -5.85606904E-06
  -12.9499998      -7.02937268E-06
  -12.9399996      -6.92156436E-06
  -12.9300003      -5.42103226E-06
  -12.9200001      -2.71073873E-06
  -12.9099998       7.45706359E-07
  -12.8999996       4.28412568E-06
  -12.8900003       7.17294643E-06
  -12.8800001       8.77264392E-06
  -12.8699999       8.68616371E-06
  -12.8599997       6.86437897E-06
  -12.8500004       3.63849131E-06
  -12.8400002      -3.33483882E-07
  -12.8299999      -4.19958087E-06
  -12.8199997      -7.10018185E-06
  -12.8100004      -8.36733761E-06
  -12.8000002      -7.69077360E-06
  -12.7900000      -5.20901676E-06
  -12.7799997      -1.49911557E-06
  -12.7700005       2.53911935E-06
  -12.7600002       5.88347893E-06
  -12.7500000       7.63178650E-06
  -12.7399998       7.23093035E-06
  -12.7299995       4.63649030E-06
  -12.7200003       3.59813185E-07
  -12.7100000      -4.61658692E-06
  -12.6999998      -9.04421995E-06
  -12.6899996      -1.16937172E-05
  -12.6800003      -1.16573137E-05
  -12.6700001      -8.59774445E-06
  -12.6599998      -2.88043884E-06
  -12.6499996       4.45080286E-06
  -12.6400003       1.18602738E-05
  -12.6300001       1.76368994E-05
  -12.6199999       2.02762276E-05
  -12.6099997       1.88438444E-05
  -12.6000004       1.32351506E-05
  -12.5900002       4.26508359E-06
  -12.5799999      -6.44351167E-06
  -12.5699997      -1.67599828E-05
  -12.5600004      -2.44779367E-05
  -12.5500002      -2.77898598E-05
  -12.5400000      -2.57007996E-05
  -12.5299997      -1.82865024E-05
  -12.5200005      -6.73201976E-06
  -12.5100002       6.86673366E-06
  -12.5000000       1.99038059E-05
  -12.4899998       2.97855586E-05
  -12.4799995       3.44641921E-05
  -12.4700003       3.28666138E-05
  -12.4600000       2.51233050E-05
  -12.4499998       1.25442639E-05
  -12.4399996      -2.65545350E-06
  -12.4300003      -1.78222690E-05
  -12.4200001      -3.04207460E-05
  -12.4099998      -3.85572675E-05
  -12.3999996      -4.13543567E-05
  -12.3900003      -3.90925343E-05
  -12.3800001      -3.30893672E-05
  -12.3699999      -2.53455255E-05
  -12.3599997      -1.80414481E-05
  -12.3500004      -1.30029848E-05
  -12.3400002      -1.12617363E-05
  -12.3299999      -1.28139554E-05
  -12.3199997      -1.66353348E-05
  -12.3100004      -2.09487553E-05
  -12.3000002      -2.36819051E-05
  -12.2900000      -2.30060759E-05
  -12.2799997      -1.78270257E-05
  -12.2700005      -8.10880101E-06
  -12.2600002       5.05022308E-06
  -12.2500000       1.96119945E-05
  -12.2399998       3.30232651E-05
  -12.2299995       4.27741725E-05
  -12.2200003       4.69623701E-05
  -12.2100000       4.47314851E-05
  -12.1999998       3.64804400E-05
  -12.1899996       2.37928198E-05
  -12.1800003       9.10008202E-06
  -12.1700001      -4.84575321E-06
  -12.1599998      -1.55697981E-05
  -12.1499996      -2.14056290E-05
  -12.1400003      -2.18386631E-05
  -12.1300001      -1.75835539E-05
  -12.1199999      -1.03792372E-05
  -12.1099997      -2.55086343E-06
  -12.1000004       3.55812062E-06
  -12.0900002       6.15039107E-06
  -12.0799999       4.40341091E-06
  -12.0699997      -1.33809328E-06
  -12.0600004      -9.65096388E-06
  -12.0500002      -1.83830307E-05
  -12.0400000      -2.51811307E-05
  -12.0299997      -2.80735549E-05
  -12.0200005      -2.59690878E-05
  -12.0100002      -1.89533257E-05
  -12.0000000      -8.30913723E-06
  -11.9899998       3.74814431E-06
  -11.9799995       1.45639206E-05
  -11.9700003       2.16549142E-05
  -11.9600000       2.32971397E-05
  -11.9499998       1.89539041E-05
  -11.9399996       9.44068688E-06
  -11.9300003      -3.21792390E-06
  -11.9200001      -1.62143842E-05
  -11.9099998      -2.65775252E-05
  -11.8999996      -3.18488892E-05
  -11.8900003      -3.06634720E-05
  -11.8800001      -2.31001104E-05
  -11.8699999      -1.07148899E-05
  -11.8599997       3.76011599E-06
  -11.8500004       1.69958821E-05
  -11.8400002       2.58024666E-05
  -11.8299999       2.78625503E-05
  -11.8199997       2.22983490E-05
  -11.8100004       9.93939102E-06
  -11.8000002      -6.77952676E-06
  -11.7900000      -2.42818587E-05
  -11.7799997      -3.85860440E-05
  -11.7700005      -4.61642085E-05
  -11.7600002      -4.47395541E-05
  -11.7500000      -3.38462087E-05
  -11.7399998      -1.50206934E-05
  -11.7299995       8.43027556E-06
  -11.7200003       3.20511535E-05
  -11.7100000       5.11282960E-05
  -11.6999998       6.16682228E-05
  -11.6899996       6.12569202E-05
  -11.6800003       4.96129142E-05
  -11.6700001       2.87068742E-05
  -11.6599998       2.41005682E-06
  -11.6499996      -2.42663864E-05
  -11.6400003      -4.61897034E-05
  -11.6300001      -5.91709613E-05
  -11.6199999      -6.08518894E-05
  -11.6099997      -5.12205370E-05
  -11.6000004      -3.26382433E-05
  -11.5900002      -9.36280776E-06
  -11.5799999       1.33398844E-05
  -11.5699997       3.03134220E-05
  -11.5600004       3.76228709E-05
  -11.5500002       3.34235556E-05
  -11.5400000       1.83968841E-05
  -11.5299997      -4.34699268E-06
  -11.5200005      -2.98876803E-05
  -11.5100002      -5.25108007E-05
  -11.5000000      -6.69123037E-05
  -11.4899998      -6.93383627E-05
  -11.4799995      -5.84190930E-05
  -11.4700003      -3.55163575E-05
  -11.4600000      -4.50669586E-06
  -11.4499998       2.89612799E-05
  -11.4399996       5.85852140E-05
  -11.4300003       7.86736564E-05
  -11.4200001       8.52960366E-05
  -11.4099998       7.70801562E-05
  -11.3999996       5.54925355E-05
  -11.3900003       2.45437041E-05
  -11.3800001      -1.00198022E-05
  -11.3699999      -4.18699492E-05
  -11.3599997      -6.53605093E-05
  -11.3500004      -7.66411031E-05
  -11.3400002      -7.43964411E-05
  -11.3299999      -6.00640924E-05
  -11.3199997      -3.74922529E-05
  -11.3100004      -1.21132871E-05
  -11.3000002       1.01937476E-05
  -11.2900000       2.43178274E-05
  -11.2799997       2.69620614E-05
  -11.2700005       1.73127955E-05
  -11.2600002      -2.79766118E-06
  -11.2500000      -2.92611421E-05
  -11.2399998      -5.65166447E-05
  -11.2299995      -7.86581804E-05
  -11.2200003      -9.06061541E-05
  -11.2100000      -8.91121163E-05
  -11.1999998      -7.34032947E-05
  -11.1899996      -4.53460780E-05
  -11.1800003      -9.10293511E-06
  -11.1700001       2.96448670E-05
  -11.1599998       6.47539418E-05
  -11.1499996       9.07486101E-05
  -11.1400003       1.03806531E-04
  -11.1300001       1.02413418E-04
  -11.1199999       8.75663536E-05
  -11.1099997       6.24941313E-05
  -11.1000004       3.19572609E-05
  -11.0900002       1.27243447E-06
  -11.0799999      -2.47410626E-05
  -11.0699997      -4.26810002E-05
  -11.0600004      -5.11645630E-05
  -11.0500002      -5.09952151E-05
  -11.0400000      -4.48656720E-05
  -11.0299997      -3.66643326E-05
  -11.0200005      -3.05350841E-05
  -11.0100002      -2.98918130E-05
  -11.0000000      -3.65984597E-05
  -10.9899998      -5.04903728E-05
  -10.9799995      -6.93402399E-05
  -10.9700003      -8.92774915E-05
  -10.9600000      -1.05573796E-04
  -10.9499998      -1.13630078E-04
  -10.9399996      -1.09959132E-04
  -10.9300003      -9.29601520E-05
  -10.9200001      -6.33273521E-05
  -10.9099998      -2.40122354E-05
  -10.8999996       2.02481515E-05
  -10.8900003       6.37378544E-05
  -10.8800001       1.00740617E-04
  -10.8699999       1.26499683E-04
  -10.8599997       1.37980140E-04
  -10.8500004       1.34301255E-04
  -10.8400002       1.16776748E-04
  -10.8299999       8.85779809E-05
  -10.8199997       5.41043955E-05
  -10.8100004       1.81933792E-05
  -10.8000002      -1.46788425E-05
  -10.7900000      -4.10641587E-05
  -10.7799997      -5.89722986E-05
  -10.7700005      -6.80101803E-05
  -10.7600002      -6.92354442E-05
  -10.7500000      -6.47801207E-05
  -10.7399998      -5.73370453E-05
  -10.7299995      -4.96173489E-05
  -10.7200003      -4.38807001E-05
  -10.7100000      -4.16141083E-05
  -10.6999998      -4.33962123E-05
  -10.6899996      -4.89414670E-05
  -10.6800003      -5.72819154E-05
  -10.6700001      -6.70217851E-05
  -10.6599998      -7.65960576E-05
  -10.6499996      -8.44785827E-05
  -10.6400003      -8.93132164E-05
  -10.6300001      -8.99736260E-05
  -10.6199999      -8.55837352E-05
  -10.6099997      -7.55429501E-05
  -10.6000004      -5.95932433E-05
  -10.5900002      -3.79415105E-05
  -10.5799999      -1.14169943E-05
  -10.5699997       1.83876564E-05
  -10.5600004       4.90612802E-05
  -10.5500002       7.74702203E-05
  -10.5400000       1.00042751E-04
  -10.5299997       1.13232920E-04
  -10.5200005       1.14102251E-04
  -10.5100002       1.00914272E-04
  -10.5000000       7.36153524E-05
  -10.4899998       3.40842853E-05
  -10.4799995      -1.39283839E-05
  -10.4700003      -6.51906084E-05
  -10.4600000      -1.13661146E-04
  -10.4499998      -1.53339206E-04
  -10.4399996      -1.79151190E-04
  -10.4300003      -1.87727914E-04
  -10.4200001      -1.77946597E-04
  -10.4099998      -1.51153668E-04
  -10.3999996      -1.11036345E-04
  -10.3900003      -6.31610310E-05
  -10.3800001      -1.42400322E-05
  -10.3699999       2.87810908E-05
  -10.3599997       5.97025537E-05
  -10.3500004       7.39925235E-05
  -10.3400002       6.95279596E-05
  -10.3299999       4.70394225E-05
  -10.3199997       1.01696987E-05
  -10.3100004      -3.49017937E-05
  -10.3000002      -8.02571449E-05
  -10.2900000      -1.17378200E-04
  -10.2799997      -1.38472504E-04
  -10.2700005      -1.37781564E-04
  -10.2600002      -1.12646499E-04
  -10.2500000      -6.41294391E-05
  -10.2399998       2.94319443E-06
  -10.2299995       8.05495292E-05
  -10.2200003       1.58574825E-04
  -10.2100000       2.26269622E-04
  -10.1999998       2.73821381E-04
  -10.1899996       2.93781835E-04
  -10.1800003       2.82128050E-04
  -10.1700001       2.38807974E-04
  -10.1599998       1.67716586E-04
  -10.1499996       7.61385818E-05
  -10.1400003      -2.62332724E-05
  -10.1300001      -1.28551983E-04
  -10.1199999      -2.20174377E-04
  -10.1099997      -2.91960809E-04
  -10.1000004      -3.37370904E-04
  -10.0900002      -3.53231822E-04
  -10.0799999      -3.40084167E-04
  -10.0699997      -3.02045868E-04
  -10.0600004      -2.46185227E-04
  -10.0500002      -1.81460317E-04
  -10.0400000      -1.17356591E-04
  -10.0299997      -6.24227541E-05
  -10.0200005      -2.29492034E-05
  -10.0100002      -2.03015861E-06
  -10.0000000       8.04602735E-07
  -9.98999977      -1.06921534E-05
  -9.97999954      -3.03646302E-05
  -9.97000027      -5.09492893E-05
  -9.96000004      -6.55140102E-05
  -9.94999981      -6.87432912E-05
  -9.93999958      -5.78190229E-05
  -9.93000031      -3.27535236E-05
  -9.92000008       3.83211864E-06
  -9.90999985       4.73647633E-05
  -9.89999962       9.22097752E-05
  -9.89000034       1.32577508E-04
  -9.88000011       1.63273682E-04
  -9.86999989       1.80208182E-04
  -9.85999966       1.80669929E-04
  -9.85000038       1.63440956E-04
  -9.84000015       1.28840562E-04
  -9.82999992       7.87579993E-05
  -9.81999969       1.66694899E-05
  -9.81000042      -5.24272255E-05
  -9.80000019      -1.22258702E-04
  -9.78999996      -1.85780766E-04
  -9.77999973      -2.35952830E-04
  -9.77000046      -2.66696356E-04
  -9.76000023      -2.73864047E-04
  -9.75000000      -2.56000319E-04
  -9.73999977      -2.14693326E-04
  -9.72999954      -1.54402471E-04
  -9.72000027      -8.17726759E-05
  -9.71000004      -4.57818032E-06
  -9.69999981       6.94678747E-05
  -9.68999958       1.33774272E-04
  -9.68000031       1.83587865E-04
  -9.67000008       2.16257249E-04
  -9.65999985       2.31067708E-04
  -9.64999962       2.28784382E-04
  -9.64000034       2.11100400E-04
  -9.63000011       1.80179573E-04
  -9.61999989       1.38414049E-04
  -9.60999966       8.84164765E-05
  -9.60000038       3.31675255E-05
  -9.59000015      -2.38202501E-05
  -9.57999992      -7.84677250E-05
  -9.56999969      -1.26321029E-04
  -9.56000042      -1.62985947E-04
  -9.55000019      -1.84735152E-04
  -9.53999996      -1.89156694E-04
  -9.52999973      -1.75691603E-04
  -9.52000046      -1.45931714E-04
  -9.51000023      -1.03603241E-04
  -9.50000000      -5.42270609E-05
  -9.48999977      -4.50518746E-06
  -9.47999954       3.84803207E-05
  -9.47000027       6.81531674E-05
  -9.46000004       7.93104336E-05
  -9.44999981       6.88742730E-05
  -9.43999958       3.64355001E-05
  -9.43000031      -1.54970112E-05
  -9.42000008      -8.16128668E-05
  -9.40999985      -1.54322086E-04
  -9.39999962      -2.24666364E-04
  -9.39000034      -2.83529604E-04
  -9.38000011      -3.22980573E-04
  -9.36999989      -3.37523350E-04
  -9.35999966      -3.25018453E-04
  -9.35000038      -2.87079514E-04
  -9.34000015      -2.28847493E-04
  -9.32999992      -1.58172101E-04
  -9.31999969      -8.43587550E-05
  -9.31000042      -1.67292146E-05
  -9.30000019       3.67270623E-05
  -9.28999996       7.03754267E-05
  -9.27999973       8.14922241E-05
  -9.27000046       7.03333717E-05
  -9.26000023       3.97986332E-05
  -9.25000000      -5.16455020E-06
  -9.23999977      -5.82691318E-05
  -9.22999954      -1.12601199E-04
  -9.22000027      -1.61292308E-04
  -9.21000004      -1.98157242E-04
  -9.19999981      -2.18317058E-04
  -9.18999958      -2.18800473E-04
  -9.18000031      -1.99059432E-04
  -9.17000008      -1.61279619E-04
  -9.15999985      -1.10344939E-04
  -9.14999962      -5.33499333E-05
  -9.14000034       1.35497862E-06
  -9.13000011       4.54736874E-05
  -9.11999989       7.21979086E-05
  -9.10999966       7.74605141E-05
  -9.10000038       6.07142392E-05
  -9.09000015       2.50362064E-05
  -9.07999992      -2.34821073E-05
  -9.06999969      -7.69236358E-05
  -9.06000042      -1.27034713E-04
  -9.05000019      -1.66671889E-04
  -9.03999996      -1.90895473E-04
  -9.02999973      -1.97514106E-04
  -9.02000046      -1.87043450E-04
  -9.01000023      -1.62194890E-04
  -9.00000000      -1.27108433E-04
  -8.98999977      -8.65649999E-05
  -8.97999954      -4.53570428E-05
  -8.97000027      -7.89414298E-06
  -8.96000004       2.19870217E-05
  -8.94999981       4.11105830E-05
  -8.93999958       4.70616469E-05
  -8.93000031       3.83684019E-05
  -8.92000008       1.47575674E-05
  -8.90999985      -2.26009161E-05
  -8.89999962      -7.09826272E-05
  -8.89000034      -1.26237617E-04
  -8.88000011      -1.83201453E-04
  -8.86999989      -2.36340042E-04
  -8.85999966      -2.80500331E-04
  -8.85000038      -3.11599666E-04
  -8.84000015      -3.27104470E-04
  -8.82999992      -3.26213718E-04
  -8.81999969      -3.09753028E-04
  -8.81000042      -2.79863045E-04
  -8.80000019      -2.39607558E-04
  -8.78999996      -1.92616339E-04
  -8.77999973      -1.42824327E-04
  -8.77000046      -9.42991683E-05
  -8.76000023      -5.10935715E-05
  -8.75000000      -1.70399744E-05
  -8.73999977       4.56550242E-06
  -8.72999954       1.13806345E-05
  -8.72000027       2.45719002E-06
  -8.71000004      -2.14213887E-05
  -8.69999981      -5.76308812E-05
  -8.68999958      -1.01904123E-04
  -8.68000031      -1.48832783E-04
  -8.67000008      -1.92586740E-04
  -8.65999985      -2.27707191E-04
  -8.64999962      -2.49820150E-04
  -8.64000034      -2.56154657E-04
  -8.63000011      -2.45817151E-04
  -8.61999989      -2.19840338E-04
  -8.60999966      -1.81064170E-04
  -8.60000038      -1.33902940E-04
  -8.59000015      -8.40168505E-05
  -8.57999992      -3.78599216E-05
  -8.56999969      -2.05239007E-06
  -8.56000042       1.74493416E-05
  -8.55000019       1.63368586E-05
  -8.53999996      -7.06389483E-06
  -8.52999973      -5.10466889E-05
  -8.52000046      -1.10291119E-04
  -8.51000023      -1.76349102E-04
  -8.50000000      -2.38902692E-04
  -8.48999977      -2.87629227E-04
  -8.47999954      -3.14299861E-04
  -8.47000027      -3.14609671E-04
  -8.46000004      -2.89242947E-04
  -8.44999981      -2.43836505E-04
  -8.43999958      -1.87779195E-04
  -8.43000031      -1.32105371E-04
  -8.42000008      -8.70039221E-05
  -8.40999985      -5.95866804E-05
  -8.39999962      -5.24994284E-05
  -8.39000034      -6.37222765E-05
  -8.38000011      -8.75662154E-05
  -8.36999989      -1.16532596E-04
  -8.35999966      -1.43465586E-04
  -8.35000038      -1.63369186E-04
  -8.34000015      -1.74395493E-04
  -8.32999992      -1.77791255E-04
  -8.31999969      -1.76923902E-04
  -8.31000042      -1.75786612E-04
  -8.30000019      -1.77515511E-04
  -8.28999996      -1.83405587E-04
  -8.27999973      -1.92707594E-04
  -8.27000046      -2.03202610E-04
  -8.26000023      -2.12282481E-04
  -8.25000000      -2.18105837E-04
  -8.23999977      -2.20397473E-04
  -8.22999954      -2.20608767E-04
  -8.22000027      -2.21398019E-04
  -8.21000004      -2.25635871E-04
  -8.19999981      -2.35304717E-04
  -8.18999958      -2.50689132E-04
  -8.18000031      -2.70143966E-04
  -8.17000008      -2.90517666E-04
  -8.15999985      -3.08082992E-04
  -8.14999962      -3.19657760E-04
  -8.14000034      -3.23543616E-04
  -8.13000011      -3.19983752E-04
  -8.11999989      -3.11005220E-04
  -8.10999966      -2.99714418E-04
  -8.10000038      -2.89279677E-04
  -8.09000015      -2.81917688E-04
  -8.07999992      -2.78176391E-04
  -8.06999969      -2.76700070E-04
  -8.06000042      -2.74514197E-04
  -8.05000019      -2.67727242E-04
  -8.03999996      -2.52460683E-04
  -8.02999973      -2.25793963E-04
  -8.02000046      -1.86547477E-04
  -8.01000023      -1.35788956E-04
  -8.00000000      -7.70103215E-05
  -7.98999977      -1.59642877E-05
  -7.98000002       3.98315242E-05
  -7.96999979       8.19017514E-05
  -7.96000004       1.01889753E-04
  -7.94999981       9.28131703E-05
  -7.94000006       5.03436313E-05
  -7.92999983      -2.61067835E-05
  -7.92000008      -1.32739413E-04
  -7.90999985      -2.61375098E-04
  -7.90000010      -4.00219462E-04
  -7.88999987      -5.35333413E-04
  -7.88000011      -6.52584480E-04
  -7.86999989      -7.39719835E-04
  -7.86000013      -7.88155477E-04
  -7.84999990      -7.94130377E-04
  -7.84000015      -7.59027374E-04
  -7.82999992      -6.88857166E-04
  -7.82000017      -5.93088334E-04
  -7.80999994      -4.83121315E-04
  -7.80000019      -3.70729977E-04
  -7.78999996      -2.66721763E-04
  -7.78000021      -1.79945055E-04
  -7.76999998      -1.16649288E-04
  -7.76000023      -8.01253118E-05
  -7.75000000      -7.05500424E-05
  -7.73999977      -8.50137367E-05
  -7.73000002      -1.17784504E-04
  -7.71999979      -1.60910611E-04
  -7.71000004      -2.05239136E-04
  -7.69999981      -2.41826390E-04
  -7.69000006      -2.63563648E-04
  -7.67999983      -2.66699033E-04
  -7.67000008      -2.51864258E-04
  -7.65999985      -2.24260832E-04
  -7.65000010      -1.92835447E-04
  -7.63999987      -1.68526909E-04
  -7.63000011      -1.61932505E-04
  -7.61999989      -1.80928109E-04
  -7.61000013      -2.28815494E-04
  -7.59999990      -3.03447421E-04
  -7.59000015      -3.97526950E-04
  -7.57999992      -4.99971968E-04
  -7.57000017      -5.97971608E-04
  -7.55999994      -6.79223507E-04
  -7.55000019      -7.33858091E-04
  -7.53999996      -7.55710062E-04
  -7.53000021      -7.42829405E-04
  -7.51999998      -6.97335985E-04
  -7.51000023      -6.24849985E-04
  -7.50000000      -5.33735729E-04
  -7.48999977      -4.34302288E-04
  -7.48000002      -3.37969337E-04
  -7.46999979      -2.56303174E-04
  -7.46000004      -1.99818372E-04
  -7.44999981      -1.76543166E-04
  -7.44000006      -1.90518535E-04