  -16.0000000       0.00000000    
  -15.9899998       0.00000000    
  -15.9799995       0.00000000    
  -15.9700003       0.00000000    
  -15.9600000       0.00000000    
  -15.9499998       0.00000000    
  -15.9399996       0.00000000    
  -15.9300003       0.00000000    
  -15.9200001       0.00000000    
  -15.9099998       0.00000000    
  -15.8999996       1.08964969E-41
  -15.8900003       7.99764474E-40
  -15.8800001       1.75114720E-38
  -15.8699999       2.30859371E-37
  -15.8599997       2.19053882E-36
  -15.8500004       1.61444922E-35
  -15.8400002       9.65312747E-35
  -15.8299999       4.82345740E-34
  -15.8199997       2.05879589E-33
  -15.8100004       7.63229968E-33
  -15.8000002       2.48848157E-32
  -15.7900000       7.20098318E-32
  -15.7799997       1.86011308E-31
  -15.7700005       4.29847674E-31
  -15.7600002       8.86246098E-31
  -15.7500000       1.61289373E-30
  -15.7399998       2.52020196E-30
  -15.7299995       3.13121095E-30
  -15.7200003       2.21498664E-30
  -15.7100000      -2.62234151E-30
  -15.6999998      -1.51290088E-29
  -15.6899996      -3.98687420E-29
  -15.6800003      -8.01821692E-29
  -15.6700001      -1.33814816E-28
  -15.6599998      -1.85878059E-28
  -15.6499996      -2.00403098E-28
  -15.6400003      -1.14879205E-28
  -15.6300001       1.53420374E-28
  -15.6199999       6.76802357E-28
  -15.6099997       1.45123212E-27
  -15.6000004       2.29775768E-27
  -15.5900002       2.76512002E-27
  -15.5799999       2.11316751E-27
  -15.5699997      -5.04081589E-28
  -15.5600004      -5.54823863E-27
  -15.5500002      -1.23097561E-26
  -15.5400000      -1.80919825E-26
  -15.5299997      -1.79785345E-26
  -15.5200005      -6.04189800E-27
  -15.5100002       2.13243216E-26
  -15.5000000       6.01939266E-26
  -15.4899998       9.40135029E-26
  -15.4799995       9.26795022E-26
  -15.4700003       2.09054241E-26
  -15.4600000      -1.40777171E-25
  -15.4499998      -3.65135314E-25
  -15.4399996      -5.50281609E-25
  -15.4300003      -5.17863666E-25
  -15.4200001      -6.41464957E-26
  -15.4099998       9.21329387E-25
  -15.3999996       2.28796760E-24
  -15.3900003       3.47559059E-24
  -15.3800001       3.50118676E-24
  -15.3699999       1.20946241E-24
  -15.3599997      -4.14316532E-24
  -15.3500004      -1.20512845E-23
  -15.3400002      -1.99696036E-23
  -15.3299999      -2.30800443E-23
  -15.3199997      -1.52049074E-23
  -15.3100004       8.74471088E-24
  -15.3000002       4.89561966E-23
  -15.2900000       9.65838126E-23
  -15.2799997       1.31295510E-22
  -15.2700005       1.23096595E-22
  -15.2600002       4.07399168E-23
  -15.2500000      -1.32623333E-22
  -15.2399998      -3.79085884E-22
  -15.2299995      -6.27753042E-22
  -15.2200003      -7.49637176E-22
  -15.2100000      -5.78579063E-22
  -15.1999998       3.19983630E-23
  -15.1899996       1.11729846E-21
  -15.1800003       2.49396914E-21
  -15.1700001       3.68130269E-21
  -15.1599998       3.91541823E-21
  -15.1499996       2.32428543E-21
  -15.1400003      -1.69986848E-21
  -15.1300001      -7.97195800E-21
  -15.1199999      -1.49897729E-20
  -15.1099997      -1.97020544E-20
  -15.1000004      -1.79260976E-20
  -15.0900002      -5.69546567E-21
  -15.0799999       1.84771906E-20
  -15.0699997       5.09554663E-20
  -15.0600004       8.11035986E-20
  -15.0500002       9.17718051E-20
  -15.0400000       6.36152233E-20
  -15.0299997      -1.63074199E-20
  -15.0200005      -1.43226220E-19
  -15.0100002      -2.84803300E-19
  -15.0000000      -3.79009685E-19
  -14.9899998      -3.46178421E-19
  -14.9799995      -1.18448180E-19
  -14.9700003       3.17326077E-19
  -14.9600000       8.76866664E-19
  -14.9499998       1.35845639E-18
  -14.9399996       1.47063490E-18
  -14.9300003       9.23585721E-19
  -14.9200001      -4.22909530E-19
  -14.9099998      -2.39571006E-18
  -14.8999996      -4.40252778E-18
  -14.8900003      -5.47278947E-18
  -14.8800001      -4.51223633E-18
  -14.8699999      -7.70079301E-19
  -14.8599997       5.58952823E-18
  -14.8500004       1.30337311E-17
  -14.8400002       1.86143133E-17
  -14.8299999       1.85793716E-17
  -14.8199997       9.71277130E-18
  -14.8100004      -8.84260790E-18
  -14.8000002      -3.38834619E-17
  -14.7900000      -5.74330028E-17
  -14.7799997      -6.78667017E-17
  -14.7700005      -5.33032871E-17
  -14.7600002      -6.85400243E-18
  -14.7500000       6.77289530E-17
  -14.7399998       1.52351885E-16
  -14.7299995       2.15413846E-16
  -14.7200003       2.18948144E-16
  -14.7100000       1.31871489E-16
  -14.6999998      -5.36166429E-17
  -14.6899996      -3.08096747E-16
  -14.6800003      -5.60407374E-16
  -14.6700001      -7.08398165E-16
  -14.6599998      -6.46790282E-16
  -14.6499996      -3.07608856E-16
  -14.6400003       2.98224604E-16
  -14.6300001       1.05422282E-15
  -14.6199999       1.74239209E-15
  -14.6099997       2.08705784E-15
  -14.6000004       1.83489677E-15
  -14.5900002       8.52591813E-16
  -14.5799999      -7.88549822E-16
  -14.5699997      -2.77501419E-15
  -14.5600004      -4.58555686E-15
  -14.5500002      -5.60209931E-15
  -14.5400000      -5.27491547E-15
  -14.5299997      -3.29743764E-15
  -14.5200005       2.62521715E-16
  -14.5100002       4.91691318E-15
  -14.5000000       9.80989344E-15
  -14.4899998       1.38468059E-14
  -14.4799995       1.58549152E-14
  -14.4700003       1.47350427E-14
  -14.4600000       9.59766087E-15
  -14.4499998      -7.27186388E-17
  -14.4399996      -1.41479769E-14
  -14.4300003      -3.14273991E-14
  -14.4200001      -4.90987120E-14
  -14.4099998      -6.23111927E-14
  -14.3999996      -6.42604391E-14
  -14.3900003      -4.72599729E-14
  -14.3800001      -5.12935031E-15
  -14.3699999       6.32107146E-14
  -14.3599997       1.49736980E-13
  -14.3500004       2.34472489E-13
  -14.3400002       2.85825210E-13
  -14.3299999       2.65984554E-13
  -14.3199997       1.42118468E-13
  -14.3100004      -9.79678239E-14
  -14.3000002      -4.29684229E-13
  -14.2900000      -7.81315388E-13
  -14.2799997      -1.03665817E-12
  -14.2700005      -1.05616535E-12
  -14.2600002      -7.17455392E-13
  -14.2500000       3.11528587E-14
  -14.2399998       1.11840409E-12
  -14.2299995       2.31945604E-12
  -14.2200003       3.26785213E-12
  -14.2100000       3.52421781E-12
  -14.1999998       2.70066738E-12
  -14.1899996       6.19007341E-13
  -14.1800003      -2.54030802E-12
  -14.1700001      -6.15517316E-12
  -14.1599998      -9.19985702E-12
  -14.1499996      -1.04371642E-11
  -14.1400003      -8.75606272E-12
  -14.1300001      -3.59230267E-12
  -14.1199999       4.68139676E-12
  -14.1099997       1.45384199E-11
  -14.1000004       2.33878698E-11
  -14.0900002       2.80458694E-11
  -14.0799999       2.55613031E-11
  -14.0699997       1.42424562E-11
  -14.0600004      -5.38402135E-12
  -14.0500002      -3.00128360E-11
  -14.0400000      -5.37028443E-11
  -14.0299997      -6.88940710E-11
  -14.0200005      -6.82431264E-11
  -14.0100002      -4.69465335E-11
  -14.0000000      -4.97349818E-12
  -13.9899998       5.15055255E-11
  -13.9799995       1.10158833E-10
  -13.9700003       1.54398674E-10
  -13.9600000       1.67088912E-10
  -13.9499998       1.35433290E-10
  -13.9399996       5.59082884E-11
  -13.9300003      -6.21991070E-11
  -13.9200001      -1.96040295E-10
  -13.9099998      -3.12163767E-10
  -13.8999996      -3.73257730E-10
  -13.8900003      -3.47681189E-10
  -13.8800001      -2.19757545E-10
  -13.8699999       1.88432408E-12
  -13.8599997       2.80712870E-10
  -13.8500004       5.55542889E-10
  -13.8400002       7.51308349E-10
  -13.8299999       7.96117394E-10
  -13.8199997       6.41358466E-10
  -13.8100004       2.80097862E-10
  -13.8000002      -2.41550502E-10
  -13.7900000      -8.24650626E-10
  -13.7799997      -1.33169731E-09
  -13.7700005      -1.61411440E-09
  -13.7600002      -1.54855861E-09
  -13.7500000      -1.07435483E-09
  -13.7399998      -2.22534491E-10
  -13.7299995       8.72799555E-10
  -13.7200003       1.98731653E-09
  -13.7100000       2.84508261E-09
  -13.6999998       3.17817306E-09
  -13.6899996       2.79611956E-09
  -13.6800003       1.64933101E-09
  -13.6700001      -1.30895336E-10
  -13.6599998      -2.23047425E-09
  -13.6499996      -4.19644186E-09
  -13.6400003      -5.52406343E-09
  -13.6300001      -5.77295989E-09
  -13.6199999      -4.68802108E-09
  -13.6099997      -2.29527730E-09
  -13.6000004       1.05599918E-09
  -13.5900002       4.72489603E-09
  -13.5799999       7.88861154E-09
  -13.5699997       9.71545422E-09
  -13.5600004       9.56746415E-09
  -13.5500002       7.18596427E-09
  -13.5400000       2.81038659E-09
  -13.5299997      -2.80972112E-09
  -13.5200005      -8.52799875E-09
  -13.5100002      -1.30286724E-08
  -13.5000000      -1.51256838E-08
  -13.4899998      -1.40667344E-08
  -13.4799995      -9.76532899E-09
  -13.4700003      -2.89282598E-09
  -13.4600000       5.20930010E-09
  -13.4499998       1.27942821E-08
  -13.4399996       1.81023143E-08
  -13.4300003       1.97913241E-08
  -13.4200001       1.72976744E-08
  -13.4099998       1.10257536E-08
  -13.3999996       2.30150321E-09
  -13.3900003      -6.91725832E-09
  -13.3800001      -1.45150088E-08
  -13.3699999      -1.87621669E-08
  -13.3599997      -1.87834956E-08
  -13.3500004      -1.48147583E-08
  -13.3400002      -8.15902457E-09
  -13.3299999      -8.32426794E-10
  -13.3199997       5.02145614E-09
  -13.3100004       7.79361375E-09
  -13.3000002       6.95451652E-09
  -13.2900000       3.30262173E-09
  -13.2799997      -1.19375765E-09
  -13.2700005      -3.96127753E-09
  -13.2600002      -2.66916245E-09
  -13.2500000       3.86752053E-09
  -13.2399998       1.50055275E-08
  -13.2299995       2.80631252E-08
  -13.2200003       3.87296879E-08
  -13.2100000       4.20817514E-08
  -13.1999998       3.40107249E-08
  -13.1899996       1.27151409E-08
  -13.1800003      -2.01663735E-08
  -13.1700001      -5.91742584E-08
  -13.1599998      -9.56475859E-08
  -13.1499996      -1.19357964E-07
  -13.1400003      -1.20898960E-07
  -13.1300001      -9.43285130E-08
  -13.1199999      -3.94153226E-08
  -13.1099997       3.71576654E-08
  -13.1000004       1.22111715E-07
  -13.0900002       1.97578359E-07
  -13.0799999       2.44562472E-07
  -13.0699997       2.47239967E-07
  -13.0600004       1.97178366E-07
  -13.0500002       9.64641913E-08
  -13.0400000      -4.11537613E-08
  -13.0299997      -1.91641902E-07
  -13.0200005      -3.24596755E-07
  -13.0100002      -4.09127750E-07
  -13.0000000      -4.20618449E-07
  -12.9899998      -3.46946933E-07
  -12.9799995      -1.92706494E-07
  -12.9700003       1.97503489E-08
  -12.9600000       2.53039701E-07
  -12.9499998       4.61068367E-07
  -12.9399996       5.97955648E-07
  -12.9300003       6.27879558E-07
  -12.9200001       5.33792388E-07
  -12.9099998       3.22983624E-07
  -12.8999996       2.79511827E-08
  -12.8900003      -2.98086547E-07
  -12.8800001      -5.90599257E-07
  -12.8699999      -7.86509304E-07
  -12.8599997      -8.37851303E-07
  -12.8500004      -7.23418566E-07
  -12.8400002      -4.55638911E-07
  -12.8299999      -8.06944058E-08
  -12.8199997       3.28797114E-07
  -12.8100004       6.87634724E-07
  -12.8000002       9.15958708E-07
  -12.7900000       9.57610268E-07
  -12.7799997       7.94811797E-07
  -12.7700005       4.55450902E-07
  -12.7600002       1.05413314E-08
  -12.7500000      -4.38576961E-07
  -12.7399998      -7.81425115E-07
  -12.7299995      -9.23942707E-07
  -12.7200003      -8.12938367E-07
  -12.7100000      -4.53598574E-07
  -12.6999998       8.48258566E-08
  -12.6899996       6.77841115E-07
  -12.6800003       1.16865886E-06
  -12.6700001       1.40157238E-06
  -12.6599998       1.25924078E-06
  -12.6499996       6.95752760E-07
  -12.6400003      -2.42542853E-07
  -12.6300001      -1.41446969E-06
  -12.6199999      -2.60217121E-06
  -12.6099997      -3.54794747E-06
  -12.6000004      -4.00335330E-06
  -12.5900002      -3.78085019E-06
  -12.5799999      -2.79702681E-06
  -12.5699997      -1.09758059E-06
  -12.5600004       1.14219506E-06
  -12.5500002       3.64246398E-06
  -12.5400000       6.06473259E-06
  -12.5299997       8.06896696E-06
  -12.5200005       9.36953620E-06
  -12.5100002       9.77766831E-06
  -12.5000000       9.22122035E-06
  -12.4899998       7.73807915E-06
  -12.4799995       5.44604245E-06
  -12.4700003       2.49810500E-06
  -12.4600000      -9.64108608E-07
  -12.4499998      -4.84540169E-06
  -12.4399996      -9.11017469E-06
  -12.4300003      -1.37692168E-05
  -12.4200001      -1.88430513E-05
  -12.4099998      -2.43116465E-05
  -12.3999996      -3.00649062E-05
  -12.3900003      -3.58691941E-05
  -12.3800001      -4.13618072E-05
  -12.3699999      -4.60785886E-05
  -12.3599997      -4.95113527E-05
  -12.3500004      -5.11837607E-05
  -12.3400002      -5.07290351E-05
  -12.3299999      -4.79517294E-05
  -12.3199997      -4.28595704E-05
  -12.3100004      -3.56587843E-05
  -12.3000002      -2.67158066E-05
  -12.2900000      -1.64967769E-05
  -12.2799997      -5.50185405E-06
  -12.2700005       5.78813615E-06
  -12.2600002       1.69397099E-05
  -12.2500000       2.75648999E-05
  -12.2399998       3.72951981E-05
  -12.2299995       4.57456008E-05
  -12.2200003       5.24875031E-05
  -12.2100000       5.70479679E-05
  -12.1999998       5.89458650E-05
  -12.1899996       5.77640421E-05
  -12.1800003       5.32447011E-05
  -12.1700001       4.53852954E-05
  -12.1599998       3.45083390E-05
  -12.1499996       2.12816503E-05
  -12.1400003       6.67568565E-06
  -12.1300001      -8.14058694E-06
  -12.1199999      -2.19483572E-05
  -12.1099997      -3.36431403E-05
  -12.1000004      -4.23802339E-05
  -12.0900002      -4.76708083E-05
  -12.0799999      -4.94095475E-05
  -12.0699997      -4.78315451E-05
  -12.0600004      -4.34137910E-05
  -12.0500002      -3.67499961E-05
  -12.0400000      -2.84332509E-05
  -12.0299997      -1.89770399E-05
  -12.0200005      -8.79265190E-06
  -12.0100002       1.77680124E-06
  -12.0000000       1.23834088E-05
  -11.9899998       2.25932363E-05
  -11.9799995       3.18313905E-05
  -11.9700003       3.93815171E-05
  -11.9600000       4.44524012E-05
  -11.9499998       4.63039069E-05
  -11.9399996       4.44051184E-05
  -11.9300003       3.85845087E-05
  -11.9200001       2.91296801E-05
  -11.9099998       1.68037550E-05
  -11.8999996       2.76493824E-06
  -11.8900003      -1.15999455E-05
  -11.8800001      -2.48943143E-05
  -11.8699999      -3.59346122E-05
  -11.8599997      -4.39258911E-05
  -11.8500004      -4.85498640E-05
  -11.8400002      -4.99467751E-05
  -11.8299999      -4.85997407E-05
  -11.8199997      -4.51552660E-05
  -11.8100004      -4.02303813E-05
  -11.8000002      -3.42598069E-05
  -11.7900000      -2.74249887E-05
  -11.7799997      -1.96835426E-05
  -11.7700005      -1.08885688E-05
  -11.7600002      -9.60668444E-07
  -11.7500000       9.94149559E-06
  -11.7399998       2.13083185E-05
  -11.7299995       3.22663363E-05
  -11.7200003       4.16810144E-05
  -11.7100000       4.83584663E-05
  -11.6999998       5.12999359E-05
  -11.6899996       4.99445741E-05
  -11.6800003       4.43346871E-05
  -11.6700001       3.51540657E-05
  -11.6599998       2.36209198E-05
  -11.6499996       1.12540820E-05
  -11.6400003      -4.34839507E-07
  -11.6300001      -1.02494296E-05
  -11.6199999      -1.75401274E-05
  -11.6099997      -2.23009156E-05
  -11.6000004      -2.51060574E-05
  -11.5900002      -2.69030224E-05
  -11.5799999      -2.87154708E-05
  -11.5699997      -3.13340242E-05
  -11.5600004      -3.50760711E-05
  -11.5500002      -3.96776013E-05
  -11.5400000      -4.43445824E-05
  -11.5299997      -4.79486080E-05
  -11.5200005      -4.93126900E-05
  -11.5100002      -4.75094748E-05
  -11.5000000      -4.20921024E-05
  -11.4899998      -3.31983865E-05
  -11.4799995      -2.15059936E-05
  -11.4700003      -8.05914624E-06
  -11.4600000       5.97628105E-06
  -11.4499998       1.95537104E-05
  -11.4399996       3.19115461E-05
  -11.4300003       4.26187689E-05
  -11.4200001       5.14962267E-05
  -11.4099998       5.84515947E-05
  -11.3999996       6.32964511E-05
  -11.3900003       6.56223856E-05
  -11.3800001       6.47957568E-05
  -11.3699999       6.00918756E-05
  -11.3599997       5.09407182E-05
  -11.3500004       3.72123177E-05
  -11.3400002       1.94464337E-05
  -11.3299999      -1.06348432E-06
  -11.3199997      -2.23864572E-05
  -11.3100004      -4.22674893E-05
  -11.3000002      -5.85733105E-05
  -11.2900000      -6.97566502E-05
  -11.2799997      -7.52070846E-05
  -11.2700005      -7.53769200E-05
  -11.2600002      -7.16273207E-05
  -11.2500000      -6.58183853E-05
  -11.2399998      -5.97455255E-05
  -11.2299995      -5.45798175E-05
  -11.2200003      -5.04821037E-05
  -11.2100000      -4.65236044E-05
  -11.1999998      -4.09652639E-05
  -11.1899996      -3.18447346E-05
  -11.1800003      -1.77224520E-05
  -11.1700001       1.62423771E-06
  -11.1599998       2.47761582E-05
  -11.1499996       4.86772988E-05
  -11.1400003       6.91222522E-05
  -11.1300001       8.16462270E-05
  -11.1199999       8.26164687E-05
  -11.1099997       7.02496181E-05
  -11.1000004       4.52760651E-05
  -11.0900002       1.10457668E-05
  -11.0799999      -2.69954380E-05
  -11.0699997      -6.23678352E-05
  -11.0600004      -8.89203147E-05
  -11.0500002      -1.02165563E-04
  -11.0400000      -1.00254205E-04
  -11.0299997      -8.43375892E-05
  -11.0200005      -5.82218272E-05
  -11.0100002      -2.73992064E-05
  -11.0000000       2.29215425E-06
  -10.9899998       2.60298602E-05
  -10.9799995       4.10332104E-05
  -10.9700003       4.69887491E-05
  -10.9600000       4.57764763E-05
  -10.9499998       4.05939209E-05
  -10.9399996       3.47463138E-05
  -10.9300003       3.04690711E-05
  -10.9200001       2.81433568E-05
  -10.9099998       2.61562564E-05
  -10.8999996       2.14714510E-05
  -10.8900003       1.07650476E-05
  -10.8800001      -8.19644447E-06
  -10.8699999      -3.53514370E-05
  -10.8599997      -6.77049466E-05
  -10.8500004      -9.95138325E-05
  -10.8400002      -1.23336678E-04
  -10.8299999      -1.31748500E-04
  -10.8199997      -1.19320372E-04
  -10.8100004      -8.43595917E-05
  -10.8000002      -2.99299991E-05
  -10.7900000       3.61771781E-05
  -10.7799997       1.02608530E-04
  -10.7700005       1.56559894E-04
  -10.7600002       1.86403209E-04
  -10.7500000       1.84253571E-04
  -10.7399998       1.47890663E-04
  -10.7299995       8.15765889E-05
  -10.7200003      -4.45167461E-06
  -10.7100000      -9.57462325E-05
  -10.6999998      -1.76324291E-04
  -10.6899996      -2.31713202E-04
  -10.6800003      -2.51743913E-04
  -10.6700001      -2.32530001E-04
  -10.6599998      -1.77245514E-04
  -10.6499996      -9.55664946E-05
  -10.6400003      -1.90938863E-06
  -10.6300001       8.71699522E-05
  -10.6199999       1.55909642E-04
  -10.6099997       1.92063308E-04
  -10.6000004       1.88935941E-04
  -10.5900002       1.46411796E-04
  -10.5799999       7.08501539E-05
  -10.5699997      -2.60766374E-05
  -10.5600004      -1.29360022E-04
  -10.5500002      -2.23095107E-04
  -10.5400000      -2.92987097E-04
  -10.5299997      -3.28545459E-04
  -10.5200005      -3.24654247E-04
  -10.5100002      -2.82305729E-04
  -10.5000000      -2.08402736E-04
  -10.4899998      -1.14657872E-04
  -10.4799995      -1.57382165E-05
  -10.4700003       7.30870015E-05
  -10.4600000       1.38452771E-04
  -10.4499998       1.71165346E-04
  -10.4399996       1.67838807E-04
  -10.4300003       1.31576860E-04
  -10.4200001       7.15094066E-05
  -10.4099998       1.18624803E-06
  -10.3999996      -6.39489372E-05
  -10.3900003      -1.09572560E-04
  -10.3800001      -1.25405990E-04
  -10.3699999      -1.07436208E-04
  -10.3599997      -5.89132906E-05
  -10.3500004       1.01693431E-05
  -10.3400002       8.50876240E-05
  -10.3299999       1.49524931E-04
  -10.3199997       1.89180762E-04
  -10.3100004       1.95042085E-04
  -10.3000002       1.65541365E-04
  -10.2900000       1.07049425E-04
  -10.2799997       3.25269102E-05
  -10.2700005      -4.14013703E-05
  -10.2600002      -9.82875499E-05
  -10.2500000      -1.25706894E-04
  -10.2399998      -1.18171025E-04
  -10.2299995      -7.83805153E-05
  -10.2200003      -1.64931826E-05
  -10.2100000       5.24174466E-05
  -10.1999998       1.12075613E-04
  -10.1899996       1.48944862E-04
  -10.1800003       1.55391521E-04
  -10.1700001       1.31266672E-04
  -10.1599998       8.35205574E-05
  -10.1499996       2.39863457E-05
  -10.1400003      -3.40412771E-05
  -10.1300001      -7.94866428E-05
  -10.1199999      -1.06421976E-04
  -10.1099997      -1.15444454E-04
  -10.1000004      -1.13130824E-04
  -10.0900002      -1.09730550E-04
  -10.0799999      -1.15747447E-04
  -10.0699997      -1.38371499E-04
  -10.0600004      -1.78772811E-04
  -10.0500002      -2.31044236E-04
  -10.0400000      -2.83139438E-04
  -10.0299997      -3.19618819E-04
  -10.0200005      -3.25529603E-04
  -10.0100002      -2.90436321E-04
  -10.0000000      -2.11567196E-04
  -9.98999977      -9.52550181E-05
  -9.97999954       4.37256313E-05
  -9.97000027       1.84806951E-04
  -9.96000004       3.05664580E-04
  -9.94999981       3.86722386E-04
  -9.93999958       4.15112940E-04
  -9.93000031       3.87231557E-04
  -9.92000008       3.09366354E-04
  -9.90999985       1.96333785E-04
  -9.89999962       6.84849001E-05
  -9.89000034      -5.22257797E-05
  -9.88000011      -1.46266510E-04
  -9.86999989      -1.99851638E-04
  -9.85999966      -2.06973506E-04
  -9.85000038      -1.69866355E-04
  -9.84000015      -9.79600736E-05
  -9.82999992      -5.66649442E-06
  -9.81999969       9.04784683E-05
  -9.81000042       1.74737317E-04
  -9.80000019       2.34640014E-04
  -9.78999996       2.62629881E-04
  -9.77999973       2.56708183E-04
  -9.77000046       2.20095710E-04
  -9.76000023       1.60090305E-04
  -9.75000000       8.64109461E-05
  -9.73999977       9.36519427E-06
  -9.72999954      -6.18326812E-05
  -9.72000027      -1.20327946E-04
  -9.71000004      -1.62307420E-04
  -9.69999981      -1.87046593E-04
  -9.68999958      -1.96389417E-04
  -9.68000031      -1.93830390E-04
  -9.67000008      -1.83434822E-04
  -9.65999985      -1.68849903E-04
  -9.64999962      -1.52622204E-04
  -9.64000034      -1.35951399E-04
  -9.63000011      -1.18894248E-04
  -9.61999989      -1.00914382E-04
  -9.60999966      -8.15836174E-05
  -9.60000038      -6.12038566E-05
  -9.59000015      -4.11478250E-05
  -9.57999992      -2.38041903E-05
  -9.56999969      -1.21341018E-05
  -9.56000042      -8.96629899E-06
  -9.55000019      -1.62385440E-05
  -9.53999996      -3.44101863E-05
  -9.52999973      -6.22177686E-05
  -9.52000046      -9.68397289E-05
  -9.51000023      -1.34412214E-04
  -9.50000000      -1.70737185E-04
  -9.48999977      -2.01979055E-04
  -9.47999954      -2.25171054E-04
  -9.47000027      -2.38436638E-04
  -9.46000004      -2.40941168E-04
  -9.44999981      -2.32683175E-04
  -9.43999958      -2.14276733E-04
  -9.43000031      -1.86849909E-04
  -9.42000008      -1.52100911E-04
  -9.40999985      -1.12446971E-04
  -9.39999962      -7.11201792E-05
  -9.39000034      -3.20456165E-05
  -9.38000011       6.01391832E-07
  -9.36999989       2.31369504E-05
  -9.35999966       3.32433920E-05
  -9.35000038       3.07080663E-05
  -9.34000015       1.77416605E-05
  -9.32999992      -1.31398758E-06
  -9.31999969      -2.08958845E-05
  -9.31000042      -3.55418961E-05
  -9.30000019      -4.12522422E-05
  -9.28999996      -3.64658990E-05
  -9.27999973      -2.23215520E-05
  -9.27000046      -2.09395466E-06
  -9.26000023       2.00241120E-05
  -9.25000000       4.03839840E-05
  -9.23999977       5.70679658E-05
  -9.22999954       7.03538753E-05
  -9.22000027       8.22527727E-05
  -9.21000004       9.52518531E-05
  -9.19999981       1.10707959E-04
  -9.18999958       1.27510153E-04
  -9.18000031       1.41586323E-04
  -9.17000008       1.46567894E-04
  -9.15999985       1.35526134E-04
  -9.14999962       1.03288810E-04
  -9.14000034       4.85839300E-05
  -9.13000011      -2.47564112E-05
  -9.11999989      -1.08040913E-04
  -9.10999966      -1.89465383E-04
  -9.10000038      -2.56908330E-04
  -9.09000015      -3.00944695E-04
  -9.07999992      -3.17135273E-04
  -9.06999969      -3.06856731E-04
  -9.06000042      -2.76406907E-04
  -9.05000019      -2.34694468E-04
  -9.03999996      -1.90306033E-04
  -9.02999973      -1.48961335E-04
  -9.02000046      -1.12233021E-04
  -9.01000023      -7.79604234E-05
  -9.00000000      -4.21746845E-05
  -8.98999977      -1.79306244E-06
  -8.97999954       4.29642023E-05
  -8.97000027       8.74123070E-05
  -8.96000004       1.23044665E-04
  -8.94999981       1.39881042E-04
  -8.93999958       1.29782711E-04
  -8.93000031       8.95963967E-05
  -8.92000008       2.29796624E-05
  -8.90999985      -5.98378392E-05
  -8.89999962      -1.44421530E-04
  -8.89000034      -2.15960303E-04
  -8.88000011      -2.63363705E-04
  -8.86999989      -2.82304682E-04
  -8.85999966      -2.76204490E-04
  -8.85000038      -2.54823797E-04
  -8.84000015      -2.30913894E-04
  -8.82999992      -2.16025306E-04
  -8.81999969      -2.16846209E-04
  -8.81000042      -2.33255298E-04
  -8.80000019      -2.58688582E-04
  -8.78999996      -2.82638590E-04
  -8.77999973      -2.94397527E-04
  -8.77000046      -2.86761555E-04
  -8.76000023      -2.58461747E-04
  -8.75000000      -2.14551430E-04
  -8.73999977      -1.64690078E-04
  -8.72999954      -1.19972094E-04
  -8.72000027      -8.94106633E-05
  -8.71000004      -7.72543863E-05
  -8.69999981      -8.19769557E-05
  -8.68999958      -9.71758927E-05
  -8.68000031      -1.13962837E-04
  -8.67000008      -1.23953097E-04
  -8.65999985      -1.21822428E-04
  -8.64999962      -1.06623542E-04
  -8.64000034      -8.15419262E-05
  -8.63000011      -5.23325616E-05
  -8.61999989      -2.51123802E-05
  -8.60999966      -4.34347930E-06
  -8.60000038       8.30819590E-06
  -8.59000015       1.39382773E-05
  -8.57999992       1.53511628E-05
  -8.56999969       1.55079779E-05
  -8.56000042       1.61293428E-05
  -8.55000019       1.69845389E-05
  -8.53999996       1.60855743E-05
  -8.52999973       1.06319958E-05
  -8.52000046      -1.73118462E-06
  -8.51000023      -2.18719397E-05
  -8.50000000      -4.87535181E-05
  -8.48999977      -7.97740431E-05
  -8.47999954      -1.11687754E-04
  -8.47000027      -1.41710552E-04
  -8.46000004      -1.68360610E-04
  -8.44999981      -1.91712374E-04
  -8.43999958      -2.12986895E-04
  -8.43000031      -2.33663450E-04
  -8.42000008      -2.54471553E-04
  -8.40999985      -2.74648308E-04
  -8.39999962      -2.91727658E-04
  -8.39000034      -3.01921333E-04
  -8.38000011      -3.00945918E-04
  -8.36999989      -2.85024114E-04
  -8.35999966      -2.51779740E-04
  -8.35000038      -2.00837210E-04
  -8.34000015      -1.34074638E-04
  -8.32999992      -5.55911174E-05
  -8.31999969       2.85136248E-05
  -8.31000042       1.10490815E-04
  -8.30000019       1.81454350E-04
  -8.28999996       2.32143822E-04
  -8.27999973       2.54016224E-04
  -8.27000046       2.40634894E-04
  -8.26000023       1.89154380E-04
  -8.25000000       1.01537706E-04
  -8.23999977      -1.49205180E-05
  -8.22999954      -1.48102583E-04
  -8.22000027      -2.82704335E-04
  -8.21000004      -4.02766629E-04
  -8.19999981      -4.94562322E-04
  -8.18999958      -5.49132063E-04
  -8.18000031      -5.63808193E-04
  -8.17000008      -5.42326772E-04
  -8.15999985      -4.93526168E-04
  -8.14999962      -4.29035601E-04
  -8.14000034      -3.60629958E-04
  -8.13000011      -2.97976309E-04
  -8.11999989      -2.47309770E-04
  -8.10999966      -2.11229650E-04
  -8.10000038      -1.89426821E-04
  -8.09000015      -1.79881623E-04
  -8.07999992      -1.79999435E-04
  -8.06999969      -1.87291327E-04
  -8.06000042      -1.99485148E-04
  -8.05000019      -2.14243919E-04
  -8.03999996      -2.28848789E-04
  -8.02999973      -2.40198598E-04
  -8.02000046      -2.45294970E-04
  -8.01000023      -2.42103488E-04
  -8.00000000      -2.30439677E-04
  -7.98999977      -2.12438536E-04
  -7.98000002      -1.92280611E-04
  -7.96999979      -1.75128764E-04
  -7.96000004      -1.65567428E-04
  -7.94999981      -1.66088677E-04
  -7.94000006      -1.76214700E-04
  -7.92999983      -1.92652777E-04
  -7.92000008      -2.10500177E-04
  -7.90999985      -2.25102325E-04
  -7.90000010      -2.33879720E-04
  -7.88999987      -2.37404020E-04
  -7.88000011      -2.39253379E-04
  -7.86999989      -2.44627416E-04
  -7.86000013      -2.58188549E-04
  -7.84999990      -2.81926623E-04
  -7.84000015      -3.13881756E-04
  -7.82999992      -3.48274334E-04
  -7.82000017      -3.77077376E-04
  -7.80999994      -3.92518501E-04
  -7.80000019      -3.89626453E-04
  -7.78999996      -3.67885776E-04
  -7.78000021      -3.31372139E-04
  -7.76999998      -2.87300994E-04
  -7.76000023      -2.43518109E-04
  -7.75000000      -2.05874356E-04
  -7.73999977      -1.76484609E-04
  -7.73000002      -1.53541871E-04
  -7.71999979      -1.32762041E-04
  -7.71000004      -1.09891669E-04
  -7.69999981      -8.32716178E-05
  -7.69000006      -5.53869831E-05
  -7.67999983      -3.26913578E-05
  -7.67000008      -2.36466913E-05
  -7.65999985      -3.56186683E-05
  -7.65000010      -7.17557050E-05
  -7.63999987      -1.29058157E-04
  -7.63000011      -1.98465015E-04
  -7.61999989      -2.67079246E-04
  -7.61000013      -3.21866886E-04
  -7.59999990      -3.53595737E-04
  -7.59000015      -3.59645055E-04
  -7.57999992      -3.44673550E-04
  -7.57000017      -3.18868930E-04
  -7.55999994      -2.94357247E-04
  -7.55000019      -2.81013432E-04
  -7.53999996      -2.83145491E-04
  -7.53000021      -2.98227271E-04
  -7.51999998      -3.18139151E-04
  -7.51000023      -3.32482217E-04
  -7.50000000      -3.32785188E-04
  -7.48999977      -3.16091726E-04
  -7.48000002      -2.86614086E-04
  -7.46999979      -2.54808663E-04
  -7.46000004      -2.34129795E-04
  -7.44999981      -2.36536071E-04
  -7.44000006      -2.68268981E-04