  -16.0000000       0.00000000    
  -15.9899998       0.00000000    
  -15.9799995       0.00000000    
  -15.9700003       0.00000000    
  -15.9600000       0.00000000    
  -15.9499998       0.00000000    
  -15.9399996       0.00000000    
  -15.9300003       0.00000000    
  -15.9200001       0.00000000    
  -15.9099998       6.79699820E-41
  -15.8999996      -1.79939475E-39
  -15.8900003      -3.88509775E-38
  -15.8800001      -6.73888647E-37
  -15.8699999      -8.65946022E-36
  -15.8599997      -7.77540381E-35
  -15.8500004      -5.18428779E-34
  -15.8400002      -2.73366042E-33
  -15.8299999      -1.19474902E-32
  -15.8199997      -4.47313922E-32
  -15.8100004      -1.46706855E-31
  -15.8000002      -4.27439698E-31
  -15.7900000      -1.11435943E-30
  -15.7799997      -2.60300717E-30
  -15.7700005      -5.42253776E-30
  -15.7600002      -9.94798638E-30
  -15.7500000      -1.56379959E-29
  -15.7399998      -1.97090989E-29
  -15.7299995      -1.56601005E-29
  -15.7200003       7.04500359E-30
  -15.7100000       5.99584302E-29
  -15.6999998       1.47210297E-28
  -15.6899996       2.51575273E-28
  -15.6800003       3.18839965E-28
  -15.6700001       2.48409044E-28
  -15.6599998      -9.90234214E-29
  -15.6499996      -8.61928472E-28
  -15.6400003      -2.07924379E-27
  -15.6300001      -3.48304739E-27
  -15.6199999      -4.13519692E-27
  -15.6099997      -1.98455833E-27
  -15.6000004       6.20177869E-27
  -15.5900002       2.34534510E-26
  -15.5799999       4.82481258E-26
  -15.5699997       6.65900848E-26
  -15.5600004       4.36492609E-26
  -15.5500002      -7.48734817E-26
  -15.5400000      -3.34348366E-25
  -15.5299997      -7.00264183E-25
  -15.5200005      -9.53286931E-25
  -15.5100002      -6.13788068E-25
  -15.5000000       9.69087815E-25
  -15.4899998       4.19534215E-24
  -15.4799995       8.39024965E-24
  -15.4700003       1.08320171E-23
  -15.4600000       6.41007033E-24
  -15.4499998      -1.08315209E-23
  -15.4399996      -4.31311467E-23
  -15.4300003      -8.16818262E-23
  -15.4200001      -9.97620890E-23
  -15.4099998      -5.33035018E-23
  -15.3999996       1.02087127E-22
  -15.3900003       3.72246371E-22
  -15.3800001       6.71083442E-22
  -15.3699999       7.81505793E-22
  -15.3599997       3.80882013E-22
  -15.3500004      -8.15434082E-22
  -15.3400002      -2.77671001E-21
  -15.3299999      -4.82188984E-21
  -15.3199997      -5.43308826E-21
  -15.3100004      -2.52618051E-21
  -15.3000002       5.54629528E-21
  -15.2900000       1.82666036E-20
  -15.2799997       3.10662866E-20
  -15.2700005       3.45433855E-20
  -15.2600002       1.64689172E-20
  -15.2500000      -3.21375921E-20
  -15.2399998      -1.07313088E-19
  -15.2299995      -1.82317121E-19
  -15.2200003      -2.04499585E-19
  -15.2100000      -1.07321579E-19
  -15.1999998       1.56844534E-19
  -15.1899996       5.66730492E-19
  -15.1800003       9.83473494E-19
  -15.1700001       1.13700566E-18
  -15.1599998       6.87255722E-19
  -15.1499996      -6.15407073E-19
  -15.1400003      -2.69007924E-18
  -15.1300001      -4.89287796E-18
  -15.1199999      -5.94649389E-18
  -15.1099997      -4.20940137E-18
  -15.1000004       1.60716581E-18
  -15.0900002       1.13577051E-17
  -15.0799999       2.23885912E-17
  -15.0699997       2.91283513E-17
  -15.0600004       2.41029098E-17
  -15.0500002       8.65030691E-19
  -15.0400000      -4.14354257E-17
  -15.0299997      -9.32752549E-17
  -15.0200005      -1.32381310E-16
  -15.0100002      -1.26870223E-16
  -15.0000000      -4.61186080E-17
  -14.9899998       1.21207450E-16
  -14.9799995       3.46929502E-16
  -14.9700003       5.50557016E-16
  -14.9600000       6.06041486E-16
  -14.9499998       3.77805652E-16
  -14.9399996      -2.13487375E-16
  -14.9300003      -1.11052118E-15
  -14.9200001      -2.05699135E-15
  -14.9099998      -2.59776238E-15
  -14.8999996      -2.18185438E-15
  -14.8900003      -3.81109981E-16
  -14.8800001       2.81369818E-15
  -14.8699999       6.72046147E-15
  -14.8599997       9.86813966E-15
  -14.8500004       1.02293433E-14
  -14.8400002       5.86819132E-15
  -14.8299999      -4.06473239E-15
  -14.8199997      -1.82671854E-14
  -14.8100004      -3.26206584E-14
  -14.8000002      -4.04747613E-14
  -14.7900000      -3.42886357E-14
  -14.7799997      -8.62651218E-15
  -14.7700005       3.61296821E-14
  -14.7600002       9.06683718E-14
  -14.7500000       1.35990665E-13
  -14.7399998       1.46623328E-13
  -14.7299995       9.84746749E-14
  -14.7200003      -1.97291304E-14
  -14.7100000      -1.94635459E-13
  -14.6999998      -3.81094868E-13
  -14.6899996      -5.05131581E-13
  -14.6800003      -4.80883725E-13
  -14.6700001      -2.41187766E-13
  -14.6599998       2.24535058E-13
  -14.6499996       8.37600714E-13
  -14.6400003       1.41886210E-12
  -14.6300001       1.71389877E-12
  -14.6199999       1.46128747E-12
  -14.6099997       4.95898786E-13
  -14.6000004      -1.13887740E-12
  -14.5900002      -3.11144665E-12
  -14.5799999      -4.80157841E-12
  -14.5699997      -5.41460279E-12
  -14.5600004      -4.21525011E-12
  -14.5500002      -8.40907747E-13
  -14.5400000       4.39415258E-12
  -14.5299997       1.03255165E-11
  -14.5200005       1.50179348E-11
  -14.5100002       1.61713178E-11
  -14.5000000       1.18327154E-11
  -14.4899998       1.26931972E-12
  -14.4799995      -1.42600714E-11
  -14.4700003      -3.11619203E-11
  -14.4600000      -4.38864813E-11
  -14.4499998      -4.61669245E-11
  -14.4399996      -3.29953599E-11
  -14.4300003      -2.89880489E-12
  -14.4200001       4.01895149E-11
  -14.4099998       8.62777627E-11
  -14.3999996       1.20553359E-10
  -14.3900003       1.26752345E-10
  -14.3800001       9.22387861E-11
  -14.3699999       1.36342326E-11
  -14.3599997      -9.87461432E-11
  -14.3500004      -2.19568572E-10
  -14.3400002      -3.11760256E-10
  -14.3299999      -3.34819839E-10
  -14.3199997      -2.57035393E-10
  -14.3100004      -6.88285123E-11
  -14.3000002       2.06803477E-10
  -14.2900000       5.11075071E-10
  -14.2799997       7.56729290E-10
  -14.2700005       8.46777259E-10
  -14.2600002       7.02152503E-10
  -14.2500000       2.92186275E-10
  -14.2399998      -3.40867390E-10
  -14.2299995      -1.07269238E-09
  -14.2200003      -1.71048098E-09
  -14.2100000      -2.03156292E-09
  -14.1999998      -1.84237003E-09
  -14.1899996      -1.04548115E-09
  -14.1800003       3.03322506E-10
  -14.1700001       1.96793315E-09
  -14.1599998       3.55101615E-09
  -14.1499996       4.56614302E-09
  -14.1400003       4.55581173E-09
  -14.1300001       3.23280336E-09
  -14.1199999       6.09651885E-10
  -14.1099997      -2.92451152E-09
  -14.1000004      -6.61552146E-09
  -14.0900002      -9.46336520E-09
  -14.0799999      -1.04420357E-08
  -14.0699997      -8.78258710E-09
  -14.0600004      -4.25475388E-09
  -14.0500002       2.63276290E-09
  -14.0400000       1.05894511E-08
  -14.0299997       1.77075350E-08
  -14.0200005       2.18375202E-08
  -14.0100002       2.11202646E-08
  -14.0000000       1.45649102E-08
  -13.9899998       2.52385934E-09
  -13.9799995      -1.30893554E-08
  -13.9700003      -2.89573290E-08
  -13.9600000      -4.09323313E-08
  -13.9499998      -4.49622810E-08
  -13.9399996      -3.81950009E-08
  -13.9300003      -2.00004742E-08
  -13.9200001       7.38226413E-09
  -13.9099998       3.88268511E-08
  -13.8999996       6.70654927E-08
  -13.8900003       8.41560848E-08
  -13.8800001       8.34247302E-08
  -13.8699999       6.14609306E-08
  -13.8599997       1.96462402E-08
  -13.8500004      -3.52784362E-08
  -13.8400002      -9.19388441E-08
  -13.8299999      -1.36396167E-07
  -13.8199997      -1.55260381E-07
  -13.8100004      -1.39219694E-07
  -13.8000002      -8.61360760E-08
  -13.7900000      -2.82444135E-09
  -13.7799997       9.51707406E-08
  -13.7700005       1.86076093E-07
  -13.7600002       2.46389874E-07
  -13.7500000       2.56537760E-07
  -13.7399998       2.06405261E-07
  -13.7299995       9.93032572E-08
  -13.7200003      -4.68859831E-08
  -13.7100000      -2.02089851E-07
  -13.6999998      -3.29849257E-07
  -13.6899996      -3.95542457E-07
  -13.6800003      -3.75262971E-07
  -13.6700001      -2.63177384E-07
  -13.6599998      -7.52895275E-08
  -13.6499996       1.51811449E-07
  -13.6400003       3.67538775E-07
  -13.6300001       5.18226273E-07
  -13.6199999       5.60140620E-07
  -13.6099997       4.71542251E-07
  -13.6000004       2.60624603E-07
  -13.5900002      -3.31656373E-08
  -13.5799999      -3.45535938E-07
  -13.5699997      -6.00754561E-07
  -13.5600004      -7.29465057E-07
  -13.5500002      -6.86899455E-07
  -13.5400000      -4.66917953E-07
  -13.5299997      -1.07839604E-07
  -13.5200005       3.12354445E-07
  -13.5100002       6.91447156E-07
  -13.5000000       9.26354176E-07
  -13.4899998       9.39428844E-07
  -13.4799995       7.01378951E-07
  -13.4700003       2.44591234E-07
  -13.4600000      -3.37643854E-07
  -13.4499998      -9.07493188E-07
  -13.4399996      -1.31226977E-06
  -13.4300003      -1.42158024E-06
  -13.4200001      -1.16349793E-06
  -13.4099998      -5.50568416E-07
  -13.3999996       3.12103907E-07
  -13.3900003       1.24090400E-06
  -13.3800001       2.00911700E-06
  -13.3699999       2.39754854E-06
  -13.3599997       2.24972860E-06
  -13.3500004       1.51869096E-06
  -13.3400002       2.92888160E-07
  -13.3299999      -1.20754748E-06
  -13.3199997      -2.66674851E-06
  -13.3100004      -3.73629337E-06
  -13.3000002      -4.11351903E-06
  -13.2900000      -3.61792172E-06
  -13.2799997      -2.24726045E-06
  -13.2700005      -1.97971502E-07
  -13.2600002       2.15852720E-06
  -13.2500000       4.34236972E-06
  -13.2399998       5.86307169E-06
  -13.2299995       6.32866931E-06
  -13.2200003       5.54177495E-06
  -13.2100000       3.55924112E-06
  -13.1999998       6.98812755E-07
  -13.1899996      -2.51263464E-06
  -13.1800003      -5.44135401E-06
  -13.1700001      -7.47917102E-06
  -13.1599998      -8.17739692E-06
  -13.1499996      -7.35141430E-06
  -13.1400003      -5.13025725E-06
  -13.1300001      -1.93714936E-06
  -13.1199999       1.59740773E-06
  -13.1099997       4.77223557E-06
  -13.1000004       6.97129781E-06
  -13.0900002       7.80229129E-06
  -13.0799999       7.18419324E-06
  -13.0699997       5.36106745E-06
  -13.0600004       2.83670670E-06
  -13.0500002       2.44254664E-07
  -13.0400000      -1.81802989E-06
  -13.0299997      -2.94362712E-06
  -13.0200005      -3.02586045E-06
  -13.0100002      -2.28637964E-06
  -13.0000000      -1.21229812E-06
  -12.9899998      -4.13749490E-07
  -12.9799995      -4.35730101E-07
  -12.9700003      -1.57298814E-06
  -12.9600000      -3.73998159E-06
  -12.9499998      -6.43775684E-06
  -12.9399996      -8.83750727E-06
  -12.9300003      -9.97124425E-06
  -12.9200001      -8.99041697E-06
  -12.9099998      -5.43109627E-06
  -12.8999996       5.84108477E-07
  -12.8900003       8.26843097E-06
  -12.8800001       1.62532669E-05
  -12.8699999       2.28290864E-05
  -12.8599997       2.63033271E-05
  -12.8500004       2.54000552E-05
  -12.8400002       1.96084275E-05
  -12.8299999       9.39065740E-06
  -12.8199997      -3.81343102E-06
  -12.8100004      -1.78042792E-05
  -12.8000002      -3.00298034E-05
  -12.7900000      -3.81010068E-05
  -12.7799997      -4.03037484E-05
  -12.7700005      -3.59883416E-05
  -12.7600002      -2.57412921E-05
  -12.7500000      -1.12904863E-05
  -12.7399998       4.84318844E-06
  -12.7299995       1.98736834E-05
  -12.7200003       3.13370365E-05
  -12.7100000       3.76000316E-05
  -12.6999998       3.81678619E-05
  -12.6899996       3.37153033E-05
  -12.6800003       2.58335804E-05
  -12.6700001       1.65574911E-05
  -12.6599998       7.79571110E-06
  -12.6499996       8.16232898E-07
  -12.6400003      -4.07064954E-06
  -12.6300001      -7.53700533E-06
  -12.6199999      -1.09502053E-05
  -12.6099997      -1.58398634E-05
  -12.6000004      -2.32578495E-05
  -12.5900002      -3.32118470E-05
  -12.5799999      -4.43493918E-05
  -12.5699997      -5.40185501E-05
  -12.5600004      -5.87422473E-05
  -12.5500002      -5.50362674E-05
  -12.5400000      -4.04009988E-05
  -12.5299997      -1.42507197E-05
  -12.5200005       2.14692973E-05
  -12.5100002       6.21802392E-05
  -12.5000000       1.01182042E-04
  -12.4899998       1.30744229E-04
  -12.4799995       1.43597485E-04
  -12.4700003       1.34535367E-04
  -12.4600000       1.01780031E-04
  -12.4499998       4.77850845E-05
  -12.4399996      -2.07554349E-05
  -12.4300003      -9.37677542E-05
  -12.4200001      -1.59420626E-04
  -12.4099998      -2.06228462E-04
  -12.3999996      -2.25232419E-04
  -12.3900003      -2.11815917E-04
  -12.3800001      -1.66764250E-04
  -12.3699999      -9.63187413E-05
  -12.3599997      -1.11769341E-05
  -12.3500004       7.53910208E-05
  -12.3400002       1.49949265E-04
  -12.3299999       2.01348652E-04
  -12.3199997       2.22728879E-04
  -12.3100004       2.12663304E-04
  -12.3000002       1.75217443E-04
  -12.2900000       1.18921664E-04
  -12.2799997       5.48894022E-05
  -12.2700005      -5.50616232E-06
  -12.2600002      -5.28935161E-05
  -12.2500000      -8.16193933E-05
  -12.2399998      -9.05658962E-05
  -12.2299995      -8.29202982E-05
  -12.2200003      -6.49887588E-05
  -12.2100000      -4.43616191E-05
  -12.1999998      -2.78822499E-05
  -12.1899996      -1.99099450E-05
  -12.1800003      -2.12912910E-05
  -12.1700001      -2.92806617E-05
  -12.1599998      -3.84200976E-05
  -12.1499996      -4.21551231E-05
  -12.1400003      -3.47819332E-05
  -12.1300001      -1.32360237E-05
  -12.1199999       2.17359120E-05
  -12.1099997       6.53360767E-05
  -12.1000004       1.09501962E-04
  -12.0900002       1.44565827E-04
  -12.0799999       1.61418880E-04
  -12.0699997       1.53680987E-04
  -12.0600004       1.19363212E-04
  -12.0500002       6.16183461E-05
  -12.0400000      -1.16197116E-05
  -12.0299997      -8.90511365E-05
  -12.0200005      -1.58179755E-04
  -12.0100002      -2.07761128E-04
  -12.0000000      -2.29990183E-04
  -11.9899998      -2.21952272E-04
  -11.9799995      -1.86035861E-04
  -11.9700003      -1.29247317E-04
  -11.9600000      -6.16205434E-05
  -11.9499998       5.88683997E-06
  -11.9399996       6.35182514E-05
  -11.9300003       1.04393272E-04
  -11.9200001       1.25397361E-04
  -11.9099998       1.27160820E-04
  -11.8999996       1.13232389E-04
  -11.8900003       8.87439164E-05
  -11.8800001       5.89656229E-05
  -11.8699999       2.81434386E-05
  -11.8599997      -1.10345889E-06
  -11.8500004      -2.77305589E-05
  -11.8400002      -5.16681939E-05
  -11.8299999      -7.29425301E-05
  -11.8199997      -9.08629227E-05
  -11.8100004      -1.03592167E-04
  -11.8000002      -1.08290260E-04
  -11.7900000      -1.01835540E-04
  -11.7799997      -8.19333291E-05
  -11.7700005      -4.82781033E-05
  -11.7600002      -3.38447353E-06
  -11.7500000       4.72364372E-05
  -11.7399998       9.57183729E-05
  -11.7299995       1.33242356E-04
  -11.7200003       1.51922868E-04
  -11.7100000       1.46739912E-04
  -11.6999998       1.17024181E-04
  -11.6899996       6.70753361E-05
  -11.6800003       5.67983489E-06
  -11.6700001      -5.54473263E-05
  -11.6599998      -1.04005434E-04
  -11.6499996      -1.29735883E-04
  -11.6400003      -1.26739760E-04
  -11.6300001      -9.49354144E-05
  -11.6199999      -4.02856385E-05
  -11.6099997       2.63022848E-05
  -11.6000004       9.11957250E-05
  -11.5900002       1.40904944E-04
  -11.5799999       1.64972589E-04
  -11.5699997       1.58242634E-04
  -11.5600004       1.22000994E-04
  -11.5500002       6.37314079E-05
  -11.5400000      -4.46046215E-06
  -11.5299997      -6.84051120E-05
  -11.5200005      -1.14845934E-04
  -11.5100002      -1.34186397E-04
  -11.5000000      -1.22421916E-04
  -11.4899998      -8.18622575E-05
  -11.4799995      -2.05240813E-05
  -11.4700003       4.96355824E-05
  -11.4600000       1.15231414E-04
  -11.4499998       1.64151861E-04
  -11.4399996       1.87881262E-04
  -11.4300003       1.82981865E-04
  -11.4200001       1.51478424E-04
  -11.4099998       1.00133169E-04
  -11.3999996       3.88315166E-05
  -11.3900003      -2.15318760E-05
  -11.3800001      -7.12017427E-05
  -11.3699999      -1.03308492E-04
  -11.3599997      -1.14892173E-04
  -11.3500004      -1.07057989E-04
  -11.3400002      -8.43075686E-05
  -11.3299999      -5.32556551E-05
  -11.3199997      -2.10508224E-05
  -11.3100004       6.14640066E-06
  -11.3000002       2.43155373E-05
  -11.2900000       3.21479893E-05
  -11.2799997       3.09671232E-05
  -11.2700005       2.40694899E-05
  -11.2600002       1.56800888E-05
  -11.2500000       9.78698426E-06
  -11.2399998       9.13165331E-06
  -11.2299995       1.45813319E-05
  -11.2200003       2.50107878E-05
  -11.2100000       3.76962889E-05
  -11.1999998       4.91022511E-05
  -11.1899996       5.58496831E-05
  -11.1800003       5.56160703E-05
  -11.1700001       4.77381727E-05
  -11.1599998       3.33678399E-05
  -11.1499996       1.51468430E-05
  -11.1400003      -3.50862661E-06
  -11.1300001      -1.93205979E-05
  -11.1199999      -3.00133070E-05
  -11.1099997      -3.48933245E-05
  -11.1000004      -3.49839283E-05
  -11.0900002      -3.26692680E-05
  -11.0799999      -3.09361567E-05
  -11.0699997      -3.24135435E-05
  -11.0600004      -3.84718878E-05
  -11.0500002      -4.86388308E-05
  -11.0400000      -6.05129790E-05
  -11.0299997      -7.02313628E-05
  -11.0200005      -7.33999914E-05
  -11.0100002      -6.62675957E-05
  -11.0000000      -4.68455764E-05
  -10.9899998      -1.56737624E-05
  -10.9799995       2.39925830E-05
  -10.9700003       6.66610649E-05
  -10.9600000       1.05664054E-04
  -10.9499998       1.34566639E-04
  -10.9399996       1.48581821E-04
  -10.9300003       1.45636281E-04
  -10.9200001       1.26806757E-04
  -10.9099998       9.60022517E-05
  -10.8999996       5.89645460E-05
  -10.8900003       2.18465520E-05
  -10.8800001      -1.02473914E-05
  -10.8699999      -3.43532774E-05
  -10.8599997      -5.00589267E-05
  -10.8500004      -5.91138523E-05
  -10.8400002      -6.43545791E-05
  -10.8299999      -6.82815371E-05
  -10.8199997      -7.17543953E-05
  -10.8100004      -7.32681438E-05
  -10.8000002      -6.91216483E-05
  -10.7900000      -5.45267831E-05
  -10.7799997      -2.54020470E-05
  -10.7700005       1.96602250E-05
  -10.7600002       7.78838221E-05
  -10.7500000       1.41821743E-04
  -10.7399998       2.00211609E-04
  -10.7299995       2.40121721E-04
  -10.7200003       2.49945675E-04
  -10.7100000       2.22506525E-04
  -10.6999998       1.57428556E-04
  -10.6899996       6.20668943E-05
  -10.6800003      -4.93707666E-05
  -10.6700001      -1.58408249E-04
  -10.6599998      -2.46029289E-04
  -10.6499996      -2.96668237E-04
  -10.6400003      -3.01495515E-04
  -10.6300001      -2.60206725E-04
  -10.6199999      -1.80913092E-04
  -10.6099997      -7.82196657E-05
  -10.6000004       2.99723561E-05
  -10.5900002       1.26117986E-04
  -10.5799999       1.96266818E-04
  -10.5699997       2.32206177E-04
  -10.5600004       2.32179824E-04
  -10.5500002       2.00252485E-04
  -10.5400000       1.44714882E-04
  -10.5299997       7.60859766E-05
  -10.5200005       5.24029429E-06
  -10.5100002      -5.79943335E-05
  -10.5000000      -1.05673731E-04
  -10.4899998      -1.32133951E-04
  -10.4799995      -1.34181799E-04
  -10.4700003      -1.11285066E-04
  -10.4600000      -6.58276840E-05
  -10.4499998      -3.31477668E-06
  -10.4399996       6.77202988E-05
  -10.4300003       1.36373346E-04
  -10.4200001       1.90737715E-04
  -10.4099998       2.19903261E-04
  -10.3999996       2.16247805E-04
  -10.3900003       1.77488080E-04
  -10.3800001       1.07902779E-04
  -10.3699999       1.82641634E-05
  -10.3599997      -7.57053131E-05
  -10.3500004      -1.56168884E-04
  -10.3400002      -2.06769386E-04
  -10.3299999      -2.16208864E-04
  -10.3199997      -1.80986652E-04
  -10.3100004      -1.06617743E-04
  -10.3000002      -6.97279756E-06
  -10.2900000       9.82032361E-05
  -10.2799997       1.87123558E-04
  -10.2700005       2.40355905E-04
  -10.2600002       2.44847964E-04
  -10.2500000       1.96702968E-04
  -10.2399998       1.02076185E-04
  -10.2299995      -2.40394165E-05
  -10.2200003      -1.60908719E-04
  -10.2100000      -2.86370981E-04
  -10.1999998      -3.81417049E-04
  -10.1899996      -4.33974754E-04
  -10.1800003      -4.41005104E-04
  -10.1700001      -4.08397580E-04
  -10.1599998      -3.48694331E-04
  -10.1499996      -2.77242012E-04
  -10.1400003      -2.07817473E-04
  -10.1300001      -1.48960142E-04
  -10.1199999      -1.02090795E-04
  -10.1099997      -6.20155188E-05
  -10.1000004      -1.97134359E-05
  -10.0900002       3.34167089E-05
  -10.0799999       1.01201440E-04
  -10.0699997       1.79721610E-04
  -10.0600004       2.56892032E-04
  -10.0500002       3.15024052E-04
  -10.0400000       3.35856661E-04
  -10.0299997       3.06673435E-04
  -10.0200005       2.25616241E-04
  -10.0100002       1.04367398E-04
  -10.0000000      -3.29745926E-05
  -9.98999977      -1.54910929E-04
  -9.97999954      -2.30326201E-04
  -9.97000027      -2.36963897E-04
  -9.96000004      -1.68145023E-04
  -9.94999981      -3.56417295E-05
  -9.93999958       1.32357542E-04
  -9.93000031       2.97855499E-04
  -9.92000008       4.22531681E-04
  -9.90999985       4.77521331E-04
  -9.89999962       4.50763822E-04
  -9.89000034       3.49871640E-04
  -9.88000011       1.99759874E-04
  -9.86999989       3.57887329E-05
  -9.85999966      -1.05556705E-04
  -9.85000038      -1.95781002E-04
  -9.84000015      -2.20786387E-04
  -9.82999992      -1.82981777E-04
  -9.81999969      -9.88422689E-05
  -9.81000042       6.98853864E-06
  -9.80000019       1.09034845E-04
  -9.78999996       1.87502621E-04
  -9.77999973       2.32186270E-04
  -9.77000046       2.42977112E-04
  -9.76000023       2.27336292E-04
  -9.75000000       1.96019857E-04
  -9.73999977       1.58751340E-04
  -9.72999954       1.21333585E-04
  -9.72000027       8.49955832E-05
  -9.71000004       4.78630609E-05
  -9.69999981       7.65905224E-06
  -9.68999958      -3.56475939E-05
  -9.68000031      -7.84088770E-05
  -9.67000008      -1.13691865E-04
  -9.65999985      -1.33357171E-04
  -9.64999962      -1.31007226E-04
  -9.64000034      -1.04648061E-04
  -9.63000011      -5.80101914E-05
  -9.61999989       3.10427843E-08
  -9.60999966       5.77993342E-05
  -9.60000038       1.04150189E-04
  -9.59000015       1.31662266E-04
  -9.57999992       1.38606498E-04
  -9.56999969       1.29038875E-04
  -9.56000042       1.11007343E-04
  -9.55000019       9.34990967E-05
  -9.53999996       8.31646757E-05
  -9.52999973       8.19085617E-05
  -9.52000046       8.61299559E-05
  -9.51000023       8.78458595E-05
  -9.50000000       7.73225329E-05
  -9.48999977       4.63768483E-05
  -9.47999954      -8.67474955E-06
  -9.47000027      -8.53046004E-05
  -9.46000004      -1.74788729E-04
  -9.44999981      -2.63920083E-04
  -9.43999958      -3.37915291E-04
  -9.43000031      -3.83707869E-04
  -9.42000008      -3.92765651E-04
  -9.40999985      -3.62751976E-04
  -9.39999962      -2.97700666E-04
  -9.39000034      -2.06780853E-04
  -9.38000011      -1.02078826E-04
  -9.36999989       3.96579617E-06
  -9.35999966       1.00803438E-04
  -9.35000038       1.81176525E-04
  -9.34000015       2.41429560E-04
  -9.32999992       2.80798704E-04
  -9.31999969       3.00041545E-04
  -9.31000042       2.99949432E-04
  -9.30000019       2.80309498E-04
  -9.28999996       2.39739034E-04
  -9.27999973       1.76530375E-04
  -9.27000046       9.02949178E-05
  -9.26000023      -1.61238222E-05
  -9.25000000      -1.35179725E-04
  -9.23999977      -2.54279992E-04
  -9.22999954      -3.56993027E-04
  -9.22000027      -4.25796839E-04
  -9.21000004      -4.45857382E-04
  -9.19999981      -4.08914406E-04
  -9.18999958      -3.16176680E-04
  -9.18000031      -1.79267066E-04
  -9.17000008      -1.87112219E-05
  -9.15999985       1.39884316E-04
  -9.14999962       2.71147786E-04
  -9.14000034       3.55452241E-04
  -9.13000011       3.83187347E-04
  -9.11999989       3.56638804E-04
  -9.10999966       2.88946758E-04
  -9.10000038       2.00411669E-04
  -9.09000015       1.13149210E-04
  -9.07999992       4.55472873E-05
  -9.06999969       8.00877024E-06
  -9.06000042       1.06956747E-06
  -9.05000019       1.62843407E-05
  -9.03999996       3.94855088E-05
  -9.02999973       5.53798272E-05
  -9.02000046       5.21333350E-05
  -9.01000023       2.46838463E-05
  -9.00000000      -2.40391109E-05
  -8.98999977      -8.41665315E-05
  -8.97999954      -1.41753611E-04
  -8.97000027      -1.82537697E-04
  -8.96000004      -1.95514891E-04
  -8.94999981      -1.75413268E-04
  -8.93999958      -1.23531921E-04
  -8.93000031      -4.69071711E-05
  -8.92000008       4.37831986E-05
  -8.90999985       1.36878647E-04
  -8.89999962       2.22187591E-04
  -8.89000034       2.92603218E-04
  -8.88000011       3.44550208E-04
  -8.86999989       3.77289893E-04
  -8.85999966       3.91444686E-04
  -8.85000038       3.87327222E-04
  -8.84000015       3.63719591E-04
  -8.82999992       3.17627040E-04
  -8.81999969       2.45243806E-04
  -8.81000042       1.43980273E-04
  -8.80000019       1.50059032E-05
  -8.78999996      -1.34524875E-04
  -8.77999973      -2.90467724E-04
  -8.77000046      -4.32599249E-04
  -8.76000023      -5.37661312E-04
  -8.75000000      -5.84112422E-04
  -8.73999977      -5.57528634E-04
  -8.72999954      -4.55189904E-04
  -8.72000027      -2.88381882E-04
  -8.71000004      -8.14100204E-05
  -8.69999981       1.32820031E-04
  -8.68999958       3.19778163E-04
  -8.68000031       4.51093540E-04
  -8.67000008       5.10992715E-04
  -8.65999985       4.99483838E-04
  -8.64999962       4.31261171E-04
  -8.64000034       3.30589741E-04
  -8.63000011       2.23713942E-04
  -8.61999989       1.31182722E-04
  -8.60999966       6.25735702E-05
  -8.60000038       1.53457204E-05
  -8.59000015      -2.18281839E-05
  -8.57999992      -6.24690656E-05
  -8.56999969      -1.14862261E-04
  -8.56000042      -1.76616493E-04
  -8.55000019      -2.33438666E-04
  -8.53999996      -2.62917543E-04
  -8.52999973      -2.42303126E-04
  -8.52000046      -1.57720409E-04
  -8.51000023      -1.15343782E-05
  -8.50000000       1.75007881E-04
  -8.48999977       3.65276355E-04
  -8.47999954       5.16277447E-04
  -8.47000027       5.90634474E-04
  -8.46000004       5.67821553E-04
  -8.44999981       4.51004453E-04
  -8.43999958       2.67144293E-04
  -8.43000031       6.01360189E-05
  -8.42000008      -1.21005382E-04
  -8.40999985      -2.35307511E-04
  -8.39999962      -2.60341127E-04
  -8.39000034      -1.96965411E-04
  -8.38000011      -6.71458474E-05
  -8.36999989       9.40693499E-05
  -8.35999966       2.49509234E-04
  -8.35000038       3.70102003E-04
  -8.34000015       4.41193086E-04
  -8.32999992       4.63357486E-04
  -8.31999969       4.48131061E-04
  -8.31000042       4.10834415E-04
  -8.30000019       3.63520405E-04
  -8.28999996       3.10768606E-04
  -8.27999973       2.49742996E-04
  -8.27000046       1.74146131E-04
  -8.26000023       8.01366332E-05
  -8.25000000      -2.84886301E-05
  -8.23999977      -1.38234129E-04
  -8.22999954      -2.28105273E-04
  -8.22000027      -2.75510072E-04
  -8.21000004      -2.63815396E-04
  -8.19999981      -1.88790771E-04
  -8.18999958      -6.14930323E-05
  -8.18000031       9.36204160E-05
  -8.17000008       2.44875439E-04
  -8.15999985       3.61875544E-04
  -8.14999962       4.23531572E-04
  -8.14000034       4.23057179E-04
  -8.13000011       3.68465495E-04
  -8.11999989       2.78676918E-04
  -8.10999966       1.76817513E-04
  -8.10000038       8.31264988E-05
  -8.09000015       9.83432528E-06
  -8.07999992      -4.05125320E-05
  -8.06999969      -7.31443288E-05
  -8.06000042      -9.67263113E-05
  -8.05000019      -1.18490658E-04
  -8.03999996      -1.40747448E-04
  -8.02999973      -1.59973788E-04
  -8.02000046      -1.68588813E-04
  -8.01000023      -1.58486873E-04
  -8.00000000      -1.24808008E-04
  -7.98999977      -6.84628103E-05
  -7.98000002       3.47317655E-06
  -7.96999979       7.95027372E-05
  -7.96000004       1.46807695E-04
  -7.94999981       1.94523993E-04
  -7.94000006       2.16110333E-04
  -7.92999983       2.10234473E-04
  -7.92000008       1.80252217E-04
  -7.90999985       1.32853980E-04
  -7.90000010       7.66026933E-05
  -7.88999987       2.08595447E-05
  -7.88000011      -2.48525212E-05
  -7.86999989      -5.14071871E-05
  -7.86000013      -5.10552636E-05
  -7.84999990      -1.90993323E-05
  -7.84000015       4.39700416E-05
  -7.82999992       1.30644839E-04
  -7.82000017       2.25919648E-04
  -7.80999994       3.09012074E-04
  -7.80000019       3.57468496E-04
  -7.78999996       3.52909410E-04
  -7.78000021       2.86838680E-04
  -7.76999998       1.64578887E-04
  -7.76000023       5.72624731E-06
  -7.75000000      -1.59492425E-04
  -7.73999977      -2.97241117E-04
  -7.73000002      -3.78538214E-04
  -7.71999979      -3.86605214E-04
  -7.71000004      -3.20789521E-04
  -7.69999981      -1.95832632E-04
  -7.69000006      -3.68109213E-05
  -7.67999983       1.28444881E-04
  -7.67000008       2.76798004E-04
  -7.65999985       3.94587900E-04
  -7.65000010       4.78276139E-04
  -7.63999987       5.31112077E-04
  -7.63000011       5.57549298E-04
  -7.61999989       5.58050117E-04
  -7.61000013       5.26781660E-04
  -7.59999990       4.53536486E-04
  -7.59000015       3.29432223E-04
  -7.57999992       1.54227906E-04
  -7.57000017      -5.78642139E-05
  -7.55999994      -2.76771956E-04
  -7.55000019      -4.61055635E-04
  -7.53999996      -5.67667186E-04
  -7.53000021      -5.64256276E-04
  -7.51999998      -4.40051896E-04
  -7.51000023      -2.11450984E-04
  -7.50000000       8.00369453E-05
  -7.48999977       3.77388991E-04
  -7.48000002       6.22555846E-04
  -7.46999979       7.71431834E-04
  -7.46000004       8.04617419E-04
  -7.44999981       7.30611151E-04
  -7.44000006       5.80583699E-04