  -16.0000000       0.00000000    
  -15.9899998       0.00000000    
  -15.9799995       0.00000000    
  -15.9700003       0.00000000    
  -15.9600000       0.00000000    
  -15.9499998       0.00000000    
  -15.9399996       0.00000000    
  -15.9300003       0.00000000    
  -15.9200001       0.00000000    
  -15.9099998       0.00000000    
  -15.8999996       7.59447716E-41
  -15.8900003       6.66121238E-40
  -15.8800001      -8.46559995E-39
  -15.8699999      -2.28250467E-37
  -15.8599997      -2.63138238E-36
  -15.8500004      -2.11184161E-35
  -15.8400002      -1.33972802E-34
  -15.8299999      -7.09762295E-34
  -15.8199997      -3.23011852E-33
  -15.8100004      -1.28355138E-32
  -15.8000002      -4.49997810E-32
  -15.7900000      -1.40167616E-31
  -15.7799997      -3.89647954E-31
  -15.7700005      -9.68622768E-31
  -15.7600002      -2.15084772E-30
  -15.7500000      -4.24123929E-30
  -15.7399998      -7.31992708E-30
  -15.7299995      -1.06879189E-29
  -15.7200003      -1.20151630E-29
  -15.7100000      -6.48826539E-30
  -15.6999998       1.32749762E-29
  -15.6899996       5.53281756E-29
  -15.6800003       1.23282230E-28
  -15.6700001       2.07647483E-28
  -15.6599998       2.75392551E-28
  -15.6499996       2.62395099E-28
  -15.6400003       7.61181621E-29
  -15.6300001      -3.83215305E-28
  -15.6199999      -1.17662908E-27
  -15.6099997      -2.25462147E-27
  -15.6000004      -3.36782400E-27
  -15.5900002      -3.98255388E-27
  -15.5799999      -3.24450671E-27
  -15.5699997      -5.84218450E-29
  -15.5600004       6.63398202E-27
  -15.5500002       1.73168666E-26
  -15.5400000       3.11206336E-26
  -15.5299997       4.49291908E-26
  -15.5200005       5.25648466E-26
  -15.5100002       4.41531519E-26
  -15.5000000       5.60933799E-27
  -15.4899998      -8.15415997E-26
  -15.4799995      -2.38147542E-25
  -15.4700003      -4.77625252E-25
  -15.4600000      -7.78282280E-25
  -15.4499998      -1.02789325E-24
  -15.4399996      -9.45766424E-25
  -15.4300003      -2.76833263E-26
  -15.4200001       2.37819061E-24
  -15.4099998       6.70427245E-24
  -15.3999996       1.23794759E-23
  -15.3900003       1.67238196E-23
  -15.3800001       1.40857788E-23
  -15.3699999      -3.60040693E-24
  -15.3599997      -4.32857193E-23
  -15.3500004      -1.03292835E-22
  -15.3400002      -1.62975078E-22
  -15.3299999      -1.74671904E-22
  -15.3199997      -6.76459460E-23
  -15.3100004       2.24315110E-22
  -15.3000002       7.05216507E-22
  -15.2900000       1.23930831E-21
  -15.2799997       1.49134576E-21
  -15.2700005       9.50891067E-22
  -15.2600002      -8.84482257E-22
  -15.2500000      -4.13129985E-21
  -15.2399998      -8.01876964E-21
  -15.2299995      -1.04995667E-20
  -15.2200003      -8.36785924E-21
  -15.2100000       1.68674022E-21
  -15.1999998       2.08983304E-20
  -15.1899996       4.55256525E-20
  -15.1800003       6.45266535E-20
  -15.1700001       5.99194191E-20
  -15.1599998       1.20869836E-20
  -15.1499996      -8.89474809E-20
  -15.1400003      -2.28248367E-19
  -15.1300001      -3.53002377E-19
  -15.1199999      -3.72155459E-19
  -15.1099997      -1.79752525E-19
  -15.1000004       2.92445389E-19
  -15.0900002       1.00105108E-18
  -15.0799999       1.72346617E-18
  -15.0699997       2.04270577E-18
  -15.0600004       1.43586684E-18
  -15.0500002      -5.04068459E-19
  -15.0400000      -3.73913182E-18
  -15.0299997      -7.45869255E-18
  -15.0200005      -9.94319486E-18
  -15.0100002      -8.84106355E-18
  -15.0000000      -2.00872375E-18
  -14.9899998       1.11446408E-17
  -14.9799995       2.81895708E-17
  -14.9700003       4.28063320E-17
  -14.9600000       4.54085099E-17
  -14.9499998       2.59627129E-17
  -14.9399996      -2.09974323E-17
  -14.9300003      -9.03387174E-17
  -14.9200001      -1.61774320E-16
  -14.9099998      -2.00149015E-16
  -14.8999996      -1.63584032E-16
  -14.8900003      -2.03767060E-17
  -14.8800001       2.28371623E-16
  -14.8699999       5.28233833E-16
  -14.8599997       7.64660952E-16
  -14.8500004       7.81763394E-16
  -14.8400002       4.32979049E-16
  -14.8299999      -3.42015016E-16
  -14.8199997      -1.43596214E-15
  -14.8100004      -2.52495291E-15
  -14.8000002      -3.09394369E-15
  -14.7900000      -2.56764443E-15
  -14.7799997      -5.44881578E-16
  -14.7700005       2.91529195E-15
  -14.7600002       7.06021062E-15
  -14.7500000       1.03998536E-14
  -14.7399998       1.09760045E-14
  -14.7299995       6.98995517E-15
  -14.7200003      -2.30456828E-15
  -14.7100000      -1.57050022E-14
  -14.6999998      -2.95582582E-14
  -14.6899996      -3.80792403E-14
  -14.6800003      -3.47668739E-14
  -14.6700001      -1.48515132E-14
  -14.6599998       2.17748369E-14
  -14.6499996       6.81703568E-14
  -14.6400003       1.09783385E-13
  -14.6300001       1.26839267E-13
  -14.6199999       1.00070925E-13
  -14.6099997       1.89670447E-14
  -14.6000004      -1.09722161E-13
  -14.5900002      -2.56618918E-13
  -14.5799999      -3.71126144E-13
  -14.5699997      -3.92090386E-13
  -14.5600004      -2.67528892E-13
  -14.5500002       2.05140097E-14
  -14.5400000       4.33670000E-13
  -14.5299997       8.67455142E-13
  -14.5200005       1.16317253E-12
  -14.5100002       1.14600300E-12
  -14.5000000       6.85410821E-13
  -14.4899998      -2.36231634E-13
  -14.4799995      -1.46972950E-12
  -14.4700003      -2.68629563E-12
  -14.4600000      -3.42714225E-12
  -14.4499998      -3.22141077E-12
  -14.4399996      -1.75514269E-12
  -14.4300003       9.51525751E-13
  -14.4200001       4.42087252E-12
  -14.4099998       7.71302900E-12
  -14.3999996       9.58626234E-12
  -14.3900003       8.82510905E-12
  -14.3800001       4.68030866E-12
  -14.3699999      -2.69517937E-12
  -14.3599997      -1.19688703E-11
  -14.3500004      -2.06628048E-11
  -14.3400002      -2.55952932E-11
  -14.3299999      -2.37182253E-11
  -14.3199997      -1.31979367E-11
  -14.3100004       5.54566289E-12
  -14.3000002       2.92058634E-11
  -14.2900000       5.17071802E-11
  -14.2799997       6.52793375E-11
  -14.2700005       6.24397201E-11
  -14.2600002       3.85231291E-11
  -14.2500000      -5.89293978E-12
  -14.2399998      -6.34839542E-11
  -14.2299995      -1.20361845E-10
  -14.2200003      -1.58402069E-10
  -14.2100000      -1.59623467E-10
  -14.1999998      -1.11855684E-10
  -14.1899996      -1.43022417E-11
  -14.1800003       1.18759641E-10
  -14.1700001       2.57825983E-10
  -14.1599998       3.62626956E-10
  -14.1499996       3.91156496E-10
  -14.1400003       3.11823650E-10
  -14.1300001       1.15937815E-10
  -14.1199999      -1.73122780E-10
  -14.1099997      -4.97705821E-10
  -14.1000004      -7.73200615E-10
  -14.0900002      -9.05298003E-10
  -14.0799999      -8.14804335E-10
  -14.0699997      -4.64776523E-10
  -14.0600004       1.17295090E-10
  -14.0500002       8.29978974E-10
  -14.0400000       1.50711499E-09
  -14.0299997       1.94794803E-09
  -14.0200005       1.96494310E-09
  -14.0100002       1.44016832E-09
  -14.0000000       3.76421089E-10
  -13.9899998      -1.07267095E-09
  -13.9799995      -2.60727595E-09
  -13.9700003      -3.82796372E-09
  -13.9600000      -4.32149427E-09
  -13.9499998      -3.77134235E-09
  -13.9399996      -2.06814410E-09
  -13.9300003       6.10555939E-10
  -13.9200001       3.78050435E-09
  -13.9099998       6.71025191E-09
  -13.8999996       8.56182236E-09
  -13.8900003       8.59242100E-09
  -13.8800001       6.37574882E-09
  -13.8699999       1.98698236E-09
  -13.8599997      -3.90677091E-09
  -13.8500004      -1.00954285E-08
  -13.8400002      -1.50307109E-08
  -13.8299999      -1.71642611E-08
  -13.8199997      -1.53558339E-08
  -13.8100004      -9.25646582E-09
  -13.8000002       4.40720210E-10
  -13.7900000       1.19750094E-08
  -13.7799997       2.27683685E-08
  -13.7700005       2.99378691E-08
  -13.7600002       3.09840864E-08
  -13.7500000       2.45066154E-08
  -13.7399998       1.07635794E-08
  -13.7299995      -8.09916578E-09
  -13.7200003      -2.82668768E-08
  -13.7100000      -4.49426665E-08
  -13.6999998      -5.34025055E-08
  -13.6899996      -5.02057738E-08
  -13.6800003      -3.42734374E-08
  -13.6700001      -7.53435536E-09
  -13.6599998       2.50943373E-08
  -13.6499996       5.64901050E-08
  -13.6400003       7.87853480E-08
  -13.6300001       8.52316617E-08
  -13.6199999       7.20500921E-08
  -13.6099997       3.97930577E-08
  -13.6000004      -6.19802787E-09
  -13.5900002      -5.64809994E-08
  -13.5799999      -9.93281617E-08
  -13.5699997      -1.23358305E-07
  -13.5600004      -1.20425113E-07
  -13.5500002      -8.80621016E-08
  -13.5400000      -3.08063512E-08
  -13.5299997       4.00779179E-08
  -13.5200005       1.08608262E-07
  -13.5100002       1.57532654E-07
  -13.5000000       1.72521823E-07
  -13.4899998       1.46132550E-07
  -13.4799995       8.05070641E-08
  -13.4700003      -1.20332189E-08
  -13.4600000      -1.10908566E-07
  -13.4499998      -1.91536358E-07
  -13.4399996      -2.31124403E-07
  -13.4300003      -2.14716081E-07
  -13.4200001      -1.39979434E-07
  -13.4099998      -1.93649523E-08
  -13.3999996       1.21243446E-07
  -13.3900003       2.47478141E-07
  -13.3800001       3.24229916E-07
  -13.3699999       3.24566713E-07
  -13.3599997       2.37714659E-07
  -13.3500004       7.39617292E-08
  -13.3400002      -1.35145498E-07
  -13.3299999      -3.41958810E-07
  -13.3199997      -4.92622007E-07
  -13.3100004      -5.39821599E-07
  -13.3000002      -4.55569477E-07
  -13.2900000      -2.40839398E-07
  -13.2799997       7.07279639E-08
  -13.2700005       4.16705319E-07
  -13.2600002       7.17327850E-07
  -13.2500000       8.92632670E-07
  -13.2399998       8.81800020E-07
  -13.2299995       6.60266153E-07
  -13.2200003       2.50213901E-07
  -13.2100000      -2.78845334E-07
  -13.1999998      -8.20662308E-07
  -13.1899996      -1.25273471E-06
  -13.1800003      -1.46291018E-06
  -13.1700001      -1.37648306E-06
  -13.1599998      -9.77471018E-07
  -13.1499996      -3.18508881E-07
  -13.1400003       4.84066163E-07
  -13.1300001       1.27020928E-06
  -13.1199999       1.86801424E-06
  -13.1099997       2.13112821E-06
  -13.1000004       1.97361510E-06
  -13.0900002       1.39405483E-06
  -13.0799999       4.82495409E-07
  -13.0699997      -5.92662559E-07
  -13.0600004      -1.61634637E-06
  -13.0500002      -2.37115592E-06
  -13.0400000      -2.68512008E-06
  -13.0299997      -2.47218168E-06
  -13.0200005      -1.75569642E-06
  -13.0100002      -6.68539599E-07
  -13.0000000       5.71561202E-07
  -12.9899998       1.70716226E-06
  -12.9799995       2.49736809E-06
  -12.9700003       2.77273489E-06
  -12.9600000       2.47592652E-06
  -12.9499998       1.67788744E-06
  -12.9399996       5.64527795E-07
  -12.9300003      -6.04322054E-07
  -12.9200001      -1.55519103E-06
  -12.9099998      -2.06688082E-06
  -12.8999996      -2.02628644E-06
  -12.8900003      -1.45995671E-06
  -12.8800001      -5.32331626E-07
  -12.8699999       4.90771868E-07
  -12.8599997       1.30638671E-06
  -12.8500004       1.65201391E-06
  -12.8400002       1.37807456E-06
  -12.8299999       4.96686368E-07
  -12.8199997      -8.07138747E-07
  -12.8100004      -2.20745574E-06
  -12.8000002      -3.30782927E-06
  -12.7900000      -3.73579155E-06
  -12.7799997      -3.23994254E-06
  -12.7700005      -1.76617141E-06
  -12.7600002       5.07094171E-07
  -12.7500000       3.18620550E-06
  -12.7399998       5.73193893E-06
  -12.7299995       7.56877716E-06
  -12.7200003       8.21098820E-06
  -12.7100000       7.37741220E-06
  -12.6999998       5.06802007E-06
  -12.6899996       1.58284843E-06
  -12.6800003      -2.52359996E-06
  -12.6700001      -6.54485666E-06
  -12.6599998      -9.76092542E-06
  -12.6499996      -1.15828980E-05
  -12.6400003      -1.16718902E-05
  -12.6300001      -1.00057596E-05
  -12.6199999      -6.87873307E-06
  -12.6099997      -2.83438771E-06
  -12.6000004       1.45216973E-06
  -12.5900002       5.31533806E-06
  -12.5799999       8.23047048E-06
  -12.5699997       9.90565331E-06
  -12.5600004       1.03137854E-05
  -12.5500002       9.65986328E-06
  -12.5400000       8.29467899E-06
  -12.5299997       6.59952047E-06
  -12.5200005       4.87364514E-06
  -12.5100002       3.25527253E-06
  -12.5000000       1.69771317E-06
  -12.4899998       7.22443128E-09
  -12.4799995      -2.06796767E-06
  -12.4700003      -4.72284319E-06
  -12.4600000      -7.98881319E-06
  -12.4499998      -1.16683877E-05
  -12.4399996      -1.53351284E-05
  -12.4300003      -1.84060045E-05
  -12.4200001      -2.02734936E-05
  -12.4099998      -2.04669850E-05
  -12.3999996      -1.88021077E-05
  -12.3900003      -1.54758200E-05
  -12.3800001      -1.10753645E-05
  -12.3699999      -6.48866671E-06
  -12.3599997      -2.72809257E-06
  -12.3500004      -7.02662305E-07
  -12.3400002      -9.90066383E-07
  -12.3299999      -3.66442350E-06
  -12.3199997      -8.22673064E-06
  -12.3100004      -1.36637318E-05
  -12.3000002      -1.86319103E-05
  -12.2900000      -2.17330307E-05
  -12.2799997      -2.18236128E-05
  -12.2700005      -1.82889071E-05
  -12.2600002      -1.12161333E-05
  -12.2500000      -1.42155432E-06
  -12.2399998       9.68223503E-06
  -12.2299995       2.03559994E-05
  -12.2200003       2.88848460E-05
  -12.2100000       3.39336366E-05
  -12.1999998       3.48261019E-05
  -12.1899996       3.16818478E-05
  -12.1800003       2.53766484E-05
  -12.1700001       1.73317876E-05
  -12.1599998       9.17883244E-06
  -12.1499996       2.37720610E-06
  -12.1400003      -2.12457758E-06
  -12.1300001      -4.10086841E-06
  -12.1199999      -4.07897642E-06
  -12.1099997      -3.17489844E-06
  -12.1000004      -2.76947526E-06
  -12.0900002      -4.10075518E-06
  -12.0799999      -7.87274075E-06
  -12.0699997      -1.39819404E-05
  -12.0600004      -2.14397660E-05
  -12.0500002      -2.85252318E-05
  -12.0400000      -3.31479860E-05
  -12.0299997      -3.33490461E-05
  -12.0200005      -2.78279786E-05
  -12.0100002      -1.63712375E-05
  -12.0000000      -7.05353855E-08
  -11.9899998       1.87381793E-05
  -11.9799995       3.68248038E-05
  -11.9700003       5.06482502E-05
  -11.9600000       5.70604716E-05
  -11.9499998       5.39855937E-05
  -11.9399996       4.09258937E-05
  -11.9300003       1.91772233E-05
  -11.9200001      -8.30577574E-06
  -11.9099998      -3.73810981E-05
  -11.8999996      -6.34416720E-05
  -11.8900003      -8.22473958E-05
  -11.8800001      -9.07002395E-05
  -11.8699999      -8.74055113E-05
  -11.8599997      -7.29067033E-05
  -11.8500004      -4.95494860E-05
  -11.8400002      -2.10084090E-05
  -11.8299999       8.42028658E-06
  -11.8199997       3.46099005E-05
  -11.8100004       5.43154456E-05
  -11.8000002       6.56665143E-05
  -11.7900000       6.83533581E-05
  -11.7799997       6.34890384E-05
  -11.7700005       5.32017475E-05
  -11.7600002       4.00677964E-05
  -11.7500000       2.65238159E-05
  -11.7399998       1.43921297E-05
  -11.7299995       4.61710897E-06
  -11.7200003      -2.74671288E-06
  -11.7100000      -8.31800298E-06
  -11.6999998      -1.30216295E-05
  -11.6899996      -1.76822177E-05
  -11.6800003      -2.26925004E-05
  -11.6700001      -2.78446987E-05
  -11.6599998      -3.23654131E-05
  -11.6499996      -3.51379167E-05
  -11.6400003      -3.50449554E-05
  -11.6300001      -3.13334604E-05
  -11.6199999      -2.38976481E-05
  -11.6099997      -1.33997473E-05
  -11.6000004      -1.19163724E-06
  -11.5900002       1.09458888E-05
  -11.5799999       2.11808492E-05
  -11.5699997       2.80283512E-05
  -11.5600004       3.06675720E-05
  -11.5500002       2.90971057E-05
  -11.5400000       2.40908503E-05
  -11.5299997       1.69690102E-05
  -11.5200005       9.24680262E-06
  -11.5100002       2.25499298E-06
  -11.5000000      -3.16740648E-06
  -11.4899998      -6.82803375E-06
  -11.4799995      -9.14496923E-06
  -11.4700003      -1.09324546E-05
  -11.4600000      -1.30701201E-05
  -11.4499998      -1.61498647E-05
  -11.4399996      -2.02026113E-05
  -11.4300003      -2.45882511E-05
  -11.4200001      -2.80909571E-05
  -11.4099998      -2.92085369E-05
  -11.3999996      -2.65720992E-05
  -11.3900003      -1.93938267E-05
  -11.3800001      -7.82630741E-06
  -11.3699999       6.86980275E-06
  -11.3599997       2.24136074E-05
  -11.3500004       3.58546822E-05
  -11.3400002       4.41324228E-05
  -11.3299999       4.47370694E-05
  -11.3199997       3.63334148E-05
  -11.3100004       1.92051139E-05
  -11.3000002      -4.59507555E-06
  -11.2900000      -3.14497411E-05
  -11.2799997      -5.67262578E-05
  -11.2700005      -7.55883011E-05
  -11.2600002      -8.39257264E-05
  -11.2500000      -7.92234132E-05
  -11.2399998      -6.11885262E-05
  -11.2299995      -3.19909996E-05
  -11.2200003       3.96038695E-06
  -11.2100000       4.06957879E-05
  -11.1999998       7.17133880E-05
  -11.1899996       9.11794777E-05
  -11.1800003       9.50727190E-05
  -11.1700001       8.20425848E-05
  -11.1599998       5.37951782E-05
  -11.1499996       1.49038478E-05
  -11.1400003      -2.79476280E-05
  -11.1300001      -6.71664166E-05
  -11.1199999      -9.56771983E-05
  -11.1099997      -1.08298336E-04
  -11.1000004      -1.02789483E-04
  -11.0900002      -8.03477233E-05
  -11.0799999      -4.54329493E-05
  -11.0699997      -4.93608695E-06
  -11.0600004       3.31605333E-05
  -11.0500002       6.13717348E-05
  -11.0400000       7.42284683E-05
  -11.0299997       6.94136688E-05
  -11.0200005       4.82722826E-05
  -11.0100002       1.55765720E-05
  -11.0000000      -2.14198026E-05
  -10.9899998      -5.44562645E-05
  -10.9799995      -7.59714676E-05
  -10.9700003      -8.06903772E-05
  -10.9600000      -6.67609129E-05
  -10.9499998      -3.61986531E-05
  -10.9399996       5.45898820E-06
  -10.9300003       5.02228722E-05
  -10.9200001       8.92275202E-05
  -10.9099998       1.14486684E-04
  -10.8999996       1.20467070E-04
  -10.8900003       1.05159488E-04
  -10.8800001       7.04361883E-05
  -10.8699999       2.16373446E-05
  -10.8599997      -3.35068762E-05
  -10.8500004      -8.63754976E-05
  -10.8400002      -1.29054213E-04
  -10.8299999      -1.55701666E-04
  -10.8199997      -1.63421326E-04
  -10.8100004      -1.52497145E-04
  -10.8000002      -1.25997336E-04
  -10.7900000      -8.88877112E-05
  -10.7799997      -4.68915787E-05
  -10.7700005      -5.36859352E-06
  -10.7600002       3.15456709E-05
  -10.7500000       6.13820812E-05
  -10.7399998       8.33197846E-05
  -10.7299995       9.77806194E-05
  -10.7200003       1.05797371E-04
  -10.7100000       1.08358880E-04
  -10.6999998       1.05922554E-04
  -10.6899996       9.82256679E-05
  -10.6800003       8.44378592E-05
  -10.6700001       6.36016484E-05
  -10.6599998       3.52293937E-05
  -10.6499996      -1.18864172E-07
  -10.6400003      -4.04520797E-05
  -10.6300001      -8.22929142E-05
  -10.6199999      -1.21009209E-04
  -10.6099997      -1.51501343E-04
  -10.6000004      -1.69128150E-04
  -10.5900002      -1.70689600E-04
  -10.5799999      -1.55255373E-04
  -10.5699997      -1.24642087E-04
  -10.5600004      -8.33978265E-05
  -10.5500002      -3.82419712E-05
  -10.5400000       2.98320901E-06
  -10.5299997       3.26871123E-05
  -10.5200005       4.49864347E-05
  -10.5100002       3.69570698E-05
  -10.5000000       9.41323106E-06
  -10.4899998      -3.29821305E-05
  -10.4799995      -8.23504233E-05
  -10.4700003      -1.28901942E-04
  -10.4600000      -1.62695957E-04
  -10.4499998      -1.75532405E-04
  -10.4399996      -1.62604207E-04
  -10.4300003      -1.23568767E-04
  -10.4200001      -6.28003909E-05
  -10.4099998       1.12558482E-05
  -10.3999996       8.75272235E-05
  -10.3900003       1.54287321E-04
  -10.3800001       2.01282644E-04
  -10.3699999       2.21599403E-04
  -10.3599997       2.12909625E-04
  -10.3500004       1.77861104E-04
  -10.3400002       1.23547725E-04
  -10.3299999       6.01780957E-05
  -10.3199997      -7.88223758E-07
  -10.3100004      -4.86744320E-05
  -10.3000002      -7.54118591E-05
  -10.2900000      -7.68367681E-05
  -10.2799997      -5.32554441E-05
  -10.2700005      -9.22276467E-06
  -10.2600002       4.73736618E-05
  -10.2500000       1.06714499E-04
  -10.2399998       1.58658746E-04
  -10.2299995       1.94279084E-04
  -10.2200003       2.07084755E-04
  -10.2100000       1.93779357E-04
  -10.1999998       1.54502181E-04
  -10.1899996       9.25969653E-05
  -10.1800003       1.40197462E-05
  -10.1700001      -7.34702699E-05
  -10.1599998      -1.61200194E-04
  -10.1499996      -2.40451249E-04
  -10.1400003      -3.03249602E-04
  -10.1300001      -3.43065214E-04
  -10.1199999      -3.55422206E-04
  -10.1099997      -3.38414102E-04
  -10.1000004      -2.93086166E-04
  -10.0900002      -2.23607247E-04
  -10.0799999      -1.37128140E-04
  -10.0699997      -4.32328743E-05
  -10.0600004       4.70580053E-05
  -10.0500002       1.22680052E-04
  -10.0400000       1.74147237E-04
  -10.0299997       1.95137109E-04
  -10.0200005       1.83718323E-04
  -10.0100002       1.42920093E-04
  -10.0000000       8.04466908E-05
  -9.98999977       7.50916251E-06
  -9.97999954      -6.30550567E-05
  -9.97000027      -1.19028169E-04
  -9.96000004      -1.50973618E-04
  -9.94999981      -1.53865389E-04
  -9.93999958      -1.27849184E-04
  -9.93000031      -7.79970578E-05
  -9.92000008      -1.31473007E-05
  -9.90999985       5.58762513E-05
  -9.89999962       1.18250813E-04
  -9.89000034       1.64923709E-04
  -9.88000011       1.89839542E-04
  -9.86999989       1.90472405E-04
  -9.85999966       1.67698672E-04
  -9.85000038       1.25193765E-04
  -9.84000015       6.86038693E-05
  -9.82999992       4.71847443E-06
  -9.81999969      -5.92245815E-05
  -9.81000042      -1.16090894E-04
  -9.80000019      -1.59341085E-04
  -9.78999996      -1.83574317E-04
  -9.77999973      -1.85186553E-04
  -9.77000046      -1.63099729E-04
  -9.76000023      -1.19398057E-04
  -9.75000000      -5.96289210E-05
  -9.73999977       7.46986461E-06
  -9.72999954       7.09512315E-05
  -9.72000027       1.19303542E-04
  -9.71000004       1.42507299E-04
  -9.69999981       1.34086731E-04
  -9.68999958       9.26718203E-05
  -9.68000031       2.26510565E-05
  -9.67000008      -6.63171159E-05
  -9.65999985      -1.60900367E-04
  -9.64999962      -2.46490148E-04
  -9.64000034      -3.09891679E-04
  -9.63000011      -3.41719599E-04
  -9.61999989      -3.37982783E-04
  -9.60999966      -3.00538959E-04
  -9.60000038      -2.36370135E-04
  -9.59000015      -1.55901434E-04
  -9.57999992      -7.07886866E-05
  -9.56999969       8.31088255E-06
  -9.56000042       7.35099238E-05
  -9.55000019       1.20675810E-04
  -9.53999996       1.49508938E-04
  -9.52999973       1.62807148E-04
  -9.52000046       1.65177582E-04
  -9.51000023       1.61547359E-04
  -9.50000000       1.55827307E-04
  -9.48999977       1.50009713E-04
  -9.47999954       1.43857804E-04
  -9.47000027       1.35203547E-04
  -9.46000004       1.20742399E-04
  -9.44999981       9.71182308E-05
  -9.43999958       6.20448336E-05
  -9.43000031       1.52127732E-05
  -9.42000008      -4.12199079E-05
  -9.40999985      -1.02669735E-04
  -9.39999962      -1.62711760E-04
  -9.39000034      -2.14105487E-04
  -9.38000011      -2.50069512E-04
  -9.36999989      -2.65555602E-04
  -9.35999966      -2.58264336E-04
  -9.35000038      -2.29189813E-04
  -9.34000015      -1.82571268E-04
  -9.32999992      -1.25247388E-04
  -9.31999969      -6.55286785E-05
  -9.31000042      -1.17988457E-05
  -9.30000019       2.88932461E-05
  -9.28999996       5.19925452E-05
  -9.27999973       5.61435518E-05
  -9.27000046       4.33284040E-05
  -9.26000023       1.84281507E-05
  -9.25000000      -1.17025138E-05
  -9.23999977      -3.94802701E-05
  -9.22999954      -5.79462248E-05
  -9.22000027      -6.20043284E-05
  -9.21000004      -4.93434018E-05
  -9.19999981      -2.08887941E-05
  -9.18999958       1.93001651E-05
  -9.18000031       6.46850604E-05
  -9.17000008       1.07360749E-04
  -9.15999985       1.39443029E-04
  -9.14999962       1.54486086E-04
  -9.14000034       1.48660984E-04
  -9.13000011       1.21457408E-04
  -9.11999989       7.57582602E-05
  -9.10999966       1.72658547E-05
  -9.10000038      -4.65973062E-05
  -9.09000015      -1.08068838E-04
  -9.07999992      -1.60398762E-04
  -9.06999969      -1.98878843E-04
  -9.06000042      -2.21345996E-04
  -9.05000019      -2.28101184E-04
  -9.03999996      -2.21341383E-04
  -9.02999973      -2.04321186E-04
  -9.02000046      -1.80507850E-04
  -9.01000023      -1.52957451E-04
  -9.00000000      -1.24033671E-04
  -8.98999977      -9.54563366E-05
  -8.97999954      -6.85518244E-05
  -8.97000027      -4.45211699E-05
  -8.96000004      -2.45639239E-05
  -8.94999981      -9.78274875E-06
  -8.93999958      -9.09784944E-07
  -8.93000031       2.00823820E-06
  -8.92000008      -2.07546194E-07
  -8.90999985      -5.95126312E-06
  -8.89999962      -1.32100913E-05
  -8.89000034      -2.01393923E-05
  -8.88000011      -2.56388303E-05
  -8.86999989      -2.97059942E-05
  -8.85999966      -3.34043798E-05
  -8.85000038      -3.84143168E-05
  -8.84000015      -4.62924399E-05
  -8.82999992      -5.76893362E-05
  -8.81999969      -7.18166702E-05
  -8.81000042      -8.63925088E-05
  -8.80000019      -9.81433695E-05
  -8.78999996      -1.03751867E-04
  -8.77999973      -1.00974896E-04
  -8.77000046      -8.95775083E-05
  -8.76000023      -7.17625153E-05
  -8.75000000      -5.19167734E-05
  -8.73999977      -3.56979253E-05
  -8.72999954      -2.86852446E-05
  -8.72000027      -3.49503680E-05
  -8.71000004      -5.59291329E-05
  -8.69999981      -8.98896033E-05
  -8.68999958      -1.32124784E-04
  -8.68000031      -1.75806723E-04
  -8.67000008      -2.13279593E-04
  -8.65999985      -2.37484652E-04
  -8.64999962      -2.43213930E-04
  -8.64000034      -2.27968136E-04
  -8.63000011      -1.92309613E-04
  -8.61999989      -1.39716518E-04
  -8.60999966      -7.60268158E-05
  -8.60000038      -8.60163891E-06
  -8.59000015       5.46582232E-05
  -8.57999992       1.06322077E-04
  -8.56999969       1.40358519E-04
  -8.56000042       1.52884095E-04
  -8.55000019       1.42636316E-04
  -8.53999996       1.11091380E-04
  -8.52999973       6.21863874E-05
  -8.52000046       1.67157020E-06
  -8.51000023      -6.38029742E-05
  -8.50000000      -1.27692212E-04
  -8.48999977      -1.84447810E-04
  -8.47999954      -2.30114791E-04
  -8.47000027      -2.62530579E-04
  -8.46000004      -2.81135668E-04
  -8.44999981      -2.86514143E-04
  -8.43999958      -2.79850094E-04
  -8.43000031      -2.62490765E-04
  -8.42000008      -2.35744010E-04
  -8.40999985      -2.00935261E-04
  -8.39999962      -1.59641815E-04
  -8.39000034      -1.13955437E-04
  -8.38000011      -6.66177439E-05
  -8.36999989      -2.09308273E-05
  -8.35999966       1.95610555E-05
  -8.35000038       5.15306238E-05
  -8.34000015       7.23284393E-05
  -8.32999992       8.03132498E-05
  -8.31999969       7.49810788E-05
  -8.31000042       5.69064869E-05
  -8.30000019       2.75779112E-05
  -8.28999996      -1.07695978E-05
  -8.27999973      -5.52574093E-05
  -8.27000046      -1.02410282E-04
  -8.26000023      -1.48232168E-04
  -8.25000000      -1.88431557E-04
  -8.23999977      -2.18885398E-04
  -8.22999954      -2.36334861E-04
  -8.22000027      -2.39179848E-04
  -8.21000004      -2.28135978E-04
  -8.19999981      -2.06489203E-04
  -8.18999958      -1.79755283E-04
  -8.18000031      -1.54712732E-04
  -8.17000008      -1.37979994E-04
  -8.15999985      -1.34477217E-04
  -8.14999962      -1.46187012E-04
  -8.14000034      -1.71572057E-04
  -8.13000011      -2.05829143E-04
  -8.11999989      -2.41919450E-04
  -8.10999966      -2.72091769E-04
  -8.10000038      -2.89486285E-04
  -8.09000015      -2.89411895E-04
  -8.07999992      -2.70025077E-04
  -8.06999969      -2.32346734E-04
  -8.06000042      -1.79756040E-04
  -8.05000019      -1.17225543E-04
  -8.03999996      -5.05655626E-05
  -8.02999973       1.41541750E-05
  -8.02000046       7.09917367E-05
  -8.01000023       1.14444803E-04
  -8.00000000       1.39846292E-04
  -7.98999977       1.43936180E-04
  -7.98000002       1.25555191E-04
  -7.96999979       8.62485394E-05
  -7.96000004       3.04814148E-05
  -7.94999981      -3.47892237E-05
  -7.94000006      -1.01263853E-04
  -7.92999983      -1.60989046E-04
  -7.92000008      -2.08160403E-04
  -7.90999985      -2.40490219E-04
  -7.90000010      -2.59652879E-04
  -7.88999987      -2.70570687E-04
  -7.88000011      -2.79668981E-04
  -7.86999989      -2.92588869E-04
  -7.86000013      -3.12067743E-04
  -7.84999990      -3.36689613E-04
  -7.84000015      -3.60961392E-04
  -7.82999992      -3.76757089E-04
  -7.82000017      -3.75725533E-04
  -7.80999994      -3.51934374E-04
  -7.80000019      -3.03933921E-04
  -7.78999996      -2.35601721E-04
  -7.78000021      -1.55514092E-04
  -7.76999998      -7.50530162E-05
  -7.76000023      -5.83562542E-06
  -7.75000000       4.27706982E-05
  -7.73999977       6.53666211E-05
  -7.73000002       6.10864590E-05
  -7.71999979       3.30207149E-05
  -7.71000004      -1.31426032E-05
  -7.69999981      -7.07064319E-05
  -7.69000006      -1.33256253E-04
  -7.67999983      -1.95337896E-04
  -7.67000008      -2.52502417E-04
  -7.65999985      -3.00961983E-04
  -7.65000010      -3.37228645E-04
  -7.63999987      -3.58061137E-04
  -7.63000011      -3.60856211E-04
  -7.61999989      -3.44377127E-04
  -7.61000013      -3.09519528E-04
  -7.59999990      -2.59755412E-04
  -7.59000015      -2.00991068E-04
  -7.57999992      -1.40782664E-04
  -7.57000017      -8.70872318E-05
  -7.55999994      -4.68942853E-05
  -7.55000019      -2.51159272E-05
  -7.53999996      -2.40076897E-05
  -7.53000021      -4.31938388E-05
  -7.51999998      -8.01665155E-05
  -7.51000023      -1.30999979E-04
  -7.50000000      -1.91012703E-04
  -7.48999977      -2.55216524E-04
  -7.48000002      -3.18552280E-04
  -7.46999979      -3.76047887E-04
  -7.46000004      -4.23077232E-04
  -7.44999981      -4.55829984E-04
  -7.44000006      -4.71949257E-04