  -16.0000000       0.00000000    
  -15.9899998       0.00000000    
  -15.9799995       0.00000000    
  -15.9700003       0.00000000    
  -15.9600000       0.00000000    
  -15.9499998       0.00000000    
  -15.9399996       0.00000000    
  -15.9300003       0.00000000    
  -15.9200001       0.00000000    
  -15.9099998       0.00000000    
  -15.8999996      -1.83233787E-41
  -15.8900003      -4.57230937E-39
  -15.8800001      -9.84478985E-38
  -15.8699999      -1.10832368E-36
  -15.8599997      -8.37931389E-36
  -15.8500004      -4.65898921E-35
  -15.8400002      -1.95470430E-34
  -15.8299999      -5.93478904E-34
  -15.8199997      -9.79981171E-34
  -15.8100004       2.01486215E-33
  -15.8000002       2.51655826E-32
  -15.7900000       1.28468614E-31
  -15.7799997       4.83464652E-31
  -15.7700005       1.49426284E-30
  -15.7600002       3.94136222E-30
  -15.7500000       8.99920333E-30
  -15.7399998       1.77776936E-29
  -15.7299995       2.98533044E-29
  -15.7200003       4.03607689E-29
  -15.7100000       3.60189344E-29
  -15.6999998      -7.80152016E-30
  -15.6899996      -1.24715146E-28
  -15.6800003      -3.44620584E-28
  -15.6700001      -6.68758036E-28
  -15.6599998      -1.03883833E-27
  -15.6499996      -1.31591465E-27
  -15.6400003      -1.28415809E-27
  -15.6300001      -6.71548468E-28
  -15.6199999       8.63735187E-28
  -15.6099997       3.85431237E-27
  -15.6000004       9.23806810E-27
  -15.5900002       1.83695676E-26
  -15.5799999       3.20940540E-26
  -15.5699997       4.78934157E-26
  -15.5600004       5.47362910E-26
  -15.5500002       2.75490997E-26
  -15.5400000      -7.27618737E-26
  -15.5299997      -2.83875492E-25
  -15.5200005      -6.01933904E-25
  -15.5100002      -9.18621129E-25
  -15.5000000      -9.62686307E-25
  -15.4899998      -3.07088242E-25
  -15.4799995       1.47570356E-24
  -15.4700003       4.45466874E-24
  -15.4600000       7.83175427E-24
  -15.4499998       9.53175110E-24
  -15.4399996       6.34324671E-24
  -15.4300003      -4.88250784E-24
  -15.4200001      -2.47739543E-23
  -15.4099998      -4.83158593E-23
  -15.3999996      -6.27907974E-23
  -15.3900003      -4.94255341E-23
  -15.3800001       8.88856519E-24
  -15.3699999       1.13814112E-22
  -15.3599997       2.36368804E-22
  -15.3500004       3.10320639E-22
  -15.3400002       2.46796863E-22
  -15.3299999      -2.19756958E-23
  -15.3199997      -4.76875833E-22
  -15.3100004      -9.54086698E-22
  -15.3000002      -1.14568766E-21
  -15.2900000      -7.08743030E-22
  -15.2799997       5.06118919E-22
  -15.2700005       2.17801462E-21
  -15.2600002       3.36325356E-21
  -15.2500000       2.69765610E-21
  -15.2399998      -8.82054534E-22
  -15.2299995      -6.98640542E-21
  -15.2200003      -1.26941269E-20
  -15.2100000      -1.24588021E-20
  -15.1999998      -8.65165212E-24
  -15.1899996       2.73253235E-20
  -15.1800003       6.28316054E-20
  -15.1700001       8.61486184E-20
  -15.1599998       6.50878697E-20
  -15.1499996      -3.20500725E-20
  -15.1400003      -2.12707168E-19
  -15.1300001      -4.31022388E-19
  -15.1199999      -5.68820054E-19
  -15.1099997      -4.48645032E-19
  -15.1000004       1.01345277E-19
  -15.0900002       1.12786159E-18
  -15.0799999       2.40861222E-18
  -15.0699997       3.35533056E-18
  -15.0600004       3.06448104E-18
  -15.0500002       6.07149639E-19
  -15.0400000      -4.42306088E-18
  -15.0299997      -1.12263985E-17
  -15.0200005      -1.72771097E-17
  -15.0100002      -1.84029339E-17
  -15.0000000      -9.88428720E-18
  -14.9899998       1.12754288E-17
  -14.9799995       4.33100453E-17
  -14.9700003       7.70123282E-17
  -14.9600000       9.51709213E-17
  -14.9499998       7.59745739E-17
  -14.9399996       1.39250252E-18
  -14.9300003      -1.30431440E-16
  -14.9200001      -2.92539743E-16
  -14.9099998      -4.22757109E-16
  -14.8999996      -4.31129394E-16
  -14.8900003      -2.26745055E-16
  -14.8800001       2.36787187E-16
  -14.8699999       9.07865901E-16
  -14.8599997       1.59698639E-15
  -14.8500004       1.97894954E-15
  -14.8400002       1.66297915E-15
  -14.8299999       3.39425848E-16
  -14.8199997      -2.02000163E-15
  -14.8100004      -4.97126940E-15
  -14.8000002      -7.51249953E-15
  -14.7900000      -8.20759002E-15
  -14.7799997      -5.58588752E-15
  -14.7700005       1.20420747E-15
  -14.7600002       1.16393017E-14
  -14.7500000       2.32471716E-14
  -14.7399998       3.15771138E-14
  -14.7299995       3.10338913E-14
  -14.7200003       1.66861781E-14
  -14.7100000      -1.32092408E-14
  -14.6999998      -5.46787991E-14
  -14.6899996      -9.65902773E-14
  -14.6800003      -1.21494855E-13
  -14.6700001      -1.09596068E-13
  -14.6599998      -4.57955410E-14
  -14.6499996       7.15555341E-14
  -14.6400003       2.22973034E-13
  -14.6300001       3.64935594E-13
  -14.6199999       4.35328829E-13
  -14.6099997       3.69133028E-13
  -14.6000004       1.23006301E-13
  -14.5900002      -2.96809235E-13
  -14.5799999      -8.12784247E-13
  -14.5699997      -1.27210026E-12
  -14.5600004      -1.47016969E-12
  -14.5500002      -1.20519816E-12
  -14.5400000      -3.56834218E-13
  -14.5299997       1.03044656E-12
  -14.5200005       2.68892157E-12
  -14.5100002       4.12731481E-12
  -14.5000000       4.71407071E-12
  -14.4899998       3.84916795E-12
  -14.4799995       1.19849020E-12
  -14.4700003      -3.06925167E-12
  -14.4600000      -8.12873640E-12
  -14.4499998      -1.25177013E-11
  -14.4399996      -1.43938238E-11
  -14.4300003      -1.20324471E-11
  -14.4200001      -4.48386901E-12
  -14.4099998       7.77965886E-12
  -14.3999996       2.24591127E-11
  -14.3900003       3.55013553E-11
  -14.3800001       4.18067386E-11
  -14.3699999       3.65673707E-11
  -14.3599997       1.70127332E-11
  -14.3500004      -1.58822937E-11
  -14.3400002      -5.63197995E-11
  -14.3299999      -9.38231159E-11
  -14.3199997      -1.14992162E-10
  -14.3100004      -1.06856156E-10
  -14.3000002      -6.12737985E-11
  -14.2900000       2.07035899E-11
  -14.2799997       1.25945088E-10
  -14.2700005       2.29267702E-10
  -14.2600002       2.97345981E-10
  -14.2500000       2.96533492E-10
  -14.2399998       2.03379993E-10
  -14.2299995       1.53775985E-11
  -14.2200003      -2.41382553E-10
  -14.2100000      -5.11026055E-10
  -14.1999998      -7.15577708E-10
  -14.1899996      -7.71870567E-10
  -14.1800003      -6.15285822E-10
  -14.1700001      -2.25099828E-10
  -14.1599998       3.55817320E-10
  -14.1499996       1.01460396E-09
  -14.1400003       1.58112490E-09
  -14.1300001       1.86150328E-09
  -14.1199999       1.68838299E-09
  -14.1099997       9.77694814E-10
  -14.1000004      -2.23046956E-10
  -14.0900002      -1.71145864E-09
  -14.0799999      -3.14562887E-09
  -14.0699997      -4.10398782E-09
  -14.0600004      -4.18417301E-09
  -14.0500002      -3.12258908E-09
  -14.0400000      -9.05711561E-10
  -14.0299997       2.16076335E-09
  -14.0200005       5.45521361E-09
  -14.0100002       8.13293344E-09
  -14.0000000       9.30439725E-09
  -13.9899998       8.26968272E-09
  -13.9799995       4.75710094E-09
  -13.9700003      -8.99278874E-10
  -13.9600000      -7.70655095E-09
  -13.9499998      -1.41275684E-08
  -13.9399996      -1.83697839E-08
  -13.9300003      -1.88084233E-08
  -13.9200001      -1.44584806E-08
  -13.9099998      -5.37829603E-09
  -13.8999996       7.11884862E-09
  -13.8900003       2.05424904E-08
  -13.8800001       3.16314299E-08
  -13.8699999       3.70477586E-08
  -13.8599997       3.42318884E-08
  -13.8500004       2.22241106E-08
  -13.8400002       2.22915753E-09
  -13.8299999      -2.22742251E-08
  -13.8199997      -4.59936373E-08
  -13.8100004      -6.28390993E-08
  -13.8000002      -6.73317331E-08
  -13.7900000      -5.61096059E-08
  -13.7799997      -2.91572491E-08
  -13.7700005       9.60711599E-09
  -13.7600002       5.26485096E-08
  -13.7500000       9.01068589E-08
  -13.7399998       1.11892980E-07
  -13.7299995       1.10182370E-07
  -13.7200003       8.17320114E-08
  -13.7100000       2.94004732E-08
  -13.6999998      -3.76397082E-08
  -13.6899996      -1.05249740E-07
  -13.6800003      -1.57121988E-07
  -13.6700001      -1.78528140E-07
  -13.6599998      -1.60202447E-07
  -13.6499996      -1.01393347E-07
  -13.6400003      -1.11925642E-08
  -13.6300001       9.24310442E-08
  -13.6199999       1.85957347E-07
  -13.6099997       2.45469238E-07
  -13.6000004       2.52565883E-07
  -13.5900002       1.99630520E-07
  -13.5799999       9.30324973E-08
  -13.5699997      -4.68102641E-08
  -13.5600004      -1.88912892E-07
  -13.5500002      -2.98296470E-07
  -13.5400000      -3.44351122E-07
  -13.5299997      -3.09069350E-07
  -13.5200005      -1.93030928E-07
  -13.5100002      -1.73434156E-08
  -13.5000000       1.79432718E-07
  -13.4899998       3.49171700E-07
  -13.4799995       4.45418209E-07
  -13.4700003       4.35476522E-07
  -13.4600000       3.10349634E-07
  -13.4499998       8.97314365E-08
  -13.4399996      -1.79792423E-07
  -13.4300003      -4.33644487E-07
  -13.4200001      -6.03778517E-07
  -13.4099998      -6.35738502E-07
  -13.3999996      -5.04174807E-07
  -13.3900003      -2.22680711E-07
  -13.3800001       1.55185276E-07
  -13.3699999       5.44919430E-07
  -13.3599997       8.48934519E-07
  -13.3500004       9.79685865E-07
  -13.3400002       8.82774827E-07
  -13.3299999       5.54199858E-07
  -13.3199997       4.68120369E-08
  -13.3100004      -5.36738753E-07
  -13.3000002      -1.06414382E-06
  -13.2900000      -1.40290842E-06
  -13.2799997      -1.45270144E-06
  -13.2700005      -1.17280513E-06
  -13.2600002      -5.97404323E-07
  -13.2500000       1.66148666E-07
  -13.2399998       9.57131419E-07
  -13.2299995       1.59591912E-06
  -13.2200003       1.92578250E-06
  -13.2100000       1.85224462E-06
  -13.1999998       1.37004747E-06
  -13.1899996       5.70102941E-07
  -13.1800003      -3.76776001E-07
  -13.1700001      -1.25696806E-06
  -13.1599998      -1.86414684E-06
  -13.1499996      -2.05070069E-06
  -13.1400003      -1.76756646E-06
  -13.1300001      -1.08154518E-06
  -13.1199999      -1.64085876E-07
  -13.1099997       7.47644719E-07
  -13.1000004       1.40940722E-06
  -13.0900002       1.63453717E-06
  -13.0799999       1.34821437E-06
  -13.0699997       6.16283785E-07
  -13.0600004      -3.61144743E-07
  -13.0500002      -1.29282466E-06
  -13.0400000      -1.86833699E-06
  -13.0299997      -1.84277349E-06
  -13.0200005      -1.11317217E-06
  -13.0100002       2.34223990E-07
  -13.0000000       1.92141465E-06
  -12.9899998       3.52646430E-06
  -12.9799995       4.57511624E-06
  -12.9700003       4.65778567E-06
  -12.9600000       3.54518170E-06
  -12.9499998       1.27329974E-06
  -12.9399996      -1.82695146E-06
  -12.9300003      -5.16911768E-06
  -12.9200001      -8.01770238E-06
  -12.9099998      -9.64336141E-06
  -12.8999996      -9.49471178E-06
  -12.8900003      -7.34754121E-06
  -12.8800001      -3.39382541E-06
  -12.8699999       1.75622517E-06
  -12.8599997       7.16773366E-06
  -12.8500004       1.17572554E-05
  -12.8400002       1.45178883E-05
  -12.8299999       1.47457067E-05
  -12.8199997       1.22158162E-05
  -12.8100004       7.26412691E-06
  -12.8000002       7.49593312E-07
  -12.7900000      -6.10237794E-06
  -12.7799997      -1.19471761E-05
  -12.7700005      -1.56079259E-05
  -12.7600002      -1.63388686E-05
  -12.7500000      -1.40036454E-05
  -12.7399998      -9.12318137E-06
  -12.7299995      -2.77574236E-06
  -12.7200003       3.63477307E-06
  -12.7100000       8.69448286E-06
  -12.6999998       1.13090700E-05
  -12.6899996       1.09702078E-05
  -12.6800003       7.89271508E-06
  -12.6700001       2.98342343E-06
  -12.6599998      -2.35928815E-06
  -12.6499996      -6.57601277E-06
  -12.6400003      -8.33426020E-06
  -12.6300001      -6.88324735E-06
  -12.6199999      -2.28748968E-06
  -12.6099997       4.52514359E-06
  -12.6000004       1.19248662E-05
  -12.5900002       1.79263116E-05
  -12.5799999       2.06494879E-05
  -12.5699997       1.87932892E-05
  -12.5600004       1.20098694E-05
  -12.5500002       1.08424013E-06
  -12.5400000      -1.21370058E-05
  -12.5299997      -2.50690046E-05
  -12.5200005      -3.49067050E-05
  -12.5100002      -3.92320908E-05
  -12.5000000      -3.65783162E-05
  -12.4899998      -2.68210442E-05
  -12.4799995      -1.12997295E-05
  -12.4700003       7.37202345E-06
  -12.4600000       2.57798874E-05
  -12.4499998       4.03740123E-05
  -12.4399996       4.81877141E-05
  -12.4300003       4.74549561E-05
  -12.4200001       3.79900521E-05
  -12.4099998       2.12428986E-05
  -12.3999996       1.36497755E-08
  -12.3900003      -2.21132450E-05
  -12.3800001      -4.14923852E-05
  -12.3699999      -5.51387420E-05
  -12.3599997      -6.12879157E-05
  -12.3500004      -5.96734753E-05
  -12.3400002      -5.14654748E-05
  -12.3299999      -3.88936278E-05
  -12.3199997      -2.46525124E-05
  -12.3100004      -1.12372827E-05
  -12.3000002      -3.73319210E-07
  -12.2900000       7.32118588E-06
  -12.2799997       1.23597429E-05
  -12.2700005       1.60983363E-05
  -12.2600002       2.02118135E-05
  -12.2500000       2.60765701E-05
  -12.2399998       3.42270214E-05
  -12.2299995       4.40382792E-05
  -12.2200003       5.37332344E-05
  -12.2100000       6.07313777E-05
  -12.1999998       6.22687876E-05
  -12.1899996       5.61451525E-05
  -12.1800003       4.14136703E-05
  -12.1700001       1.88333961E-05
  -12.1599998      -9.04750050E-06
  -12.1499996      -3.82261023E-05
  -12.1400003      -6.39472710E-05
  -12.1300001      -8.16343745E-05
  -12.1199999      -8.78479550E-05
  -12.1099997      -8.10566271E-05
  -12.1000004      -6.20392384E-05
  -12.0900002      -3.38147729E-05
  -12.0799999      -1.10029316E-06
  -12.0699997       3.05967405E-05
  -12.0600004       5.60616754E-05
  -12.0500002       7.13988047E-05
  -12.0400000       7.47778249E-05
  -12.0299997       6.67380373E-05
  -12.0200005       4.99853049E-05
  -12.0100002       2.87291659E-05
  -12.0000000       7.71036594E-06
  -11.9899998      -8.86211001E-06
  -11.9799995      -1.82254407E-05
  -11.9700003      -1.96238507E-05
  -11.9600000      -1.43916204E-05
  -11.9499998      -5.54264307E-06
  -11.9399996       3.03642423E-06
  -11.9300003       7.60118064E-06
  -11.9200001       5.53566451E-06
  -11.9099998      -3.92261745E-06
  -11.8999996      -1.93937922E-05
  -11.8900003      -3.75801246E-05
  -11.8800001      -5.39649154E-05
  -11.8699999      -6.38377751E-05
  -11.8599997      -6.34207172E-05
  -11.8500004      -5.08415033E-05
  -11.8400002      -2.67283613E-05
  -11.8299999       5.72140971E-06
  -11.8199997       4.12341105E-05
  -11.8100004       7.34270216E-05
  -11.8000002       9.60588950E-05
  -11.7900000       1.04306782E-04
  -11.7799997       9.58016826E-05
  -11.7700005       7.12015535E-05
  -11.7600002       3.41742161E-05
  -11.7500000      -9.21670198E-06
  -11.7399998      -5.16059663E-05
  -11.7299995      -8.56862171E-05
  -11.7200003      -1.05563697E-04
  -11.7100000      -1.07843756E-04
  -11.6999998      -9.22365143E-05
  -11.6899996      -6.15721292E-05
  -11.6800003      -2.12344003E-05
  -11.6700001       2.18637797E-05
  -11.6599998       6.05536479E-05
  -11.6499996       8.86820271E-05
  -11.6400003       1.02141603E-04
  -11.6300001       9.94790826E-05
  -11.6199999       8.19912311E-05
  -11.6099997       5.33230523E-05
  -11.6000004       1.86760699E-05
  -11.5900002      -1.61985736E-05
  -11.5799999      -4.60207193E-05
  -11.5699997      -6.68285356E-05
  -11.5600004      -7.65150762E-05
  -11.5500002      -7.49878236E-05
  -11.5400000      -6.39614009E-05
  -11.5299997      -4.64597615E-05
  -11.5200005      -2.61479017E-05
  -11.5100002      -6.62942603E-06
  -11.5000000       9.16492263E-06
  -11.4899998       1.94045424E-05
  -11.4799995       2.35523839E-05
  -11.4700003       2.23200477E-05
  -11.4600000       1.74185916E-05
  -11.4499998       1.11655927E-05
  -11.4399996       6.02175851E-06
  -11.4300003       4.13095177E-06
  -11.4200001       6.92858657E-06
  -11.4099998       1.48689633E-05
  -11.3999996       2.73051155E-05
  -11.3900003       4.25366379E-05
  -11.3800001       5.80227716E-05
  -11.3699999       7.07395229E-05
  -11.3599997       7.76410525E-05
  -11.3500004       7.61684787E-05
  -11.3400002       6.47354245E-05
  -11.3299999       4.31132503E-05
  -11.3199997       1.26425830E-05
  -11.3100004      -2.37854601E-05
  -11.3000002      -6.20052742E-05
  -11.2900000      -9.70964829E-05
  -11.2799997      -1.24088736E-04
  -11.2700005      -1.38751435E-04
  -11.2600002      -1.38338917E-04
  -11.2500000      -1.22153317E-04
  -11.2399998      -9.18047372E-05
  -11.2299995      -5.10915743E-05
  -11.2200003      -5.48871049E-06
  -11.2100000       3.86946012E-05
  -11.1999998       7.53549321E-05
  -11.1899996       9.96500312E-05
  -11.1800003       1.08868175E-04
  -11.1700001       1.02932216E-04
  -11.1599998       8.44198948E-05
  -11.1499996       5.80726119E-05
  -11.1400003       2.98682044E-05
  -11.1300001       5.82765642E-06
  -11.1199999      -9.21012270E-06
  -11.1099997      -1.25935512E-05
  -11.1000004      -4.42753799E-06
  -11.0900002       1.24254702E-05
  -11.0799999       3.29279101E-05
  -11.0699997       5.09240745E-05
  -11.0600004       6.04580091E-05
  -11.0500002       5.70781740E-05
  -11.0400000       3.88525441E-05
  -11.0299997       6.87658348E-06
  -11.0200005      -3.48367612E-05
  -11.0100002      -8.00643465E-05
  -11.0000000      -1.21530094E-04
  -10.9899998      -1.52271416E-04
  -10.9799995      -1.66933969E-04
  -10.9700003      -1.62736062E-04
  -10.9600000      -1.39920056E-04
  -10.9499998      -1.01621001E-04
  -10.9399996      -5.32049926E-05
  -10.9300003      -1.23373570E-06
  -10.9200001       4.77225876E-05
  -10.9099998       8.81876331E-05
  -10.8999996       1.16594820E-04
  -10.8900003       1.31687455E-04
  -10.8800001       1.34464790E-04
  -10.8699999       1.27724503E-04
  -10.8599997       1.15320930E-04
  -10.8500004       1.01298021E-04
  -10.8400002       8.90614901E-05
  -10.8299999       8.07321412E-05
  -10.8199997       7.67804013E-05
  -10.8100004       7.59897157E-05
  -10.8000002       7.57435409E-05
  -10.7900000       7.25830687E-05
  -10.7799997       6.29438146E-05
  -10.7700005       4.39521500E-05
  -10.7600002       1.41489336E-05
  -10.7500000      -2.59902536E-05
  -10.7399998      -7.38472518E-05
  -10.7299995      -1.24833474E-04
  -10.7200003      -1.72950313E-04
  -10.7100000      -2.11675433E-04
  -10.6999998      -2.35042724E-04
  -10.6899996      -2.38729830E-04
  -10.6800003      -2.20943650E-04
  -10.6700001      -1.82912510E-04
  -10.6599998      -1.28854561E-04
  -10.6499996      -6.53893003E-05
  -10.6400003      -4.73229392E-07
  -10.6300001       5.79527950E-05
  -10.6199999       1.03342973E-04
  -10.6099997       1.31670458E-04
  -10.6000004       1.42055607E-04
  -10.5900002       1.36756193E-04
  -10.5799999       1.20513614E-04
  -10.5699997       9.93922295E-05
  -10.5600004       7.93656145E-05
  -10.5500002       6.49673311E-05
  -10.5400000       5.83139590E-05
  -10.5299997       5.87272589E-05
  -10.5200005       6.30452123E-05
  -10.5100002       6.65500920E-05
  -10.5000000       6.42925879E-05
  -10.4899998       5.24911447E-05
  -10.4799995       2.96603048E-05
  -10.4700003      -2.81992038E-06
  -10.4600000      -4.08515261E-05
  -10.4499998      -7.84674266E-05
  -10.4399996      -1.09191256E-04
  -10.4300003      -1.27583378E-04
  -10.4200001      -1.30590386E-04
  -10.4099998      -1.18351280E-04
  -10.3999996      -9.42379775E-05
  -10.3900003      -6.40938233E-05
  -10.3800001      -3.48359208E-05
  -10.3699999      -1.27555431E-05
  -10.3599997      -1.93969572E-06
  -10.3500004      -3.22064625E-06
  -10.3400002      -1.39376762E-05
  -10.3299999      -2.85946571E-05
  -10.3199997      -4.02672558E-05
  -10.3100004      -4.24142745E-05
  -10.3000002      -3.06322545E-05
  -10.2900000      -3.89518982E-06
  -10.2799997       3.50552691E-05
  -10.2700005       8.02880822E-05
  -10.2600002       1.24096347E-04
  -10.2500000       1.58890049E-04
  -10.2399998       1.79079740E-04
  -10.2299995       1.82457996E-04
  -10.2200003       1.70711530E-04
  -10.2100000       1.48922089E-04
  -10.1999998       1.24178972E-04
  -10.1899996       1.03659680E-04
  -10.1800003       9.26754874E-05
  -10.1700001       9.31882969E-05
  -10.1599998       1.03182734E-04
  -10.1499996       1.17056123E-04
  -10.1400003       1.26929997E-04
  -10.1300001       1.24556900E-04
  -10.1199999       1.03355735E-04
  -10.1099997       6.00903477E-05
  -10.1000004      -4.19193066E-06
  -10.0900002      -8.41536166E-05
  -10.0799999      -1.71057443E-04
  -10.0699997      -2.54316925E-04
  -10.0600004      -3.23340762E-04
  -10.0500002      -3.69273126E-04
  -10.0400000      -3.86297092E-04
  -10.0299997      -3.72301642E-04
  -10.0200005      -3.28874594E-04
  -10.0100002      -2.60728149E-04
  -10.0000000      -1.74759407E-04
  -9.98999977      -7.89780897E-05
  -9.97999954       1.84958808E-05
  -9.97000027       1.10234403E-04
  -9.96000004       1.90054488E-04
  -9.94999981       2.53344333E-04
  -9.93999958       2.97220948E-04
  -9.93000031       3.20579566E-04
  -9.92000008       3.24069057E-04
  -9.90999985       3.09988303E-04
  -9.89999962       2.82069552E-04
  -9.89000034       2.45105912E-04
  -9.88000011       2.04402953E-04
  -9.86999989       1.65079196E-04
  -9.85999966       1.31299385E-04
  -9.85000038       1.05573708E-04
  -9.84000015       8.82801105E-05
  -9.82999992       7.75511289E-05
  -9.81999969       6.96075804E-05
  -9.81000042       5.95298370E-05
  -9.80000019       4.23511992E-05
  -9.78999996       1.42656991E-05
  -9.77999973      -2.63107013E-05
  -9.77000046      -7.80804912E-05
  -9.76000023      -1.36791452E-04
  -9.75000000      -1.95811954E-04
  -9.73999977      -2.47268530E-04
  -9.72999954      -2.83521484E-04
  -9.72000027      -2.98665313E-04
  -9.71000004      -2.89723452E-04
  -9.69999981      -2.57273758E-04
  -9.68999958      -2.05373130E-04
  -9.68000031      -1.40814969E-04
  -9.67000008      -7.19075615E-05
  -9.65999985      -7.06391074E-06
  -9.64999962       4.64841651E-05
  -9.64000034       8.35936444E-05
  -9.63000011       1.01607271E-04
  -9.61999989       1.00250836E-04
  -9.60999966       8.11656209E-05
  -9.60000038       4.72783722E-05
  -9.59000015       2.20849938E-06
  -9.57999992      -5.01520481E-05
  -9.56999969      -1.05848172E-04
  -9.56000042      -1.60914526E-04
  -9.55000019      -2.11381019E-04
  -9.53999996      -2.53341248E-04
  -9.52999973      -2.83146859E-04
  -9.52000046      -2.97719002E-04
  -9.51000023      -2.94903963E-04
  -9.50000000      -2.73769314E-04
  -9.48999977      -2.34753810E-04
  -9.47999954      -1.79635375E-04
  -9.47000027      -1.11346722E-04
  -9.46000004      -3.37140373E-05
  -9.44999981       4.87990219E-05
  -9.43999958       1.31295819E-04
  -9.43000031       2.08615544E-04
  -9.42000008       2.75537779E-04
  -9.40999985       3.27112881E-04
  -9.39999962       3.59171274E-04
  -9.39000034       3.68980225E-04
  -9.38000011       3.55912547E-04
  -9.36999989       3.21917236E-04
  -9.35999966       2.71573837E-04
  -9.35000038       2.11591381E-04
  -9.34000015       1.49765314E-04
  -9.32999992       9.35843564E-05
  -9.31999969       4.88215082E-05
  -9.31000042       1.84907894E-05
  -9.30000019       2.47498292E-06
  -9.28999996      -2.05632955E-06
  -9.27999973       4.40663598E-07
  -9.27000046       5.30676152E-06
  -9.26000023       8.99403494E-06
  -9.25000000       9.86592386E-06
  -9.23999977       8.25608822E-06
  -9.22999954       5.81941094E-06
  -9.22000027       4.45927253E-06
  -9.21000004       5.26413532E-06
  -9.19999981       7.87647150E-06
  -9.18999958       1.05473819E-05
  -9.18000031       1.08610411E-05
  -9.17000008       6.84367751E-06
  -9.15999985      -1.99439842E-06
  -9.14999962      -1.41308019E-05
  -9.14000034      -2.62837693E-05
  -9.13000011      -3.44177679E-05
  -9.11999989      -3.51749441E-05
  -9.10999966      -2.72161651E-05
  -9.10000038      -1.19534834E-05
  -9.09000015       6.64786057E-06
  -9.07999992       2.31923805E-05
  -9.06999969       3.25553628E-05
  -9.06000042       3.15883044E-05
  -9.05000019       2.02319770E-05
  -9.03999996       1.63575169E-06
  -9.02999973      -1.87711175E-05
  -9.02000046      -3.49384027E-05
  -9.01000023      -4.20079086E-05
  -9.00000000      -3.76588505E-05
  -8.98999977      -2.25495733E-05
  -8.97999954       2.32559657E-07
  -8.97000027       2.64250593E-05
  -8.96000004       5.20023896E-05
  -8.94999981       7.41653639E-05
  -8.93999958       9.15310666E-05
  -8.93000031       1.03511207E-04
  -8.92000008       1.09245484E-04
  -8.90999985       1.06690168E-04
  -8.89999962       9.24430133E-05
  -8.89000034       6.26040783E-05
  -8.88000011       1.45238564E-05
  -8.86999989      -5.11506259E-05
  -8.85999966      -1.28972708E-04
  -8.85000038      -2.08514321E-04
  -8.84000015      -2.75899831E-04
  -8.82999992      -3.16858379E-04
  -8.81999969      -3.20506864E-04
  -8.81000042      -2.82708264E-04
  -8.80000019      -2.07861638E-04
  -8.78999996      -1.08400942E-04
  -8.77999973      -1.98479506E-06
  -8.77000046       9.28805748E-05
  -8.76000023       1.61495656E-04
  -8.75000000       1.96476074E-04
  -8.73999977       1.99036396E-04
  -8.72999954       1.77686597E-04
  -8.72000027       1.44829275E-04
  -8.71000004       1.12435220E-04
  -8.69999981       8.82632085E-05
  -8.68999958       7.38712406E-05
  -8.68000031       6.50172078E-05
  -8.67000008       5.41956178E-05
  -8.65999985       3.43061693E-05
  -8.64999962       2.06654113E-06
  -8.64000034      -4.00993013E-05
  -8.63000011      -8.43902380E-05
  -8.61999989      -1.20047145E-04
  -8.60999966      -1.36969436E-04
  -8.60000038      -1.29205393E-04
  -8.59000015      -9.70503170E-05
  -8.57999992      -4.70073646E-05
  -8.56999969       1.03449183E-05
  -8.56000042       6.37713238E-05
  -8.55000019       1.04823856E-04
  -8.53999996       1.30069078E-04
  -8.52999973       1.41340337E-04
  -8.52000046       1.44016070E-04
  -8.51000023       1.44074758E-04
  -8.50000000       1.45132391E-04
  -8.48999977       1.46658233E-04
  -8.47999954       1.44094593E-04
  -8.47000027       1.30855085E-04
  -8.46000004       1.01430480E-04
  -8.44999981       5.43775859E-05
  -8.43999958      -6.02057480E-06
  -8.43000031      -7.01563840E-05
  -8.42000008      -1.25526436E-04
  -8.40999985      -1.60386437E-04
  -8.39999962      -1.67353966E-04
  -8.39000034      -1.45676342E-04
  -8.38000011      -1.01353457E-04
  -8.36999989      -4.50807674E-05
  -8.35999966       1.12356056E-05
  -8.35000038       5.81327477E-05
  -8.34000015       9.11200405E-05
  -8.32999992       1.11234520E-04
  -8.31999969       1.23529971E-04
  -8.31000042       1.34186048E-04
  -8.30000019       1.47429266E-04
  -8.28999996       1.63500226E-04
  -8.27999973       1.78465256E-04
  -8.27000046       1.85926518E-04
  -8.26000023       1.79920098E-04
  -8.25000000       1.57803763E-04
  -8.23999977       1.21917481E-04
  -8.22999954       7.92620340E-05
  -8.22000027       3.92138609E-05
  -8.21000004       1.00800389E-05
  -8.19999981      -4.20411698E-06
  -8.18999958      -5.92410333E-06
  -8.18000031      -3.16629075E-06
  -8.17000008      -7.13771442E-06
  -8.15999985      -2.80848963E-05
  -8.14999962      -7.12302281E-05
  -8.14000034      -1.34197995E-04
  -8.13000011      -2.06920115E-04
  -8.11999989      -2.74160644E-04
  -8.10999966      -3.19883315E-04
  -8.10000038      -3.32035648E-04
  -8.09000015      -3.06170870E-04
  -8.07999992      -2.46726384E-04
  -8.06999969      -1.65581048E-04
  -8.06000042      -7.84336153E-05
  -8.05000019      -2.53339806E-07
  -8.03999996       5.86881688E-05
  -8.02999973       9.49700698E-05
  -8.02000046       1.11812347E-04
  -8.01000023       1.16794232E-04
  -8.00000000       1.18478740E-04
  -7.98999977       1.23218997E-04
  -7.98000002       1.33243622E-04
  -7.96999979       1.46558814E-04
  -7.96000004       1.58490700E-04
  -7.94999981       1.64096622E-04
  -7.94000006       1.60412761E-04
  -7.92999983       1.47655854E-04
  -7.92000008       1.28975546E-04
  -7.90999985       1.08959015E-04
  -7.90000010       9.15787168E-05
  -7.88999987       7.84628064E-05
  -7.88000011       6.81975725E-05
  -7.86999989       5.69265358E-05
  -7.86000013       3.99792443E-05
  -7.84999990       1.38610058E-05
  -7.84000015      -2.21843620E-05
  -7.82999992      -6.56272678E-05
  -7.82000017      -1.11282556E-04
  -7.80999994      -1.52808556E-04
  -7.80000019      -1.84443983E-04
  -7.78999996      -2.02303374E-04
  -7.78000021      -2.04787386E-04
  -7.76999998      -1.92074149E-04
  -7.76000023      -1.65065416E-04
  -7.75000000      -1.24391619E-04
  -7.73999977      -7.00339369E-05
  -7.73000002      -1.82004464E-06
  -7.71999979       7.93783256E-05
  -7.71000004       1.70288273E-04
  -7.69999981       2.64408241E-04
  -7.69000006       3.52252362E-04
  -7.67999983       4.22812242E-04
  -7.67000008       4.65893303E-04
  -7.65999985       4.74596862E-04
  -7.65000010       4.47100902E-04
  -7.63999987       3.87100474E-04
  -7.63000011       3.02734436E-04
  -7.61999989       2.04369877E-04
  -7.61000013       1.02028651E-04
  -7.59999990       3.35939990E-06
  -7.59000015      -8.71714001E-05
  -7.57999992      -1.67687758E-04
  -7.57000017      -2.37293192E-04
  -7.55999994      -2.94234254E-04
  -7.55000019      -3.34726356E-04
  -7.53999996      -3.53062554E-04
  -7.53000021      -3.43099236E-04
  -7.51999998      -3.00628191E-04
  -7.51000023      -2.25734329E-04
  -7.50000000      -1.24170430E-04
  -7.48999977      -7.09167261E-06
  -7.48000002       1.10927111E-04
  -7.46999979       2.15038846E-04
  -7.46000004       2.93444085E-04
  -7.44999981       3.39813676E-04
  -7.44000006       3.54059419E-04