  -16.0000000       0.00000000    
  -15.9899998       0.00000000    
  -15.9799995       0.00000000    
  -15.9700003       0.00000000    
  -15.9600000       0.00000000    
  -15.9499998       0.00000000    
  -15.9399996       0.00000000    
  -15.9300003       0.00000000    
  -15.9200001       0.00000000    
  -15.9099998       0.00000000    
  -15.8999996       0.00000000    
  -15.8900003      -9.88896326E-42
  -15.8800001      -7.77836955E-40
  -15.8699999      -1.87766133E-38
  -15.8599997      -2.63578591E-37
  -15.8500004      -2.55971751E-36
  -15.8400002      -1.86265159E-35
  -15.8299999      -1.06290828E-34
  -15.8199997      -4.88589635E-34
  -15.8100004      -1.83126830E-33
  -15.8000002      -5.56575379E-33
  -15.7900000      -1.31754755E-32
  -15.7799997      -2.06225320E-32
  -15.7700005       9.17312537E-34
  -15.7600002       1.51109094E-31
  -15.7500000       6.78340127E-31
  -15.7399998       2.05134259E-30
  -15.7299995       4.88604816E-30
  -15.7200003       9.44981677E-30
  -15.7100000       1.44110672E-29
  -15.6999998       1.47992143E-29
  -15.6899996       8.10925769E-32
  -15.6800003      -4.52195983E-29
  -15.6700001      -1.34848812E-28
  -15.6599998      -2.66185017E-28
  -15.6499996      -4.02484018E-28
  -15.6400003      -4.68263481E-28
  -15.6300001      -3.82103201E-28
  -15.6199999      -1.38198823E-28
  -15.6099997       1.04980467E-28
  -15.6000004       6.05363055E-29
  -15.5900002      -3.27219855E-28
  -15.5799999      -8.67934593E-29
  -15.5699997       3.72769827E-27
  -15.5600004       1.61152774E-26
  -15.5500002       4.15859890E-26
  -15.5400000       7.73760567E-26
  -15.5299997       1.02970994E-25
  -15.5200005       7.13573931E-26
  -15.5100002      -8.62893899E-26
  -15.5000000      -4.27535789E-25
  -15.4899998      -9.29316702E-25
  -15.4799995      -1.39787089E-24
  -15.4700003      -1.41167892E-24
  -15.4600000      -3.85779533E-25
  -15.4499998       2.15813510E-24
  -15.4399996       6.11302476E-24
  -15.4300003       1.02660938E-23
  -15.4200001       1.21032302E-23
  -15.4099998       8.38878158E-24
  -15.3999996      -3.25072480E-24
  -15.3900003      -2.21410095E-23
  -15.3800001      -4.30413522E-23
  -15.3699999      -5.70859636E-23
  -15.3599997      -5.62964337E-23
  -15.3500004      -4.02615926E-23
  -15.3400002      -1.97258850E-23
  -15.3299999      -9.03757076E-24
  -15.3199997      -1.87621573E-24
  -15.3100004       6.35783583E-23
  -15.3000002       3.23060351E-22
  -15.2900000       9.40568980E-22
  -15.2799997       1.95076896E-21
  -15.2700005       2.98770872E-21
  -15.2600002       3.00589963E-21
  -15.2500000       2.48185107E-22
  -15.2399998      -7.17627245E-21
  -15.2299995      -1.98096961E-20
  -15.2200003      -3.45605657E-20
  -15.2100000      -4.24906428E-20
  -15.1999998      -2.85127897E-20
  -15.1899996       2.45400997E-20
  -15.1800003       1.25564427E-19
  -15.1700001       2.59180837E-19
  -15.1599998       3.69434139E-19
  -15.1499996       3.54340290E-19
  -15.1400003       8.62799721E-20
  -15.1300001      -5.29320112E-19
  -15.1199999      -1.45792341E-18
  -15.1099997      -2.42872780E-18
  -15.1000004      -2.87467638E-18
  -15.0900002      -2.00191750E-18
  -15.0799999       9.35118997E-19
  -15.0699997       6.13556256E-18
  -15.0600004       1.26338008E-17
  -15.0500002       1.78252343E-17
  -15.0400000       1.75400175E-17
  -15.0299997       7.08679711E-18
  -15.0200005      -1.65237401E-17
  -15.0100002      -5.14686964E-17
  -15.0000000      -8.81444852E-17
  -14.9899998      -1.08100482E-16
  -14.9799995      -8.69546289E-17
  -14.9700003      -2.79209687E-18
  -14.9600000       1.50277409E-16
  -14.9499998       3.46724361E-16
  -14.9399996       5.19096307E-16
  -14.9300003       5.61452136E-16
  -14.9200001       3.55019990E-16
  -14.9099998      -1.81194787E-16
  -14.8999996      -1.02290579E-15
  -14.8900003      -1.97822830E-15
  -14.8800001      -2.66499668E-15
  -14.8699999      -2.56560838E-15
  -14.8599997      -1.18431109E-15
  -14.8500004       1.70162778E-15
  -14.8400002       5.75611023E-15
  -14.8299999       9.87711991E-15
  -14.8199997       1.22155500E-14
  -14.8100004       1.05523127E-14
  -14.8000002       3.08034522E-15
  -14.7900000      -1.05204779E-14
  -14.7799997      -2.80283710E-14
  -14.7700005      -4.41326595E-14
  -14.7600002      -5.09379899E-14
  -14.7500000      -3.99054060E-14
  -14.7399998      -5.19767369E-15
  -14.7299995       5.22400591E-14
  -14.7200003       1.21225079E-13
  -14.7100000       1.79342272E-13
  -14.6999998       1.96178265E-13
  -14.6899996       1.41692132E-13
  -14.6800003      -1.06916638E-15
  -14.6700001      -2.21944913E-13
  -14.6599998      -4.73471739E-13
  -14.6499996      -6.70708497E-13
  -14.6400003      -7.06234875E-13
  -14.6300001      -4.81836955E-13
  -14.6199999       4.76444445E-14
  -14.6099997       8.29940066E-13
  -14.6000004       1.68788367E-12
  -14.5900002       2.32781589E-12
  -14.5799999       2.39751882E-12
  -14.5699997       1.59419678E-12
  -14.5600004      -1.96285777E-13
  -14.5500002      -2.76832637E-12
  -14.5400000      -5.52753720E-12
  -14.5299997      -7.53762244E-12
  -14.5200005      -7.71646809E-12
  -14.5100002      -5.17265614E-12
  -14.5000000       3.82856995E-13
  -14.4899998       8.27066800E-12
  -14.4799995       1.66764293E-11
  -14.4700003       2.28274986E-11
  -14.4600000       2.35887542E-11
  -14.4499998       1.64314395E-11
  -14.4399996       5.75672810E-13
  -14.4300003      -2.20328859E-11
  -14.4200001      -4.63233132E-11
  -14.4099998      -6.46391690E-11
  -14.3999996      -6.83846799E-11
  -14.3900003      -5.06180792E-11
  -14.3800001      -9.04401901E-12
  -14.3699999       5.14792271E-11
  -14.3599997       1.17950177E-10
  -14.3500004       1.70627970E-10
  -14.3400002       1.87194288E-10
  -14.3299999       1.49229407E-10
  -14.3199997       4.96293388E-11
  -14.3100004      -1.01181660E-10
  -14.3000002      -2.72693645E-10
  -14.2900000      -4.17445550E-10
  -14.2799997      -4.80668949E-10
  -14.2700005      -4.15387863E-10
  -14.2600002      -1.99820799E-10
  -14.2500000       1.47778484E-10
  -14.2399998       5.62353331E-10
  -14.2299995       9.37922406E-10
  -14.2200003       1.14800225E-09
  -14.2100000       1.07842979E-09
  -14.1999998       6.65930810E-10
  -14.1899996      -6.78734152E-11
  -14.1800003      -9.98764960E-10
  -14.1700001      -1.90843519E-09
  -14.1599998      -2.52370347E-09
  -14.1499996      -2.58276245E-09
  -14.1400003      -1.91560345E-09
  -14.1300001      -5.18214804E-10
  -14.1199999       1.40310996E-09
  -14.1099997       3.43793438E-09
  -14.1000004       5.03889241E-09
  -14.0900002       5.64503155E-09
  -14.0799999       4.83870410E-09
  -14.0699997       2.49842436E-09
  -14.0600004      -1.09725962E-09
  -14.0500002      -5.25566657E-09
  -14.0400000      -8.96955044E-09
  -14.0299997      -1.11268452E-08
  -14.0200005      -1.07949951E-08
  -14.0100002      -7.51575691E-09
  -14.0000000      -1.53040491E-09
  -13.9899998       6.14125639E-09
  -13.9799995       1.38188518E-08
  -13.9700003       1.94822718E-08
  -13.9600000       2.12463416E-08
  -13.9499998       1.78889330E-08
  -13.9399996       9.29928312E-09
  -13.9300003      -3.28870220E-09
  -13.9200001      -1.73786319E-08
  -13.9099998      -2.96418943E-08
  -13.8999996      -3.66404613E-08
  -13.8900003      -3.56993723E-08
  -13.8800001      -2.57230788E-08
  -13.8699999      -7.73237030E-09
  -13.8599997       1.50622999E-08
  -13.8500004       3.77408966E-08
  -13.8400002       5.46655308E-08
  -13.8299999       6.08020230E-08
  -13.8199997       5.30778230E-08
  -13.8100004       3.14321049E-08
  -13.8000002      -7.53608453E-10
  -13.7900000      -3.70380384E-08
  -13.7799997      -6.91258677E-08
  -13.7700005      -8.86964244E-08
  -13.7600002      -8.94699355E-08
  -13.7500000      -6.90172470E-08
  -13.7399998      -2.98234077E-08
  -13.7299995       2.07530828E-08
  -13.7200003       7.17450277E-08
  -13.7100000       1.10887761E-07
  -13.6999998       1.27512834E-07
  -13.6899996       1.15359938E-07
  -13.6800003       7.45891455E-08
  -13.6700001       1.23997435E-08
  -13.6599998      -5.80490429E-08
  -13.6499996      -1.20321744E-07
  -13.6400003      -1.58483360E-07
  -13.6300001      -1.61126266E-07
  -13.6199999      -1.24652814E-07
  -13.6099997      -5.49062733E-08
  -13.6000004       3.34287940E-08
  -13.5900002       1.19725314E-07
  -13.5799999       1.82098333E-07
  -13.5699997       2.02853741E-07
  -13.5600004       1.73380514E-07
  -13.5500002       9.71776259E-08
  -13.5400000      -9.94344340E-09
  -13.5299997      -1.22806256E-07
  -13.5200005      -2.12511353E-07
  -13.5100002      -2.53574910E-07
  -13.5000000      -2.30860806E-07
  -13.4899998      -1.44488425E-07
  -13.4799995      -1.12454916E-08
  -13.4700003       1.38200207E-07
  -13.4600000       2.65972460E-07
  -13.4499998       3.36181131E-07
  -13.4399996       3.24488127E-07
  -13.4300003       2.25586419E-07
  -13.4200001       5.64401148E-08
  -13.4099998      -1.45970361E-07
  -13.3999996      -3.32338715E-07
  -13.3900003      -4.52675152E-07
  -13.3800001      -4.69241684E-07
  -13.3699999      -3.67529339E-07
  -13.3599997      -1.62227153E-07
  -13.3500004       1.03846432E-07
  -13.3400002       3.68234055E-07
  -13.3299999       5.63232163E-07
  -13.3199997       6.32980800E-07
  -13.3100004       5.49040749E-07
  -13.3000002       3.20250336E-07
  -13.2900000      -6.24485175E-09
  -13.2799997      -3.53877795E-07
  -13.2700005      -6.34059745E-07
  -13.2600002      -7.68334587E-07
  -13.2500000      -7.09931044E-07
  -13.2399998      -4.59006372E-07
  -13.2299995      -6.69819542E-08
  -13.2200003       3.72222217E-07
  -13.2100000       7.43033240E-07
  -13.1999998       9.36879019E-07
  -13.1899996       8.81920641E-07
  -13.1800003       5.66179096E-07
  -13.1700001       4.73171085E-08
  -13.1599998      -5.54883513E-07
  -13.1499996      -1.08323491E-06
  -13.1400003      -1.38047551E-06
  -13.1300001      -1.33091851E-06
  -13.1199999      -8.96128654E-07
  -13.1099997      -1.34771341E-07
  -13.1000004       8.00232215E-07
  -13.0900002       1.68908184E-06
  -13.0799999       2.29282637E-06
  -13.0699997       2.41168482E-06
  -13.0600004       1.94049517E-06
  -13.0500002       9.07097672E-07
  -13.0400000      -5.17799435E-07
  -13.0299997      -2.04487424E-06
  -13.0200005      -3.32233003E-06
  -13.0100002      -4.01362058E-06
  -13.0000000      -3.88012131E-06
  -12.9899998      -2.84920861E-06
  -12.9799995      -1.04980609E-06
  -12.9700003       1.19643664E-06
  -12.9600000       3.43060424E-06
  -12.9499998       5.14988005E-06
  -12.9399996       5.92017113E-06
  -12.9300003       5.48303615E-06
  -12.9200001       3.83107999E-06
  -12.9099998       1.23124187E-06
  -12.8999996      -1.81396138E-06
  -12.8900003      -4.66325446E-06
  -12.8800001      -6.67339691E-06
  -12.8699999      -7.34692503E-06
  -12.8599997      -6.45694445E-06
  -12.8500004      -4.11794190E-06
  -12.8400002      -7.82022369E-07
  -12.8299999       2.84383691E-06
  -12.8199997       5.94556695E-06
  -12.8100004       7.78448248E-06
  -12.8000002       7.87382214E-06
  -12.7900000       6.10743518E-06
  -12.7799997       2.80724043E-06
  -12.7700005      -1.32679872E-06
  -12.7600002      -5.35839899E-06
  -12.7500000      -8.32054138E-06
  -12.7399998      -9.44028034E-06
  -12.7299995      -8.33097693E-06
  -12.7200003      -5.10488417E-06
  -12.7100000      -3.75168128E-07
  -12.6999998       4.85908413E-06
  -12.6899996       9.42405404E-06
  -12.6800003       1.22339479E-05
  -12.6700001       1.25462511E-05
  -12.6599998       1.01492378E-05
  -12.6499996       5.43459419E-06
  -12.6400003      -6.67132383E-07
  -12.6300001      -6.87917145E-06
  -12.6199999      -1.18595644E-05
  -12.6099997      -1.45082649E-05
  -12.6000004      -1.42291574E-05
  -12.5900002      -1.10834781E-05
  -12.5799999      -5.79416246E-06
  -12.5699997       4.05790530E-07
  -12.5600004       6.05118794E-06
  -12.5500002       9.78792559E-06
  -12.5400000       1.07028800E-05
  -12.5299997       8.56157476E-06
  -12.5200005       3.89339584E-06
  -12.5100002      -2.10224425E-06
  -12.5000000      -7.81414474E-06
  -12.4899998      -1.15878329E-05
  -12.4799995      -1.21219437E-05
  -12.4700003      -8.80002881E-06
  -12.4600000      -1.87672231E-06
  -12.4499998       7.53200084E-06
  -12.4399996       1.76608246E-05
  -12.4300003       2.64685659E-05
  -12.4200001       3.20929321E-05
  -12.4099998       3.32839663E-05
  -12.3999996       2.97145107E-05
  -12.3900003       2.20903294E-05
  -12.3800001       1.20261984E-05
  -12.3699999       1.70708427E-06
  -12.3599997      -6.59570514E-06
  -12.3500004      -1.10471910E-05
  -12.3400002      -1.06908474E-05
  -12.3299999      -5.70474003E-06
  -12.3199997       2.59487570E-06
  -12.3100004       1.20133527E-05
  -12.3000002       1.99514161E-05
  -12.2900000       2.39923065E-05
  -12.2799997       2.24719643E-05
  -12.2700005       1.49009611E-05
  -12.2600002       2.13624639E-06
  -12.2500000      -1.37455436E-05
  -12.2399998      -2.98547911E-05
  -12.2299995      -4.30926193E-05
  -12.2200003      -5.08210214E-05
  -12.2100000      -5.14497115E-05
  -12.1999998      -4.48047358E-05
  -12.1899996      -3.21900843E-05
  -12.1800003      -1.61214120E-05
  -12.1700001       2.14565119E-07
  -12.1599998       1.36572908E-05
  -12.1499996       2.17700617E-05
  -12.1400003       2.33786504E-05
  -12.1300001       1.88248996E-05
  -12.1199999       9.87274143E-06
  -12.1099997      -7.16460818E-07
  -12.1000004      -9.84521557E-06
  -12.0900002      -1.48269010E-05
  -12.0799999      -1.40446655E-05
  -12.0699997      -7.36567426E-06
  -12.0600004       3.79163475E-06
  -12.0500002       1.67604157E-05
  -12.0400000       2.82352685E-05
  -12.0299997       3.50526971E-05
  -12.0200005       3.49629590E-05
  -12.0100002       2.72121288E-05
  -12.0000000       1.27934773E-05
  -11.9899998      -5.69911481E-06
  -11.9799995      -2.45923438E-05
  -11.9700003      -3.99190794E-05
  -11.9600000      -4.82954347E-05
  -11.9499998      -4.76922323E-05
  -11.9399996      -3.79244084E-05
  -11.9300003      -2.07431585E-05
  -11.9200001       4.96677671E-07
  -11.9099998       2.15262553E-05
  -11.8999996       3.80614511E-05
  -11.8900003       4.67149548E-05
  -11.8800001       4.57220303E-05
  -11.8699999       3.53207142E-05
  -11.8599997       1.77031379E-05
  -11.8500004      -3.45124204E-06
  -11.8400002      -2.37581717E-05
  -11.8299999      -3.90563291E-05
  -11.8199997      -4.62793287E-05
  -11.8100004      -4.40851654E-05
  -11.8000002      -3.31110932E-05
  -11.7900000      -1.58047224E-05
  -11.7799997       4.12532791E-06
  -11.7700005       2.25145941E-05
  -11.7600002       3.56262608E-05
  -11.7500000       4.09224122E-05
  -11.7399998       3.75609488E-05
  -11.7299995       2.65193212E-05
  -11.7200003       1.03292041E-05
  -11.7100000      -7.50928029E-06
  -11.6999998      -2.32979874E-05
  -11.6899996      -3.39243597E-05
  -11.6800003      -3.74893789E-05
  -11.6700001      -3.36506055E-05
  -11.6599998      -2.36174928E-05
  -11.6499996      -9.81440735E-06
  -11.6400003       4.70122814E-06
  -11.6300001       1.69278264E-05
  -11.6199999       2.45597384E-05
  -11.6099997       2.64398477E-05
  -11.6000004       2.27333803E-05
  -11.5900002       1.47977380E-05
  -11.5799999       4.79239725E-06
  -11.5699997      -4.87029001E-06
  -11.5600004      -1.21006369E-05
  -11.5500002      -1.56001515E-05
  -11.5400000      -1.51193572E-05
  -11.5299997      -1.14535287E-05
  -11.5200005      -6.18718695E-06
  -11.5100002      -1.25592578E-06
  -11.5000000       1.56571446E-06
  -11.4899998       1.12753617E-06
  -11.4799995      -2.79023743E-06
  -11.4700003      -9.39775146E-06
  -11.4600000      -1.70593576E-05
  -11.4499998      -2.36609703E-05
  -11.4399996      -2.70960118E-05
  -11.4300003      -2.57599568E-05
  -11.4200001      -1.89433431E-05
  -11.4099998      -7.03753039E-06
  -11.3999996       8.49013486E-06
  -11.3900003       2.53445269E-05
  -11.3800001       4.08196684E-05
  -11.3699999       5.22957489E-05
  -11.3599997       5.77138489E-05
  -11.3500004       5.59345499E-05
  -11.3400002       4.69148763E-05
  -11.3299999       3.16785590E-05
  -11.3199997       1.20987052E-05
  -11.3100004      -9.45102511E-06
  -11.3000002      -3.04973601E-05
  -11.2900000      -4.88372389E-05
  -11.2799997      -6.28075068E-05
  -11.2700005      -7.14144844E-05
  -11.2600002      -7.43191777E-05
  -11.2500000      -7.17081130E-05
  -11.2399998      -6.41039151E-05
  -11.2299995      -5.21786933E-05
  -11.2200003      -3.66249478E-05
  -11.2100000      -1.81164160E-05
  -11.1999998       2.63986544E-06
  -11.1899996       2.47895150E-05
  -11.1800003       4.72062602E-05
  -11.1700001       6.84159604E-05
  -11.1599998       8.66185510E-05
  -11.1499996       9.98323812E-05
  -11.1400003       1.06151645E-04
  -11.1300001       1.04073442E-04
  -11.1199999       9.28259178E-05
  -11.1099997       7.26200087E-05
  -11.1000004       4.47579914E-05
  -11.0900002       1.15598195E-05
  -11.0799999      -2.38923203E-05
  -11.0699997      -5.81503518E-05
  -11.0600004      -8.78647334E-05
  -11.0500002      -1.10229223E-04
  -11.0400000      -1.23324004E-04
  -11.0299997      -1.26300176E-04
  -11.0200005      -1.19385972E-04
  -11.0100002      -1.03734972E-04
  -11.0000000      -8.11688733E-05
  -10.9899998      -5.38832246E-05
  -10.9799995      -2.41812832E-05
  -10.9700003       5.71928058E-06
  -10.9600000       3.37933307E-05
  -10.9499998       5.82463545E-05
  -10.9399996       7.75229419E-05
  -10.9300003       9.03304972E-05
  -10.9200001       9.57107113E-05
  -10.9099998       9.31650793E-05
  -10.8999996       8.28099437E-05
  -10.8900003       6.55104377E-05
  -10.8800001       4.29321590E-05
  -10.8699999       1.74584166E-05
  -10.8599997      -8.05053060E-06
  -10.8500004      -3.06388938E-05
  -10.8400002      -4.77177346E-05
  -10.8299999      -5.75171034E-05
  -10.8199997      -5.94261473E-05
  -10.8100004      -5.41343325E-05
  -10.8000002      -4.35254624E-05
  -10.7900000      -3.03297456E-05
  -10.7799997      -1.75947534E-05
  -10.7700005      -8.08012192E-06
  -10.7600002      -3.70188104E-06
  -10.7500000      -5.14487419E-06
  -10.7399998      -1.17272566E-05
  -10.7299995      -2.15473719E-05
  -10.7200003      -3.18830498E-05
  -10.7100000      -3.97601652E-05
  -10.6999998      -4.25728249E-05
  -10.6899996      -3.86288593E-05
  -10.6800003      -2.75120583E-05
  -10.6700001      -1.01920050E-05
  -10.6599998       1.11357895E-05
  -10.6499996       3.34440410E-05
  -10.6400003       5.34230385E-05
  -10.6300001       6.80795565E-05
  -10.6199999       7.52739870E-05
  -10.6099997       7.40988326E-05
  -10.6000004       6.50329603E-05
  -10.5900002       4.98469672E-05
  -10.5799999       3.12795200E-05
  -10.5699997       1.25438964E-05
  -10.5600004      -3.24654980E-06
  -10.5500002      -1.36312547E-05
  -10.5400000      -1.72339951E-05
  -10.5299997      -1.39940130E-05
  -10.5200005      -5.15239390E-06
  -10.5100002       7.00646569E-06
  -10.5000000       1.96126493E-05
  -10.4899998       2.97826682E-05
  -10.4799995       3.51955459E-05
  -10.4700003       3.45584049E-05
  -10.4600000       2.78648240E-05
  -10.4499998       1.63877903E-05
  -10.4399996       2.40119402E-06
  -10.4300003      -1.13200222E-05
  -10.4200001      -2.21227947E-05
  -10.4099998      -2.80936438E-05
  -10.3999996      -2.85383612E-05
  -10.3900003      -2.42139176E-05
  -10.3800001      -1.72496730E-05
  -10.3699999      -1.07568376E-05
  -10.3599997      -8.19000434E-06
  -10.3500004      -1.25791521E-05
  -10.3400002      -2.57837673E-05
  -10.3299999      -4.79250084E-05
  -10.3199997      -7.71253617E-05
  -10.3100004      -1.09631925E-04
  -10.3000002      -1.40328382E-04
  -10.2900000      -1.63564415E-04
  -10.2799997      -1.74164452E-04
  -10.2700005      -1.68433398E-04
  -10.2600002      -1.44964855E-04
  -10.2500000      -1.05083214E-04
  -10.2399998      -5.28102464E-05
  -10.2299995       5.66690505E-06
  -10.2200003       6.29536007E-05
  -10.2100000       1.11670743E-04
  -10.1999998       1.45720915E-04
  -10.1899996       1.61356016E-04
  -10.1800003       1.57832983E-04
  -10.1700001       1.37518960E-04
  -10.1599998       1.05413259E-04
  -10.1499996       6.81713864E-05
  -10.1400003       3.28197202E-05
  -10.1300001       5.41601958E-06
  -10.1199999      -1.00762963E-05
  -10.1099997      -1.24758290E-05
  -10.1000004      -3.50083133E-06
  -10.0900002       1.26950408E-05
  -10.0799999       3.04594923E-05
  -10.0699997       4.38463067E-05
  -10.0600004       4.78348957E-05
  -10.0500002       3.93189912E-05
  -10.0400000       1.76780904E-05
  -10.0299997      -1.51590875E-05
  -10.0200005      -5.51414414E-05
  -10.0100002      -9.68980457E-05
  -10.0000000      -1.34736838E-04
  -9.98999977      -1.63637058E-04
  -9.97999954      -1.80053437E-04
  -9.97000027      -1.82403484E-04
  -9.96000004      -1.71181484E-04
  -9.94999981      -1.48715946E-04
  -9.93999958      -1.18647426E-04
  -9.93000031      -8.52423473E-05
  -9.92000008      -5.26717668E-05
  -9.90999985      -2.43752747E-05
  -9.89999962      -2.60411093E-06
  -9.89000034       1.17990412E-05
  -9.88000011       1.93668930E-05
  -9.86999989       2.17443940E-05
  -9.85999966       2.12537852E-05
  -9.85000038       2.03720047E-05
  -9.84000015       2.12180948E-05
  -9.82999992       2.51462279E-05
  -9.81999969       3.25214060E-05
  -9.81000042       4.27208397E-05
  -9.80000019       5.43597089E-05
  -9.78999996       6.56932025E-05
  -9.77999973       7.51071784E-05
  -9.77000046       8.15870590E-05
  -9.76000023       8.50551223E-05
  -9.75000000       8.64910762E-05
  -9.73999977       8.77959319E-05
  -9.72999954       9.14151751E-05
  -9.72000027       9.97915413E-05
  -9.71000004       1.14758659E-04
  -9.69999981       1.37005060E-04
  -9.68999958       1.65728896E-04
  -9.68000031       1.98569833E-04
  -9.67000008       2.31851373E-04
  -9.65999985       2.61106004E-04
  -9.64999962       2.81797547E-04
  -9.64000034       2.90112483E-04
  -9.63000011       2.83670728E-04
  -9.61999989       2.62015004E-04
  -9.60999966       2.26771866E-04
  -9.60000038       1.81436277E-04
  -9.59000015       1.30802742E-04
  -9.57999992       8.01389178E-05
  -9.56999969       3.42552958E-05
  -9.56000042      -3.34506171E-06
  -9.55000019      -3.10595169E-05
  -9.53999996      -4.93914813E-05
  -9.52999973      -6.07174843E-05
  -9.52000046      -6.86605636E-05
  -9.51000023      -7.72051644E-05
  -9.50000000      -8.97511854E-05
  -9.48999977      -1.08321350E-04
  -9.47999954      -1.33100446E-04
  -9.47000027      -1.62404220E-04
  -9.46000004      -1.93069922E-04
  -9.44999981      -2.21157694E-04
  -9.43999958      -2.42780821E-04
  -9.43000031      -2.54861981E-04
  -9.42000008      -2.55647581E-04
  -9.40999985      -2.44892115E-04
  -9.39999962      -2.23721436E-04
  -9.39000034      -1.94270557E-04
  -9.38000011      -1.59239557E-04
  -9.36999989      -1.21506753E-04
  -9.35999966      -8.38871711E-05
  -9.35000038      -4.90466227E-05
  -9.34000015      -1.95065440E-05
  -9.32999992       2.36838218E-06
  -9.31999969       1.45017402E-05
  -9.31000042       1.54034369E-05
  -9.30000019       4.59753755E-06
  -9.28999996      -1.69393188E-05
  -9.27999973      -4.64965560E-05
  -9.27000046      -7.96650274E-05
  -9.26000023      -1.10780471E-04
  -9.25000000      -1.33755719E-04
  -9.23999977      -1.43161160E-04
  -9.22999954      -1.35321461E-04
  -9.22000027      -1.09164881E-04
  -9.21000004      -6.66038977E-05
  -9.19999981      -1.23315922E-05
  -9.18999958       4.69406041E-05
  -9.18000031       1.03642007E-04
  -9.17000008       1.50644511E-04
  -9.15999985       1.82427859E-04
  -9.14999962       1.95875531E-04
  -9.14000034       1.90569612E-04
  -9.13000011       1.68576167E-04
  -9.11999989       1.33825190E-04
  -9.10999966       9.12610703E-05
  -9.10000038       4.59599069E-05
  -9.09000015       2.38121811E-06
  -9.07999992      -3.61385355E-05
  -9.06999969      -6.76124619E-05
  -9.06000042      -9.13705007E-05
  -9.05000019      -1.07826338E-04
  -9.03999996      -1.18118063E-04
  -9.02999973      -1.23697115E-04
  -9.02000046      -1.25932129E-04
  -9.01000023      -1.25786319E-04
  -9.00000000      -1.23617589E-04
  -8.98999977      -1.19136392E-04
  -8.97999954      -1.11533067E-04
  -8.97000027      -9.97527313E-05
  -8.96000004      -8.28579359E-05
  -8.94999981      -6.03887129E-05
  -8.93999958      -3.26205700E-05
  -8.93000031      -6.41679094E-07
  -8.92000008       3.37796992E-05
  -8.90999985       6.85006235E-05
  -8.89999962       1.01385005E-04
  -8.89000034       1.30634391E-04
  -8.88000011       1.54955924E-04
  -8.86999989       1.73514694E-04
  -8.85999966       1.85704121E-04
  -8.85000038       1.90848994E-04
  -8.84000015       1.88000471E-04
  -8.82999992       1.75965237E-04
  -8.81999969       1.53632558E-04
  -8.81000042       1.20544282E-04
  -8.80000019       7.75361987E-05
  -8.78999996       2.72094076E-05
  -8.77999973      -2.59990247E-05
  -8.77000046      -7.62777418E-05
  -8.76000023      -1.17405172E-04
  -8.75000000      -1.44011574E-04
  -8.73999977      -1.52808469E-04
  -8.72999954      -1.43425976E-04
  -8.72000027      -1.18586031E-04
  -8.71000004      -8.35228348E-05
  -8.69999981      -4.47854254E-05
  -8.68999958      -8.74975285E-06
  -8.68000031       1.97390891E-05
  -8.67000008       3.82128856E-05
  -8.65999985       4.66971214E-05
  -8.64999962       4.71160893E-05
  -8.64000034       4.22322082E-05
  -8.63000011       3.45087465E-05
  -8.61999989       2.52937225E-05
  -8.60999966       1.45927424E-05
  -8.60000038       1.47555181E-06
  -8.59000015      -1.50754431E-05
  -8.57999992      -3.52317875E-05
  -8.56999969      -5.76913008E-05
  -8.56000042      -7.96347085E-05
  -8.55000019      -9.73271963E-05
  -8.53999996      -1.07179461E-04
  -8.52999973      -1.06899890E-04
  -8.52000046      -9.63182683E-05
  -8.51000023      -7.75644075E-05
  -8.50000000      -5.45078001E-05
  -8.48999977      -3.16283513E-05
  -8.47999954      -1.26970726E-05
  -8.47000027       2.77941979E-07
  -8.46000004       7.47293097E-06
  -8.44999981       1.08933955E-05
  -8.43999958       1.33786052E-05
  -8.43000031       1.73371336E-05
  -8.42000008       2.36875530E-05
  -8.40999985       3.14084755E-05
  -8.39999962       3.78810000E-05
  -8.39000034       3.99119672E-05
  -8.38000011       3.50656337E-05
  -8.36999989       2.28013359E-05
  -8.35999966       4.96710891E-06
  -8.35000038      -1.45796803E-05
  -8.34000015      -3.11398107E-05
  -8.32999992      -4.07485022E-05
  -8.31999969      -4.16132243E-05
  -8.31000042      -3.48893445E-05
  -8.30000019      -2.44819712E-05
  -8.28999996      -1.58923103E-05
  -8.27999973      -1.44602118E-05
  -8.27000046      -2.35731495E-05
  -8.26000023      -4.34376925E-05
  -8.25000000      -7.08302832E-05
  -8.23999977      -9.99206750E-05
  -8.22999954      -1.23905324E-04
  -8.22000027      -1.36922026E-04
  -8.21000004      -1.35633716E-04
  -8.19999981      -1.19993703E-04
  -8.18999958      -9.29916714E-05
  -8.18000031      -5.95241836E-05
  -8.17000008      -2.48174110E-05
  -8.15999985       7.04745662E-06
  -8.14999962       3.40285042E-05
  -8.14000034       5.61962333E-05
  -8.13000011       7.50531035E-05
  -8.11999989       9.24312044E-05
  -8.10999966       1.09426794E-04
  -8.10000038       1.25779057E-04
  -8.09000015       1.39898213E-04
  -8.07999992       1.49478103E-04
  -8.06999969       1.52397930E-04
  -8.06000042       1.47516766E-04
  -8.05000019       1.35027934E-04
  -8.03999996       1.16241557E-04
  -8.02999973       9.29153248E-05
  -8.02000046       6.64566905E-05
  -8.01000023       3.73846306E-05
  -8.00000000       5.33809771E-06
  -7.98999977      -3.03135421E-05
  -7.98000002      -6.94761620E-05
  -7.96999979      -1.10372246E-04
  -7.96000004      -1.49080850E-04
  -7.94999981      -1.79896320E-04
  -7.94000006      -1.96538676E-04
  -7.92999983      -1.93918357E-04
  -7.92000008      -1.69909152E-04
  -7.90999985      -1.26514831E-04
  -7.90000010      -6.99648590E-05
  -7.88999987      -9.60053785E-06
  -7.88000011       4.41944867E-05
  -7.86999989       8.24414019E-05
  -7.86000013       9.96723684E-05
  -7.84999990       9.50744143E-05
  -7.84000015       7.23528938E-05
  -7.82999992       3.84036794E-05
  -7.82000017       1.25262181E-06
  -7.80999994      -3.20728068E-05
  -7.80000019      -5.70971897E-05
  -7.78999996      -7.24705533E-05
  -7.78000021      -7.95142041E-05
  -7.76999998      -8.10413767E-05
  -7.76000023      -7.99708505E-05
  -7.75000000      -7.82618226E-05
  -7.73999977      -7.65117002E-05
  -7.73000002      -7.42589764E-05
  -7.71999979      -7.07400905E-05
  -7.71000004      -6.56793709E-05
  -7.69999981      -5.97071812E-05
  -7.69000006      -5.41920199E-05
  -7.67999983      -5.05551288E-05
  -7.67000008      -4.93908701E-05
  -7.65999985      -4.98330410E-05
  -7.65000010      -4.95319728E-05
  -7.63999987      -4.53646680E-05
  -7.63000011      -3.46829402E-05
  -7.61999989      -1.66415921E-05
  -7.61000013       6.94887103E-06
  -7.59999990       3.16766746E-05
  -7.59000015       5.16114196E-05
  -7.57999992       6.11467985E-05
  -7.57000017       5.70130760E-05
  -7.55999994       3.97423573E-05
  -7.55000019       1.39977801E-05
  -7.53999996      -1.24677135E-05
  -7.53000021      -3.09941643E-05
  -7.51999998      -3.46985180E-05
  -7.51000023      -2.08099391E-05
  -7.50000000       8.11972131E-06
  -7.48999977       4.45670012E-05
  -7.48000002       7.78933463E-05
  -7.46999979       9.71697373E-05
  -7.46000004       9.41246835E-05
  -7.44999981       6.53425523E-05
  -7.44000006       1.30947519E-05