  -16.0000000       0.00000000    
  -15.9899998       0.00000000    
  -15.9799995       0.00000000    
  -15.9700003       0.00000000    
  -15.9600000       0.00000000    
  -15.9499998       0.00000000    
  -15.9399996       0.00000000    
  -15.9300003       0.00000000    
  -15.9200001       0.00000000    
  -15.9099998       0.00000000    
  -15.8999996       0.00000000    
  -15.8900003       3.77804079E-41
  -15.8800001      -3.72553414E-40
  -15.8699999      -2.95271411E-38
  -15.8599997      -5.56419747E-37
  -15.8500004      -6.15208213E-36
  -15.8400002      -4.77033745E-35
  -15.8299999      -2.81197947E-34
  -15.8199997      -1.31862805E-33
  -15.8100004      -5.05099049E-33
  -15.8000002      -1.60043997E-32
  -15.7900000      -4.18486539E-32
  -15.7799997      -8.77892036E-32
  -15.7700005      -1.33087836E-31
  -15.7600002      -7.31744998E-32
  -15.7500000       3.80651590E-31
  -15.7399998       1.81480962E-30
  -15.7299995       5.14282314E-30
  -15.7200003       1.13858413E-29
  -15.7100000       2.10382569E-29
  -15.6999998       3.29418731E-29
  -15.6899996       4.26279947E-29
  -15.6800003       3.97310440E-29
  -15.6700001       3.20177841E-30
  -15.6599998      -1.07233577E-28
  -15.6499996      -3.61178767E-28
  -15.6400003      -8.54337516E-28
  -15.6300001      -1.65435649E-27
  -15.6199999      -2.63915207E-27
  -15.6099997      -3.19400671E-27
  -15.6000004      -1.85383468E-27
  -15.5900002       3.77782753E-27
  -15.5799999       1.62164580E-26
  -15.5699997       3.57284718E-26
  -15.5600004       5.63806223E-26
  -15.5500002       6.21254895E-26
  -15.5400000       2.68658414E-26
  -15.5299997      -7.61075560E-26
  -15.5200005      -2.52052646E-25
  -15.5100002      -4.55035481E-25
  -15.5000000      -5.68894437E-25
  -15.4899998      -4.28495587E-25
  -15.4799995       9.46668585E-26
  -15.4700003       9.55534691E-25
  -15.4600000       1.82821059E-24
  -15.4499998       2.17328754E-24
  -15.4399996       1.60922891E-24
  -15.4300003       5.35939921E-25
  -15.4200001       5.92774342E-25
  -15.4099998       4.13898672E-24
  -15.3999996       1.19154592E-23
  -15.3900003       1.89110296E-23
  -15.3800001       1.05136668E-23
  -15.3699999      -3.62451483E-23
  -15.3599997      -1.40007665E-22
  -15.3500004      -2.87358602E-22
  -15.3400002      -3.96339496E-22
  -15.3299999      -2.94405036E-22
  -15.3199997       2.48805947E-22
  -15.3100004       1.39105253E-21
  -15.3000002       2.97864608E-21
  -15.2900000       4.26820551E-21
  -15.2799997       3.79406381E-21
  -15.2700005      -3.35275073E-22
  -15.2600002      -9.44602212E-21
  -15.2500000      -2.25940846E-20
  -15.2399998      -3.46558530E-20
  -15.2299995      -3.54313348E-20
  -15.2200003      -1.15168656E-20
  -15.2100000       4.74859768E-20
  -15.1999998       1.38371458E-19
  -15.1899996       2.32340403E-19
  -15.1800003       2.68558868E-19
  -15.1700001       1.63142002E-19
  -15.1599998      -1.57554048E-19
  -15.1499996      -6.98325157E-19
  -15.1400003      -1.32594984E-18
  -15.1300001      -1.72455153E-18
  -15.1199999      -1.42638136E-18
  -15.1099997       3.38834149E-20
  -15.1000004       2.82870913E-18
  -15.0900002       6.47204227E-18
  -15.0799999       9.53707896E-18
  -15.0699997       9.69829481E-18
  -15.0600004       4.34298980E-18
  -15.0500002      -8.14038698E-18
  -15.0400000      -2.66005866E-17
  -15.0299997      -4.55279481E-17
  -15.0200005      -5.46687604E-17
  -15.0100002      -4.10112674E-17
  -15.0000000       6.14501682E-18
  -14.9899998       8.75089458E-17
  -14.9799995       1.85770988E-16
  -14.9700003       2.61346087E-16
  -14.9600000       2.56941648E-16
  -14.9499998       1.14886070E-16
  -14.9399996      -1.92854129E-16
  -14.9300003      -6.28782997E-16
  -14.9200001      -1.06269886E-15
  -14.9099998      -1.27325813E-15
  -14.8999996      -9.97034541E-16
  -14.8900003      -3.21318044E-17
  -14.8800001       1.61951080E-15
  -14.8699999       3.61668542E-15
  -14.8599997       5.22182387E-15
  -14.8500004       5.40055629E-15
  -14.8400002       3.12887279E-15
  -14.8299999      -2.11019793E-15
  -14.8199997      -9.76080788E-15
  -14.8100004      -1.77860114E-14
  -14.8000002      -2.27051196E-14
  -14.7900000      -2.03264597E-14
  -14.7799997      -7.24745615E-15
  -14.7700005       1.71196794E-14
  -14.7600002       4.86189966E-14
  -14.7500000       7.74505040E-14
  -14.7399998       8.92878775E-14
  -14.7299995       6.90458297E-14
  -14.7200003       7.09240253E-15
  -14.7100000      -9.34940195E-14
  -14.6999998      -2.11235814E-13
  -14.6899996      -3.05452251E-13
  -14.6800003      -3.23280465E-13
  -14.6700001      -2.15616912E-13
  -14.6599998       4.01825891E-14
  -14.6499996       4.16978030E-13
  -14.6400003       8.23381836E-13
  -14.6300001       1.10864237E-12
  -14.6199999       1.09445970E-12
  -14.6099997       6.33857170E-13
  -14.6000004      -3.13828174E-13
  -14.5900002      -1.61456764E-12
  -14.5799999      -2.92861200E-12
  -14.5699997      -3.74679844E-12
  -14.5600004      -3.51099206E-12
  -14.5500002      -1.80963133E-12
  -14.5400000       1.39441703E-12
  -14.5299997       5.57821194E-12
  -14.5200005       9.60608069E-12
  -14.5100002       1.18885995E-11
  -14.5000000       1.07840542E-11
  -14.4899998       5.19344073E-12
  -14.4799995      -4.79413557E-12
  -14.4700003      -1.74272315E-11
  -14.4600000      -2.92370538E-11
  -14.4499998      -3.55934969E-11
  -14.4399996      -3.19140235E-11
  -14.4300003      -1.53426820E-11
  -14.4200001       1.35271568E-11
  -14.4099998       4.94933712E-11
  -14.3999996       8.27832317E-11
  -14.3900003       1.00730917E-10
  -14.3800001       9.11137277E-11
  -14.3699999       4.65828313E-11
  -14.3599997      -3.09669269E-11
  -14.3500004      -1.27636554E-10
  -14.3400002      -2.17904472E-10
  -14.3299999      -2.69126554E-10
  -14.3199997      -2.50044208E-10
  -14.3100004      -1.41776577E-10
  -14.3000002       5.15871235E-11
  -14.2900000       2.96497438E-10
  -14.2799997       5.31084676E-10
  -14.2700005       6.76033618E-10
  -14.2600002       6.54719334E-10
  -14.2500000       4.18910046E-10
  -14.2399998      -2.66332147E-11
  -14.2299995      -6.09002682E-10
  -14.2200003      -1.18920429E-09
  -14.2100000      -1.58592151E-09
  -14.1999998      -1.61978508E-09
  -14.1899996      -1.17003640E-09
  -14.1800003      -2.29222252E-10
  -14.1700001       1.06182385E-09
  -14.1599998       2.41512188E-09
  -14.1499996       3.44233397E-09
  -14.1400003       3.74503850E-09
  -14.1300001       3.03227665E-09
  -14.1199999       1.23657318E-09
  -14.1099997      -1.40722745E-09
  -14.1000004      -4.35352199E-09
  -14.0900002      -6.82794710E-09
  -14.0799999      -7.99739830E-09
  -14.0699997      -7.19867543E-09
  -14.0600004      -4.17198276E-09
  -14.0500002       7.68287378E-10
  -14.0400000       6.68977096E-09
  -14.0299997       1.21665877E-08
  -14.0200005       1.55730486E-08
  -14.0100002       1.54986193E-08
  -14.0000000       1.11909255E-08
  -13.9899998       2.90631297E-09
  -13.9799995      -7.95052468E-09
  -13.9700003      -1.89796534E-08
  -13.9600000      -2.72464700E-08
  -13.9499998      -2.99803595E-08
  -13.9399996      -2.53620929E-08
  -13.9300003      -1.31980817E-08
  -13.9200001       4.72524064E-09
  -13.9099998       2.47616576E-08
  -13.8999996       4.20505444E-08
  -13.8900003       5.16018730E-08
  -13.8800001       4.96005228E-08
  -13.8699999       3.46133397E-08
  -13.8599997       8.35779979E-09
  -13.8500004      -2.42440699E-08
  -13.8400002      -5.58525706E-08
  -13.8299999      -7.82569387E-08
  -13.8199997      -8.43843466E-08
  -13.8100004      -7.03063492E-08
  -13.8000002      -3.67114446E-08
  -13.7900000       1.06210676E-08
  -13.7799997       6.16103293E-08
  -13.7700005       1.03892134E-07
  -13.7600002       1.25702257E-07
  -13.7500000       1.18984062E-07
  -13.7399998       8.19363848E-08
  -13.7299995       2.02631991E-08
  -13.7200003      -5.33661968E-08
  -13.7100000      -1.21730054E-07
  -13.6999998      -1.66942556E-07
  -13.6899996      -1.74984095E-07
  -13.6800003      -1.39769980E-07
  -13.6700001      -6.56408616E-08
  -13.6599998       3.25624576E-08
  -13.6499996       1.32144976E-07
  -13.6400003       2.07553555E-07
  -13.6300001       2.36693580E-07
  -13.6199999       2.07070741E-07
  -13.6099997       1.20133620E-07
  -13.6000004      -7.52490870E-09
  -13.5900002      -1.46783520E-07
  -13.5799999      -2.62180777E-07
  -13.5699997      -3.20469127E-07
  -13.5600004      -2.99572150E-07
  -13.5500002      -1.95652518E-07
  -13.5400000      -2.62320103E-08
  -13.5299997       1.71897369E-07
  -13.5200005       3.50017814E-07
  -13.5100002       4.58768000E-07
  -13.5000000       4.60876606E-07
  -13.4899998       3.42209972E-07
  -13.4799995       1.18091990E-07
  -13.4700003      -1.67250249E-07
  -13.4600000      -4.48714871E-07
  -13.4499998      -6.54563621E-07
  -13.4399996      -7.23876042E-07
  -13.4300003      -6.23094365E-07
  -13.4200001      -3.57352206E-07
  -13.4099998       2.68107421E-08
  -13.3999996       4.48875170E-07
  -13.3900003       8.10995971E-07
  -13.3800001       1.02053821E-06
  -13.3699999       1.01335172E-06
  -13.3599997       7.71996440E-07
  -13.3500004       3.33911487E-07
  -13.3400002      -2.13357865E-07
  -13.3299999      -7.49724620E-07
  -13.3199997      -1.14951672E-06
  -13.3100004      -1.31178672E-06
  -13.3000002      -1.18662058E-06
  -13.2900000      -7.90547858E-07
  -13.2799997      -2.06405829E-07
  -13.2700005       4.33393325E-07
  -13.2600002       9.77104378E-07
  -13.2500000       1.29065734E-06
  -13.2399998       1.29248724E-06
  -13.2299995       9.77148943E-07
  -13.2200003       4.20899624E-07
  -13.2100000      -2.33455197E-07
  -13.1999998      -8.10041797E-07
  -13.1899996      -1.14443117E-06
  -13.1800003      -1.12849671E-06
  -13.1700001      -7.44001341E-07
  -13.1599998      -7.52534604E-08
  -13.1499996       7.04249430E-07
  -13.1400003       1.37003667E-06
  -13.1300001       1.70212081E-06
  -13.1199999       1.54500071E-06
  -13.1099997       8.57206317E-07
  -13.1000004      -2.63350529E-07
  -13.0900002      -1.58713556E-06
  -13.0799999      -2.79530514E-06
  -13.0699997      -3.54952022E-06
  -13.0600004      -3.57470117E-06
  -13.0500002      -2.73558317E-06
  -13.0400000      -1.08762811E-06
  -13.0299997       1.11271106E-06
  -13.0200005       3.44491013E-06
  -13.0100002       5.40421479E-06
  -13.0000000       6.50945367E-06
  -12.9899998       6.41586985E-06
  -12.9799995       5.00687020E-06
  -12.9700003       2.44140915E-06
  -12.9600000      -8.57665782E-07
  -12.9499998      -4.27620944E-06
  -12.9399996      -7.13005829E-06
  -12.9300003      -8.81043252E-06
  -12.9200001      -8.92155367E-06
  -12.9099998      -7.37828532E-06
  -12.8999996      -4.43895806E-06
  -12.8900003      -6.62214063E-07
  -12.8800001       3.20605682E-06
  -12.8699999       6.39282098E-06
  -12.8599997       8.26985342E-06
  -12.8500004       8.49771095E-06
  -12.8400002       7.10657605E-06
  -12.8299999       4.49221852E-06
  -12.8199997       1.32468176E-06
  -12.8100004      -1.61170931E-06
  -12.8000002      -3.61084017E-06
  -12.7900000      -4.22390667E-06
  -12.7799997      -3.38021437E-06
  -12.7700005      -1.41681994E-06
  -12.7600002       9.95064738E-07
  -12.7500000       3.01407181E-06
  -12.7399998       3.84706573E-06
  -12.7299995       2.97025167E-06
  -12.7200003       2.97455188E-07
  -12.7100000      -3.75043601E-06
  -12.6999998      -8.29951023E-06
  -12.6899996      -1.21962939E-05
  -12.6800003      -1.42671388E-05
  -12.6700001      -1.36069248E-05
  -12.6599998      -9.82964593E-06
  -12.6499996      -3.21815355E-06
  -12.6400003       5.26974645E-06
  -12.6300001       1.41503751E-05
  -12.6199999       2.16943918E-05
  -12.6099997       2.62822123E-05
  -12.6000004       2.67584692E-05
  -12.5900002       2.27057553E-05
  -12.5799999       1.45726890E-05
  -12.5699997       3.62174865E-06
  -12.5600004      -8.29833425E-06
  -12.5500002      -1.91110776E-05
  -12.5400000      -2.69265420E-05
  -12.5299997      -3.04219375E-05
  -12.5200005      -2.91049073E-05
  -12.5100002      -2.34009258E-05
  -12.5000000      -1.45451404E-05
  -12.4899998      -4.30302998E-06
  -12.4799995       5.41668760E-06
  -12.4700003       1.29687915E-05
  -12.4600000       1.73051430E-05
  -12.4499998       1.81594842E-05
  -12.4399996       1.60426953E-05
  -12.4300003       1.20526702E-05
  -12.4200001       7.54726625E-06
  -12.4099998       3.76220987E-06
  -12.3999996       1.46979949E-06
  -12.3900003       7.65651805E-07
  -12.3800001       1.04062383E-06
  -12.3699999       1.15052001E-06
  -12.3599997      -2.52670247E-07
  -12.3500004      -4.30590671E-06
  -12.3400002      -1.15387129E-05
  -12.3299999      -2.15980308E-05
  -12.3199997      -3.31731571E-05
  -12.3100004      -4.41559241E-05
  -12.3000002      -5.20173307E-05
  -12.2900000      -5.43299466E-05
  -12.2799997      -4.93271436E-05
  -12.2700005      -3.63754880E-05
  -12.2600002      -1.62488104E-05
  -12.2500000       8.86959515E-06
  -12.2399998       3.56745586E-05
  -12.2299995       6.02727596E-05
  -12.2200003       7.88644466E-05
  -12.2100000       8.84404290E-05
  -12.1999998       8.73539902E-05
  -12.1899996       7.56495720E-05
  -12.1800003       5.50779732E-05
  -12.1700001       2.87907224E-05
  -12.1599998       7.71826592E-07
  -12.1499996      -2.48808537E-05
  -12.1400003      -4.46819868E-05
  -12.1300001      -5.63490612E-05
  -12.1199999      -5.91420539E-05
  -12.1099997      -5.38908353E-05
  -12.1000004      -4.27141858E-05
  -12.0900002      -2.84982416E-05
  -12.0799999      -1.42511526E-05
  -12.0699997      -2.47413072E-06
  -12.0600004       5.31789283E-06
  -12.0500002       8.82823679E-06
  -12.0400000       8.92134449E-06
  -12.0299997       7.29934845E-06
  -12.0200005       5.99356554E-06
  -12.0100002       6.79221375E-06
  -12.0000000       1.07384403E-05
  -11.9899998       1.78157297E-05
  -11.9799995       2.68947188E-05
  -11.9700003       3.59561527E-05
  -11.9600000       4.25421094E-05
  -11.9499998       4.43356403E-05
  -11.9399996       3.97390286E-05
  -11.9300003       2.83194277E-05
  -11.9200001       1.10182054E-05
  -11.9099998      -9.92940932E-06
  -11.8999996      -3.13555029E-05
  -11.8900003      -4.97320361E-05
  -11.8800001      -6.18399208E-05
  -11.8699999      -6.53981187E-05
  -11.8599997      -5.95243218E-05
  -11.8500004      -4.49331892E-05
  -11.8400002      -2.38321827E-05
  -11.8299999       4.63790656E-07
  -11.8199997       2.41217476E-05
  -11.8100004       4.34680296E-05
  -11.8000002       5.56235864E-05
  -11.7900000       5.89792908E-05
  -11.7799997       5.34288956E-05
  -11.7700005       4.03270642E-05
  -11.7600002       2.21936680E-05
  -11.7500000       2.23173424E-06
  -11.7399998      -1.62434590E-05
  -11.7299995      -3.03574907E-05
  -11.7200003      -3.81170757E-05
  -11.7100000      -3.86711181E-05
  -11.6999998      -3.23638596E-05
  -11.6899996      -2.05906217E-05
  -11.6800003      -5.49914648E-06
  -11.6700001       1.03994189E-05
  -11.6599998       2.46387735E-05
  -11.6499996       3.51597046E-05
  -11.6400003       4.05766295E-05
  -11.6300001       4.03198610E-05
  -11.6199999       3.46469933E-05
  -11.6099997       2.45361280E-05
  -11.6000004       1.14884033E-05
  -11.5900002      -2.72407942E-06
  -11.5799999      -1.63252953E-05
  -11.5699997      -2.77793861E-05
  -11.5600004      -3.59794612E-05
  -11.5500002      -4.03577869E-05
  -11.5400000      -4.09055865E-05
  -11.5299997      -3.81039499E-05
  -11.5200005      -3.27809976E-05
  -11.5100002      -2.59222543E-05
  -11.5000000      -1.84698638E-05
  -11.4899998      -1.11487552E-05
  -11.4799995      -4.35362199E-06
  -11.4700003       1.88066008E-06
  -11.4600000       7.81929248E-06
  -11.4499998       1.38916921E-05
  -11.4399996       2.05101387E-05
  -11.4300003       2.78852476E-05
  -11.4200001       3.58833386E-05
  -11.4099998       4.39634168E-05
  -11.3999996       5.12147708E-05
  -11.3900003       5.64937363E-05
  -11.3800001       5.86349379E-05
  -11.3699999       5.66935087E-05
  -11.3599997       5.01655559E-05
  -11.3500004       3.91366302E-05
  -11.3400002       2.43225986E-05
  -11.3299999       6.99036718E-06
  -11.3199997      -1.12273638E-05
  -11.3100004      -2.85853457E-05
  -11.3000002      -4.34940303E-05
  -11.2900000      -5.47472300E-05
  -11.2799997      -6.16640464E-05
  -11.2700005      -6.41212246E-05
  -11.2600002      -6.24782915E-05
  -11.2500000      -5.74227342E-05
  -11.2399998      -4.97799847E-05
  -11.2299995      -4.03375343E-05
  -11.2200003      -2.97250754E-05
  -11.2100000      -1.83735210E-05
  -11.1999998      -6.55221402E-06
  -11.1899996       5.53899145E-06
  -11.1800003       1.76605026E-05
  -11.1700001       2.94472738E-05
  -11.1599998       4.03778067E-05
  -11.1499996       4.98103618E-05
  -11.1400003       5.70766242E-05
  -11.1300001       6.16044199E-05
  -11.1199999       6.30313007E-05
  -11.1099997       6.12733056E-05
  -11.1000004       5.65273003E-05
  -11.0900002       4.92060171E-05
  -11.0799999       3.98270786E-05
  -11.0699997       2.88923566E-05
  -11.0600004       1.67982053E-05
  -11.0500002       3.80824622E-06
  -11.0400000      -9.89943601E-06
  -11.0299997      -2.41232592E-05
  -11.0200005      -3.85022249E-05
  -11.0100002      -5.24008028E-05
  -11.0000000      -6.48614296E-05
  -10.9899998      -7.46562509E-05
  -10.9799995      -8.04440424E-05
  -10.9700003      -8.10084093E-05
  -10.9600000      -7.55283982E-05
  -10.9499998      -6.38179336E-05
  -10.9399996      -4.64721925E-05
  -10.9300003      -2.48757624E-05
  -10.9200001      -1.05621928E-06
  -10.9099998       2.25992189E-05
  -10.8999996       4.37150302E-05
  -10.8900003       6.03162844E-05
  -10.8800001       7.11578541E-05
  -10.8699999       7.59258619E-05
  -10.8599997       7.52668129E-05
  -10.8500004       7.06326537E-05
  -10.8400002       6.39659484E-05
  -10.8299999       5.72817880E-05
  -10.8199997       5.22253285E-05
  -10.8100004       4.96926368E-05
  -10.8000002       4.95948807E-05
  -10.7900000       5.08228841E-05
  -10.7799997       5.14338863E-05
  -10.7700005       4.90399652E-05
  -10.7600002       4.13358684E-05
  -10.7500000       2.66701372E-05
  -10.7399998       4.54554538E-06
  -10.7299995      -2.40623831E-05
  -10.7200003      -5.66540839E-05
  -10.7100000      -8.94612895E-05
  -10.6999998      -1.17989417E-04
  -10.6899996      -1.37766387E-04
  -10.6800003      -1.45167185E-04
  -10.6700001      -1.38155854E-04
  -10.6599998      -1.16790434E-04
  -10.6499996      -8.33726008E-05
  -10.6400003      -4.21880759E-05
  -10.6300001       1.13612293E-06
  -10.6199999       4.05518367E-05
  -10.6099997       7.06204009E-05
  -10.6000004       8.74575489E-05
  -10.5900002       8.94079276E-05
  -10.5799999       7.73149513E-05
  -10.5699997       5.43318420E-05
  -10.5600004       2.53121034E-05
  -10.5500002      -4.09731138E-06
  -10.5400000      -2.84785492E-05
  -10.5299997      -4.35803413E-05
  -10.5200005      -4.69936349E-05
  -10.5100002      -3.84496961E-05
  -10.5000000      -1.97087265E-05
  -10.4899998       5.90646096E-06
  -10.4799995       3.42078201E-05
  -10.4700003       6.09095659E-05
  -10.4600000       8.23071969E-05
  -10.4499998       9.57481607E-05
  -10.4399996       9.98372343E-05
  -10.4300003       9.43894120E-05
  -10.4200001       8.02013092E-05
  -10.4099998       5.87431605E-05
  -10.3999996       3.18726779E-05
  -10.3900003       1.64008259E-06
  -10.3800001      -2.97954284E-05
  -10.3699999      -6.01692045E-05
  -10.3599997      -8.71021111E-05
  -10.3500004      -1.08155349E-04
  -10.3400002      -1.21003999E-04
  -10.3299999      -1.23738035E-04
  -10.3199997      -1.15243914E-04
  -10.3100004      -9.55723226E-05
  -10.3000002      -6.61753293E-05
  -10.2900000      -2.99087296E-05
  -10.2799997       9.25719814E-06
  -10.2700005       4.68037470E-05
  -10.2600002       7.84156873E-05
  -10.2500000       1.00767604E-04
  -10.2399998       1.12168389E-04
  -10.2299995       1.12906091E-04
  -10.2200003       1.05196290E-04
  -10.2100000       9.27257279E-05
  -10.1999998       7.98771143E-05
  -10.1899996       7.07975996E-05
  -10.1800003       6.85108098E-05
  -10.1700001       7.42634365E-05
  -10.1599998       8.72421733E-05
  -10.1499996       1.04711864E-04
  -10.1400003       1.22532074E-04
  -10.1300001       1.35930764E-04
  -10.1199999       1.40368575E-04
  -10.1099997       1.32324843E-04
  -10.1000004       1.09871500E-04
  -10.0900002       7.29633757E-05
  -10.0799999       2.34403797E-05
  -10.0699997      -3.52080024E-05
  -10.0600004      -9.82362617E-05
  -10.0500002      -1.60115189E-04
  -10.0400000      -2.15027001E-04
  -10.0299997      -2.57358683E-04
  -10.0200005      -2.82194698E-04
  -10.0100002      -2.85814865E-04
  -10.0000000      -2.66185671E-04
  -9.98999977      -2.23397961E-04
  -9.97999954      -1.59964999E-04
  -9.97000027      -8.08733894E-05
  -9.96000004       6.71189582E-06
  -9.94999981       9.41387261E-05
  -9.93999958       1.72323271E-04
  -9.93000031       2.33041312E-04
  -9.92000008       2.70240213E-04
  -9.90999985       2.81108863E-04
  -9.89999962       2.66655872E-04
  -9.89000034       2.31622806E-04
  -9.88000011       1.83691212E-04
  -9.86999989       1.32097397E-04
  -9.85999966       8.59126958E-05
  -9.85000038       5.23385243E-05
  -9.84000015       3.53795185E-05
  -9.82999992       3.51845083E-05
  -9.81999969       4.81998504E-05
  -9.81000042       6.80958910E-05
  -9.80000019       8.72497840E-05
  -9.78999996       9.84422077E-05
  -9.77999973       9.63830244E-05
  -9.77000046       7.87316676E-05
  -9.76000023       4.64098557E-05
  -9.75000000       3.18037405E-06
  -9.73999977      -4.53584908E-05
  -9.72999954      -9.30825991E-05
  -9.72000027      -1.34622198E-04
  -9.71000004      -1.66312777E-04
  -9.69999981      -1.86624617E-04
  -9.68999958      -1.96028399E-04
  -9.68000031      -1.96404173E-04
  -9.67000008      -1.90210674E-04
  -9.65999985      -1.79675219E-04
  -9.64999962      -1.66234851E-04
  -9.64000034      -1.50367021E-04
  -9.63000011      -1.31825102E-04
  -9.61999989      -1.10173161E-04
  -9.60999966      -8.54298560E-05
  -9.60000038      -5.86037204E-05
  -9.59000015      -3.19355859E-05
  -9.57999992      -8.74787747E-06
  -9.56999969       7.09075584E-06
  -9.56000042       1.19716788E-05
  -9.55000019       3.43530314E-06
  -9.53999996      -1.90711180E-05
  -9.52999973      -5.37540327E-05
  -9.52000046      -9.64689825E-05
  -9.51000023      -1.41171273E-04
  -9.50000000      -1.80745090E-04
  -9.48999977      -2.08058540E-04
  -9.47999954      -2.17052875E-04
  -9.47000027      -2.03678108E-04
  -9.46000004      -1.66528669E-04
  -9.44999981      -1.07098109E-04
  -9.43999958      -2.96435246E-05
  -9.43000031       5.92892429E-05
  -9.42000008       1.51590648E-04
  -9.40999985       2.38461493E-04
  -9.39999962       3.11342999E-04
  -9.39000034       3.62826715E-04
  -9.38000011       3.87481326E-04
  -9.36999989       3.82536295E-04
  -9.35999966       3.48351896E-04
  -9.35000038       2.88593030E-04
  -9.34000015       2.10024155E-04
  -9.32999992       1.21867597E-04
  -9.31999969       3.47292662E-05
  -9.31000042      -4.08154556E-05
  -9.30000019      -9.57828743E-05
  -9.28999996      -1.24216851E-04
  -9.27999973      -1.24199461E-04
  -9.27000046      -9.81824924E-05
  -9.26000023      -5.25092510E-05
  -9.25000000       3.82547341E-06
  -9.23999977       6.09400849E-05
  -9.22999954       1.09970926E-04
  -9.22000027       1.44676320E-04
  -9.21000004       1.62359502E-04
  -9.19999981       1.63900142E-04
  -9.18999958       1.52921610E-04
  -9.18000031       1.34358736E-04
  -9.17000008       1.12857706E-04
  -9.15999985       9.14808188E-05
  -9.14999962       7.10892564E-05
  -9.14000034       5.05609642E-05
  -9.13000011       2.77354684E-05
  -9.11999989       7.44985073E-07
  -9.10999966      -3.07328191E-05
  -9.10000038      -6.47394118E-05
  -9.09000015      -9.70875553E-05
  -9.07999992      -1.22214318E-04
  -9.06999969      -1.34585280E-04
  -9.06000042      -1.30220084E-04
  -9.05000019      -1.07869280E-04
  -9.03999996      -6.94869086E-05
  -9.02999973      -1.98700818E-05
  -9.02000046       3.43999127E-05
  -9.01000023       8.63714231E-05
  -9.00000000       1.30061220E-04
  -8.98999977       1.61349759E-04
  -8.97999954       1.78246948E-04
  -8.97000027       1.80576099E-04
  -8.96000004       1.69321007E-04
  -8.94999981       1.45971237E-04
  -8.93999958       1.12154841E-04
  -8.93000031       6.96854913E-05
  -8.92000008       2.09406189E-05
  -8.90999985      -3.06868496E-05
  -8.89999962      -8.05870441E-05
  -8.89000034      -1.23233258E-04
  -8.88000011      -1.53045796E-04
  -8.86999989      -1.65645921E-04
  -8.85999966      -1.59133953E-04
  -8.85000038      -1.34952395E-04
  -8.84000015      -9.79794349E-05
  -8.82999992      -5.57165986E-05
  -8.81999969      -1.67167254E-05
  -8.81000042       1.13514961E-05
  -8.80000019       2.34777908E-05
  -8.78999996       1.84358396E-05
  -8.77999973      -1.03584716E-06
  -8.77000046      -2.90127591E-05
  -8.76000023      -5.78631880E-05
  -8.75000000      -7.99889676E-05
  -8.73999977      -8.93616598E-05
  -8.72999954      -8.25075986E-05
  -8.72000027      -5.88090552E-05
  -8.71000004      -2.02119463E-05
  -8.69999981       2.94170077E-05
  -8.68999958       8.50069919E-05
  -8.68000031       1.40878459E-04
  -8.67000008       1.91169544E-04
  -8.65999985       2.30183650E-04
  -8.64999962       2.52811180E-04
  -8.64000034       2.55133113E-04
  -8.63000011       2.35183034E-04
  -8.61999989       1.93686530E-04
  -8.60999966       1.34490911E-04
  -8.60000038       6.44083193E-05
  -8.59000015      -7.66678477E-06
  -8.57999992      -7.22720069E-05
  -8.56999969      -1.21190562E-04
  -8.56000042      -1.49078725E-04
  -8.55000019      -1.54427369E-04
  -8.53999996      -1.39555705E-04
  -8.52999973      -1.09634580E-04
  -8.52000046      -7.10546810E-05
  -8.51000023      -2.96768903E-05
  -8.50000000       1.04613428E-05
  -8.48999977       4.75784254E-05
  -8.47999954       8.16338143E-05
  -8.47000027       1.13136492E-04
  -8.46000004       1.41808545E-04
  -8.44999981       1.65698366E-04
  -8.43999958       1.81172276E-04
  -8.43000031       1.83873432E-04
  -8.42000008       1.70345986E-04
  -8.40999985       1.39728407E-04
  -8.39999962       9.48398447E-05
  -8.39000034       4.21572768E-05
  -8.38000011      -9.44259773E-06
  -8.36999989      -5.08565608E-05
  -8.35999966      -7.51699336E-05
  -8.35000038      -7.95147862E-05
  -8.34000015      -6.57304481E-05
  -8.32999992      -3.95800816E-05
  -8.31999969      -8.77102957E-06
  -8.31000042       1.95541797E-05
  -8.30000019       4.09992717E-05
  -8.28999996       5.50236073E-05
  -8.27999973       6.46150947E-05
  -8.27000046       7.46749793E-05
  -8.26000023       8.97263817E-05
  -8.25000000       1.11802387E-04
  -8.23999977       1.39304131E-04
  -8.22999954       1.67265491E-04
  -8.22000027       1.88944861E-04
  -8.21000004       1.98173933E-04
  -8.19999981       1.91606916E-04
  -8.18999958       1.70037718E-04
  -8.18000031       1.38282849E-04
  -8.17000008       1.03641636E-04
  -8.15999985       7.34613350E-05
  -8.14999962       5.26627082E-05
  -8.14000034       4.21023833E-05
  -8.13000011       3.83534643E-05
  -8.11999989       3.49819238E-05
  -8.10999966       2.48657998E-05
  -8.10000038       2.74025683E-06
  -8.09000015      -3.29170580E-05
  -8.07999992      -7.92966239E-05
  -8.06999969      -1.30124463E-04
  -8.06000042      -1.77623660E-04
  -8.05000019      -2.14826898E-04
  -8.03999996      -2.37397137E-04
  -8.02999973      -2.44328781E-04
  -8.02000046      -2.37346569E-04
  -8.01000023      -2.19327296E-04
  -8.00000000      -1.92446911E-04
  -7.98999977      -1.56862909E-04
  -7.98000002      -1.10532841E-04
  -7.96999979      -5.03242409E-05
  -7.96000004       2.59490589E-05
  -7.94999981       1.17326774E-04
  -7.94000006       2.18226749E-04
  -7.92999983       3.18381819E-04
  -7.92000008       4.04413062E-04
  -7.90999985       4.62697353E-04
  -7.90000010       4.82718606E-04
  -7.88999987       4.59886505E-04
  -7.88000011       3.96940188E-04
  -7.86999989       3.03481997E-04
  -7.86000013       1.93765911E-04
  -7.84999990       8.34001330E-05
  -7.84000015      -1.40623861E-05
  -7.82999992      -8.96784986E-05
  -7.82000017      -1.40161472E-04
  -7.80999994      -1.67273713E-04
  -7.80000019      -1.75942158E-04
  -7.78999996      -1.71839842E-04
  -7.78000021      -1.59275427E-04
  -7.76999998      -1.40047050E-04
  -7.76000023      -1.13528520E-04
  -7.75000000      -7.78092144E-05
  -7.73999977      -3.13604651E-05
  -7.73000002       2.54380502E-05
  -7.71999979       8.94787809E-05
  -7.71000004       1.55093803E-04
  -7.69999981       2.15128632E-04
  -7.69000006       2.62538524E-04
  -7.67999983       2.91973789E-04
  -7.67000008       3.00866755E-04
  -7.65999985       2.89738935E-04
  -7.65000010       2.61726032E-04
  -7.63999987       2.21568480E-04
  -7.63000011       1.74451357E-04
  -7.61999989       1.25067469E-04
  -7.61000013       7.71383420E-05
  -7.59999990       3.34251272E-05
  -7.59000015      -3.92606717E-06
  -7.57999992      -3.29640898E-05
  -7.57000017      -5.16924483E-05
  -7.55999994      -5.81594395E-05
  -7.55000019      -5.08772755E-05
  -7.53999996      -2.94253132E-05
  -7.53000021       4.99197222E-06
  -7.51999998       4.92607505E-05
  -7.51000023       9.84981598E-05
  -7.50000000       1.46643870E-04
  -7.48999977       1.87402286E-04
  -7.48000002       2.15340857E-04
  -7.46999979       2.26908072E-04
  -7.46000004       2.21151873E-04
  -7.44999981       1.99978633E-04
  -7.44000006       1.67883845E-04