  -16.0000000       0.00000000    
  -15.9899998       0.00000000    
  -15.9799995       0.00000000    
  -15.9700003       0.00000000    
  -15.9600000       0.00000000    
  -15.9499998       0.00000000    
  -15.9399996       0.00000000    
  -15.9300003       0.00000000    
  -15.9200001       0.00000000    
  -15.9099998       0.00000000    
  -15.8999996       0.00000000    
  -15.8900003      -2.10033268E-36
  -15.8800001      -4.41761998E-35
  -15.8699999      -4.73434115E-34
  -15.8599997      -3.43311611E-33
  -15.8500004      -1.88534821E-32
  -15.8400002      -8.30947082E-32
  -15.8299999      -3.03612841E-31
  -15.8199997      -9.35203275E-31
  -15.8100004      -2.43712385E-30
  -15.8000002      -5.30073962E-30
  -15.7900000      -9.14947777E-30
  -15.7799997      -1.03299224E-29
  -15.7700005       2.61012408E-30
  -15.7600002       5.47491628E-29
  -15.7500000       1.87893461E-28
  -15.7399998       4.52723345E-28
  -15.7299995       8.80171266E-28
  -15.7200003       1.42913294E-27
  -15.7100000       1.92653103E-27
  -15.6999998       2.03863459E-27
  -15.6899996       1.31288054E-27
  -15.6800003      -7.27693852E-28
  -15.6700001      -4.57070400E-27
  -15.6599998      -1.09871730E-26
  -15.6499996      -2.15888473E-26
  -15.6400003      -3.89193002E-26
  -15.6300001      -6.41197299E-26
  -15.6199999      -8.95148634E-26
  -15.6099997      -8.54492037E-26
  -15.6000004       1.20622264E-26
  -15.5900002       2.93572934E-25
  -15.5799999       8.17334790E-25
  -15.5699997       1.47451553E-24
  -15.5600004       1.80193383E-24
  -15.5500002       8.70836471E-25
  -15.5400000      -2.48462569E-24
  -15.5299997      -8.77486509E-24
  -15.5200005      -1.61757790E-23
  -15.5100002      -1.86020864E-23
  -15.5000000      -5.20411421E-24
  -15.4899998       3.59001668E-23
  -15.4799995       1.06851096E-22
  -15.4700003       1.82266640E-22
  -15.4600000       1.91499254E-22
  -15.4499998       1.83511766E-23
  -15.4399996      -4.55673524E-22
  -15.4300003      -1.24197887E-21
  -15.4200001      -2.07567666E-21
  -15.4099998      -2.25543779E-21
  -15.3999996      -6.46610326E-22
  -15.3900003       3.93412471E-21
  -15.3800001       1.17728254E-20
  -15.3699999       2.08083358E-20
  -15.3599997       2.52205269E-20
  -15.3500004       1.52406913E-20
  -15.3400002      -2.01554415E-20
  -15.3299999      -8.62633509E-20
  -15.3199997      -1.71587309E-19
  -15.3100004      -2.36225645E-19
  -15.3000002      -2.07645689E-19
  -15.2900000       4.71596145E-21
  -15.2799997       4.65530218E-19
  -15.2700005       1.13920948E-18
  -15.2600002       1.80398806E-18
  -15.2500000       2.00102642E-18
  -15.2399998       1.08934114E-18
  -15.2299995      -1.52159305E-18
  -15.2200003      -5.93512843E-18
  -15.2100000      -1.12069035E-17
  -15.1999998      -1.48977925E-17
  -15.1899996      -1.31315344E-17
  -15.1800003      -1.59909129E-18
  -15.1700001       2.22251354E-17
  -15.1599998       5.58887426E-17
  -15.1499996       8.88211189E-17
  -15.1400003       1.01159557E-16
  -15.1300001       6.69580537E-17
  -15.1199999      -3.62855614E-17
  -15.1099997      -2.11852469E-16
  -15.1000004      -4.25460388E-16
  -15.0900002      -5.92512517E-16
  -15.0799999      -5.82583120E-16
  -15.0699997      -2.52579481E-16
  -15.0600004       4.86621222E-16
  -15.0500002       1.57961311E-15
  -15.0400000       2.74163686E-15
  -15.0299997       3.42851959E-15
  -15.0200005       2.91825297E-15
  -15.0100002       5.44986716E-16
  -15.0000000      -3.92251683E-15
  -14.9899998      -9.84510291E-15
  -14.9799995      -1.53976546E-14
  -14.9700003      -1.76149344E-14
  -14.9600000      -1.30270542E-14
  -14.9499998       1.02137149E-15
  -14.9399996       2.45433641E-14
  -14.9300003       5.31083051E-14
  -14.9200001       7.69386928E-14
  -14.9099998       8.19123279E-14
  -14.8999996       5.32236269E-14
  -14.8900003      -1.83050037E-14
  -14.8800001      -1.28497243E-13
  -14.8699999      -2.53316926E-13
  -14.8599997      -3.47250793E-13
  -14.8500004      -3.50231806E-13
  -14.8400002      -2.05094066E-13
  -14.8299999       1.15949486E-13
  -14.8199997       5.82129126E-13
  -14.8100004       1.08329806E-12
  -14.8000002       1.43107217E-12
  -14.7900000       1.39360279E-12
  -14.7799997       7.67708271E-13
  -14.7700005      -5.21651841E-13
  -14.7600002      -2.32127186E-12
  -14.7500000      -4.18982470E-12
  -14.7399998      -5.42349238E-12
  -14.7299995      -5.20037919E-12
  -14.7200003      -2.84546388E-12
  -14.7100000       1.82975336E-12
  -14.6999998       8.21083479E-12
  -14.6899996       1.47228549E-11
  -14.6800003       1.89689115E-11
  -14.6700001       1.82501896E-11
  -14.6599998       1.04443693E-11
  -14.6499996      -4.92920201E-12
  -14.6400003      -2.57771963E-11
  -14.6300001      -4.70426233E-11
  -14.6199999      -6.12407555E-11
  -14.6099997      -6.01209152E-11
  -14.6000004      -3.73201713E-11
  -14.5900002       8.54646562E-12
  -14.5799999       7.13019851E-11
  -14.5699997       1.36266720E-10
  -14.5600004       1.81955381E-10
  -14.5500002       1.84845514E-10
  -14.5400000       1.26722882E-10
  -14.5299997       3.00808033E-12
  -14.5200005      -1.70470207E-10
  -14.5100002      -3.55172836E-10
  -14.5000000      -4.94434549E-10
  -14.4899998      -5.25824329E-10
  -14.4799995      -3.99815653E-10
  -14.4700003      -1.00644951E-10
  -14.4600000       3.36887185E-10
  -14.4499998       8.21613555E-10
  -14.4399996       1.21670729E-09
  -14.4300003       1.36866907E-09
  -14.4200001       1.15088017E-09
  -14.4099998       5.12080600E-10
  -14.3999996      -4.84367213E-10
  -14.3900003      -1.64573910E-09
  -14.3800001      -2.67154054E-09
  -14.3699999      -3.21491012E-09
  -14.3599997      -2.97557712E-09
  -14.3500004      -1.80387660E-09
  -14.3400002       2.13582138E-10
  -14.3299999       2.71782086E-09
  -14.3199997       5.11460296E-09
  -14.3100004       6.69145939E-09
  -14.3000002       6.79827039E-09
  -14.2900000       5.05168263E-09
  -14.2799997       1.50734281E-09
  -14.2700005      -3.25868532E-09
  -14.2600002      -8.20300361E-09
  -14.2500000      -1.20146835E-08
  -14.2399998      -1.34323894E-08
  -14.2299995      -1.16085124E-08
  -14.2200003      -6.42271747E-09
  -14.2100000       1.35557243E-09
  -14.1999998       1.01291162E-08
  -14.1899996       1.77786781E-08
  -14.1800003       2.21633840E-08
  -14.1700001       2.17010854E-08
  -14.1599998       1.58734181E-08
  -14.1499996       5.49997603E-09
  -14.1400003      -7.32741778E-09
  -14.1300001      -1.96733509E-08
  -14.1199999      -2.84689143E-08
  -14.1099997      -3.13283479E-08
  -14.1000004      -2.72454077E-08
  -14.0900002      -1.69537504E-08
  -14.0799999      -2.81433254E-09
  -14.0699997       1.17768089E-08
  -14.0600004       2.33199291E-08
  -14.0500002       2.92220026E-08
  -14.0400000       2.85755881E-08
  -14.0299997       2.24388312E-08
  -14.0200005       1.34838976E-08
  -14.0100002       5.07530817E-09
  -14.0000000       3.73289663E-11
  -13.9899998      -4.93151575E-10
  -13.9799995       2.29162422E-09
  -13.9700003       5.03981612E-09
  -13.9600000       3.29298033E-09
  -13.9499998      -6.79946499E-09
  -13.9399996      -2.65939626E-08
  -13.9300003      -5.35339808E-08
  -13.9200001      -8.08021241E-08
  -13.9099998      -9.84076252E-08
  -13.8999996      -9.56743165E-08
  -13.8900003      -6.46342784E-08
  -13.8800001      -3.44567441E-09
  -13.8699999       8.12299419E-08
  -13.8599997       1.73846487E-07
  -13.8500004       2.52129553E-07
  -13.8400002       2.91666595E-07
  -13.8299999       2.72105325E-07
  -13.8199997       1.83532975E-07
  -13.8100004       3.13130002E-08
  -13.8000002      -1.62203378E-07
  -13.7900000      -3.60079810E-07
  -13.7799997      -5.17351964E-07
  -13.7700005      -5.90691286E-07
  -13.7600002      -5.49168760E-07
  -13.7500000      -3.83556227E-07
  -13.7399998      -1.11643743E-07
  -13.7299995       2.22258521E-07
  -13.7200003       5.54227427E-07
  -13.7100000       8.13109580E-07
  -13.6999998       9.35991125E-07
  -13.6899996       8.83357018E-07
  -13.6800003       6.50272682E-07
  -13.6700001       2.70537271E-07
  -13.6599998      -1.87813953E-07
  -13.6499996      -6.35323204E-07
  -13.6400003      -9.79850938E-07
  -13.6300001      -1.14721126E-06
  -13.6199999      -1.09888629E-06
  -13.6099997      -8.42338807E-07
  -13.6000004      -4.30934165E-07
  -13.5900002       4.71661572E-08
  -13.5799999       4.89065258E-07
  -13.5699997       8.01662793E-07
  -13.5600004       9.24714300E-07
  -13.5500002       8.46415958E-07
  -13.5400000       6.07007564E-07
  -13.5299997       2.88683054E-07
  -13.5200005      -6.40648068E-09
  -13.5100002      -1.84939921E-07
  -13.5000000      -1.90615310E-07
  -13.4899998      -2.38502480E-08
  -13.4799995       2.53309878E-07
  -13.4700003       5.29924137E-07
  -13.4600000       6.74791522E-07
  -13.4499998       5.74664568E-07
  -13.4399996       1.72368473E-07
  -13.4300003      -5.05902847E-07
  -13.4200001      -1.34309164E-06
  -13.4099998      -2.14816396E-06
  -13.3999996      -2.69584416E-06
  -13.3900003      -2.78131984E-06
  -13.3800001      -2.27712508E-06
  -13.3699999      -1.17744628E-06
  -13.3599997       3.83134903E-07
  -13.3500004       2.14404622E-06
  -13.3400002       3.76593835E-06
  -13.3299999       4.90181947E-06
  -13.3199997       5.27627253E-06
  -13.3100004       4.75355137E-06
  -13.3000002       3.37678125E-06
  -13.2900000       1.36667484E-06
  -13.2799997      -9.22146739E-07
  -13.2700005      -3.07828827E-06
  -13.2600002      -4.72606916E-06
  -13.2500000      -5.61030538E-06
  -13.2399998      -5.65123355E-06
  -13.2299995      -4.95434506E-06
  -13.2200003      -3.77134438E-06
  -13.2100000      -2.42165993E-06
  -13.1999998      -1.19536776E-06
  -13.1899996      -2.64876007E-07
  -13.1800003       3.68013872E-07
  -13.1700001       8.71260966E-07
  -13.1599998       1.52365101E-06
  -13.1499996       2.61005539E-06
  -13.1400003       4.29789361E-06
  -13.1300001       6.53044935E-06
  -13.1199999       8.97228711E-06
  -13.1099997       1.10317751E-05
  -13.1000004       1.19674141E-05
  -13.0900002       1.10622796E-05
  -13.0799999       7.83016276E-06
  -13.0699997       2.20326115E-06
  -13.0600004      -5.35079971E-06
  -13.0500002      -1.38236919E-05
  -13.0400000      -2.17910292E-05
  -13.0299997      -2.76550109E-05
  -13.0200005      -2.99627809E-05
  -13.0100002      -2.77351755E-05
  -13.0000000      -2.07311987E-05
  -12.9899998      -9.58143391E-06
  -12.9799995       4.25176495E-06
  -12.9700003       1.86927537E-05
  -12.9600000       3.14144636E-05
  -12.9499998       4.02731057E-05
  -12.9399996       4.37244598E-05
  -12.9300003       4.11300243E-05
  -12.9200001       3.28826573E-05
  -12.9099998       2.03204363E-05
  -12.8999996       5.44524664E-06
  -12.8900003      -9.49105743E-06
  -12.8800001      -2.24381038E-05
  -12.8699999      -3.19309402E-05
  -12.8599997      -3.73168186E-05
  -12.8500004      -3.87734399E-05
  -12.8400002      -3.71195711E-05
  -12.8299999      -3.34727192E-05
  -12.8199997      -2.88497486E-05
  -12.8100004      -2.38242101E-05
  -12.8000002      -1.83424709E-05
  -12.7900000      -1.17613081E-05
  -12.7799997      -3.11082226E-06
  -12.7700005       8.47704996E-06
  -12.7600002       2.32864968E-05
  -12.7500000       4.06209219E-05
  -12.7399998       5.86216483E-05
  -12.7299995       7.43894198E-05
  -12.7200003       8.44258102E-05
  -12.7100000       8.53300808E-05
  -12.6999998       7.46141523E-05
  -12.6899996       5.14524218E-05
  -12.6800003       1.71781885E-05
  -12.6700001      -2.46215586E-05
  -12.6599998      -6.84822953E-05
  -12.6499996      -1.07876389E-04
  -12.6400003      -1.36330898E-04
  -12.6300001      -1.48635401E-04
  -12.6199999      -1.41891200E-04
  -12.6099997      -1.16172458E-04
  -12.6000004      -7.46416263E-05
  -12.5900002      -2.30719579E-05
  -12.5799999       3.11438562E-05
  -12.5699997       8.03068106E-05
  -12.5600004       1.17780735E-04
  -12.5500002       1.39135154E-04
  -12.5400000       1.42825986E-04
  -12.5299997       1.30278611E-04
  -12.5200005       1.05370069E-04
  -12.5100002       7.34413479E-05
  -12.5000000       4.00746321E-05
  -12.4899998       9.92144851E-06
  -12.4799995      -1.41502287E-05
  -12.4700003      -3.14023018E-05
  -12.4600000      -4.30046857E-05
  -12.4499998      -5.13247942E-05
  -12.4399996      -5.89298870E-05
  -12.4300003      -6.75760821E-05
  -12.4200001      -7.74622895E-05
  -12.4099998      -8.69610667E-05
  -12.3999996      -9.29171947E-05
  -12.3900003      -9.14576085E-05
  -12.3800001      -7.91191487E-05
  -12.3699999      -5.40093060E-05
  -12.3599997      -1.66926347E-05
  -12.3500004       2.94502715E-05
  -12.3400002       7.85238080E-05
  -12.3299999       1.23053862E-04
  -12.3199997       1.55377886E-04
  -12.3100004       1.69188672E-04
  -12.3000002       1.60883123E-04
  -12.2900000       1.30401284E-04
  -12.2799997       8.13509469E-05
  -12.2700005       2.03749678E-05
  -12.2600002      -4.41073171E-05
  -12.2500000      -1.03506994E-04
  -12.2399998      -1.50662119E-04
  -12.2299995      -1.81067589E-04
  -12.2200003      -1.93470492E-04
  -12.2100000      -1.89714716E-04
  -12.1999998      -1.73898297E-04
  -12.1899996      -1.51071756E-04
  -12.1800003      -1.25814011E-04
  -12.1700001      -1.01049736E-04
  -12.1599998      -7.74083819E-05
  -12.1499996      -5.32885206E-05
  -12.1400003      -2.56110161E-05
  -12.1300001       8.93211018E-06
  -12.1199999       5.24586976E-05
  -12.1099997       1.04686434E-04
  -12.1000004       1.62271521E-04
  -12.0900002       2.18911824E-04
  -12.0799999       2.66249321E-04
  -12.0699997       2.95412348E-04
  -12.0600004       2.98875617E-04
  -12.0500002       2.72225618E-04
  -12.0400000       2.15423264E-04
  -12.0299997       1.33253590E-04
  -12.0200005       3.48255489E-05
  -12.0100002      -6.78083234E-05
  -12.0000000      -1.61648437E-04
  -11.9899998      -2.34959676E-04
  -11.9799995      -2.79247382E-04
  -11.9700003      -2.90597643E-04
  -11.9600000      -2.70119897E-04
  -11.9499998      -2.23423442E-04
  -11.9399996      -1.59267234E-04
  -11.9300003      -8.76938429E-05
  -11.9200001      -1.80613042E-05
  -11.9099998       4.26054612E-05
  -11.8999996       9.06065834E-05
  -11.8900003       1.25722217E-04
  -11.8800001       1.50543463E-04
  -11.8699999       1.69178282E-04
  -11.8599997       1.85668076E-04
  -11.8500004       2.02509953E-04
  -11.8400002       2.19648151E-04
  -11.8299999       2.34185107E-04
  -11.8199997       2.40893933E-04
  -11.8100004       2.33427738E-04
  -11.8000002       2.05958553E-04
  -11.7900000       1.54875088E-04
  -11.7799997       8.01474671E-05
  -11.7700005      -1.39687781E-05
  -11.7600002      -1.19081429E-04
  -11.7500000      -2.23676499E-04
  -11.7399998      -3.14831181E-04
  -11.7299995      -3.80309968E-04
  -11.7200003      -4.10647277E-04
  -11.7100000      -4.00820369E-04
  -11.6999998      -3.51195427E-04
  -11.6899996      -2.67572032E-04
  -11.6800003      -1.60323078E-04
  -11.6700001      -4.27959421E-05
  -11.6599998       7.07297149E-05
  -11.6499996       1.67164180E-04
  -11.6400003       2.36449254E-04
  -11.6300001       2.72827892E-04
  -11.6199999       2.75367376E-04
  -11.6099997       2.47700082E-04
  -11.6000004       1.97080240E-04
  -11.5900002       1.32957575E-04
  -11.5799999       6.53313546E-05
  -11.5699997       3.16031446E-06
  -11.5600004      -4.69276492E-05
  -11.5500002      -8.14459418E-05
  -11.5400000      -1.00283782E-04
  -11.5299997      -1.06358573E-04
  -11.5200005      -1.04764251E-04
  -11.5100002      -1.01564830E-04
  -11.5000000      -1.02433783E-04
  -11.4899998      -1.11366040E-04
  -11.4799995      -1.29687047E-04
  -11.4700003      -1.55548885E-04
  -11.4600000      -1.84036515E-04
  -11.4499998      -2.07912497E-04
  -11.4399996      -2.18916903E-04
  -11.4300003      -2.09427119E-04
  -11.4200001      -1.74191387E-04
  -11.4099998      -1.11802838E-04
  -11.3999996      -2.55936120E-05
  -11.3900003       7.62921918E-05
  -11.3800001       1.81749172E-04
  -11.3699999       2.76411563E-04
  -11.3599997       3.45952692E-04
  -11.3500004       3.78586788E-04
  -11.3400002       3.67304223E-04
  -11.3299999       3.11388925E-04
  -11.3199997       2.16883098E-04
  -11.3100004       9.58545861E-05
  -11.3000002      -3.54430958E-05
  -11.2900000      -1.59204210E-04
  -11.2799997      -2.59015011E-04
  -11.2700005      -3.22553125E-04
  -11.2600002      -3.43528838E-04
  -11.2500000      -3.22502689E-04
  -11.2399998      -2.66440562E-04
  -11.2299995      -1.87122219E-04
  -11.2200003      -9.87476451E-05
  -11.2100000      -1.52382127E-05
  -11.1999998       5.22244991E-05
  -11.1899996       9.69502726E-05
  -11.1800003       1.17476717E-04
  -11.1700001       1.17209987E-04
  -11.1599998       1.03119841E-04
  -11.1499996       8.38249325E-05
  -11.1400003       6.75084302E-05
  -11.1300001       6.01074280E-05
  -11.1199999       6.41301449E-05
  -11.1099997       7.82978386E-05
  -11.1000004       9.80250552E-05
  -11.0900002       1.16582582E-04
  -11.0799999       1.26667248E-04
  -11.0699997       1.22050034E-04
  -11.0600004       9.89896653E-05
  -11.0500002       5.71694036E-05
  -11.0400000       1.64472631E-08
  -11.0299997      -6.56276825E-05
  -11.0200005      -1.30421002E-04
  -11.0100002      -1.83880897E-04
  -11.0000000      -2.16002314E-04
  -10.9899998      -2.18918285E-04
  -10.9799995      -1.88374717E-04
  -10.9700003      -1.24795959E-04
  -10.9600000      -3.37420133E-05
  -10.9499998       7.43877754E-05
  -10.9399996       1.85461919E-04
  -10.9300003       2.83470261E-04
  -10.9200001       3.52917326E-04
  -10.9099998       3.81412974E-04
  -10.8999996       3.62019491E-04
  -10.8900003       2.94891215E-04
  -10.8800001       1.87811485E-04
  -10.8699999       5.54012477E-05
  -10.8599997      -8.29841738E-05
  -10.8500004      -2.06383003E-04
  -10.8400002      -2.95851525E-04
  -10.8299999      -3.37908510E-04
  -10.8199997      -3.27109330E-04
  -10.8100004      -2.67194060E-04
  -10.8000002      -1.70519401E-04
  -10.7900000      -5.58264146E-05
  -10.7799997       5.52584315E-05
  -10.7700005       1.42318269E-04
  -10.7600002       1.90030216E-04
  -10.7500000       1.91063737E-04
  -10.7399998       1.47412313E-04
  -10.7299995       6.98942385E-05
  -10.7200003      -2.40719637E-05
  -10.7100000      -1.13967733E-04
  -10.6999998      -1.80252260E-04
  -10.6899996      -2.08216166E-04
  -10.6800003      -1.90866820E-04
  -10.6700001      -1.30302651E-04
  -10.6599998      -3.73336588E-05
  -10.6499996       7.05576240E-05
  -10.6400003       1.72512358E-04
  -10.6300001       2.48222874E-04
  -10.6199999       2.81762710E-04
  -10.6099997       2.64622067E-04
  -10.6000004       1.97405781E-04
  -10.5900002       8.98956278E-05
  -10.5799999      -4.05300452E-05
  -10.5699997      -1.71839682E-04
  -10.5600004      -2.81140354E-04
  -10.5500002      -3.48658446E-04
  -10.5400000      -3.61217069E-04
  -10.5299997      -3.14603210E-04
  -10.5200005      -2.14406056E-04
  -10.5100002      -7.51708576E-05
  -10.5000000       8.19967099E-05
  -10.4899998       2.32966166E-04
  -10.4799995       3.54644144E-04
  -10.4700003       4.28848114E-04
  -10.4600000       4.45303565E-04
  -10.4499998       4.03229584E-04
  -10.4399996       3.11233744E-04
  -10.4300003       1.85549579E-04
  -10.4200001       4.69642691E-05
  -10.4099998      -8.29658748E-05
  -10.3999996      -1.85677854E-04
  -10.3900003      -2.48619879E-04
  -10.3800001      -2.66962277E-04
  -10.3699999      -2.43720569E-04
  -10.3599997      -1.88351289E-04
  -10.3500004      -1.14209724E-04
  -10.3400002      -3.54965305E-05
  -10.3299999       3.55906377E-05
  -10.3199997       9.08678267E-05
  -10.3100004       1.26944069E-04
  -10.3000002       1.44710779E-04
  -10.2900000       1.47826780E-04
  -10.2799997       1.40745833E-04
  -10.2700005       1.26937273E-04
  -10.2600002       1.07863212E-04
  -10.2500000       8.30200879E-05
  -10.2399998       5.09973506E-05
  -10.2299995       1.11566069E-05
  -10.2200003      -3.47011191E-05
  -10.2100000      -8.13553634E-05
  -10.1999998      -1.20373064E-04
  -10.1899996      -1.41649041E-04
  -10.1800003      -1.35994313E-04
  -10.1700001      -9.81049452E-05
  -10.1599998      -2.90358475E-05
  -10.1499996       6.26529654E-05
  -10.1400003       1.61608783E-04
  -10.1300001       2.48302356E-04
  -10.1199999       3.03054578E-04
  -10.1099997       3.10545263E-04
  -10.1000004       2.63677241E-04
  -10.0900002       1.65777106E-04
  -10.0799999       3.05058293E-05
  -10.0699997      -1.20571203E-04
  -10.0600004      -2.62206479E-04
  -10.0500002      -3.70484398E-04
  -10.0400000      -4.27445280E-04
  -10.0299997      -4.24275233E-04
  -10.0200005      -3.62427410E-04
  -10.0100002      -2.52596830E-04
  -10.0000000      -1.12006128E-04
  -9.98999977       3.91731446E-05
  -9.97999954       1.81340860E-04
  -9.97000027       2.98178202E-04
  -9.96000004       3.78161378E-04
  -9.94999981       4.14917362E-04
  -9.93999958       4.06796753E-04
  -9.93000031       3.56180826E-04
  -9.92000008       2.68955831E-04
  -9.90999985       1.54325448E-04
  -9.89999962       2.48086599E-05
  -9.89000034      -1.03979117E-04
  -9.88000011      -2.14229192E-04
  -9.86999989      -2.87832343E-04
  -9.85999966      -3.09218303E-04
  -9.85000038      -2.68681062E-04
  -9.84000015      -1.65389283E-04
  -9.82999992      -9.15699093E-06
  -9.81999969       1.79788913E-04
  -9.81000042       3.73375835E-04
  -9.80000019       5.40326233E-04
  -9.78999996       6.52020972E-04
  -9.77999973       6.88324915E-04
  -9.77000046       6.42015075E-04
  -9.76000023       5.20706351E-04
  -9.75000000       3.45723500E-04
  -9.73999977       1.48082414E-04
  -9.72999954      -3.75750387E-05
  -9.72000027      -1.79767594E-04
  -9.71000004      -2.56205822E-04
  -9.69999981      -2.57793727E-04
  -9.68999958      -1.89823695E-04
  -9.68000031      -7.02409889E-05
  -9.67000008       7.45001962E-05
  -9.65999985       2.14984088E-04
  -9.64999962       3.24556866E-04
  -9.64000034       3.84066196E-04
  -9.63000011       3.84767802E-04
  -9.61999989       3.29007540E-04
  -9.60999966       2.28774588E-04
  -9.60000038       1.02629332E-04
  -9.59000015      -2.82367673E-05
  -9.57999992      -1.43979370E-04
  -9.56999969      -2.29384881E-04
  -9.56000042      -2.75947910E-04
  -9.55000019      -2.82514724E-04
  -9.53999996      -2.54551909E-04
  -9.52999973      -2.02338444E-04
  -9.52000046      -1.38536619E-04
  -9.51000023      -7.56566733E-05
  -9.50000000      -2.38903576E-05
  -9.48999977       1.03324028E-05
  -9.47999954       2.48861888E-05
  -9.47000027       2.16097214E-05
  -9.46000004       5.27409611E-06
  -9.44999981      -1.78306127E-05
  -9.43999958      -4.13409034E-05
  -9.43000031      -5.99922823E-05
  -9.42000008      -7.03225960E-05
  -9.40999985      -7.08527368E-05
  -9.39999962      -6.18253252E-05
  -9.39000034      -4.46714876E-05
  -9.38000011      -2.14019528E-05
  -9.36999989       5.91740809E-06
  -9.35999966       3.55189804E-05
  -9.35000038       6.61082522E-05
  -9.34000015       9.69058310E-05
  -9.32999992       1.27611944E-04
  -9.31999969       1.58322335E-04
  -9.31000042       1.89385086E-04
  -9.30000019       2.21165596E-04
  -9.28999996       2.53705046E-04
  -9.27999973       2.86317896E-04
  -9.27000046       3.17253289E-04
  -9.26000023       3.43598716E-04
  -9.25000000       3.61596554E-04
  -9.23999977       3.67445813E-04
  -9.22999954       3.58490681E-04
  -9.22000027       3.34504701E-04
  -9.21000004       2.98638741E-04
  -9.19999981       2.57586915E-04
  -9.18999958       2.20678732E-04
  -9.18000031       1.97906571E-04
  -9.17000008       1.97270740E-04
  -9.15999985       2.22145187E-04
  -9.14999962       2.69508775E-04
  -9.14000034       3.29767558E-04
  -9.13000011       3.88503220E-04
  -9.11999989       4.29917942E-04
  -9.10999966       4.41166223E-04
  -9.10000038       4.16367926E-04
  -9.09000015       3.59038939E-04
  -9.07999992       2.82017281E-04
  -9.06999969       2.04641081E-04
  -9.06000042       1.47757819E-04
  -9.05000019       1.27866660E-04
  -9.03999996       1.52069450E-04
  -9.02999973       2.15385124E-04
  -9.02000046       3.01369641E-04
  -9.01000023       3.86039843E-04
  -9.00000000       4.44107369E-04
  -8.98999977       4.55798960E-04
  -8.97999954       4.12310852E-04
  -8.97000027       3.18312203E-04
  -8.96000004       1.90769555E-04
  -8.94999981       5.44548166E-05
  -8.93999958      -6.45204782E-05
  -8.93000031      -1.45243714E-04
  -8.92000008      -1.76750866E-04
  -8.90999985      -1.59743489E-04
  -8.89999962      -1.05017032E-04
  -8.89000034      -2.93721314E-05
  -8.88000011       4.94919841E-05
  -8.86999989       1.17407522E-04
  -8.85999966       1.66182654E-04
  -8.85000038       1.93561660E-04
  -8.84000015       2.01138027E-04
  -8.82999992       1.91380561E-04
  -8.81999969       1.65184625E-04
  -8.81000042       1.21060111E-04
  -8.80000019       5.63362555E-05
  -8.78999996      -3.01190830E-05
  -8.77999973      -1.34862756E-04
  -8.77000046      -2.47955031E-04
  -8.76000023      -3.53259471E-04
  -8.75000000      -4.31288558E-04
  -8.73999977      -4.63960314E-04
  -8.72999954      -4.39848809E-04
  -8.72000027      -3.58201039E-04
  -8.71000004      -2.30287231E-04
  -8.69999981      -7.74621512E-05
  -8.68999958       7.36280708E-05
  -8.68000031       1.97328220E-04
  -8.67000008       2.74899445E-04
  -8.65999985       2.98379484E-04
  -8.64999962       2.71372352E-04
  -8.64000034       2.06779878E-04
  -8.63000011       1.22453319E-04
  -8.61999989       3.63235449E-05
  -8.60999966      -3.74307383E-05
  -8.60000038      -9.01661915E-05
  -8.59000015      -1.18368371E-04
  -8.57999992      -1.21762285E-04
  -8.56999969      -1.01144789E-04
  -8.56000042      -5.71089877E-05
  -8.55000019       9.70599103E-06
  -8.53999996       9.70113397E-05
  -8.52999973       1.98819616E-04
  -8.52000046       3.04205023E-04
  -8.51000023       3.97920958E-04
  -8.50000000       4.63221077E-04
  -8.48999977       4.86292643E-04
  -8.47999954       4.60915151E-04
  -8.47000027       3.91634589E-04
  -8.46000004       2.94063764E-04
  -8.44999981       1.91808489E-04
  -8.43999958       1.10673878E-04
  -8.43000031       7.18069132E-05
  -8.42000008       8.59029751E-05
  -8.40999985       1.50343127E-04
  -8.39999962       2.50204699E-04
  -8.39000034       3.62810941E-04
  -8.38000011       4.64311335E-04
  -8.36999989       5.36135281E-04
  -8.35999966       5.69265743E-04
  -8.35000038       5.65109891E-04
  -8.34000015       5.32983278E-04
  -8.32999992       4.85417404E-04
  -8.31999969       4.33213485E-04
  -8.31000042       3.82136233E-04
  -8.30000019       3.32392665E-04
  -8.28999996       2.80877604E-04
  -8.27999973       2.25035357E-04
  -8.27000046       1.66532511E-04
  -8.26000023       1.13007489E-04
  -8.25000000       7.69429462E-05
  -8.23999977       7.18828742E-05
  -8.22999954       1.07331674E-04
  -8.22000027       1.84288641E-04
  -8.21000004       2.93233199E-04
  -8.19999981       4.15525079E-04
  -8.18999958       5.27937547E-04
  -8.18000031       6.08871749E-04
  -8.17000008       6.44160435E-04
  -8.15999985       6.30502007E-04
  -8.14999962       5.75424870E-04
  -8.14000034       4.93950327E-04
  -8.13000011       4.03293496E-04
  -8.11999989       3.17597354E-04
  -8.10999966       2.44569470E-04
  -8.10000038       1.85059558E-04
  -8.09000015       1.35412265E-04
  -8.07999992       9.13324038E-05
  -8.06999969       5.14480344E-05
  -8.06000042       1.89615839E-05
  -8.05000019       6.52131121E-07
  -8.03999996       3.66620407E-06
  -8.02999973       3.15289035E-05
  -8.02000046       8.12055659E-05
  -8.01000023       1.42664328E-04
  -8.00000000       2.01382471E-04
  -7.98999977       2.43003407E-04
  -7.98000002       2.58389948E-04
  -7.96999979       2.47053016E-04
  -7.96000004       2.17486886E-04
  -7.94999981       1.84121178E-04
  -7.94000006       1.61946708E-04
  -7.92999983       1.60846233E-04
  -7.92000008       1.81846466E-04
  -7.90999985       2.16815242E-04
  -7.90000010       2.51793332E-04
  -7.88999987       2.72699428E-04
  -7.88000011       2.71166646E-04
  -7.86999989       2.48153636E-04
  -7.86000013       2.13808846E-04
  -7.84999990       1.83552096E-04
  -7.84000015       1.71875712E-04
  -7.82999992       1.86352903E-04
  -7.82000017       2.24347415E-04
  -7.80999994       2.73910351E-04
  -7.80000019       3.18692066E-04
  -7.78999996       3.45033972E-04
  -7.78000021       3.48409347E-04
  -7.76999998       3.36480676E-04
  -7.76000023       3.27247923E-04
  -7.75000000       3.42648826E-04
  -7.73999977       3.99812765E-04
  -7.73000002       5.03245450E-04
  -7.71999979       6.41069841E-04
  -7.71000004       7.87068682E-04
  -7.69999981       9.08167625E-04
  -7.69000006       9.74928495E-04
  -7.67999983       9.71398607E-04
  -7.67000008       9.00771469E-04
  -7.65999985       7.84746953E-04
  -7.65000010       6.56733289E-04
  -7.63999987       5.51261357E-04
  -7.63000011       4.93357133E-04
  -7.61999989       4.91601822E-04
  -7.61000013       5.37211366E-04
  -7.59999990       6.09203707E-04
  -7.59000015       6.83461200E-04
  -7.57999992       7.42094126E-04
  -7.57000017       7.79494178E-04
  -7.55999994       8.02855706E-04
  -7.55000019       8.27164098E-04
  -7.53999996       8.66859278E-04
  -7.53000021       9.27706133E-04
  -7.51999998       1.00232312E-03
  -7.51000023       1.07136625E-03
  -7.50000000       1.11010030E-03
  -7.48999977       1.09791243E-03
  -7.48000002       1.02707965E-03
  -7.46999979       9.07296257E-04
  -7.46000004       7.64035212E-04
  -7.44999981       6.31144678E-04
  -7.44000006       5.40288631E-04