  -16.0000000       0.00000000    
  -15.9899998       0.00000000    
  -15.9799995       0.00000000    
  -15.9700003       0.00000000    
  -15.9600000       0.00000000    
  -15.9499998       0.00000000    
  -15.9399996       0.00000000    
  -15.9300003       0.00000000    
  -15.9200001       0.00000000    
  -15.9099998       0.00000000    
  -15.8999996      -4.03100117E-37
  -15.8900003      -1.18046477E-36
  -15.8800001       3.74328829E-35
  -15.8699999       4.94029878E-34
  -15.8599997       3.52532005E-33
  -15.8500004       1.88664786E-32
  -15.8400002       8.57198575E-32
  -15.8299999       3.48455670E-31
  -15.8199997       1.28042876E-30
  -15.8100004       4.21545891E-30
  -15.8000002       1.22823075E-29
  -15.7900000       3.13260450E-29
  -15.7799997       6.90809525E-29
  -15.7700005       1.28851394E-28
  -15.7600002       1.92603045E-28
  -15.7500000       1.90414527E-28
  -15.7399998      -3.84799599E-29
  -15.7299995      -7.72747805E-28
  -15.7200003      -2.38407170E-27
  -15.7100000      -5.19654572E-27
  -15.6999998      -9.13483287E-27
  -15.6899996      -1.30353071E-26
  -15.6800003      -1.35492500E-26
  -15.6700001      -3.94028781E-27
  -15.6599998       2.58971603E-26
  -15.6499996       8.51702859E-26
  -15.6400003       1.69419762E-25
  -15.6300001       2.37441734E-25
  -15.6199999       1.86809029E-25
  -15.6099997      -1.42145919E-25
  -15.6000004      -8.81669405E-25
  -15.5900002      -1.92306224E-24
  -15.5799999      -2.60041154E-24
  -15.5699997      -1.47356121E-24
  -15.5600004       3.35195361E-24
  -15.5500002       1.28175611E-23
  -15.5400000       2.42083599E-23
  -15.5299997       2.80704005E-23
  -15.5200005       7.52814695E-24
  -15.5100002      -5.55279381E-23
  -15.5000000      -1.63430459E-22
  -15.4899998      -2.76273453E-22
  -15.4799995      -2.88814019E-22
  -15.4700003      -3.81296928E-23
  -15.4600000       6.22746135E-22
  -15.4499998       1.66502248E-21
  -15.4399996       2.67097731E-21
  -15.4300003       2.69026560E-21
  -15.4200001       3.80830061E-22
  -15.4099998      -5.33363636E-21
  -15.3999996      -1.40187937E-20
  -15.3900003      -2.22339412E-20
  -15.3800001      -2.27172198E-20
  -15.3699999      -5.69119043E-21
  -15.3599997       3.63497864E-20
  -15.3500004       1.00234464E-19
  -15.3400002       1.62583694E-19
  -15.3299999       1.75124204E-19
  -15.3199997       7.34122471E-20
  -15.3100004      -1.93538472E-19
  -15.3000002      -6.12765265E-19
  -15.2900000      -1.05087507E-18
  -15.2799997      -1.22504828E-18
  -15.2700005      -7.48007744E-19
  -15.2600002       7.13152059E-19
  -15.2500000       3.16373113E-18
  -15.2399998       5.96825536E-18
  -15.2299995       7.66448350E-18
  -15.2200003       6.13725911E-18
  -15.2100000      -6.41393676E-19
  -15.1999998      -1.32775177E-17
  -15.1899996      -2.93409401E-17
  -15.1800003      -4.22184944E-17
  -15.1700001      -4.15103352E-17
  -15.1599998      -1.59922980E-17
  -15.1499996       4.05307846E-17
  -15.1400003       1.21582368E-16
  -15.1300001       2.01560953E-16
  -15.1199999       2.35043067E-16
  -15.1099997       1.66596915E-16
  -15.1000004      -4.64640188E-17
  -15.0900002      -4.01297423E-16
  -15.0799999      -8.17168101E-16
  -15.0699997      -1.12112677E-15
  -15.0600004      -1.07207054E-15
  -15.0500002      -4.37335975E-16
  -15.0400000       8.81774533E-16
  -15.0299997       2.70676980E-15
  -15.0200005       4.48198124E-15
  -15.0100002       5.29664398E-15
  -15.0000000       4.09754518E-15
  -14.9899998       1.09817974E-16
  -14.9799995      -6.60768115E-15
  -14.9700003      -1.46568701E-14
  -14.9600000      -2.11178053E-14
  -14.9499998      -2.19722566E-14
  -14.9399996      -1.32986417E-14
  -14.9300003       6.86087666E-15
  -14.9200001       3.64296978E-14
  -14.9099998       6.78522519E-14
  -14.8999996       8.82874841E-14
  -14.8900003       8.22749055E-14
  -14.8800001       3.70585317E-14
  -14.8699999      -5.03257273E-14
  -14.8599997      -1.66347933E-13
  -14.8500004      -2.77780972E-13
  -14.8400002      -3.35217693E-13
  -14.8299999      -2.85300619E-13
  -14.8199997      -9.09601577E-14
  -14.8100004       2.44774768E-13
  -14.8000002       6.59513568E-13
  -14.7900000       1.02697831E-12
  -14.7799997       1.17623532E-12
  -14.7700005       9.38283630E-13
  -14.7600002       2.14200809E-13
  -14.7500000      -9.52290222E-13
  -14.7399998      -2.32454160E-12
  -14.7299995      -3.47488661E-12
  -14.7200003      -3.86140816E-12
  -14.7100000      -2.98303071E-12
  -14.6999998      -5.87627223E-13
  -14.6899996       3.12324797E-12
  -14.6800003       7.37178027E-12
  -14.6700001       1.08438623E-11
  -14.6599998       1.19439510E-11
  -14.6499996       9.25837965E-12
  -14.6400003       2.14123901E-12
  -14.6300001      -8.74151619E-12
  -14.6199999      -2.11223625E-11
  -14.6099997      -3.12987136E-11
  -14.6000004      -3.48699090E-11
  -14.5900002      -2.79985809E-11
  -14.5799999      -8.94868988E-12
  -14.5699997       2.05333302E-11
  -14.5600004       5.45269038E-11
  -14.5500002       8.34158090E-11
  -14.5400000       9.57823543E-11
  -14.5299997       8.15649423E-11
  -14.5200005       3.58500070E-11
  -14.5100002      -3.77503862E-11
  -14.5000000      -1.25385646E-10
  -14.4899998      -2.04019066E-10
  -14.4799995      -2.45786086E-10
  -14.4700003      -2.25291105E-10
  -14.4600000      -1.28414682E-10
  -14.4499998       3.97110435E-11
  -14.4399996       2.50329063E-10
  -14.4300003       4.52725912E-10
  -14.4200001       5.83185278E-10
  -14.4099998       5.80549719E-10
  -14.3999996       4.05480066E-10
  -14.3900003       5.85647572E-11
  -14.3800001      -4.08528017E-10
  -14.3699999      -8.94096575E-10
  -14.3599997      -1.26259181E-09
  -14.3500004      -1.37511047E-09
  -14.3400002      -1.12889476E-09
  -14.3299999      -4.96544639E-10
  -14.3199997       4.46562648E-10
  -14.3100004       1.51751645E-09
  -14.3000002       2.45068099E-09
  -14.2900000       2.95207880E-09
  -14.2799997       2.77488166E-09
  -14.2700005       1.79957205E-09
  -14.2600002       9.72783173E-11
  -14.2500000      -2.04527262E-09
  -14.2399998      -4.15474499E-09
  -14.2299995      -5.65800962E-09
  -14.2200003      -6.01544903E-09
  -14.2100000      -4.87414242E-09
  -14.1999998      -2.20327734E-09
  -14.1899996       1.62877778E-09
  -14.1800003       5.86867799E-09
  -14.1700001       9.49832302E-09
  -14.1599998       1.14500658E-08
  -14.1499996       1.08780354E-08
  -14.1400003       7.42409334E-09
  -14.1300001       1.40654133E-09
  -14.1199999      -6.13318463E-09
  -14.1099997      -1.35648479E-08
  -14.1000004      -1.89827709E-08
  -14.0900002      -2.06483310E-08
  -14.0799999      -1.74684782E-08
  -14.0699997      -9.39115985E-09
  -14.0600004       2.40043230E-09
  -14.0500002       1.55801878E-08
  -14.0400000       2.70824962E-08
  -14.0299997       3.37635981E-08
  -14.0200005       3.31912098E-08
  -14.0100002       2.43778615E-08
  -14.0000000       8.25854141E-09
  -13.9899998      -1.22515305E-08
  -13.9799995      -3.26989138E-08
  -13.9700003      -4.79953606E-08
  -13.9600000      -5.36178142E-08
  -13.9499998      -4.68381707E-08
  -13.9399996      -2.76689729E-08
  -13.9300003       7.60188246E-10
  -13.9200001       3.25729381E-08
  -13.9099998       6.02708496E-08
  -13.8999996       7.64249037E-08
  -13.8900003       7.55728564E-08
  -13.8800001       5.58597399E-08
  -13.8699999       1.99644870E-08
  -13.8599997      -2.50182079E-08
  -13.8500004      -6.88423611E-08
  -13.8400002      -1.00338220E-07
  -13.8299999      -1.10146537E-07
  -13.8199997      -9.33161246E-08
  -13.8100004      -5.10788176E-08
  -13.8000002       8.75219452E-09
  -13.7900000       7.30229530E-08
  -13.7799997       1.25986460E-07
  -13.7700005       1.53020537E-07
  -13.7600002       1.44467634E-07
  -13.7500000       9.86231754E-08
  -13.7399998       2.30126300E-08
  -13.7299995      -6.65522748E-08
  -13.7200003      -1.49127999E-07
  -13.7100000      -2.03421934E-07
  -13.6999998      -2.13140083E-07
  -13.6899996      -1.71582641E-07
  -13.6800003      -8.42328163E-08
  -13.6700001       3.15192565E-08
  -13.6599998       1.49716655E-07
  -13.6499996       2.41662320E-07
  -13.6400003       2.82952385E-07
  -13.6300001       2.60001883E-07
  -13.6199999       1.74321386E-07
  -13.6099997       4.32327418E-08
  -13.6000004      -1.03468864E-07
  -13.5900002      -2.30373047E-07
  -13.5799999      -3.05312909E-07
  -13.5699997      -3.08030877E-07
  -13.5600004      -2.36307400E-07
  -13.5500002      -1.07673976E-07
  -13.5400000       4.41443113E-08
  -13.5299997       1.77553559E-07
  -13.5200005       2.54316916E-07
  -13.5100002       2.50821927E-07
  -13.5000000       1.66217745E-07
  -13.4899998       2.47814906E-08
  -13.4799995      -1.28803421E-07
  -13.4700003      -2.40730003E-07
  -13.4600000      -2.63470071E-07
  -13.4499998      -1.71387214E-07
  -13.4399996       2.79069656E-08
  -13.4300003       2.90307099E-07
  -13.4200001       5.42169346E-07
  -13.4099998       6.96986717E-07
  -13.3999996       6.78528522E-07
  -13.3900003       4.44939701E-07
  -13.3800001       7.25602201E-09
  -13.3699999      -5.63608353E-07
  -13.3599997      -1.14505792E-06
  -13.3500004      -1.58628598E-06
  -13.3400002      -1.74304682E-06
  -13.3299999      -1.51623362E-06
  -13.3199997      -8.84754968E-07
  -13.3100004       7.65593740E-08
  -13.3000002       1.20063703E-06
  -13.2900000       2.25534791E-06
  -13.2799997       2.99039107E-06
  -13.2700005       3.19465994E-06
  -13.2600002       2.75118259E-06
  -13.2500000       1.67589610E-06
  -13.2399998       1.29035811E-07
  -13.2299995      -1.60651439E-06
  -13.2200003      -3.17802755E-06
  -13.2100000      -4.23722850E-06
  -13.1999998      -4.52027507E-06
  -13.1899996      -3.91481672E-06
  -13.1800003      -2.49701679E-06
  -13.1700001      -5.27261989E-07
  -13.1599998       1.59766284E-06
  -13.1499996       3.42779549E-06
  -13.1400003       4.56127236E-06
  -13.1300001       4.74062790E-06
  -13.1199999       3.92055335E-06
  -13.1099997       2.28874524E-06
  -13.1000004       2.31559540E-07
  -13.0900002      -1.75095431E-06
  -13.0799999      -3.16330988E-06
  -13.0699997      -3.63933873E-06
  -13.0600004      -3.04301170E-06
  -13.0500002      -1.51844063E-06
  -13.0400000       5.27397390E-07
  -13.0299997       2.51036363E-06
  -13.0200005       3.80762435E-06
  -13.0100002       3.91883486E-06
  -13.0000000       2.61180207E-06
  -12.9899998       1.48346793E-08
  -12.9799995      -3.37229972E-06
  -12.9700003      -6.75951196E-06
  -12.9600000      -9.22887284E-06
  -12.9499998      -9.94697257E-06
  -12.9399996      -8.38080177E-06
  -12.9300003      -4.46571494E-06
  -12.9200001       1.31918159E-06
  -12.9099998       7.99492500E-06
  -12.8999996       1.42468652E-05
  -12.8900003       1.86821035E-05
  -12.8800001       2.01293260E-05
  -12.8699999       1.79163944E-05
  -12.8599997       1.20612713E-05
  -12.8500004       3.32698778E-06
  -12.8400002      -6.88108412E-06
  -12.8299999      -1.67631169E-05
  -12.8199997      -2.44718794E-05
  -12.8100004      -2.84880371E-05
  -12.8000002      -2.79428405E-05
  -12.7900000      -2.28152749E-05
  -12.7799997      -1.39557987E-05
  -12.7700005      -2.92589471E-06
  -12.7600002       8.31626130E-06
  -12.7500000       1.78179798E-05
  -12.7399998       2.40342761E-05
  -12.7299995       2.61400855E-05
  -12.7200003       2.41811067E-05
  -12.7100000       1.90276878E-05
  -12.6999998       1.21414123E-05
  -12.6899996       5.20815183E-06
  -12.6800003      -2.75993813E-07
  -12.6700001      -3.36665721E-06
  -12.6599998      -3.89243951E-06
  -12.6499996      -2.47912362E-06
  -12.6400003      -3.67474939E-07
  -12.6300001       9.34151046E-07
  -12.6199999       7.90094248E-08
  -12.6099997      -3.71350006E-06
  -12.6000004      -1.03821840E-05
  -12.5900002      -1.89534567E-05
  -12.5799999      -2.77041017E-05
  -12.5699997      -3.45289372E-05
  -12.5600004      -3.74328156E-05
  -12.5500002      -3.50319206E-05
  -12.5400000      -2.69415123E-05
  -12.5299997      -1.39491221E-05
  -12.5200005       2.08049937E-06
  -12.5100002       1.85601039E-05
  -12.5000000       3.27230919E-05
  -12.4899998       4.22358135E-05
  -12.4799995       4.57384413E-05
  -12.4700003       4.31853405E-05
  -12.4600000       3.58982361E-05
  -12.4499998       2.63098573E-05
  -12.4399996       1.74471443E-05
  -12.4300003       1.22648953E-05
  -12.4200001       1.29782065E-05
  -12.4099998       2.05454926E-05
  -12.3999996       3.44221153E-05
  -12.3900003       5.26442927E-05
  -12.3800001       7.22277910E-05
  -12.3699999       8.97933423E-05
  -12.3599997       1.02277896E-04
  -12.3500004       1.07570144E-04
  -12.3400002       1.04925617E-04
  -12.3299999       9.50675822E-05
  -12.3199997       7.99528934E-05
  -12.3100004       6.22604057E-05
  -12.3000002       4.47250677E-05
  -12.2900000       2.94776564E-05
  -12.2799997       1.75495879E-05
  -12.2700005       8.66405117E-06
  -12.2600002       1.36733490E-06
  -12.2500000      -6.52696735E-06
  -12.2399998      -1.72840337E-05
  -12.2299995      -3.25403344E-05
  -12.2200003      -5.27159937E-05
  -12.2100000      -7.66972298E-05
  -12.1999998      -1.01880098E-04
  -12.1899996      -1.24584956E-04
  -12.1800003      -1.40764838E-04
  -12.1700001      -1.46859689E-04
  -12.1599998      -1.40609438E-04
  -12.1499996      -1.21640674E-04
  -12.1400003      -9.16860372E-05
  -12.1300001      -5.43725655E-05
  -12.1199999      -1.46080629E-05
  -12.1099997       2.23155985E-05
  -12.1000004       5.17187327E-05
  -12.0900002       7.04198173E-05
  -12.0799999       7.73208085E-05
  -12.0699997       7.35631111E-05
  -12.0600004       6.22162770E-05
  -12.0500002       4.75622583E-05
  -12.0400000       3.41265040E-05
  -12.0299997       2.56641415E-05
  -12.0200005       2.43215582E-05
  -12.0100002       3.01578984E-05
  -12.0000000       4.11345463E-05
  -11.9899998       5.35794097E-05
  -11.9799995       6.30290742E-05
  -11.9700003       6.52680828E-05
  -11.9600000       5.73393481E-05
  -11.9499998       3.83033330E-05
  -11.9399996       9.57594511E-06
  -11.9300003      -2.52349873E-05
  -11.9200001      -6.09669587E-05
  -11.9099998      -9.18831647E-05
  -11.8999996      -1.12790876E-04
  -11.8900003      -1.20062337E-04
  -11.8800001      -1.12343550E-04
  -11.8699999      -9.08037910E-05
  -11.8599997      -5.88780204E-05
  -11.8500004      -2.15629498E-05
  -11.8400002       1.55776670E-05
  -11.8299999       4.74837507E-05
  -11.8199997       7.05190032E-05
  -11.8100004       8.30519421E-05
  -11.8000002       8.55879625E-05
  -11.7900000       8.04432493E-05
  -11.7799997       7.10512759E-05
  -11.7700005       6.10701245E-05
  -11.7600002       5.34961437E-05
  -11.7500000       4.99808411E-05
  -11.7399998       5.04954151E-05
  -11.7299995       5.34053943E-05
  -11.7200003       5.59250839E-05
  -11.7100000       5.48390854E-05
  -11.6999998       4.73240179E-05
  -11.6899996       3.16878213E-05
  -11.6800003       7.86839064E-06
  -11.6700001      -2.24097912E-05
  -11.6599998      -5.58474640E-05
  -11.6499996      -8.81009692E-05
  -11.6400003      -1.14520015E-04
  -11.6300001      -1.30946777E-04
  -11.6199999      -1.34426518E-04
  -11.6099997      -1.23705322E-04
  -11.6000004      -9.94372313E-05
  -11.5900002      -6.40796570E-05
  -11.5799999      -2.15113760E-05
  -11.5699997       2.35491752E-05
  -11.5600004       6.62209568E-05
  -11.5500002       1.02122023E-04
  -11.5400000       1.27916486E-04
  -11.5299997       1.41672892E-04
  -11.5200005       1.42994191E-04
  -11.5100002       1.32916684E-04
  -11.5000000       1.13610127E-04
  -11.4899998       8.79401705E-05
  -11.4799995       5.89726114E-05
  -11.4700003       2.95064183E-05
  -11.4600000       1.71464012E-06
  -11.4499998      -2.30475434E-05
  -11.4399996      -4.42401688E-05
  -11.4300003      -6.19520288E-05
  -11.4200001      -7.65796867E-05
  -11.4099998      -8.84521141E-05
  -11.3999996      -9.74969589E-05
  -11.3900003      -1.03040205E-04
  -11.3800001      -1.03805047E-04
  -11.3699999      -9.81319681E-05
  -11.3599997      -8.43886446E-05
  -11.3500004      -6.14868695E-05
  -11.3400002      -2.93873509E-05
  -11.3299999       1.05381441E-05
  -11.3199997       5.53982936E-05
  -11.3100004       1.00990597E-04
  -11.3000002       1.42321995E-04
  -11.2900000       1.74364468E-04
  -11.2799997       1.92907872E-04
  -11.2700005       1.95339308E-04
  -11.2600002       1.81182317E-04
  -11.2500000       1.52271998E-04
  -11.2399998       1.12514135E-04
  -11.2299995       6.72636452E-05
  -11.2200003       2.24391042E-05
  -11.2100000      -1.64534395E-05
  -11.1999998      -4.51948508E-05
  -11.1899996      -6.14567471E-05
  -11.1800003      -6.50265356E-05
  -11.1700001      -5.76283564E-05
  -11.1599998      -4.24003156E-05
  -11.1499996      -2.31575705E-05
  -11.1400003      -3.60730110E-06
  -11.1300001       1.33204394E-05
  -11.1199999       2.59003627E-05
  -11.1099997       3.37357305E-05
  -11.1000004       3.75876734E-05
  -11.0900002       3.89821907E-05
  -11.0799999       3.97071453E-05
  -11.0699997       4.13223461E-05
  -11.0600004       4.47877392E-05
  -11.0500002       5.02757612E-05
  -11.0400000       5.71856435E-05
  -11.0299997       6.43319509E-05
  -11.0200005       7.02471298E-05
  -11.0100002       7.35226713E-05
  -11.0000000       7.31164255E-05
  -10.9899998       6.85696068E-05
  -10.9799995       6.01011016E-05
  -10.9700003       4.85715391E-05
  -10.9600000       3.53317773E-05
  -10.9499998       2.19870253E-05
  -10.9399996       1.01186006E-05
  -10.9300003       1.01072328E-06
  -10.9200001      -4.57041051E-06
  -10.9099998      -6.50379843E-06
  -10.8999996      -5.31810701E-06
  -10.8900003      -2.06433333E-06
  -10.8800001       1.92735820E-06
  -10.8699999       5.36331117E-06
  -10.8599997       7.30831562E-06
  -10.8500004       7.43620149E-06
  -10.8400002       6.13750944E-06
  -10.8299999       4.43840827E-06
  -10.8199997       3.72763270E-06
  -10.8100004       5.33951970E-06
  -10.8000002       1.00875268E-05
  -10.7900000       1.78710652E-05
  -10.7799997       2.74776885E-05
  -10.7700005       3.66679196E-05
  -10.7600002       4.25669423E-05
  -10.7500000       4.23084821E-05
  -10.7399998       3.38011087E-05
  -10.7299995       1.64371049E-05
  -10.7200003      -8.44519582E-06
  -10.7100000      -3.74959382E-05
  -10.6999998      -6.57535566E-05
  -10.6899996      -8.74706675E-05
  -10.6800003      -9.72189155E-05
  -10.6700001      -9.10444724E-05
  -10.6599998      -6.74145558E-05
  -10.6499996      -2.77250710E-05
  -10.6400003       2.37737368E-05
  -10.6300001       8.06502721E-05
  -10.6199999       1.35443654E-04
  -10.6099997       1.81061201E-04
  -10.6000004       2.12125218E-04
  -10.5900002       2.25977172E-04
  -10.5799999       2.23120485E-04
  -10.5699997       2.07006553E-04
  -10.5600004       1.83215350E-04
  -10.5500002       1.58216091E-04
  -10.5400000       1.37982657E-04
  -10.5299997       1.26764353E-04
  -10.5200005       1.26268729E-04
  -10.5100002       1.35412556E-04
  -10.5000000       1.50666092E-04
  -10.4899998       1.66885977E-04
  -10.4799995       1.78433882E-04
  -10.4700003       1.80333242E-04
  -10.4600000       1.69228981E-04
  -10.4499998       1.43979982E-04
  -10.4399996       1.05807798E-04
  -10.4300003       5.80231645E-05
  -10.4200001       5.43235274E-06
  -10.4099998      -4.64314580E-05
  -10.3999996      -9.21014871E-05
  -10.3900003      -1.26872852E-04
  -10.3800001      -1.47324201E-04
  -10.3699999      -1.51637360E-04
  -10.3599997      -1.39722935E-04
  -10.3500004      -1.13177455E-04
  -10.3400002      -7.50995678E-05
  -10.3299999      -2.97845709E-05
  -10.3199997       1.76889571E-05
  -10.3100004       6.19642451E-05
  -10.3000002       9.79721153E-05
  -10.2900000       1.21505487E-04
  -10.2799997       1.29731037E-04
  -10.2700005       1.21558427E-04
  -10.2600002       9.78001335E-05
  -10.2500000       6.10862407E-05
  -10.2399998       1.55440757E-05
  -10.2299995      -3.37008059E-05
  -10.2200003      -8.11122518E-05
  -10.2100000      -1.21318895E-04
  -10.1999998      -1.49593368E-04
  -10.1899996      -1.62189870E-04
  -10.1800003      -1.56541748E-04
  -10.1700001      -1.31361056E-04
  -10.1599998      -8.66995688E-05
  -10.1499996      -2.40199843E-05
  -10.1400003       5.37109263E-05
  -10.1300001       1.41946002E-04
  -10.1199999       2.34581137E-04
  -10.1099997       3.24180408E-04
  -10.1000004       4.02485661E-04
  -10.0900002       4.61234915E-04
  -10.0799999       4.93227271E-04
  -10.0699997       4.93480882E-04
  -10.0600004       4.60261334E-04
  -10.0500002       3.95736308E-04
  -10.0400000       3.06052709E-04
  -10.0299997       2.00729875E-04
  -10.0200005       9.14042175E-05
  -10.0100002      -9.89215550E-06
  -10.0000000      -9.26138455E-05
  -9.98999977      -1.49381871E-04
  -9.97999954      -1.77116541E-04
  -9.97000027      -1.77379916E-04
  -9.96000004      -1.55847069E-04
  -9.94999981      -1.21010191E-04
  -9.93999958      -8.23873997E-05
  -9.93000031      -4.86155368E-05
  -9.92000008      -2.58281343E-05
  -9.90999985      -1.66494356E-05
  -9.89999962      -1.99901006E-05
  -9.89000034      -3.16454716E-05
  -9.88000011      -4.55166883E-05
  -9.86999989      -5.51435696E-05
  -9.85999966      -5.51855082E-05
  -9.85000038      -4.25226899E-05
  -9.84000015      -1.67623602E-05
  -9.82999992       1.99081678E-05
  -9.81999969       6.34198150E-05
  -9.81000042       1.08846958E-04
  -9.80000019       1.51479209E-04
  -9.78999996       1.87679310E-04
  -9.77999973       2.15351043E-04
  -9.77000046       2.33963568E-04
  -9.76000023       2.44201190E-04
  -9.75000000       2.47398682E-04
  -9.73999977       2.44959374E-04
  -9.72999954       2.37930377E-04
  -9.72000027       2.26840173E-04
  -9.71000004       2.11811988E-04
  -9.69999981       1.92880514E-04
  -9.68999958       1.70383864E-04
  -9.68000031       1.45289363E-04
  -9.67000008       1.19341123E-04
  -9.65999985       9.49761088E-05
  -9.64999962       7.50216859E-05
  -9.64000034       6.22447988E-05
  -9.63000011       5.88536022E-05
  -9.61999989       6.60555670E-05
  -9.60999966       8.37530388E-05
  -9.60000038       1.10422923E-04
  -9.59000015       1.43191195E-04
  -9.57999992       1.78084825E-04
  -9.56999969       2.10430473E-04
  -9.56000042       2.35363172E-04
  -9.55000019       2.48406606E-04
  -9.53999996       2.46081268E-04
  -9.52999973       2.26484903E-04
  -9.52000046       1.89774219E-04
  -9.51000023       1.38462798E-04
  -9.50000000       7.74486398E-05
  -9.48999977       1.37033394E-05
  -9.47999954      -4.44034777E-05
  -9.47000027      -8.81092201E-05
  -9.46000004      -1.09487301E-04
  -9.44999981      -1.02729806E-04
  -9.43999958      -6.52717936E-05
  -9.43000031       1.45956176E-06
  -9.42000008       9.18505611E-05
  -9.40999985       1.96561101E-04
  -9.39999962       3.03631095E-04
  -9.39000034       4.00104327E-04
  -9.38000011       4.73932916E-04
  -9.36999989       5.15852240E-04
  -9.35999966       5.20896632E-04
  -9.35000038       4.89267462E-04
  -9.34000015       4.26367682E-04
  -9.32999992       3.41963227E-04
  -9.31999969       2.48594122E-04
  -9.31000042       1.59507050E-04
  -9.30000019       8.64809699E-05
  -9.28999996       3.79452249E-05
  -9.27999973       1.77349975E-05
  -9.27000046       2.47015105E-05
  -9.26000023       5.32207741E-05
  -9.25000000       9.44629282E-05
  -9.23999977       1.38138566E-04
  -9.22999954       1.74358036E-04
  -9.22000027       1.95248300E-04
  -9.21000004       1.96056528E-04
  -9.19999981       1.75607260E-04
  -9.18999958       1.36132425E-04
  -9.18000031       8.26184769E-05
  -9.17000008       2.18832047E-05
  -9.15999985      -3.84056511E-05
  -9.14999962      -9.06136775E-05
  -9.14000034      -1.27854917E-04
  -9.13000011      -1.44546488E-04
  -9.11999989      -1.36856164E-04
  -9.10999966      -1.03093087E-04
  -9.10000038      -4.40450931E-05
  -9.09000015       3.67959510E-05
  -9.07999992       1.33229551E-04
  -9.06999969       2.36680775E-04
  -9.06000042       3.36947298E-04
  -9.05000019       4.23342077E-04
  -9.03999996       4.86103818E-04
  -9.02999973       5.17852197E-04
  -9.02000046       5.14814281E-04
  -9.01000023       4.77569585E-04
  -9.00000000       4.11142886E-04
  -8.98999977       3.24402441E-04
  -8.97999954       2.28858931E-04
  -8.97000027       1.37073643E-04
  -8.96000004       6.09451963E-05
  -8.94999981       1.01460710E-05
  -8.93999958      -9.07182039E-06
  -8.93000031       5.43476563E-06
  -8.92000008       5.15694082E-05
  -8.90999985       1.23395206E-04
  -8.89999962       2.11983614E-04
  -8.89000034       3.06599279E-04
  -8.88000011       3.96082789E-04
  -8.86999989       4.70275379E-04
  -8.85999966       5.21315495E-04
  -8.85000038       5.44632261E-04
  -8.84000015       5.39479370E-04
  -8.82999992       5.08905621E-04
  -8.81999969       4.59146162E-04
  -8.81000042       3.98526492E-04
  -8.80000019       3.36075842E-04
  -8.78999996       2.80119304E-04
  -8.77999973       2.37126034E-04
  -8.77000046       2.11028775E-04
  -8.76000023       2.03113261E-04
  -8.75000000       2.12426472E-04
  -8.73999977       2.36521868E-04
  -8.72999954       2.72285688E-04
  -8.72000027       3.16594203E-04
  -8.71000004       3.66635271E-04
  -8.69999981       4.19860007E-04
  -8.68999958       4.73670283E-04
  -8.68000031       5.25044277E-04
  -8.67000008       5.70324308E-04
  -8.65999985       6.05333480E-04
  -8.64999962       6.25867222E-04
  -8.64000034       6.28466078E-04
  -8.63000011       6.11265365E-04
  -8.61999989       5.74670907E-04
  -8.60999966       5.21644775E-04
  -8.60000038       4.57485730E-04
  -8.59000015       3.89123481E-04
  -8.57999992       3.24074848E-04
  -8.56999969       2.69286131E-04
  -8.56000042       2.30100428E-04
  -8.55000019       2.09538906E-04
  -8.53999996       2.07998644E-04
  -8.52999973       2.23370458E-04
  -8.52000046       2.51505669E-04
  -8.51000023       2.86921189E-04
  -8.50000000       3.23625805E-04
  -8.48999977       3.55966855E-04
  -8.47999954       3.79414501E-04
  -8.47000027       3.91207810E-04
  -8.46000004       3.90784553E-04
  -8.44999981       3.79913632E-04
  -8.43999958       3.62460996E-04
  -8.43000031       3.43764492E-04
  -8.42000008       3.29669041E-04
  -8.40999985       3.25363857E-04
  -8.39999962       3.34243232E-04
  -8.39000034       3.57048033E-04
  -8.38000011       3.91516718E-04
  -8.36999989       4.32677421E-04
  -8.35999966       4.73764550E-04
  -8.35000038       5.07585646E-04
  -8.34000015       5.28043311E-04
  -8.32999992       5.31463767E-04
  -8.31999969       5.17424545E-04
  -8.31000042       4.88892663E-04
  -8.30000019       4.51649859E-04
  -8.28999996       4.13147907E-04
  -8.27999973       3.81059857E-04
  -8.27000046       3.61844344E-04
  -8.26000023       3.59609403E-04
  -8.25000000       3.75474658E-04
  -8.23999977       4.07508487E-04
  -8.22999954       4.51200525E-04
  -8.22000027       5.00340655E-04
  -8.21000004       5.48128446E-04
  -8.19999981       5.88326540E-04
  -8.18999958       6.16282865E-04
  -8.18000031       6.29678776E-04
  -8.17000008       6.28891052E-04
  -8.15999985       6.16900739E-04
  -8.14999962       5.98737795E-04
  -8.14000034       5.80519903E-04
  -8.13000011       5.68229530E-04
  -8.11999989       5.66447561E-04
  -8.10999966       5.77304687E-04
  -8.10000038       5.99901890E-04
  -8.09000015       6.30372437E-04
  -8.07999992       6.62622799E-04
  -8.06999969       6.89626497E-04
  -8.06000042       7.04992737E-04
  -8.05000019       7.04448845E-04
  -8.03999996       6.86878629E-04
  -8.02999973       6.54664531E-04
  -8.02000046       6.13255368E-04
  -8.01000023       5.70074539E-04
  -8.00000000       5.33052604E-04
  -7.98999977       5.09145728E-04
  -7.98000002       5.03173447E-04
  -7.96999979       5.17202250E-04
  -7.96000004       5.50531899E-04
  -7.94999981       6.00181520E-04
  -7.94000006       6.61659287E-04
  -7.92999983       7.29776511E-04
  -7.92000008       7.99313188E-04
  -7.90999985       8.65444308E-04
  -7.90000010       9.23943706E-04
  -7.88999987       9.71254136E-04
  -7.88000011       1.00453431E-03
  -7.86999989       1.02175190E-03
  -7.86000013       1.02183176E-03
  -7.84999990       1.00480090E-03
  -7.84000015       9.71850299E-04
  -7.82999992       9.25257104E-04
  -7.82000017       8.68160743E-04
  -7.80999994       8.04259151E-04
  -7.80000019       7.37525465E-04
  -7.78999996       6.72034046E-04
  -7.78000021       6.11929107E-04
  -7.76999998       5.61478140E-04
  -7.76000023       5.25082869E-04
  -7.75000000       5.07097342E-04
  -7.73999977       5.11348364E-04
  -7.73000002       5.40371053E-04
  -7.71999979       5.94510115E-04
  -7.71000004       6.71152084E-04
  -7.69999981       7.64391036E-04
  -7.69000006       8.65358685E-04
  -7.67999983       9.63290280E-04
  -7.67000008       1.04718481E-03
  -7.65999985       1.10771495E-03
  -7.65000010       1.13894430E-03
  -7.63999987       1.13942067E-03
  -7.63000011       1.11236854E-03
  -7.61999989       1.06493174E-03
  -7.61000013       1.00667228E-03
  -7.59999990       9.47716995E-04
  -7.59000015       8.97001592E-04
  -7.57999992       8.60992994E-04
  -7.57000017       8.43097689E-04
  -7.55999994       8.43745540E-04
  -7.55000019       8.60957080E-04
  -7.53999996       8.91118601E-04
  -7.53000021       9.29714239E-04
  -7.51999998       9.71874455E-04
  -7.51000023       1.01274427E-03
  -7.50000000       1.04778539E-03
  -7.48999977       1.07314833E-03
  -7.48000002       1.08618464E-03
  -7.46999979       1.08604075E-03
  -7.46000004       1.07414892E-03
  -7.44999981       1.05436693E-03
  -7.44000006       1.03256386E-03