  -16.0000000       0.00000000    
  -15.9899998       0.00000000    
  -15.9799995       0.00000000    
  -15.9700003       0.00000000    
  -15.9600000       0.00000000    
  -15.9499998       0.00000000    
  -15.9399996       0.00000000    
  -15.9300003       0.00000000    
  -15.9200001       0.00000000    
  -15.9099998       0.00000000    
  -15.8999996      -5.53505747E-39
  -15.8900003      -2.13500892E-37
  -15.8800001      -3.42374891E-36
  -15.8699999      -3.49683712E-35
  -15.8599997      -2.65686243E-34
  -15.8500004      -1.61469651E-33
  -15.8400002      -8.15852736E-33
  -15.8299999      -3.50719877E-32
  -15.8199997      -1.30245562E-31
  -15.8100004      -4.22279418E-31
  -15.8000002      -1.20354550E-30
  -15.7900000      -3.02503898E-30
  -15.7799997      -6.69445124E-30
  -15.7700005      -1.29246179E-29
  -15.7600002      -2.12418427E-29
  -15.7500000      -2.78249842E-29
  -15.7399998      -2.25174553E-29
  -15.7299995       1.34102382E-29
  -15.7200003       1.05284897E-28
  -15.7100000       2.74166600E-28
  -15.6999998       5.14320410E-28
  -15.6899996       7.63933642E-28
  -15.6800003       8.87349303E-28
  -15.6700001       6.98450339E-28
  -15.6599998       4.58971073E-29
  -15.6499996      -1.07101908E-27
  -15.6400003      -2.48454053E-27
  -15.6300001      -4.14922116E-27
  -15.6199999      -6.85968098E-27
  -15.6099997      -1.30312441E-26
  -15.6000004      -2.62339669E-26
  -15.5900002      -4.72125671E-26
  -15.5799999      -6.44950859E-26
  -15.5699997      -4.14665721E-26
  -15.5600004       8.96185431E-26
  -15.5500002       4.04976192E-25
  -15.5400000       9.11647401E-25
  -15.5299997       1.40744066E-24
  -15.5200005       1.33071723E-24
  -15.5100002      -2.48865598E-25
  -15.5000000      -4.25691985E-24
  -15.4899998      -1.06443053E-23
  -15.4799995      -1.69003651E-23
  -15.4700003      -1.67739265E-23
  -15.4600000      -7.71911834E-25
  -15.4499998       3.95026295E-23
  -15.4399996       1.01926837E-22
  -15.4300003       1.61185689E-22
  -15.4200001       1.60115401E-22
  -15.4099998       1.81232526E-23
  -15.3999996      -3.28831456E-22
  -15.3900003      -8.51753996E-22
  -15.3800001      -1.33606360E-21
  -15.3699999      -1.33158721E-21
  -15.3599997      -2.37394626E-22
  -15.3500004       2.38998591E-21
  -15.3400002       6.29634696E-21
  -15.3299999       9.92435385E-21
  -15.3199997       1.01447288E-20
  -15.3100004       2.90063524E-21
  -15.3000002      -1.47411388E-20
  -15.2900000      -4.11810672E-20
  -15.2799997      -6.66291592E-20
  -15.2700005      -7.16191844E-20
  -15.2600002      -3.09680039E-20
  -15.2500000       7.42094036E-20
  -15.2399998       2.36965739E-19
  -15.2299995       4.03759808E-19
  -15.2200003       4.65543504E-19
  -15.2100000       2.77882305E-19
  -15.1999998      -2.76449318E-19
  -15.1899996      -1.18500033E-18
  -15.1800003      -2.19438050E-18
  -15.1700001      -2.75430175E-18
  -15.1599998      -2.10111817E-18
  -15.1499996       4.51375762E-19
  -15.1400003       5.01892250E-18
  -15.1300001       1.05861317E-17
  -15.1199999       1.46646632E-17
  -15.1099997       1.35559252E-17
  -15.1000004       3.54917310E-18
  -15.0900002      -1.69090094E-17
  -15.0799999      -4.45808925E-17
  -15.0699997      -6.95062266E-17
  -15.0600004      -7.54193703E-17
  -15.0500002      -4.40529461E-17
  -15.0400000       3.61939693E-17
  -15.0299997       1.58837802E-16
  -15.0200005       2.89443361E-16
  -15.0100002       3.63812562E-16
  -15.0000000       3.00918989E-16
  -14.9899998       3.39679833E-17
  -14.9799995      -4.44399489E-16
  -14.9700003      -1.03691222E-15
  -14.9600000      -1.52007156E-15
  -14.9499998      -1.57301906E-15
  -14.9399996      -8.75224163E-16
  -14.9300003       7.31995179E-16
  -14.9200001       3.06057970E-15
  -14.9099998       5.44500985E-15
  -14.8999996       6.76434710E-15
  -14.8900003       5.70049277E-15
  -14.8800001       1.25091181E-15
  -14.8699999      -6.59857343E-15
  -14.8599997      -1.62679843E-14
  -14.8500004      -2.43715079E-14
  -14.8400002      -2.62283024E-14
  -14.8299999      -1.72708070E-14
  -14.8199997       4.79484684E-15
  -14.8100004       3.76503197E-14
  -14.8000002       7.28178504E-14
  -14.7900000       9.60365142E-14
  -14.7799997       9.04277670E-14
  -14.7700005       4.25199867E-14
  -14.7600002      -5.00354932E-14
  -14.7500000      -1.71571890E-13
  -14.7399998      -2.85765525E-13
  -14.7299995      -3.40536274E-13
  -14.7200003      -2.82143612E-13
  -14.7100000      -7.69911072E-14
  -14.6999998       2.64352423E-13
  -14.6899996       6.69951941E-13
  -14.6800003       1.00653687E-12
  -14.6700001       1.10479963E-12
  -14.6599998       8.11198385E-13
  -14.6499996       5.71492858E-14
  -14.6400003      -1.07467008E-12
  -14.6300001      -2.31490521E-12
  -14.6199999      -3.23066443E-12
  -14.6099997      -3.32324576E-12
  -14.6000004      -2.19355632E-12
  -14.5900002       2.61261715E-13
  -14.5799999       3.68368573E-12
  -14.5699997       7.20085580E-12
  -14.5600004       9.54375207E-12
  -14.5500002       9.36391069E-12
  -14.5400000       5.70460562E-12
  -14.5299997      -1.49162074E-12
  -14.5200005      -1.10152070E-11
  -14.5100002      -2.03503395E-11
  -14.5000000      -2.60991732E-11
  -14.4899998      -2.48812759E-11
  -14.4799995      -1.45492732E-11
  -14.4700003       4.60892262E-12
  -14.4600000       2.91184611E-11
  -14.4499998       5.24375439E-11
  -14.4399996       6.61963123E-11
  -14.4300003       6.24828314E-11
  -14.4200001       3.67106276E-11
  -14.4099998      -9.74834623E-12
  -14.3999996      -6.81500065E-11
  -14.3900003      -1.23040883E-10
  -14.3800001      -1.55389757E-10
  -14.3699999      -1.47845167E-10
  -14.3599997      -9.09516351E-11
  -14.3500004       1.14947097E-11
  -14.3400002       1.39975545E-10
  -14.3299999       2.61261929E-10
  -14.3199997       3.35424938E-10
  -14.3100004       3.26832866E-10
  -14.3000002       2.16552665E-10
  -14.2900000       1.24794645E-11
  -14.2799997      -2.46616227E-10
  -14.2700005      -4.95842312E-10
  -14.2600002      -6.58227417E-10
  -14.2500000      -6.65660305E-10
  -14.2399998      -4.81607865E-10
  -14.2299995      -1.18859075E-10
  -14.2200003       3.54250379E-10
  -14.2100000       8.23335233E-10
  -14.1999998       1.15323928E-09
  -14.1899996       1.22422683E-09
  -14.1800003       9.69954672E-10
  -14.1700001       4.05955269E-10
  -14.1599998      -3.61573438E-10
  -14.1499996      -1.15243726E-09
  -14.1400003      -1.75341719E-09
  -14.1300001      -1.97475258E-09
  -14.1199999      -1.70738634E-09
  -14.1099997      -9.63980118E-10
  -14.1000004       1.10540306E-10
  -14.0900002       1.26560940E-09
  -14.0799999       2.20504592E-09
  -14.0699997       2.66611222E-09
  -14.0600004       2.49598586E-09
  -14.0500002       1.70264836E-09
  -14.0400000       4.62888422E-10
  -14.0299997      -9.18345511E-10
  -14.0200005      -2.08853201E-09
  -14.0100002      -2.74645284E-09
  -14.0000000      -2.73040102E-09
  -13.9899998      -2.06808171E-09
  -13.9799995      -9.70665881E-10
  -13.9700003       2.30078234E-10
  -13.9600000       1.18457044E-09
  -13.9499998       1.63725589E-09
  -13.9399996       1.51164270E-09
  -13.9300003       9.39015310E-10
  -13.9200001       2.17677001E-10
  -13.9099998      -2.88455038E-10
  -13.8999996      -2.82291884E-10
  -13.8900003       3.45317580E-10
  -13.8800001       1.44815759E-09
  -13.8699999       2.63941313E-09
  -13.8599997       3.39291706E-09
  -13.8500004       3.20730575E-09
  -13.8400002       1.78677073E-09
  -13.8299999      -8.17917956E-10
  -13.8199997      -4.15785273E-09
  -13.8100004      -7.45089235E-09
  -13.8000002      -9.75719328E-09
  -13.7900000      -1.02257056E-08
  -13.7799997      -8.34734415E-09
  -13.7700005      -4.14287005E-09
  -13.7600002       1.77370063E-09
  -13.7500000       8.28481195E-09
  -13.7399998       1.40002223E-08
  -13.7299995       1.75772694E-08
  -13.7200003       1.80513045E-08
  -13.7100000       1.50897108E-08
  -13.6999998       9.09914544E-09
  -13.6899996       1.15165344E-09
  -13.6800003      -7.25745775E-09
  -13.6700001      -1.45611558E-08
  -13.6599998      -1.94906029E-08
  -13.6499996      -2.13635634E-08
  -13.6400003      -2.02097716E-08
  -13.6300001      -1.66942833E-08
  -13.6199999      -1.18566845E-08
  -13.6099997      -6.74020484E-09
  -13.6000004      -2.02481010E-09
  -13.5900002       2.21194441E-09
  -13.5799999       6.50907728E-09
  -13.5699997       1.17754233E-08
  -13.5600004       1.88271692E-08
  -13.5500002       2.78358225E-08
  -13.5400000       3.78689045E-08
  -13.5299997       4.67126284E-08
  -13.5200005       5.11150660E-08
  -13.5100002       4.74823310E-08
  -13.5000000       3.29216157E-08
  -13.4899998       6.39035092E-09
  -13.4799995      -3.03767074E-08
  -13.4700003      -7.24959435E-08
  -13.4600000      -1.12356489E-07
  -13.4499998      -1.40886343E-07
  -13.4399996      -1.49479177E-07
  -13.4300003      -1.32175359E-07
  -13.4200001      -8.75500987E-08
  -13.4099998      -1.97594687E-08
  -13.3999996       6.16480307E-08
  -13.3900003       1.43256159E-07
  -13.3800001       2.10385622E-07
  -13.3699999       2.50198354E-07
  -13.3599997       2.54529965E-07
  -13.3500004       2.21695728E-07
  -13.3400002       1.56751383E-07
  -13.3299999       7.01027147E-08
  -13.3199997      -2.51683083E-08
  -13.3100004      -1.16496551E-07
  -13.3000002      -1.94590200E-07
  -13.2900000      -2.54890608E-07
  -13.2799997      -2.97254275E-07
  -13.2700005      -3.23939389E-07
  -13.2600002      -3.36572981E-07
  -13.2500000      -3.33207225E-07
  -13.2399998      -3.06687269E-07
  -13.2299995      -2.45279750E-07
  -13.2200003      -1.35884974E-07
  -13.2100000       3.06661008E-08
  -13.1999998       2.53525712E-07
  -13.1899996       5.16772729E-07
  -13.1800003       7.87260376E-07
  -13.1700001       1.01676494E-06
  -13.1599998       1.14889008E-06
  -13.1499996       1.12995724E-06
  -13.1400003       9.21936362E-07
  -13.1300001       5.14624787E-07
  -13.1199999      -6.59609114E-08
  -13.1099997      -7.55548115E-07
  -13.1000004      -1.45736431E-06
  -13.0900002      -2.05551942E-06
  -13.0799999      -2.43414524E-06
  -13.0699997      -2.49895834E-06
  -13.0600004      -2.19707908E-06
  -13.0500002      -1.53093924E-06
  -13.0400000      -5.63018205E-07
  -13.0299997       5.90178104E-07
  -13.0200005       1.77435743E-06
  -13.0100002       2.82123142E-06
  -13.0000000       3.57551380E-06
  -12.9899998       3.91998037E-06
  -12.9799995       3.79373387E-06
  -12.9700003       3.20022900E-06
  -12.9600000       2.20382344E-06
  -12.9499998       9.16201941E-07
  -12.9399996      -5.23697281E-07
  -12.9300003      -1.97122313E-06
  -12.9200001      -3.29391014E-06
  -12.9099998      -4.38193729E-06
  -12.8999996      -5.14986868E-06
  -12.8900003      -5.53132304E-06
  -12.8800001      -5.47085801E-06
  -12.8699999      -4.91874471E-06
  -12.8599997      -3.83382257E-06
  -12.8500004      -2.19723461E-06
  -12.8400002      -3.59299683E-08
  -12.8299999       2.54959514E-06
  -12.8199997       5.36237894E-06
  -12.8100004       8.10139954E-06
  -12.8000002       1.03782049E-05
  -12.7900000       1.17620048E-05
  -12.7799997       1.18503740E-05
  -12.7700005       1.03550137E-05
  -12.7600002       7.18552337E-06
  -12.7500000       2.51101051E-06
  -12.7399998      -3.21904963E-06
  -12.7299995      -9.30680471E-06
  -12.7200003      -1.48924573E-05
  -12.7100000      -1.90845112E-05
  -12.6999998      -2.11119732E-05
  -12.6899996      -2.04695043E-05
  -12.6800003      -1.70254170E-05
  -12.6700001      -1.10681149E-05
  -12.6599998      -3.27836278E-06
  -12.6499996       5.36999278E-06
  -12.6400003       1.37629249E-05
  -12.6300001       2.08230540E-05
  -12.6199999       2.56754356E-05
  -12.6099997       2.77700383E-05
  -12.6000004       2.69387347E-05
  -12.5900002       2.33799310E-05
  -12.5799999       1.75805471E-05
  -12.5699997       1.01990672E-05
  -12.5600004       1.94106838E-06
  -12.5500002      -6.54187124E-06
  -12.5400000      -1.47078836E-05
  -12.5299997      -2.21277805E-05
  -12.5200005      -2.84447851E-05
  -12.5100002      -3.33147764E-05
  -12.5000000      -3.63582658E-05
  -12.4899998      -3.71533788E-05
  -12.4799995      -3.52877105E-05
  -12.4700003      -3.04683563E-05
  -12.4600000      -2.26683514E-05
  -12.4499998      -1.22702286E-05
  -12.4399996      -1.58437572E-07
  -12.4300003       1.22838164E-05
  -12.4200001       2.33007886E-05
  -12.4099998       3.10134637E-05
  -12.3999996       3.37597667E-05
  -12.3900003       3.04644691E-05
  -12.3800001       2.09597056E-05
  -12.3699999       6.17574915E-06
  -12.3599997      -1.18600974E-05
  -12.3500004      -3.02435965E-05
  -12.3400002      -4.56143025E-05
  -12.3299999      -5.47128548E-05
  -12.3199997      -5.49749784E-05
  -12.3100004      -4.50461484E-05
  -12.3000002      -2.51091406E-05
  -12.2900000       3.05109938E-06
  -12.2799997       3.62701794E-05
  -12.2700005       7.04815029E-05
  -12.2600002       1.01361904E-04
  -12.2500000       1.25023769E-04
  -12.2399998       1.38621457E-04
  -12.2299995       1.40757722E-04
  -12.2200003       1.31618086E-04
  -12.2100000       1.12818729E-04
  -12.1999998       8.70130607E-05
  -12.1899996       5.73508769E-05
  -12.1800003       2.69106058E-05
  -12.1700001      -1.77570018E-06
  -12.1599998      -2.70127530E-05
  -12.1499996      -4.80035233E-05
  -12.1400003      -6.46940025E-05
  -12.1300001      -7.74646251E-05
  -12.1199999      -8.67664858E-05
  -12.1099997      -9.28099180E-05
  -12.1000004      -9.53957788E-05
  -12.0900002      -9.39394449E-05
  -12.0799999      -8.76842096E-05
  -12.0699997      -7.60476323E-05
  -12.0600004      -5.90037525E-05
  -12.0500002      -3.73879120E-05
  -12.0400000      -1.30223498E-05
  -12.0299997       1.14001459E-05
  -12.0200005       3.26798618E-05
  -12.0100002       4.76633031E-05
  -12.0000000       5.38746281E-05
  -11.9899998       5.00840724E-05
  -11.9799995       3.66737950E-05
  -11.9700003       1.56974002E-05
  -11.9600000      -9.40788232E-06
  -11.9499998      -3.44200271E-05
  -11.9399996      -5.51322264E-05
  -11.9300003      -6.81913443E-05
  -11.9200001      -7.17938456E-05
  -11.9099998      -6.60805308E-05
  -11.8999996      -5.31311016E-05
  -11.8900003      -3.65446031E-05
  -11.8800001      -2.06832719E-05
  -11.8699999      -9.73471924E-06
  -11.8599997      -6.79192408E-06
  -11.8500004      -1.31517945E-05
  -11.8400002      -2.79888100E-05
  -11.8299999      -4.84803822E-05
  -11.8199997      -7.03620753E-05
  -11.8100004      -8.87963179E-05
  -11.8000002      -9.93689173E-05
  -11.7900000      -9.89993350E-05
  -11.7799997      -8.65703551E-05
  -11.7700005      -6.31453222E-05
  -11.7600002      -3.17330851E-05
  -11.7500000       3.33956609E-06
  -11.7399998       3.73029288E-05
  -11.7299995       6.58706631E-05
  -11.7200003       8.60150467E-05
  -11.7100000       9.64291103E-05
  -11.6999998       9.75899893E-05
  -11.6899996       9.14326374E-05
  -11.6800003       8.07331962E-05
  -11.6700001       6.83665494E-05
  -11.6599998       5.66260460E-05
  -11.6499996       4.67716782E-05
  -11.6400003       3.89095294E-05
  -11.6300001       3.22176347E-05
  -11.6199999       2.54418082E-05
  -11.6099997       1.75137884E-05
  -11.6000004       8.11055270E-06
  -11.5900002      -2.01240073E-06
  -11.5799999      -1.10225328E-05
  -11.5699997      -1.63667173E-05
  -11.5600004      -1.54059398E-05
  -11.5500002      -6.17174283E-06
  -11.5400000       1.19536999E-05
  -11.5299997       3.78234581E-05
  -11.5200005       6.85091145E-05
  -11.5100002       9.97185707E-05
  -11.5000000       1.26578263E-04
  -11.4899998       1.44615813E-04
  -11.4799995       1.50723587E-04
  -11.4700003       1.43879282E-04
  -11.4600000       1.25450300E-04
  -11.4499998       9.90003609E-05
  -11.4399996       6.96286588E-05
  -11.4300003       4.29768043E-05
  -11.4200001       2.41116486E-05
  -11.4099998       1.65170586E-05
  -11.3999996       2.14005704E-05
  -11.3900003       3.74496994E-05
  -11.3800001       6.10756615E-05
  -11.3699999       8.70829754E-05
  -11.3599997       1.09622721E-04
  -11.3500004       1.23242105E-04
  -11.3400002       1.23837905E-04
  -11.3299999       1.09354420E-04
  -11.3199997       8.01254719E-05
  -11.3100004       3.88295957E-05
  -11.3000002      -9.90699937E-06
  -11.2900000      -6.01749380E-05
  -11.2799997      -1.05600586E-04
  -11.2700005      -1.40199147E-04
  -11.2600002      -1.59152158E-04
  -11.2500000      -1.59420932E-04
  -11.2399998      -1.40134696E-04
  -11.2299995      -1.02719576E-04
  -11.2200003      -5.07612967E-05
  -11.2100000       1.03807497E-05
  -11.1999998       7.41666663E-05
  -11.1899996       1.33613357E-04
  -11.1800003       1.82094445E-04
  -11.1700001       2.14108804E-04
  -11.1599998       2.25921016E-04
  -11.1499996       2.15988053E-04
  -11.1400003       1.85111057E-04
  -11.1300001       1.36288538E-04
  -11.1199999       7.42926059E-05
  -11.1099997       5.03514366E-06
  -11.1000004      -6.51728478E-05
  -11.0900002      -1.30347384E-04
  -11.0799999      -1.85426950E-04
  -11.0699997      -2.26650562E-04
  -11.0600004      -2.51681602E-04
  -11.0500002      -2.59499240E-04
  -11.0400000      -2.50133045E-04
  -11.0299997      -2.24352261E-04
  -11.0200005      -1.83424927E-04
  -11.0100002      -1.29034102E-04
  -11.0000000      -6.33793898E-05
  -10.9899998       1.05796644E-05
  -10.9799995       8.88491049E-05
  -10.9700003       1.66245329E-04
  -10.9600000       2.36505512E-04
  -10.9499998       2.92758079E-04
  -10.9399996       3.28354712E-04
  -10.9300003       3.37954494E-04
  -10.9200001       3.18651437E-04
  -10.9099998       2.70880089E-04
  -10.8999996       1.98841430E-04
  -10.8900003       1.10271772E-04
  -10.8800001       1.55133730E-05
  -10.8699999      -7.39904208E-05
  -10.8599997      -1.47504106E-04
  -10.8500004      -1.96749679E-04
  -10.8400002      -2.17225766E-04
  -10.8299999      -2.08809404E-04
  -10.8199997      -1.75512032E-04
  -10.8100004      -1.24455706E-04
  -10.8000002      -6.43147214E-05
  -10.7900000      -3.58753414E-06
  -10.7799997       5.09105703E-05
  -10.7700005       9.50147587E-05
  -10.7600002       1.27468098E-04
  -10.7500000       1.49484535E-04
  -10.7399998       1.63802251E-04
  -10.7299995       1.73522218E-04
  -10.7200003       1.81051073E-04
  -10.7100000       1.87404774E-04
  -10.6999998       1.92004911E-04
  -10.6899996       1.92954467E-04
  -10.6800003       1.87656202E-04
  -10.6700001       1.73570064E-04
  -10.6599998       1.48907478E-04
  -10.6499996       1.13119575E-04
  -10.6400003       6.71254820E-05
  -10.6300001       1.33092608E-05
  -10.6199999      -4.46384583E-05
  -10.6099997      -1.01960650E-04
  -10.6000004      -1.53123503E-04
  -10.5900002      -1.92179883E-04
  -10.5799999      -2.13267936E-04
  -10.5699997      -2.11299019E-04
  -10.5600004      -1.82827163E-04
  -10.5500002      -1.26993327E-04
  -10.5400000      -4.63342622E-05
  -10.5299997       5.28131859E-05
  -10.5200005       1.60562471E-04
  -10.5100002       2.64518050E-04
  -10.5000000       3.51550960E-04
  -10.4899998       4.10033303E-04
  -10.4799995       4.32072498E-04
  -10.4700003       4.15205286E-04
  -10.4600000       3.63075553E-04
  -10.4499998       2.84827198E-04
  -10.4399996       1.93255590E-04
  -10.4300003       1.02091901E-04
  -10.4200001       2.30553451E-05
  -10.4099998      -3.65887790E-05
  -10.3999996      -7.53201166E-05
  -10.3900003      -9.71377231E-05
  -10.3800001      -1.09849825E-04
  -10.3699999      -1.22319208E-04
  -10.3599997      -1.41409793E-04
  -10.3500004      -1.69489751E-04
  -10.3400002      -2.03222284E-04
  -10.3299999      -2.34041989E-04
  -10.3199997      -2.50262063E-04
  -10.3100004      -2.40304580E-04
  -10.3000002      -1.96220833E-04
  -10.2900000      -1.16562733E-04
  -10.2799997      -7.80915889E-06
  -10.2700005       1.16091789E-04
  -10.2600002       2.36029227E-04
  -10.2500000       3.31383635E-04
  -10.2399998       3.84192332E-04
  -10.2299995       3.82869737E-04
  -10.2200003       3.24642606E-04
  -10.2100000       2.16180328E-04
  -10.1999998       7.23264457E-05
  -10.1899996      -8.67326453E-05
  -10.1800003      -2.39202956E-04
  -10.1700001      -3.65511893E-04
  -10.1599998      -4.51462431E-04
  -10.1499996      -4.90147679E-04
  -10.1400003      -4.82363947E-04
  -10.1300001      -4.35582828E-04
  -10.1199999      -3.61814251E-04
  -10.1099997      -2.74864986E-04
  -10.1000004      -1.87554091E-04
  -10.0900002      -1.09396962E-04
  -10.0799999      -4.51405867E-05
  -10.0699997       5.64088123E-06
  -10.0600004       4.78708498E-05
  -10.0500002       8.93739925E-05
  -10.0400000       1.38667834E-04
  -10.0299997       2.02558324E-04
  -10.0200005       2.84004695E-04
  -10.0100002       3.80697311E-04
  -10.0000000       4.84691875E-04
  -9.98999977       5.83268586E-04
  -9.97999954       6.60953519E-04
  -9.97000027       7.02395511E-04
  -9.96000004       6.95577997E-04
  -9.94999981       6.34723459E-04
  -9.93999958       5.22248854E-04
  -9.93000031       3.69278743E-04
  -9.92000008       1.94487598E-04
  -9.90999985       2.13850726E-05
  -9.89999962      -1.25505729E-04
  -9.89000034      -2.24868243E-04
  -9.88000011      -2.62385642E-04
  -9.86999989      -2.33342114E-04
  -9.85999966      -1.43491969E-04
  -9.85000038      -8.00200087E-06
  -9.84000015       1.51336295E-04
  -9.82999992       3.10076342E-04
  -9.81999969       4.45481943E-04
  -9.81000042       5.40430541E-04
  -9.80000019       5.86101494E-04
  -9.78999996       5.82957175E-04
  -9.77999973       5.39881759E-04
  -9.77000046       4.71722306E-04
  -9.76000023       3.95800133E-04
  -9.75000000       3.28157388E-04
  -9.73999977       2.80339969E-04
  -9.72999954       2.57377716E-04
  -9.72000027       2.57344305E-04
  -9.71000004       2.72519799E-04
  -9.69999981       2.91816628E-04
  -9.68999958       3.03849694E-04
  -9.68000031       2.99895706E-04
  -9.67000008       2.76034727E-04
  -9.65999985       2.33979910E-04
  -9.64999962       1.80437943E-04
  -9.64000034       1.25213832E-04
  -9.63000011       7.85873053E-05
  -9.61999989       4.86635290E-05
  -9.60999966       3.93878800E-05
  -9.60000038       4.97224937E-05
  -9.59000015       7.41577096E-05
  -9.57999992       1.04366460E-04
  -9.56999969       1.31506225E-04
  -9.56000042       1.48514111E-04
  -9.55000019       1.51767497E-04
  -9.53999996       1.41687138E-04
  -9.52999973       1.22175785E-04
  -9.52000046       9.91198831E-05
  -9.51000023       7.84359654E-05
  -9.50000000       6.42483719E-05
  -9.48999977       5.77127576E-05
  -9.47999954       5.67830539E-05
  -9.47000027       5.69300209E-05
  -9.46000004       5.25479700E-05
  -9.44999981       3.86134634E-05
  -9.43999958       1.21294006E-05
  -9.43000031      -2.70025776E-05
  -9.42000008      -7.58382084E-05
  -9.40999985      -1.28913554E-04
  -9.39999962      -1.79207156E-04
  -9.39000034      -2.19249865E-04
  -9.38000011      -2.42132650E-04
  -9.36999989      -2.42279260E-04
  -9.35999966      -2.15980734E-04
  -9.35000038      -1.61776697E-04
  -9.34000015      -8.07759134E-05
  -9.32999992       2.30642745E-05
  -9.31999969       1.42792342E-04
  -9.31000042       2.68637610E-04
  -9.30000019       3.88710585E-04
  -9.28999996       4.90341103E-04
  -9.27999973       5.61979890E-04
  -9.27000046       5.95360005E-04
  -9.26000023       5.87428454E-04
  -9.25000000       5.41492773E-04
  -9.23999977       4.67135949E-04
  -9.22999954       3.78723082E-04
  -9.22000027       2.92697892E-04
  -9.21000004       2.24235439E-04
  -9.19999981       1.84058255E-04
  -9.18999958       1.76252477E-04
  -9.18000031       1.97701520E-04
  -9.17000008       2.39338711E-04
  -9.15999985       2.88916548E-04
  -9.14999962       3.34547163E-04
  -9.14000034       3.68023844E-04
  -9.13000011       3.86973261E-04
  -9.11999989       3.95208888E-04
  -9.10999966       4.01177123E-04
  -9.10000038       4.14949172E-04
  -9.09000015       4.44652047E-04
  -9.07999992       4.93412139E-04
  -9.06999969       5.57743129E-04
  -9.06000042       6.27889822E-04
  -9.05000019       6.90063927E-04
  -9.03999996       7.29949155E-04
  -9.02999973       7.36484129E-04
  -9.02000046       7.04859965E-04
  -9.01000023       6.37910329E-04
  -9.00000000       5.45550662E-04
  -8.98999977       4.42484597E-04
  -8.97999954       3.44865868E-04
  -8.97000027       2.66849471E-04
  -8.96000004       2.17918991E-04
  -8.94999981       2.01577423E-04
  -8.93999958       2.15541746E-04
  -8.93000031       2.53145758E-04
  -8.92000008       3.05364607E-04
  -8.90999985       3.62808059E-04
  -8.89999962       4.17180738E-04
  -8.89000034       4.62000346E-04
  -8.88000011       4.92672902E-04
  -8.86999989       5.06232202E-04
  -8.85999966       5.01089322E-04
  -8.85000038       4.77016758E-04
  -8.84000015       4.35369788E-04
  -8.82999992       3.79345380E-04
  -8.81999969       3.13983212E-04
  -8.81000042       2.45675794E-04
  -8.80000019       1.81153635E-04
  -8.78999996       1.26161118E-04
  -8.77999973       8.42291702E-05
  -8.77000046       5.59884793E-05
  -8.76000023       3.93222253E-05
  -8.75000000       3.03686502E-05
  -8.73999977       2.50614758E-05
  -8.72999954       2.06698387E-05
  -8.72000027       1.67662492E-05
  -8.71000004       1.52431467E-05
  -8.69999981       1.93519627E-05
  -8.68999958       3.21234875E-05
  -8.68000031       5.47961063E-05
  -8.67000008       8.59100546E-05
  -8.65999985       1.21494406E-04
  -8.64999962       1.56355411E-04
  -8.64000034       1.86021978E-04
  -8.63000011       2.08596874E-04
  -8.61999989       2.25732976E-04
  -8.60999966       2.42234382E-04
  -8.60000038       2.64286937E-04
  -8.59000015       2.96869490E-04
  -8.57999992       3.41274048E-04
  -8.56999969       3.93716095E-04
  -8.56000042       4.45698592E-04
  -8.55000019       4.86194651E-04
  -8.53999996       5.05050470E-04
  -8.52999973       4.96518682E-04
  -8.52000046       4.61701769E-04
  -8.51000023       4.08989639E-04
  -8.50000000       3.52221134E-04
  -8.48999977       3.07065959E-04
  -8.47999954       2.86742783E-04
  -8.47000027       2.98432162E-04
  -8.46000004       3.41521576E-04
  -8.44999981       4.08205058E-04
  -8.43999958       4.86167846E-04
  -8.43000031       5.62399800E-04
  -8.42000008       6.26843714E-04
  -8.40999985       6.74712588E-04
  -8.39999962       7.06839142E-04
  -8.39000034       7.28154671E-04
  -8.38000011       7.45048688E-04
  -8.36999989       7.62702082E-04
  -8.35999966       7.83392868E-04
  -8.35000038       8.06302472E-04
  -8.34000015       8.28698743E-04
  -8.32999992       8.47807387E-04
  -8.31999969       8.62433633E-04
  -8.31000042       8.73553916E-04
  -8.30000019       8.83589208E-04
  -8.28999996       8.94695346E-04
  -8.27999973       9.06886475E-04
  -8.27000046       9.16945341E-04
  -8.26000023       9.18787264E-04
  -8.25000000       9.05347930E-04
  -8.23999977       8.71397962E-04
  -8.22999954       8.16221465E-04
  -8.22000027       7.45042460E-04
  -8.21000004       6.68489083E-04
  -8.19999981       6.00105210E-04
  -8.18999958       5.52677549E-04
  -8.18000031       5.34641847E-04
  -8.17000008       5.47851378E-04
  -8.15999985       5.87508839E-04
  -8.14999962       6.44251180E-04
  -8.14000034       7.07551546E-04
  -8.13000011       7.69091654E-04
  -8.11999989       8.24777468E-04
  -8.10999966       8.74630408E-04
  -8.10000038       9.20674240E-04
  -8.09000015       9.63807513E-04
  -8.07999992       1.00113708E-03
  -8.06999969       1.02513528E-03
  -8.06000042       1.02528231E-03
  -8.05000019       9.91824199E-04
  -8.03999996       9.20314575E-04
  -8.02999973       8.15112784E-04
  -8.02000046       6.90226443E-04
  -8.01000023       5.66766830E-04
  -8.00000000       4.67537844E-04
  -7.98999977       4.10428183E-04
  -7.98000002       4.02876642E-04
  -7.96999979       4.39461437E-04
  -7.96000004       5.03648364E-04
  -7.94999981       5.73277357E-04
  -7.94000006       6.27988717E-04
  -7.92999983       6.56013726E-04
  -7.92000008       6.57896453E-04
  -7.90999985       6.45759923E-04
  -7.90000010       6.38317317E-04
  -7.88999987       6.53396186E-04
  -7.88000011       7.00693578E-04
  -7.86999989       7.77451554E-04
  -7.86000013       8.68722680E-04
  -7.84999990       9.52231989E-04
  -7.84000015       1.00614119E-03
  -7.82999992       1.01691775E-03
  -7.82000017       9.84421698E-04
  -7.80999994       9.22298990E-04
  -7.80000019       8.53466801E-04
  -7.78999996       8.02269671E-04
  -7.78000021       7.86127115E-04
  -7.76999998       8.09695397E-04
  -7.76000023       8.63668742E-04
  -7.75000000       9.28648515E-04
  -7.73999977       9.82654165E-04
  -7.73000002       1.00951071E-03
  -7.71999979       1.00502907E-03
  -7.71000004       9.78708384E-04
  -7.69999981       9.50347690E-04
  -7.69000006       9.42829822E-04
  -7.67999983       9.73744609E-04
  -7.67000008       1.04892533E-03
  -7.65999985       1.16024981E-03
  -7.65000010       1.28845905E-03
  -7.63999987       1.40988745E-03
  -7.63000011       1.50456931E-03
  -7.61999989       1.56271120E-03
  -7.61000013       1.58717518E-03
  -7.59999990       1.59115798E-03
  -7.59000015       1.59206113E-03
  -7.57999992       1.60398288E-03
  -7.57000017       1.63175783E-03
  -7.55999994       1.66885869E-03
  -7.55000019       1.69998675E-03
  -7.53999996       1.70738203E-03
  -7.53000021       1.67844899E-03
  -7.51999998       1.61177909E-03
  -7.51000023       1.51922274E-03
  -7.50000000       1.42311887E-03
  -7.48999977       1.34958210E-03
  -7.48000002       1.32020644E-03
  -7.46999979       1.34513283E-03
  -7.46000004       1.41992816E-03
  -7.44999981       1.52733771E-03
  -7.44000006       1.64322159E-03