  -16.0000000       0.00000000    
  -15.9899998       0.00000000    
  -15.9799995       0.00000000    
  -15.9700003       0.00000000    
  -15.9600000       0.00000000    
  -15.9499998       0.00000000    
  -15.9399996       0.00000000    
  -15.9300003       0.00000000    
  -15.9200001       0.00000000    
  -15.9099998       0.00000000    
  -15.8999996       3.23607460E-40
  -15.8900003       4.76794185E-39
  -15.8800001       2.45596165E-38
  -15.8699999      -5.65571347E-38
  -15.8599997      -1.97458191E-36
  -15.8500004      -1.90263776E-35
  -15.8400002      -1.27425367E-34
  -15.8299999      -6.87363526E-34
  -15.8199997      -3.15389800E-33
  -15.8100004      -1.26222482E-32
  -15.8000002      -4.46306435E-32
  -15.7900000      -1.40400869E-31
  -15.7799997      -3.94325152E-31
  -15.7700005      -9.89138341E-31
  -15.7600002      -2.20813567E-30
  -15.7500000      -4.34238860E-30
  -15.7399998      -7.34482273E-30
  -15.7299995      -1.00560295E-29
  -15.7200003      -8.95207447E-30
  -15.7100000       3.21343029E-30
  -15.6999998       3.77226752E-29
  -15.6899996       1.07109270E-28
  -15.6800003       2.16917923E-28
  -15.6700001       3.51119731E-28
  -15.6599998       4.54607771E-28
  -15.6499996       4.23093827E-28
  -15.6400003       1.17157629E-28
  -15.6300001      -5.83227921E-28
  -15.6199999      -1.68231714E-27
  -15.6099997      -2.96151538E-27
  -15.6000004      -3.93297929E-27
  -15.5900002      -3.94446553E-27
  -15.5799999      -2.48243761E-27
  -15.5699997       4.15269978E-28
  -15.5600004       3.92705898E-27
  -15.5500002       6.82747943E-27
  -15.5400000       8.77702436E-27
  -15.5299997       1.21973773E-26
  -15.5200005       2.33100601E-26
  -15.5100002       4.98407343E-26
  -15.5000000       9.29402392E-26
  -15.4899998       1.33447717E-25
  -15.4799995       1.18475137E-25
  -15.4700003      -3.79323705E-26
  -15.4600000      -4.21344809E-25
  -15.4499998      -1.03768243E-24
  -15.4399996      -1.69913263E-24
  -15.4300003      -1.92935557E-24
  -15.4200001      -9.89928632E-25
  -15.4099998       1.85135103E-24
  -15.3999996       6.74686384E-24
  -15.3900003       1.24952089E-23
  -15.3800001       1.59364213E-23
  -15.3699999       1.21428641E-23
  -15.3599997      -3.91813130E-24
  -15.3500004      -3.39693950E-23
  -15.3400002      -7.19522556E-23
  -15.3299999      -1.00590866E-22
  -15.3199997      -9.23024246E-23
  -15.3100004      -1.77947251E-23
  -15.3000002       1.36514058E-22
  -15.2900000       3.45973188E-22
  -15.2799997       5.30259628E-22
  -15.2700005       5.56327329E-22
  -15.2600002       2.76420749E-22
  -15.2500000      -3.94632426E-22
  -15.2399998      -1.37975655E-21
  -15.2299995      -2.36091443E-21
  -15.2200003      -2.78374892E-21
  -15.2100000      -2.00269655E-21
  -15.1999998       4.19748874E-22
  -15.1899996       4.32719060E-21
  -15.1800003       8.65975706E-21
  -15.1700001       1.14450802E-20
  -15.1599998       1.02833583E-20
  -15.1499996       3.35768363E-21
  -15.1400003      -9.27792109E-21
  -15.1300001      -2.46810662E-20
  -15.1199999      -3.69808897E-20
  -15.1099997      -3.88621375E-20
  -15.1000004      -2.45547789E-20
  -15.0900002       6.55400160E-21
  -15.0799999       4.73816907E-20
  -15.0699997       8.36258855E-20
  -15.0600004       9.83996479E-20
  -15.0500002       8.02520355E-20
  -15.0400000       3.13094389E-20
  -15.0299997      -2.95367908E-20
  -15.0200005      -7.30433439E-20
  -15.0100002      -7.65411870E-20
  -15.0000000      -4.56448279E-20
  -14.9899998      -2.79847770E-20
  -14.9799995      -1.03162761E-19
  -14.9700003      -3.38698692E-19
  -14.9600000      -7.18039766E-19
  -14.9499998      -1.07042331E-18
  -14.9399996      -1.05336219E-18
  -14.9300003      -2.41605266E-19
  -14.9200001       1.65247060E-18
  -14.9099998       4.46687002E-18
  -14.8999996       7.31178279E-18
  -14.8900003       8.51979653E-18
  -14.8800001       6.02068827E-18
  -14.8699999      -1.77396265E-18
  -14.8599997      -1.47235750E-17
  -14.8500004      -2.97964386E-17
  -14.8400002      -4.06851630E-17
  -14.8299999      -3.89140568E-17
  -14.8199997      -1.68052462E-17
  -14.8100004       2.80811407E-17
  -14.8000002       8.84148210E-17
  -14.7900000       1.44720741E-16
  -14.7799997       1.67630123E-16
  -14.7700005       1.26322312E-16
  -14.7600002       2.53343501E-18
  -14.7500000      -1.93571142E-16
  -14.7399998      -4.12293949E-16
  -14.7299995      -5.65971692E-16
  -14.7200003      -5.49237762E-16
  -14.7100000      -2.78289578E-16
  -14.6999998       2.59311566E-16
  -14.6899996       9.62000200E-16
  -14.6800003       1.60195996E-15
  -14.6700001       1.86401099E-15
  -14.6599998       1.44314276E-15
  -14.6499996       1.85223818E-16
  -14.6400003      -1.77138645E-15
  -14.6300001      -3.91588329E-15
  -14.6199999      -5.41097310E-15
  -14.6099997      -5.30293701E-15
  -14.6000004      -2.87943556E-15
  -14.5900002       1.91298622E-15
  -14.5799999       8.14460380E-15
  -14.5699997       1.38514425E-14
  -14.5600004       1.63990407E-14
  -14.5500002       1.32877895E-14
  -14.5400000       3.25230836E-15
  -14.5299997      -1.26773194E-14
  -14.5200005      -3.06065022E-14
  -14.5100002      -4.41370979E-14
  -14.5000000      -4.58938646E-14
  -14.4899998      -3.00741318E-14
  -14.4799995       4.58928931E-15
  -14.4700003       5.24649700E-14
  -14.4600000       1.00426672E-13
  -14.4499998       1.29942498E-13
  -14.4399996       1.22068588E-13
  -14.4300003       6.45263872E-14
  -14.4200001      -4.10564120E-14
  -14.4099998      -1.74418639E-13
  -14.3999996      -2.97140730E-13
  -14.3900003      -3.60017571E-13
  -14.3800001      -3.17063460E-13
  -14.3699999      -1.43360367E-13
  -14.3599997       1.48378949E-13
  -14.3500004       4.98911784E-13
  -14.3400002       8.06973900E-13
  -14.3299999       9.50065764E-13
  -14.3199997       8.19601548E-13
  -14.3100004       3.62919086E-13
  -14.3000002      -3.80046363E-13
  -14.2900000      -1.25955735E-12
  -14.2799997      -2.03018245E-12
  -14.2700005      -2.40114807E-12
  -14.2600002      -2.11732801E-12
  -14.2500000      -1.05357465E-12
  -14.2399998       7.04214736E-13
  -14.2299995       2.82123847E-12
  -14.2200003       4.74375227E-12
  -14.2100000       5.80693002E-12
  -14.1999998       5.40911283E-12
  -14.1899996       3.21716417E-12
  -14.1800003      -6.51541971E-13
  -14.1700001      -5.53262557E-12
  -14.1599998      -1.02567069E-11
  -14.1499996      -1.33555510E-11
  -14.1400003      -1.34158466E-11
  -14.1300001      -9.51592017E-12
  -14.1199999      -1.63891557E-12
  -14.1099997       9.06556601E-12
  -14.1000004       2.02893327E-11
  -14.0900002       2.89141159E-11
  -14.0799999       3.16920899E-11
  -14.0699997       2.61513190E-11
  -14.0600004       1.15254455E-11
  -14.0500002      -1.05542649E-11
  -14.0400000      -3.58682563E-11
  -14.0299997      -5.81100550E-11
  -14.0200005      -7.01221442E-11
  -14.0100002      -6.57088203E-11
  -14.0000000      -4.16600573E-11
  -13.9899998       5.38583826E-13
  -13.9799995       5.38839112E-11
  -13.9700003       1.06390861E-10
  -13.9600000       1.43187504E-10
  -13.9499998       1.49973103E-10
  -13.9399996       1.17198209E-10
  -13.9300003       4.39532091E-11
  -13.9200001      -5.96209124E-11
  -13.9099998      -1.72456618E-10
  -13.8999996      -2.65804684E-10
  -13.8900003      -3.09429371E-10
  -13.8800001      -2.79691798E-10
  -13.8699999      -1.67665229E-10
  -13.8599997       1.50153778E-11
  -13.8500004       2.34743530E-10
  -13.8400002       4.40362191E-10
  -13.8299999       5.73447345E-10
  -13.8199997       5.82821513E-10
  -13.8100004       4.40113418E-10
  -13.8000002       1.52218252E-10
  -13.7900000      -2.33457365E-10
  -13.7799997      -6.33868680E-10
  -13.7700005      -9.45950762E-10
  -13.7600002      -1.07070763E-09
  -13.7500000      -9.40702294E-10
  -13.7399998      -5.43987411E-10
  -13.7299995       6.27522617E-11
  -13.7200003       7.57363949E-10
  -13.7100000       1.37366274E-09
  -13.6999998       1.73839776E-09
  -13.6899996       1.71627534E-09
  -13.6800003       1.25211741E-09
  -13.6700001       3.98259092E-10
  -13.6599998      -6.82586432E-10
  -13.6499996      -1.74361148E-09
  -13.6400003      -2.50675369E-09
  -13.6300001      -2.73189182E-09
  -13.6199999      -2.28622743E-09
  -13.6099997      -1.19518972E-09
  -13.6000004       3.41597584E-10
  -13.5900002       1.97876004E-09
  -13.5799999       3.29693717E-09
  -13.5699997       3.90492172E-09
  -13.5600004       3.54910390E-09
  -13.5500002       2.20172347E-09
  -13.5400000       1.00845401E-10
  -13.5299997      -2.27608932E-09
  -13.5200005      -4.30811919E-09
  -13.5100002      -5.38064082E-09
  -13.5000000      -5.05683095E-09
  -13.4899998      -3.22706772E-09
  -13.4799995      -1.91702321E-10
  -13.4700003       3.35664230E-09
  -13.4600000       6.46324994E-09
  -13.4499998       8.13715761E-09
  -13.4399996       7.62665842E-09
  -13.4300003       4.67664218E-09
  -13.4200001      -3.07111281E-10
  -13.4099998      -6.24946006E-09
  -13.3999996      -1.15843939E-08
  -13.3900003      -1.46056482E-08
  -13.3800001      -1.39241765E-08
  -13.3699999      -8.92542573E-09
  -13.3599997      -9.91284971E-11
  -13.3500004       1.08743938E-08
  -13.3400002       2.13522870E-08
  -13.3299999       2.82690245E-08
  -13.3199997       2.88992776E-08
  -13.3100004       2.16769251E-08
  -13.3000002       6.85674717E-09
  -13.2900000      -1.31915483E-08
  -13.2799997      -3.42057263E-08
  -13.2700005      -5.08056779E-08
  -13.2600002      -5.77129100E-08
  -13.2500000      -5.11683176E-08
  -13.2399998      -3.02048768E-08
  -13.2299995       2.58858690E-09
  -13.2200003       4.11028225E-08
  -13.2100000       7.66689539E-08
  -13.1999998       9.98467726E-08
  -13.1899996       1.02708043E-07
  -13.1800003       8.11001541E-08
  -13.1700001       3.63005128E-08
  -13.1599998      -2.44583571E-08
  -13.1499996      -8.88961864E-08
  -13.1400003      -1.42001426E-07
  -13.1300001      -1.69366174E-07
  -13.1199999      -1.60833423E-07
  -13.1099997      -1.13575496E-07
  -13.1000004      -3.37519950E-08
  -13.0900002       6.38511963E-08
  -13.0799999       1.58362610E-07
  -13.0699997       2.27174596E-07
  -13.0600004       2.51229807E-07
  -13.0500002       2.20038345E-07
  -13.0400000       1.35151083E-07
  -13.0299997       1.10627516E-08
  -13.0200005      -1.26948549E-07
  -13.0100002      -2.47828353E-07
  -13.0000000      -3.21653118E-07
  -12.9899998      -3.26930603E-07
  -12.9799995      -2.56545150E-07
  -12.9700003      -1.20773322E-07
  -12.9600000       5.36282876E-08
  -12.9499998       2.28386668E-07
  -12.9399996       3.61875294E-07
  -12.9300003       4.18776324E-07
  -12.9200001       3.79043854E-07
  -12.9099998       2.43966980E-07
  -12.8999996       3.76606408E-08
  -12.8900003      -1.96718872E-07
  -12.8800001      -4.05534962E-07
  -12.8699999      -5.36348807E-07
  -12.8599997      -5.50213940E-07
  -12.8500004      -4.31785338E-07
  -12.8400002      -1.94776888E-07
  -12.8299999       1.18774544E-07
  -12.8199997       4.45654138E-07
  -12.8100004       7.13802820E-07
  -12.8000002       8.57399016E-07
  -12.7900000       8.31526279E-07
  -12.7799997       6.23222661E-07
  -12.7700005       2.56371720E-07
  -12.7600002      -2.10866204E-07
  -12.7500000      -6.95830181E-07
  -12.7399998      -1.10655628E-06
  -12.7299995      -1.35942594E-06
  -12.7200003      -1.39572205E-06
  -12.7100000      -1.19370611E-06
  -12.6999998      -7.73700719E-07
  -12.6899996      -1.95063748E-07
  -12.6800003       4.54420331E-07
  -12.6700001       1.07464609E-06
  -12.6599998       1.57156273E-06
  -12.6499996       1.87408989E-06
  -12.6400003       1.94610880E-06
  -12.6300001       1.79103733E-06
  -12.6199999       1.44803289E-06
  -12.6099997       9.80628442E-07
  -12.6000004       4.60298196E-07
  -12.5900002      -5.13270564E-08
  -12.5799999      -5.17373110E-07
  -12.5699997      -9.33931858E-07
  -12.5600004      -1.32899572E-06
  -12.5500002      -1.75149819E-06
  -12.5400000      -2.25212557E-06
  -12.5299997      -2.85972078E-06
  -12.5200005      -3.55863222E-06
  -12.5100002      -4.27287432E-06
  -12.5000000      -4.86219051E-06
  -12.4899998      -5.13309169E-06
  -12.4799995      -4.86496492E-06
  -12.4700003      -3.84796431E-06
  -12.4600000      -1.92633183E-06
  -12.4499998       9.61230512E-07
  -12.4399996       4.75287925E-06
  -12.4300003       9.25388667E-06
  -12.4200001       1.41497912E-05
  -12.4099998       1.90419141E-05
  -12.3999996       2.35000025E-05
  -12.3900003       2.71226982E-05
  -12.3800001       2.95944374E-05
  -12.3699999       3.07274859E-05
  -12.3599997       3.04806599E-05
  -12.3500004       2.89510845E-05
  -12.3400002       2.63412294E-05
  -12.3299999       2.29091511E-05
  -12.3199997       1.89137827E-05
  -12.3100004       1.45683916E-05
  -12.3000002       1.00134112E-05
  -12.2900000       5.31505793E-06
  -12.2799997       4.89523870E-07
  -12.2700005      -4.45428986E-06
  -12.2600002      -9.46587352E-06
  -12.2500000      -1.44127853E-05
  -12.2399998      -1.90622777E-05
  -12.2299995      -2.30931619E-05
  -12.2200003      -2.61386976E-05
  -12.2100000      -2.78529442E-05
  -12.1999998      -2.79860960E-05
  -12.1899996      -2.64507180E-05
  -12.1800003      -2.33614810E-05
  -12.1700001      -1.90362589E-05
  -12.1599998      -1.39550157E-05
  -12.1499996      -8.68291863E-06
  -12.1400003      -3.77283504E-06
  -12.1300001       3.31990094E-07
  -12.1199999       3.37377378E-06
  -12.1099997       5.31765272E-06
  -12.1000004       6.34247044E-06
  -12.0900002       6.78719425E-06
  -12.0799999       7.06525952E-06
  -12.0699997       7.56612917E-06
  -12.0600004       8.56560655E-06
  -12.0500002       1.01637015E-05
  -12.0400000       1.22618758E-05
  -12.0299997       1.45822687E-05
  -12.0200005       1.67225371E-05
  -12.0100002       1.82331933E-05
  -12.0000000       1.87014193E-05
  -11.9899998       1.78262562E-05
  -11.9799995       1.54740919E-05
  -11.9700003       1.17087420E-05
  -11.9600000       6.79542154E-06
  -11.9499998       1.18109995E-06
  -11.9399996      -4.54513793E-06
  -11.9300003      -9.70866677E-06
  -11.9200001      -1.36206345E-05
  -11.9099998      -1.56615879E-05
  -11.8999996      -1.53727287E-05
  -11.8900003      -1.25457964E-05
  -11.8800001      -7.29759677E-06
  -11.8699999      -1.11352485E-07
  -11.8599997       8.17301770E-06
  -11.8500004       1.64324538E-05
  -11.8400002       2.34002182E-05
  -11.8299999       2.78584721E-05
  -11.8199997       2.88557385E-05
  -11.8100004       2.59088447E-05
  -11.8000002       1.91444578E-05
  -11.7900000       9.34103173E-06
  -11.7799997      -2.15171599E-06
  -11.7700005      -1.36142608E-05
  -11.7600002      -2.32507991E-05
  -11.7500000      -2.95219434E-05
  -11.7399998      -3.14495446E-05
  -11.7299995      -2.88266037E-05
  -11.7200003      -2.22809140E-05
  -11.7100000      -1.31699107E-05
  -11.6999998      -3.32023660E-06
  -11.6899996       5.33906223E-06
  -11.6800003       1.11747022E-05
  -11.6700001       1.31932666E-05
  -11.6599998       1.12544949E-05
  -11.6499996       6.10342022E-06
  -11.6400003      -7.90136937E-07
  -11.6300001      -7.55356541E-06
  -11.6199999      -1.23270265E-05
  -11.6099997      -1.36823455E-05
  -11.6000004      -1.09525954E-05
  -11.5900002      -4.39814812E-06
  -11.5799999       4.82964060E-06
  -11.5699997       1.49214657E-05
  -11.5600004       2.37904860E-05
  -11.5500002       2.95179070E-05
  -11.5400000       3.07668633E-05
  -11.5299997       2.70745895E-05
  -11.5200005       1.89597595E-05
  -11.5100002       7.82258212E-06
  -11.5000000      -4.33945161E-06
  -11.4899998      -1.53375458E-05
  -11.4799995      -2.32312941E-05
  -11.4700003      -2.67086125E-05
  -11.4600000      -2.53273938E-05
  -11.4499998      -1.95721568E-05
  -11.4399996      -1.07198230E-05
  -11.4300003      -5.49553306E-07
  -11.4200001       9.03689488E-06
  -11.4099998       1.64018566E-05
  -11.3999996       2.04854441E-05
  -11.3900003       2.09853642E-05
  -11.3800001       1.83727298E-05
  -11.3699999       1.37489133E-05
  -11.3599997       8.58012118E-06
  -11.3500004       4.36854361E-06
  -11.3400002       2.32784532E-06
  -11.3299999       3.12595785E-06
  -11.3199997       6.74210560E-06
  -11.3100004       1.24617591E-05
  -11.3000002       1.90077626E-05
  -11.2900000       2.47825810E-05
  -11.2799997       2.81788125E-05
  -11.2700005       2.79045507E-05
  -11.2600002       2.32676030E-05
  -11.2500000       1.43677453E-05
  -11.2399998       2.15839259E-06
  -11.2299995      -1.16426490E-05
  -11.2200003      -2.47908429E-05
  -11.2100000      -3.48734720E-05
  -11.1999998      -3.97374934E-05
  -11.1899996      -3.79165140E-05
  -11.1800003      -2.89776344E-05
  -11.1700001      -1.37138322E-05
  -11.1599998       5.87264367E-06
  -11.1499996       2.68161111E-05
  -11.1400003       4.56396228E-05
  -11.1300001       5.89463343E-05
  -11.1199999       6.40472499E-05
  -11.1099997       5.95049787E-05
  -11.1000004       4.54793553E-05
  -11.0900002       2.37927379E-05
  -11.0799999      -2.31503554E-06
  -11.0699997      -2.87093171E-05
  -11.0600004      -5.10688806E-05
  -11.0500002      -6.56453049E-05
  -11.0400000      -6.99246521E-05
  -11.0299997      -6.30604554E-05
  -11.0200005      -4.59942021E-05
  -11.0100002      -2.12458090E-05
  -11.0000000       7.57360613E-06
  -10.9899998       3.64168045E-05
  -10.9799995       6.14826495E-05
  -10.9700003       7.97871471E-05
  -10.9600000       8.95196135E-05
  -10.9499998       9.01379826E-05
  -10.9399996       8.22224392E-05
  -10.9300003       6.71624730E-05
  -10.9200001       4.67845821E-05
  -10.9099998       2.30286278E-05
  -10.8999996      -2.24958990E-06
  -10.8900003      -2.73229089E-05
  -10.8800001      -5.05155003E-05
  -10.8699999      -7.00803721E-05
  -10.8599997      -8.41287838E-05
  -10.8500004      -9.06964706E-05
  -10.8400002      -8.79890358E-05
  -10.8299999      -7.47868689E-05
  -10.8199997      -5.09262209E-05
  -10.8100004      -1.77261627E-05
  -10.8000002       2.17835623E-05
  -10.7900000       6.29539063E-05
  -10.7799997       9.99859039E-05
  -10.7700005       1.26751082E-04
  -10.7600002       1.37846771E-04
  -10.7500000       1.29697451E-04
  -10.7399998       1.01477912E-04
  -10.7299995       5.56446212E-05
  -10.7200003      -2.07986977E-06
  -10.7100000      -6.33286108E-05
  -10.6999998      -1.18262979E-04
  -10.6899996      -1.57130169E-04
  -10.6800003      -1.71953565E-04
  -10.6700001      -1.58061637E-04
  -10.6599998      -1.15169365E-04
  -10.6499996      -4.77871690E-05
  -10.6400003       3.51652161E-05
  -10.6300001       1.21531506E-04
  -10.6199999       1.97734145E-04
  -10.6099997       2.50966463E-04
  -10.6000004       2.71411554E-04
  -10.5900002       2.54106533E-04
  -10.5799999       2.00101349E-04
  -10.5699997       1.16658128E-04
  -10.5600004       1.63846780E-05
  -10.5500002      -8.46203257E-05
  -10.5400000      -1.69347812E-04
  -10.5299997      -2.22767630E-04
  -10.5200005      -2.34521387E-04
  -10.5100002      -2.00914874E-04
  -10.5000000      -1.25807259E-04
  -10.4899998      -2.01827297E-05
  -10.4799995       9.95657610E-05
  -10.4700003       2.14358341E-04
  -10.4600000       3.05667345E-04
  -10.4499998       3.58672667E-04
  -10.4399996       3.64740379E-04
  -10.4300003       3.22767301E-04
  -10.4200001       2.39162706E-04
  -10.4099998       1.26516752E-04
  -10.3999996       1.26450323E-06
  -10.3900003      -1.19161145E-04
  -10.3800001      -2.19125810E-04
  -10.3699999      -2.87035771E-04
  -10.3599997      -3.16685240E-04
  -10.3500004      -3.07589391E-04
  -10.3400002      -2.64403294E-04
  -10.3299999      -1.95691158E-04
  -10.3199997      -1.12382753E-04
  -10.3100004      -2.62299181E-05
  -10.3000002       5.15228639E-05
  -10.2900000       1.11169633E-04
  -10.2799997       1.45304526E-04
  -10.2700005       1.49400075E-04
  -10.2600002       1.22275014E-04
  -10.2500000       6.64538529E-05
  -10.2399998      -1.16741257E-05
  -10.2299995      -1.02059654E-04
  -10.2200003      -1.91733983E-04
  -10.2100000      -2.66183721E-04
  -10.1999998      -3.11311305E-04
  -10.1899996      -3.15750862E-04
  -10.1800003      -2.73144629E-04
  -10.1700001      -1.83895725E-04
  -10.1599998      -5.59371438E-05
  -10.1499996       9.57952143E-05
  -10.1400003       2.51250545E-04
  -10.1300001       3.88285174E-04
  -10.1199999       4.86323552E-04
  -10.1099997       5.29986573E-04
  -10.1000004       5.11976832E-04
  -10.0900002       4.34625777E-04
  -10.0799999       3.09751602E-04
  -10.0699997       1.56804206E-04
  -10.0600004      -3.92471691E-07
  -10.0500002      -1.37713927E-04
  -10.0400000      -2.34876818E-04
  -10.0299997      -2.78888125E-04
  -10.0200005      -2.66173010E-04
  -10.0100002      -2.03002739E-04
  -10.0000000      -1.04161896E-04
  -9.98999977       9.87924068E-06
  -9.97999954       1.16749688E-04
  -9.97000027       1.96211622E-04
  -9.96000004       2.33698593E-04
  -9.94999981       2.22716917E-04
  -9.93999958       1.65693986E-04
  -9.93000031       7.31608598E-05
  -9.92000008      -3.85188941E-05
  -9.90999985      -1.50383494E-04
  -9.89999962      -2.44403258E-04
  -9.89000034      -3.06605099E-04
  -9.88000011      -3.29203787E-04
  -9.86999989      -3.11390846E-04
  -9.85999966      -2.58737971E-04
  -9.85000038      -1.81471711E-04
  -9.84000015      -9.20991588E-05
  -9.82999992      -2.95832206E-06
  -9.81999969       7.57874950E-05
  -9.81000042       1.37367912E-04
  -9.80000019       1.78736125E-04
  -9.78999996       2.00148701E-04
  -9.77999973       2.04292373E-04
  -9.77000046       1.95301676E-04
  -9.76000023       1.77941372E-04
  -9.75000000       1.57076822E-04
  -9.73999977       1.37390118E-04
  -9.72999954       1.23183432E-04
  -9.72000027       1.18088865E-04
  -9.71000004       1.24583341E-04
  -9.69999981       1.43353245E-04
  -9.68999958       1.72703469E-04
  -9.68000031       2.08290847E-04
  -9.67000008       2.43435905E-04
  -9.65999985       2.70121585E-04
  -9.64999962       2.80565931E-04
  -9.64000034       2.69030425E-04
  -9.63000011       2.33383151E-04
  -9.61999989       1.75939436E-04
  -9.60999966       1.03264836E-04
  -9.60000038       2.49095374E-05
  -9.59000015      -4.86391218E-05
  -9.57999992      -1.08252345E-04
  -9.56999969      -1.48079911E-04
  -9.56000042      -1.66573445E-04
  -9.55000019      -1.66360434E-04
  -9.53999996      -1.53065543E-04
  -9.52999973      -1.33489666E-04
  -9.52000046      -1.13731970E-04
  -9.51000023      -9.78180033E-05
  -9.50000000      -8.71886514E-05
  -9.48999977      -8.10860583E-05
  -9.47999954      -7.75597582E-05
  -9.47000027      -7.46206570E-05
  -9.46000004      -7.10616368E-05
  -9.44999981      -6.66412088E-05
  -9.43999958      -6.16188918E-05
  -9.43000031      -5.59243163E-05
  -9.42000008      -4.84167103E-05
  -9.40999985      -3.66763743E-05
  -9.39999962      -1.75606983E-05
  -9.39000034       1.15686626E-05
  -9.38000011       5.13605119E-05
  -9.36999989       9.93258946E-05
  -9.35999966       1.49583459E-04
  -9.35000038       1.93789660E-04
  -9.34000015       2.23135386E-04
  -9.32999992       2.30877762E-04
  -9.31999969       2.14614061E-04
  -9.31000042       1.77501846E-04
  -9.30000019       1.27906576E-04
  -9.28999996       7.74376822E-05
  -9.27999973       3.78617260E-05
  -9.27000046       1.77779566E-05
  -9.26000023       2.00664017E-05
  -9.25000000       4.09180793E-05
  -9.23999977       7.07883810E-05
  -9.22999954       9.70266701E-05
  -9.22000027       1.07419248E-04
  -9.21000004       9.36072029E-05
  -9.19999981       5.33951243E-05
  -9.18999958      -8.67356903E-06
  -9.18000031      -8.25558454E-05
  -9.17000008      -1.55300688E-04
  -9.15999985      -2.14164465E-04
  -9.14999962      -2.49340228E-04
  -9.14000034      -2.55605439E-04
  -9.13000011      -2.32608159E-04
  -9.11999989      -1.83973010E-04
  -9.10999966      -1.15750780E-04
  -9.10000038      -3.48525682E-05
  -9.09000015       5.20221256E-05
  -9.07999992       1.38758944E-04
  -9.06999969       2.19644848E-04
  -9.06000042       2.89013231E-04
  -9.05000019       3.41154606E-04
  -9.03999996       3.70773923E-04
  -9.02999973       3.73983115E-04
  -9.02000046       3.49519629E-04
  -9.01000023       2.99698731E-04
  -9.00000000       2.30630380E-04
  -8.98999977       1.51451401E-04
  -8.97999954       7.26652652E-05
  -8.97000027       4.01458510E-06
  -8.96000004      -4.74968256E-05
  -8.94999981      -7.88387188E-05
  -8.93999958      -9.10889139E-05
  -8.93000031      -8.84752008E-05
  -8.92000008      -7.66906014E-05
  -8.90999985      -6.10696443E-05
  -8.89999962      -4.52200184E-05
  -8.89000034      -3.04978585E-05
  -8.88000011      -1.63802470E-05
  -8.86999989      -1.45531283E-06
  -8.85999966       1.54545287E-05
  -8.85000038       3.45235749E-05
  -8.84000015       5.48024000E-05
  -8.82999992       7.47360536E-05
  -8.81999969       9.30227980E-05
  -8.81000042       1.09362176E-04
  -8.80000019       1.24688100E-04
  -8.78999996       1.40710777E-04
  -8.77999973       1.58908631E-04
  -8.77000046       1.79384762E-04
  -8.76000023       2.00115275E-04
  -8.75000000       2.17010325E-04
  -8.73999977       2.24914926E-04
  -8.72999954       2.19301597E-04
  -8.72000027       1.98096372E-04
  -8.71000004       1.62960234E-04
  -8.69999981       1.19479271E-04
  -8.68999958       7.60647818E-05
  -8.68000031       4.18097843E-05
  -8.67000008       2.39325545E-05
  -8.65999985       2.56183102E-05
  -8.64999962       4.49735671E-05
  -8.64000034       7.54619323E-05
  -8.63000011       1.07711130E-04
  -8.61999989       1.32134897E-04
  -8.60999966       1.41554847E-04
  -8.60000038       1.33024805E-04
  -8.59000015       1.08342218E-04
  -8.57999992       7.31766195E-05
  -8.56999969       3.51930539E-05
  -8.56000042       1.84482337E-06
  -8.55000019      -2.14418014E-05
  -8.53999996      -3.21716070E-05
  -8.52999973      -3.06239235E-05
  -8.52000046      -1.88783342E-05
  -8.51000023       4.64482781E-07
  -8.50000000       2.52987466E-05
  -8.48999977       5.43674869E-05
  -8.47999954       8.68737188E-05
  -8.47000027       1.21604891E-04
  -8.46000004       1.56050504E-04
  -8.44999981       1.86015401E-04
  -8.43999958       2.06047349E-04
  -8.43000031       2.10674989E-04
  -8.42000008       1.96117064E-04
  -8.40999985       1.61899894E-04
  -8.39999962       1.11794565E-04
  -8.39000034       5.36692278E-05
  -8.38000011      -1.81754172E-06
  -8.36999989      -4.33926944E-05
  -8.35999966      -6.16503676E-05
  -8.35000038      -5.11793951E-05
  -8.34000015      -1.17843292E-05
  -8.32999992       5.14865969E-05
  -8.31999969       1.29458989E-04
  -8.31000042       2.10754195E-04
  -8.30000019       2.84003472E-04
  -8.28999996       3.39830236E-04
  -8.27999973       3.72206036E-04
  -8.27000046       3.78994620E-04
  -8.26000023       3.61716986E-04
  -8.25000000       3.24732566E-04
  -8.23999977       2.74107791E-04
  -8.22999954       2.16439745E-04
  -8.22000027       1.57842835E-04
  -8.21000004       1.03228522E-04
  -8.19999981       5.59370128E-05
  -8.18999958       1.77265792E-05
  -8.18000031      -1.09205048E-05
  -8.17000008      -3.02610588E-05
  -8.15999985      -4.06572181E-05
  -8.14999962      -4.20209326E-05
  -8.14000034      -3.35219411E-05
  -8.13000011      -1.37018442E-05
  -8.11999989       1.89654857E-05
  -8.10999966       6.51718801E-05
  -8.10000038       1.23780977E-04
  -8.09000015       1.91082145E-04
  -8.07999992       2.60620407E-04
  -8.06999969       3.23803135E-04
  -8.06000042       3.71263421E-04
  -8.05000019       3.94712639E-04
  -8.03999996       3.88824003E-04
  -8.02999973       3.52624076E-04
  -8.02000046       2.89972144E-04
  -8.01000023       2.08950325E-04
  -8.00000000       1.20300865E-04
  -7.98999977       3.53301803E-05
  -7.98000002      -3.61469538E-05
  -7.96999979      -8.72800738E-05
  -7.96000004      -1.14734517E-04
  -7.94999981      -1.18296957E-04
  -7.94000006      -9.98216492E-05
  -7.92999983      -6.20035862E-05
  -7.92000008      -7.48159800E-06
  -7.90999985       6.13949960E-05
  -7.90000010       1.42098084E-04
  -7.88999987       2.31023922E-04
  -7.88000011       3.22647393E-04
  -7.86999989       4.09232249E-04
  -7.86000013       4.81426017E-04
  -7.84999990       5.29749203E-04
  -7.84000015       5.46640949E-04
  -7.82999992       5.28468750E-04
  -7.82000017       4.76851332E-04
  -7.80999994       3.98805772E-04
  -7.80000019       3.05569207E-04
  -7.78999996       2.10351005E-04
  -7.78000021       1.25608087E-04
  -7.76999998       6.05893838E-05
  -7.76000023       1.98125108E-05
  -7.75000000       2.84269458E-06
  -7.73999977       5.33927823E-06
  -7.73000002       2.09504888E-05
  -7.71999979       4.34017966E-05
  -7.71000004       6.81104138E-05
  -7.69999981       9.28675727E-05
  -7.69000006       1.17484175E-04
  -7.67999983       1.42669218E-04
  -7.67000008       1.68675178E-04
  -7.65999985       1.94308173E-04
  -7.65000010       2.16745218E-04
  -7.63999987       2.32280581E-04
  -7.63000011       2.37754284E-04
  -7.61999989       2.32130216E-04
  -7.61000013       2.17592300E-04
  -7.59999990       1.99655362E-04
  -7.59000015       1.86107733E-04
  -7.57999992       1.85005236E-04
  -7.57000017       2.02288837E-04
  -7.55999994       2.39772868E-04
  -7.55000019       2.94182857E-04
  -7.53999996       3.57624551E-04
  -7.53000021       4.19424439E-04
  -7.51999998       4.68844140E-04
  -7.51000023       4.97874687E-04
  -7.50000000       5.03268093E-04
  -7.48999977       4.87182871E-04
  -7.48000002       4.56244452E-04
  -7.46999979       4.19316319E-04
  -7.46000004       3.84685409E-04
  -7.44999981       3.57552635E-04
  -7.44000006       3.38620855E-04