  -16.0000000       0.00000000    
  -15.9899998       0.00000000    
  -15.9799995       0.00000000    
  -15.9700003       0.00000000    
  -15.9600000       0.00000000    
  -15.9499998       0.00000000    
  -15.9399996       0.00000000    
  -15.9300003       0.00000000    
  -15.9200001       0.00000000    
  -15.9099998       0.00000000    
  -15.8999996      -0.00000000    
  -15.8900003      -5.67387150E-40
  -15.8800001      -4.19147148E-39
  -15.8699999       8.51424407E-38
  -15.8599997       2.04223256E-36
  -15.8500004       2.29470043E-35
  -15.8400002       1.79568965E-34
  -15.8299999       1.10250240E-33
  -15.8199997       5.62855642E-33
  -15.8100004       2.47199145E-32
  -15.8000002       9.54482664E-32
  -15.7900000       3.28751751E-31
  -15.7799997       1.02005760E-30
  -15.7700005       2.86997059E-30
  -15.7600002       7.35072541E-30
  -15.7500000       1.71652163E-29
  -15.7399998       3.65056229E-29
  -15.7299995       7.03809732E-29
  -15.7200003       1.21739970E-28
  -15.7100000       1.84863491E-28
  -15.6999998       2.34344989E-28
  -15.6899996       2.11969776E-28
  -15.6800003       1.95709044E-29
  -15.6700001      -4.66588788E-28
  -15.6599998      -1.33938865E-27
  -15.6499996      -2.54725112E-27
  -15.6400003      -3.73356003E-27
  -15.6300001      -4.08992216E-27
  -15.6199999      -2.35200709E-27
  -15.6099997       2.87931053E-27
  -15.6000004       1.23262798E-26
  -15.5900002       2.47273782E-26
  -15.5799999       3.53843374E-26
  -15.5699997       3.54281870E-26
  -15.5600004       1.31628021E-26
  -15.5500002      -4.10676827E-26
  -15.5400000      -1.25901103E-25
  -15.5299997      -2.17579005E-25
  -15.5200005      -2.61610608E-25
  -15.5100002      -1.76999569E-25
  -15.5000000       1.15716391E-25
  -15.4899998       6.36104746E-25
  -15.4799995       1.26386601E-24
  -15.4700003       1.67214570E-24
  -15.4600000       1.33852203E-24
  -15.4499998      -2.88359229E-25
  -15.4399996      -3.41952625E-24
  -15.4300003      -7.40815253E-24
  -15.4200001      -1.03086521E-23
  -15.4099998      -8.92049118E-24
  -15.3999996       2.06409486E-25
  -15.3900003       1.85458390E-23
  -15.3800001       4.25257212E-23
  -15.3699999       6.09909260E-23
  -15.3599997       5.55568230E-23
  -15.3500004       6.43592170E-24
  -15.3400002      -9.51079422E-23
  -15.3299999      -2.30132688E-22
  -15.3199997      -3.38907368E-22
  -15.3100004      -3.23635929E-22
  -15.3000002      -7.95597020E-23
  -15.2900000       4.41247290E-22
  -15.2799997       1.14744824E-21
  -15.2700005       1.74609830E-21
  -15.2600002       1.75868534E-21
  -15.2500000       6.71062793E-22
  -15.2399998      -1.76878619E-21
  -15.2299995      -5.17533345E-21
  -15.2200003      -8.24823713E-21
  -15.2100000      -8.84479107E-21
  -15.1999998      -4.62856707E-21
  -15.1899996       5.66525217E-21
  -15.1800003       2.06566338E-20
  -15.1700001       3.51630763E-20
  -15.1599998       4.04529900E-20
  -15.1499996       2.67678328E-20
  -15.1400003      -1.17773693E-20
  -15.1300001      -7.11322336E-20
  -15.1199999      -1.32808836E-19
  -15.1099997      -1.64568578E-19
  -15.1000004      -1.29317824E-19
  -15.0900002      -2.48070718E-21
  -15.0799999       2.06536582E-19
  -15.0699997       4.38242460E-19
  -15.0600004       5.84592372E-19
  -15.0500002       5.18032353E-19
  -15.0400000       1.48514696E-19
  -15.0299997      -5.06329092E-19
  -15.0200005      -1.26866169E-18
  -15.0100002      -1.80450030E-18
  -15.0000000      -1.71449333E-18
  -14.9899998      -7.10984277E-19
  -14.9799995       1.16672605E-18
  -14.9700003       3.39500008E-18
  -14.9600000       4.98440550E-18
  -14.9499998       4.76151630E-18
  -14.9399996       1.90568930E-18
  -14.9300003      -3.41145125E-18
  -14.9200001      -9.57620957E-18
  -14.9099998      -1.36230865E-17
  -14.8999996      -1.21151445E-17
  -14.8900003      -2.77418283E-18
  -14.8800001       1.36063220E-17
  -14.8699999       3.18411166E-17
  -14.8599997       4.26651025E-17
  -14.8500004       3.54186761E-17
  -14.8400002       3.00105883E-18
  -14.8299999      -5.22568506E-17
  -14.8199997      -1.14352664E-16
  -14.8100004      -1.54087138E-16
  -14.8000002      -1.36574190E-16
  -14.7900000      -3.57881975E-17
  -14.7799997       1.47352922E-16
  -14.7700005       3.70415211E-16
  -14.7600002       5.47306421E-16
  -14.7500000       5.65976722E-16
  -14.7399998       3.27599204E-16
  -14.7299995      -2.00429740E-16
  -14.7200003      -9.35415012E-16
  -14.7100000      -1.65849295E-15
  -14.6999998      -2.04466427E-15
  -14.6899996      -1.75389882E-15
  -14.6800003      -5.70960663E-16
  -14.6700001       1.44503344E-15
  -14.6599998       3.86104553E-15
  -14.6499996       5.88362765E-15
  -14.6400003       6.52643545E-15
  -14.6300001       4.92462965E-15
  -14.6199999       7.25995010E-16
  -14.6099997      -5.56851699E-15
  -14.6000004      -1.24675067E-14
  -14.5900002      -1.76803000E-14
  -14.5799999      -1.86753756E-14
  -14.5699997      -1.35158684E-14
  -14.5600004      -1.74925538E-15
  -14.5500002       1.49568570E-14
  -14.5400000       3.27320941E-14
  -14.5299997       4.61495601E-14
  -14.5200005       4.95589558E-14
  -14.5100002       3.88149731E-14
  -14.5000000       1.29169204E-14
  -14.4899998      -2.49756372E-14
  -14.4799995      -6.75559530E-14
  -14.4700003      -1.04529409E-13
  -14.4600000      -1.24689457E-13
  -14.4499998      -1.18407644E-13
  -14.4399996      -7.99522801E-14
  -14.4300003      -9.19604951E-15
  -14.4200001       8.74292636E-14
  -14.4099998       1.96600779E-13
  -14.3999996       2.98220026E-13
  -14.3900003       3.66100433E-13
  -14.3800001       3.69913356E-13
  -14.3699999       2.79590018E-13
  -14.3599997       7.33548015E-14
  -14.3500004      -2.50418881E-13
  -14.3400002      -6.59416857E-13
  -14.3299999      -1.07626614E-12
  -14.3199997      -1.37702024E-12
  -14.3100004      -1.40661690E-12
  -14.3000002      -1.01587857E-12
  -14.2900000      -1.18057352E-13
  -14.2799997       1.24648447E-12
  -14.2700005       2.85844590E-12
  -14.2600002       4.30730581E-12
  -14.2500000       5.04290013E-12
  -14.2399998       4.50195176E-12
  -14.2299995       2.29714685E-12
  -14.2200003      -1.57258874E-12
  -14.2100000      -6.55729897E-12
  -14.1999998      -1.15140363E-11
  -14.1899996      -1.48514447E-11
  -14.1800003      -1.48826281E-11
  -14.1700001      -1.03429331E-11
  -14.1599998      -9.56492589E-13
  -14.1499996       1.21218287E-11
  -14.1400003       2.61784917E-11
  -14.1300001       3.72733476E-11
  -14.1199999       4.10710806E-11
  -14.1099997       3.40594289E-11
  -14.1000004       1.48823003E-11
  -14.0900002      -1.45995438E-11
  -14.0799999      -4.89288818E-11
  -14.0699997      -7.96577110E-11
  -14.0600004      -9.70145839E-11
  -14.0500002      -9.24011354E-11
  -14.0400000      -6.11753426E-11
  -14.0299997      -4.96477729E-12
  -14.0200005       6.72770173E-11
  -14.0100002       1.40056716E-10
  -14.0000000       1.94137539E-10
  -13.9899998       2.10963871E-10
  -13.9799995       1.77792323E-10
  -13.9700003       9.22397228E-11
  -13.9600000      -3.51006030E-11
  -13.9499998      -1.81007140E-10
  -13.9399996      -3.13322784E-10
  -13.9300003      -3.97520766E-10
  -13.9200001      -4.04842299E-10
  -13.9099998      -3.20129423E-10
  -13.8999996      -1.47344609E-10
  -13.8900003       8.88395538E-11
  -13.8800001       3.46147611E-10
  -13.8699999       5.72159986E-10
  -13.8599997       7.14689141E-10
  -13.8500004       7.32867600E-10
  -13.8400002       6.06503903E-10
  -13.8299999       3.41630696E-10
  -13.8199997      -2.89465726E-11
  -13.8100004      -4.50147308E-10
  -13.8000002      -8.53106530E-10
  -13.7900000      -1.16585963E-09
  -13.7799997      -1.32421341E-09
  -13.7700005      -1.28113797E-09
  -13.7600002      -1.01372943E-09
  -13.7500000      -5.27595301E-10
  -13.7399998       1.40943118E-10
  -13.7299995       9.24388566E-10
  -13.7200003       1.72541070E-09
  -13.7100000       2.42092635E-09
  -13.6999998       2.87068391E-09
  -13.6899996       2.93240521E-09
  -13.6800003       2.48481191E-09
  -13.6700001       1.45791068E-09
  -13.6599998      -1.33107164E-10
  -13.6499996      -2.15743334E-09
  -13.6400003      -4.35157554E-09
  -13.6300001      -6.32651931E-09
  -13.6199999      -7.60797025E-09
  -13.6099997      -7.71298581E-09
  -13.6000004      -6.25751406E-09
  -13.5900002      -3.07875103E-09
  -13.5799999       1.65371428E-09
  -13.5699997       7.37026351E-09
  -13.5600004       1.31088536E-08
  -13.5500002       1.76201969E-08
  -13.5400000       1.95744931E-08
  -13.5299997       1.78484996E-08
  -13.5200005       1.18449215E-08
  -13.5100002       1.77408555E-09
  -13.5000000      -1.11817391E-08
  -13.4899998      -2.48925645E-08
  -13.4799995      -3.65355426E-08
  -13.4700003      -4.30756373E-08
  -13.4600000      -4.19100559E-08
  -13.4499998      -3.15599138E-08
  -13.4399996      -1.22549828E-08
  -13.4300003       1.37498786E-08
  -13.4200001       4.22569499E-08
  -13.4099998       6.76677772E-08
  -13.3999996       8.39493737E-08
  -13.3900003       8.58822276E-08
  -13.3800001       7.03566911E-08
  -13.3699999       3.74327165E-08
  -13.3599997      -9.11545772E-09
  -13.3500004      -6.19763583E-08
  -13.3400002      -1.11276449E-07
  -13.3299999      -1.46263858E-07
  -13.3199997      -1.57441605E-07
  -13.3100004      -1.38756448E-07
  -13.3000002      -8.93825671E-08
  -13.2900000      -1.46645807E-08
  -13.2799997       7.40955102E-08
  -13.2700005       1.61119516E-07
  -13.2600002       2.28763881E-07
  -13.2500000       2.60868603E-07
  -13.2399998       2.46249840E-07
  -13.2299995       1.81635059E-07
  -13.2200003       7.33640988E-08
  -13.2100000      -6.26560421E-08
  -13.1999998      -2.02963633E-07
  -13.1899996      -3.20366070E-07
  -13.1800003      -3.89023114E-07
  -13.1700001      -3.89898020E-07
  -13.1599998      -3.15483817E-07
  -13.1499996      -1.72710145E-07
  -13.1400003       1.68301622E-08
  -13.1300001       2.19738780E-07
  -13.1199999       3.96542248E-07
  -13.1099997       5.09416395E-07
  -13.1000004       5.30454543E-07
  -13.0900002       4.48700035E-07
  -13.0799999       2.74194321E-07
  -13.0699997       3.77413016E-08
  -13.0600004      -2.14087407E-07
  -13.0500002      -4.28117374E-07
  -13.0400000      -5.56237580E-07
  -13.0299997      -5.67070344E-07
  -13.0200005      -4.54818206E-07
  -13.0100002      -2.42789014E-07
  -13.0000000       1.98939869E-08
  -12.9899998       2.68368268E-07
  -12.9799995       4.37141892E-07
  -12.9700003       4.76979494E-07
  -12.9600000       3.69440357E-07
  -12.9499998       1.35035435E-07
  -12.9399996      -1.67881950E-07
  -12.9300003      -4.54327818E-07
  -12.9200001      -6.32313572E-07
  -12.9099998      -6.26799078E-07
  -12.8999996      -4.02262401E-07
  -12.8900003       2.21537988E-08
  -12.8800001       5.69752501E-07
  -12.8699999       1.11787972E-06
  -12.8599997       1.52276436E-06
  -12.8500004       1.65282586E-06
  -12.8400002       1.42299348E-06
  -12.8299999       8.21548497E-07
  -12.8199997      -7.79726363E-08
  -12.8100004      -1.12424436E-06
  -12.8000002      -2.11499287E-06
  -12.7900000      -2.83840973E-06
  -12.7799997      -3.12034604E-06
  -12.7700005      -2.86639465E-06
  -12.7600002      -2.08844290E-06
  -12.7500000      -9.08360903E-07
  -12.7399998       4.63420719E-07
  -12.7299995       1.77075231E-06
  -12.7200003       2.76700462E-06
  -12.7100000       3.27030011E-06
  -12.6999998       3.20581171E-06
  -12.6899996       2.62479330E-06
  -12.6800003       1.69513271E-06
  -12.6700001       6.64714491E-07
  -12.6599998      -1.94809402E-07
  -12.6499996      -6.51643461E-07
  -12.6400003      -5.70848954E-07
  -12.6300001       4.79275073E-08
  -12.6199999       1.06047924E-06
  -12.6099997       2.19837966E-06
  -12.6000004       3.11594749E-06
  -12.5900002       3.45496596E-06
  -12.5799999       2.91520632E-06
  -12.5699997       1.31828540E-06
  -12.5600004      -1.34580955E-06
  -12.5500002      -4.89675040E-06
  -12.5400000      -8.96956226E-06
  -12.5299997      -1.30471562E-05
  -12.5200005      -1.65157217E-05
  -12.5100002      -1.87366895E-05
  -12.5000000      -1.91274903E-05
  -12.4899998      -1.72421969E-05
  -12.4799995      -1.28423917E-05
  -12.4700003      -5.94821722E-06
  -12.4600000       3.13979604E-06
  -12.4499998       1.38553869E-05
  -12.4399996       2.54206825E-05
  -12.4300003       3.69365334E-05
  -12.4200001       4.74983062E-05
  -12.4099998       5.63192407E-05
  -12.3999996       6.28387643E-05
  -12.3900003       6.67928034E-05
  -12.3800001       6.82283353E-05
  -12.3699999       6.74550902E-05
  -12.3599997       6.49414942E-05
  -12.3500004       6.11767828E-05
  -12.3400002       5.65320988E-05
  -12.3299999       5.11575527E-05
  -12.3199997       4.49464860E-05
  -12.3100004       3.75834825E-05
  -12.3000002       2.86713021E-05
  -12.2900000       1.79091421E-05
  -12.2799997       5.27673956E-06
  -12.2700005      -8.82881250E-06
  -12.2600002      -2.35503721E-05
  -12.2500000      -3.76488970E-05
  -12.2399998      -4.96992543E-05
  -12.2299995      -5.83678084E-05
  -12.2200003      -6.27092959E-05
  -12.2100000      -6.24078821E-05
  -12.1999998      -5.78938343E-05
  -12.1899996      -5.02925395E-05
  -12.1800003      -4.12027148E-05
  -12.1700001      -3.23448112E-05
  -12.1599998      -2.51585298E-05
  -12.1499996      -2.04482803E-05
  -12.1400003      -1.81712385E-05
  -12.1300001      -1.74329543E-05
  -12.1199999      -1.67065591E-05
  -12.1099997      -1.42348090E-05
  -12.1000004      -8.52385710E-06
  -12.0900002       1.19231777E-06
  -12.0799999       1.46386001E-05
  -12.0699997       3.04276455E-05
  -12.0600004       4.62662174E-05
  -12.0500002       5.94062658E-05
  -12.0400000       6.72448659E-05
  -12.0299997       6.79352524E-05
  -12.0200005       6.08619957E-05
  -12.0100002       4.68604485E-05
  -12.0000000       2.81185039E-05
  -11.9899998       7.77311561E-06
  -11.9799995      -1.07125998E-05
  -11.9700003      -2.42527658E-05
  -11.9600000      -3.07636292E-05
  -11.9499998      -2.95694736E-05
  -11.9399996      -2.15014625E-05
  -11.9300003      -8.67420749E-06
  -11.9200001       5.99999612E-06
  -11.9099998       1.94406857E-05
  -11.8999996       2.90260250E-05
  -11.8900003       3.30789626E-05
  -11.8800001       3.11163785E-05
  -11.8699999       2.38272769E-05
  -11.8599997       1.28122656E-05
  -11.8500004       1.69605087E-07
  -11.8400002      -1.19602055E-05
  -11.8299999      -2.17835750E-05
  -11.8199997      -2.81006905E-05
  -11.8100004      -3.03821125E-05
  -11.8000002      -2.86964405E-05
  -11.7900000      -2.35467833E-05
  -11.7799997      -1.56876595E-05
  -11.7700005      -5.98321913E-06
  -11.7600002       4.66208803E-06
  -11.7500000       1.53067085E-05
  -11.7399998       2.49470340E-05
  -11.7299995       3.25170295E-05
  -11.7200003       3.69575973E-05
  -11.7100000       3.73729163E-05
  -11.6999998       3.32522359E-05
  -11.6899996       2.46987966E-05
  -11.6800003       1.25866081E-05
  -11.6700001      -1.43043451E-06
  -11.6599998      -1.51023823E-05
  -11.6499996      -2.59548306E-05
  -11.6400003      -3.17862541E-05
  -11.6300001      -3.11822623E-05
  -11.6199999      -2.39163746E-05
  -11.6099997      -1.11197996E-05
  -11.6000004       4.85050714E-06
  -11.5900002       2.08448819E-05
  -11.5799999       3.35765653E-05
  -11.5699997       4.03571976E-05
  -11.5600004       3.97375698E-05
  -11.5500002       3.18903585E-05
  -11.5400000       1.86256257E-05
  -11.5299997       3.01596606E-06
  -11.5200005      -1.12951529E-05
  -11.5100002      -2.09448117E-05
  -11.5000000      -2.36574906E-05
  -11.4899998      -1.88056692E-05
  -11.4799995      -7.57700855E-06
  -11.4700003       7.30453439E-06
  -11.4600000       2.22443978E-05
  -11.4499998       3.36697849E-05
  -11.4399996       3.89255983E-05
  -11.4300003       3.69436384E-05
  -11.4200001       2.85077112E-05
  -11.4099998       1.60388372E-05
  -11.3999996       2.94965389E-06
  -11.3900003      -7.26671851E-06
  -11.3800001      -1.19723727E-05
  -11.3699999      -1.00908219E-05
  -11.3599997      -2.38543248E-06
  -11.3500004       8.77587445E-06
  -11.3400002       2.01151615E-05
  -11.3299999       2.84126982E-05
  -11.3199997       3.14788012E-05
  -11.3100004       2.88472293E-05
  -11.3000002       2.19755439E-05
  -11.2900000       1.38701807E-05
  -11.2799997       8.21666072E-06
  -11.2700005       8.24409108E-06
  -11.2600002       1.56440437E-05
  -11.2500000       2.98679188E-05
  -11.2399998       4.80373747E-05
  -11.2299995       6.55396725E-05
  -11.2200003       7.71860432E-05
  -11.2100000       7.86404053E-05
  -11.1999998       6.77288481E-05
  -11.1899996       4.52486493E-05
  -11.1800003       1.50147835E-05
  -11.1700001      -1.69182622E-05
  -11.1599998      -4.36912342E-05
  -11.1499996      -5.93693112E-05
  -11.1400003      -6.05019959E-05
  -11.1300001      -4.70754494E-05
  -11.1199999      -2.25705426E-05
  -11.1099997       6.91996820E-06
  -11.1000004       3.42979656E-05
  -11.0900002       5.33602179E-05
  -11.0799999       6.04643392E-05
  -11.0699997       5.54822691E-05
  -11.0600004       4.17525771E-05
  -11.0500002       2.50230896E-05
  -11.0400000       1.16683914E-05
  -11.0299997       6.68849407E-06
  -11.0200005       1.20776840E-05
  -11.0100002       2.60667366E-05
  -11.0000000       4.35050206E-05
  -10.9899998       5.73241414E-05
  -10.9799995       6.07021866E-05
  -10.9700003       4.93206680E-05
  -10.9600000       2.30451933E-05
  -10.9499998      -1.35100645E-05
  -10.9399996      -5.17825974E-05
  -10.9300003      -8.12977887E-05
  -10.9200001      -9.24518972E-05
  -10.9099998      -7.93112922E-05
  -10.8999996      -4.16479597E-05
  -10.8900003       1.44048863E-05
  -10.8800001       7.73524807E-05
  -10.8699999       1.32837202E-04
  -10.8599997       1.67071310E-04
  -10.8500004       1.70362371E-04
  -10.8400002       1.39825410E-04
  -10.8299999       8.05439340E-05
  -10.8199997       4.80772587E-06
  -10.8100004      -7.04724953E-05
  -10.8000002      -1.27612351E-04
  -10.7900000      -1.52369408E-04
  -10.7799997      -1.37515046E-04
  -10.7700005      -8.48784402E-05
  -10.7600002      -5.32434342E-06
  -10.7500000       8.33919912E-05
  -10.7399998       1.60449359E-04
  -10.7299995       2.06619443E-04
  -10.7200003       2.08709869E-04
  -10.7100000       1.62779033E-04
  -10.6999998       7.53815402E-05
  -10.6899996      -3.74572737E-05
  -10.6800003      -1.53332367E-04
  -10.6700001      -2.47955672E-04
  -10.6599998      -3.00094340E-04
  -10.6499996      -2.95902690E-04
  -10.6400003      -2.31747050E-04
  -10.6300001      -1.14962371E-04
  -10.6199999       3.75665804E-05
  -10.6099997       2.02648254E-04
  -10.6000004       3.55133408E-04
  -10.5900002       4.72457788E-04
  -10.5799999       5.38474531E-04
  -10.5699997       5.45873714E-04
  -10.5600004       4.96822177E-04
  -10.5500002       4.01842815E-04
  -10.5400000       2.77303770E-04
  -10.5299997       1.42125718E-04
  -10.5200005       1.44041305E-05
  -10.5100002      -9.14232514E-05
  -10.5000000      -1.66418366E-04
  -10.4899998      -2.07796635E-04
  -10.4799995      -2.18441535E-04
  -10.4700003      -2.05522796E-04
  -10.4600000      -1.78572081E-04
  -10.4499998      -1.47397412E-04
  -10.4399996      -1.20178025E-04
  -10.4300003      -1.02005477E-04
  -10.4200001      -9.40505124E-05
  -10.4099998      -9.34535492E-05
  -10.3999996      -9.39609090E-05
  -10.3900003      -8.72474193E-05
  -10.3800001      -6.47725610E-05
  -10.3699999      -1.99093029E-05
  -10.3599997       5.00168899E-05
  -10.3500004       1.42206729E-04
  -10.3400002       2.47799617E-04
  -10.3299999       3.52520903E-04
  -10.3199997       4.38643765E-04
  -10.3100004       4.88050631E-04
  -10.3000002       4.85877303E-04
  -10.2900000       4.23997495E-04
  -10.2799997       3.03533598E-04
  -10.2700005       1.35707014E-04
  -10.2600002      -5.93355653E-05
  -10.2500000      -2.55633029E-04
  -10.2399998      -4.25898557E-04
  -10.2299995      -5.46458992E-04
  -10.2200003      -6.01563894E-04
  -10.2100000      -5.86095499E-04
  -10.1999998      -5.06074051E-04
  -10.1899996      -3.76880926E-04
  -10.1800003      -2.19672089E-04
  -10.1700001      -5.68840805E-05
  -10.1599998       9.20736347E-05
  -10.1499996       2.13945284E-04
  -10.1400003       3.02935543E-04
  -10.1300001       3.60068167E-04
  -10.1199999       3.90989648E-04
  -10.1099997       4.02995851E-04
  -10.1000004       4.02208971E-04
  -10.0900002       3.91711568E-04
  -10.0799999       3.71103873E-04
  -10.0699997       3.37496516E-04
  -10.0600004       2.87518080E-04
  -10.0500002       2.19631227E-04
  -10.0400000       1.35983850E-04
  -10.0299997       4.31824628E-05
  -10.0200005      -4.82939686E-05
  -10.0100002      -1.25923907E-04
  -10.0000000      -1.77749112E-04
  -9.98999977      -1.95079425E-04
  -9.97999954      -1.74600602E-04
  -9.97000027      -1.19353419E-04
  -9.96000004      -3.83474289E-05
  -9.94999981       5.50880031E-05
  -9.93999958       1.45816550E-04
  -9.93000031       2.19690002E-04
  -9.92000008       2.66009825E-04
  -9.90999985       2.79150816E-04
  -9.89999962       2.59062363E-04
  -9.89000034       2.10631406E-04
  -9.88000011       1.42145611E-04
  -9.86999989       6.32800366E-05
  -9.85999966      -1.68938586E-05
  -9.85000038      -9.14192933E-05
  -9.84000015      -1.56174603E-04
  -9.82999992      -2.09707781E-04
  -9.81999969      -2.52322236E-04
  -9.81000042      -2.84745271E-04
  -9.80000019      -3.06818780E-04
  -9.78999996      -3.16642749E-04
  -9.77999973      -3.10475793E-04
  -9.77000046      -2.83480185E-04
  -9.76000023      -2.31148035E-04
  -9.75000000      -1.51026674E-04
  -9.73999977      -4.42408709E-05
  -9.72999954       8.36724721E-05
  -9.72000027       2.22940900E-04
  -9.71000004       3.60802951E-04
  -9.69999981       4.83585056E-04
  -9.68999958       5.79122512E-04
  -9.68000031       6.38920639E-04
  -9.67000008       6.59501413E-04
  -9.65999985       6.42592204E-04
  -9.64999962       5.94127283E-04
  -9.64000034       5.22361312E-04
  -9.63000011       4.35642462E-04
  -9.61999989       3.40481405E-04
  -9.60999966       2.40460999E-04
  -9.60000038       1.36278584E-04
  -9.59000015       2.68775966E-05
  -9.57999992      -8.86979178E-05
  -9.56999969      -2.09308811E-04
  -9.56000042      -3.30216455E-04
  -9.55000019      -4.42569348E-04
  -9.53999996      -5.34113729E-04
  -9.52999973      -5.91031625E-04
  -9.52000046      -6.00512489E-04
  -9.51000023      -5.53474645E-04
  -9.50000000      -4.46816615E-04
  -9.48999977      -2.84694048E-04
  -9.47999954      -7.85467855E-05
  -9.47000027       1.54121604E-04
  -9.46000004       3.91952955E-04
  -9.44999981       6.12496980E-04
  -9.43999958       7.95023225E-04
  -9.43000031       9.22924432E-04
  -9.42000008       9.85382707E-04
  -9.40999985       9.78149241E-04
  -9.39999962       9.03466484E-04
  -9.39000034       7.69304053E-04
  -9.38000011       5.88154595E-04
  -9.36999989       3.75643634E-04
  -9.35999966       1.49148385E-04
  -9.35000038      -7.34714558E-05
  -9.34000015      -2.75026076E-04
  -9.32999992      -4.40090284E-04
  -9.31999969      -5.56109531E-04
  -9.31000042      -6.14530931E-04
  -9.30000019      -6.11869385E-04
  -9.28999996      -5.50505880E-04
  -9.27999973      -4.38939373E-04
  -9.27000046      -2.91223434E-04
  -9.26000023      -1.25436054E-04
  -9.25000000       3.87503314E-05
  -9.23999977       1.83067677E-04
  -9.22999954       2.93654448E-04
  -9.22000027       3.63378815E-04
  -9.21000004       3.92863993E-04
  -9.19999981       3.89855355E-04
  -9.18999958       3.66971304E-04
  -9.18000031       3.38323676E-04
  -9.17000008       3.15842830E-04
  -9.15999985       3.06278147E-04
  -9.14999962       3.09705967E-04
  -9.14000034       3.19977087E-04
  -9.13000011       3.26987356E-04
  -9.11999989       3.20113206E-04
  -9.10999966       2.91793287E-04
  -9.10000038       2.40179419E-04
  -9.09000015       1.70053332E-04
  -9.07999992       9.17342113E-05
  -9.06999969       1.83209049E-05
  -9.06000042      -3.78734221E-05
  -9.05000019      -6.85953564E-05
  -9.03999996      -7.16460272E-05
  -9.02999973      -5.10341197E-05
  -9.02000046      -1.53222627E-05
  -9.01000023       2.52277332E-05
  -9.00000000       6.17509722E-05
  -8.98999977       8.91304589E-05
  -8.97999954       1.06917891E-04
  -8.97000027       1.18653697E-04
  -8.96000004       1.29959910E-04
  -8.94999981       1.46164501E-04
  -8.93999958       1.70312444E-04
  -8.93000031       2.02211842E-04
  -8.92000008       2.38740191E-04
  -8.90999985       2.75161496E-04
  -8.89999962       3.06857051E-04
  -8.89000034       3.30773270E-04
  -8.88000011       3.46063258E-04
  -8.86999989       3.53763840E-04
  -8.85999966       3.55756027E-04
  -8.85000038       3.53539130E-04
  -8.84000015       3.47402820E-04
  -8.82999992       3.36384692E-04
  -8.81999969       3.19043815E-04
  -8.81000042       2.94707716E-04
  -8.80000019       2.64617935E-04
  -8.78999996       2.32406572E-04
  -8.77999973       2.03583128E-04
  -8.77000046       1.84105214E-04
  -8.76000023       1.78489936E-04
  -8.75000000       1.88144128E-04
  -8.73999977       2.10555343E-04
  -8.72999954       2.39698915E-04
  -8.72000027       2.67584925E-04
  -8.71000004       2.86456023E-04
  -8.69999981       2.90910422E-04
  -8.68999958       2.79254396E-04
  -8.68000031       2.53674778E-04
  -8.67000008       2.19252237E-04
  -8.65999985       1.82248914E-04
  -8.64999962       1.48334831E-04
  -8.64000034       1.21386918E-04
  -8.63000011       1.03217149E-04
  -8.61999989       9.41796898E-05
  -8.60999966       9.42380793E-05
  -8.60000038       1.03893275E-04
  -8.59000015       1.24456739E-04
  -8.57999992       1.57466042E-04
  -8.56999969       2.03454547E-04
  -8.56000042       2.60626577E-04
  -8.55000019       3.24105989E-04
  -8.53999996       3.86255997E-04
  -8.52999973       4.38167626E-04
  -8.52000046       4.71930631E-04
  -8.51000023       4.82932548E-04
  -8.50000000       4.71333420E-04
  -8.48999977       4.42095101E-04
  -8.47999954       4.03438695E-04
  -8.47000027       3.64184321E-04
  -8.46000004       3.30873707E-04
  -8.44999981       3.05712689E-04
  -8.43999958       2.86123424E-04
  -8.43000031       2.66140793E-04
  -8.42000008       2.39216955E-04
  -8.40999985       2.01450574E-04
  -8.39999962       1.54046691E-04
  -8.39000034       1.04029692E-04
  -8.38000011       6.28106645E-05
  -8.36999989       4.29595129E-05
  -8.35999966       5.41871086E-05
  -8.35000038       9.98668620E-05
  -8.34000015       1.75298032E-04
  -8.32999992       2.68366362E-04
  -8.31999969       3.62474791E-04
  -8.31000042       4.40868578E-04
  -8.30000019       4.91018756E-04
  -8.28999996       5.07712364E-04
  -8.27999973       4.93935368E-04
  -8.27000046       4.59360599E-04
  -8.26000023       4.17031493E-04
  -8.25000000       3.79385048E-04
  -8.23999977       3.54913966E-04
  -8.22999954       3.46479239E-04
  -8.22000027       3.51672090E-04
  -8.21000004       3.64904088E-04
  -8.19999981       3.80329642E-04
  -8.18999958       3.94470437E-04
  -8.18000031       4.07580868E-04
  -8.17000008       4.23297606E-04
  -8.15999985       4.46760794E-04
  -8.14999962       4.81951720E-04
  -8.14000034       5.29270503E-04
  -8.13000011       5.84282621E-04
  -8.11999989       6.38145488E-04
  -8.10999966       6.79632591E-04
  -8.10000038       6.98118878E-04
  -8.09000015       6.86562271E-04
  -8.07999992       6.43521373E-04
  -8.06999969       5.73581143E-04
  -8.06000042       4.86089179E-04
  -8.05000019       3.92653572E-04
  -8.03999996       3.04241927E-04
  -8.02999973       2.28808916E-04
  -8.02000046       1.70163097E-04
  -8.01000023       1.28336789E-04
  -8.00000000       1.01199534E-04
  -7.98999977       8.66438131E-05
  -7.98000002       8.44960014E-05
  -7.96999979       9.74216964E-05
  -7.96000004       1.30458866E-04
  -7.94999981       1.89298269E-04
  -7.94000006       2.77869578E-04
  -7.92999983       3.96044721E-04
  -7.92000008       5.38251654E-04
  -7.90999985       6.93511218E-04
  -7.90000010       8.46964074E-04
  -7.88999987       9.82488622E-04
  -7.88000011       1.08567951E-03
  -7.86999989       1.14635914E-03
  -7.86000013       1.15997123E-03
  -7.84999990       1.12757937E-03
  -7.84000015       1.05464435E-03
  -7.82999992       9.49124747E-04
  -7.82000017       8.19617824E-04
  -7.80999994       6.74163224E-04
  -7.80000019       5.20022470E-04
  -7.78999996       3.64325941E-04
  -7.78000021       2.15105189E-04
  -7.76999998       8.20419882E-05
  -7.76000023      -2.36579017E-05
  -7.75000000      -9.05349734E-05
  -7.73999977      -1.09095970E-04
  -7.73000002      -7.43620330E-05
  -7.71999979       1.21159837E-05
  -7.71000004       1.41573502E-04
  -7.69999981       2.99117004E-04
  -7.69000006       4.66463418E-04
  -7.67999983       6.25658955E-04
  -7.67000008       7.62728101E-04
  -7.65999985       8.70169373E-04
  -7.65000010       9.47539869E-04
  -7.63999987       9.99968732E-04
  -7.63000011       1.03511359E-03
  -7.61999989       1.05959177E-03
  -7.61000013       1.07610715E-03
  -7.59999990       1.08225760E-03
  -7.59000015       1.07144541E-03
  -7.57999992       1.03558949E-03
  -7.57000017       9.68711800E-04
  -7.55999994       8.70160584E-04
  -7.55000019       7.46340316E-04
  -7.53999996       6.10312738E-04
  -7.53000021       4.79344657E-04
  -7.51999998       3.71147733E-04
  -7.51000023       2.99966341E-04
  -7.50000000       2.73676764E-04
  -7.48999977       2.92674813E-04
  -7.48000002       3.50707996E-04
  -7.46999979       4.37170442E-04
  -7.46000004       5.39962493E-04
  -7.44999981       6.47954876E-04
  -7.44000006       7.52386113E-04