  -16.0000000       0.00000000    
  -15.9899998       0.00000000    
  -15.9799995       0.00000000    
  -15.9700003       0.00000000    
  -15.9600000       0.00000000    
  -15.9499998       0.00000000    
  -15.9399996       0.00000000    
  -15.9300003       0.00000000    
  -15.9200001       0.00000000    
  -15.9099998       0.00000000    
  -15.8999996       0.00000000    
  -15.8900003       8.15569719E-41
  -15.8800001       1.43764394E-39
  -15.8699999       2.20274842E-38
  -15.8599997       3.10858379E-37
  -15.8500004       3.39706962E-36
  -15.8400002       2.84300225E-35
  -15.8299999       1.89850224E-34
  -15.8199997       1.05290792E-33
  -15.8100004       5.00144745E-33
  -15.8000002       2.08146283E-32
  -15.7900000       7.71606599E-32
  -15.7799997       2.57880374E-31
  -15.7700005       7.83843425E-31
  -15.7600002       2.18026065E-30
  -15.7500000       5.57219832E-30
  -15.7399998       1.31142438E-29
  -15.7299995       2.84311255E-29
  -15.7200003       5.66676358E-29
  -15.7100000       1.03310770E-28
  -15.6999998       1.70497739E-28
  -15.6899996       2.49473096E-28
  -15.6800003       3.08924796E-28
  -15.6700001       2.81933105E-28
  -15.6599998       5.95116445E-29
  -15.6499996      -4.94978970E-28
  -15.6400003      -1.49257568E-27
  -15.6300001      -2.91379064E-27
  -15.6199999      -4.46005701E-27
  -15.6099997      -5.40914180E-27
  -15.6000004      -4.57309061E-27
  -15.5900002      -4.96739751E-28
  -15.5799999       7.97493154E-27
  -15.5699997       2.07326759E-26
  -15.5600004       3.52265005E-26
  -15.5500002       4.55577866E-26
  -15.5400000       4.26010712E-26
  -15.5299997       1.60082234E-26
  -15.5200005      -4.13548620E-26
  -15.5100002      -1.26843287E-25
  -15.5000000      -2.21049179E-25
  -15.4899998      -2.83783368E-25
  -15.4799995      -2.57705968E-25
  -15.4700003      -8.41986003E-26
  -15.4600000       2.66609718E-25
  -15.4499998       7.55932323E-25
  -15.4399996       1.24025668E-24
  -15.4300003       1.46310624E-24
  -15.4200001       1.10408430E-24
  -15.4099998      -9.30111011E-26
  -15.3999996      -2.12015460E-24
  -15.3900003      -4.49238063E-24
  -15.3800001      -6.14420133E-24
  -15.3699999      -5.59706436E-24
  -15.3599997      -1.52754444E-24
  -15.3500004       6.28499643E-24
  -15.3400002       1.59275450E-23
  -15.3299999       2.28548561E-23
  -15.3199997       2.07153533E-23
  -15.3100004       4.07263721E-24
  -15.3000002      -2.72246879E-23
  -15.2900000      -6.36343295E-23
  -15.2799997      -8.44948600E-23
  -15.2700005      -6.31060578E-23
  -15.2600002       1.97182504E-23
  -15.2500000       1.55932179E-22
  -15.2399998       2.92966582E-22
  -15.2299995       3.33032815E-22
  -15.2200003       1.63550833E-22
  -15.2100000      -2.76203402E-22
  -15.1999998      -9.07950680E-22
  -15.1899996      -1.44968643E-21
  -15.1800003      -1.43656170E-21
  -15.1700001      -3.84515392E-22
  -15.1599998       1.89545327E-21
  -15.1499996       4.91853184E-21
  -15.1400003       7.28102389E-21
  -15.1300001       6.81800470E-21
  -15.1199999       1.38515372E-21
  -15.1099997      -9.73977706E-21
  -15.1000004      -2.42358475E-20
  -15.0900002      -3.57422093E-20
  -15.0799999      -3.45829868E-20
  -15.0699997      -1.10801376E-20
  -15.0600004       3.86016854E-20
  -15.0500002       1.05685565E-19
  -15.0400000       1.64396822E-19
  -15.0299997       1.74229712E-19
  -15.0200005       9.22924636E-20
  -15.0100002      -1.04211755E-19
  -15.0000000      -3.90966529E-19
  -14.9899998      -6.76854133E-19
  -14.9799995      -8.07264430E-19
  -14.9700003      -6.03761456E-19
  -14.9600000       5.74959931E-20
  -14.9499998       1.14523476E-18
  -14.9399996       2.38899749E-18
  -14.9300003       3.26502560E-18
  -14.9200001       3.10174945E-18
  -14.9099998       1.32310031E-18
  -14.8999996      -2.21082051E-18
  -14.8900003      -6.87758534E-18
  -14.8800001      -1.11482092E-17
  -14.8699999      -1.27957628E-17
  -14.8599997      -9.55018729E-18
  -14.8500004      -1.29296847E-19
  -14.8400002       1.46382282E-17
  -14.8299999       3.10707567E-17
  -14.8199997       4.28066728E-17
  -14.8100004       4.22702197E-17
  -14.8000002       2.34031746E-17
  -14.7900000      -1.49476913E-17
  -14.7799997      -6.61742108E-17
  -14.7700005      -1.15075315E-16
  -14.7600002      -1.40325076E-16
  -14.7500000      -1.20640454E-16
  -14.7399998      -4.36291252E-17
  -14.7299995       8.52738707E-17
  -14.7200003       2.37470478E-16
  -14.7100000       3.63126889E-16
  -14.6999998       4.02441632E-16
  -14.6899996       3.05285921E-16
  -14.6800003       5.44761696E-17
  -14.6700001      -3.15243931E-16
  -14.6599998      -7.11500476E-16
  -14.6499996      -9.98665397E-16
  -14.6400003      -1.03348279E-15
  -14.6300001      -7.15244203E-16
  -14.6199999      -3.61620236E-17
  -14.6099997       8.86730523E-16
  -14.6000004       1.81517212E-15
  -14.5900002       2.43719860E-15
  -14.5799999       2.45310969E-15
  -14.5699997       1.67916764E-15
  -14.5600004       1.37395150E-16
  -14.5500002      -1.90181407E-15
  -14.5400000      -3.94747804E-15
  -14.5299997      -5.38946905E-15
  -14.5200005      -5.65311398E-15
  -14.5100002      -4.36722437E-15
  -14.5000000      -1.49892041E-15
  -14.4899998       2.58280505E-15
  -14.4799995       7.13169978E-15
  -14.4700003       1.11293082E-14
  -14.4600000       1.34456409E-14
  -14.4499998       1.30288651E-14
  -14.4399996       9.11029590E-15
  -14.4300003       1.42706459E-15
  -14.4200001      -9.53309494E-15
  -14.4099998      -2.22882829E-14
  -14.3999996      -3.42018961E-14
  -14.3900003      -4.15554059E-14
  -14.3800001      -4.00404773E-14
  -14.3699999      -2.58088178E-14
  -14.3599997       2.94758000E-15
  -14.3500004       4.41862936E-14
  -14.3400002       9.05833026E-14
  -14.3299999       1.29301287E-13
  -14.3199997       1.43737656E-13
  -14.3100004       1.17625324E-13
  -14.3000002       4.10797325E-14
  -14.2900000      -8.28075333E-14
  -14.2799997      -2.33110758E-13
  -14.2700005      -3.70587106E-13
  -14.2600002      -4.43664962E-13
  -14.2500000      -4.01408724E-13
  -14.2399998      -2.11534417E-13
  -14.2299995       1.21087358E-13
  -14.2200003       5.41912652E-13
  -14.2100000       9.46847201E-13
  -14.1999998       1.19946945E-12
  -14.1899996       1.16523544E-12
  -14.1800003       7.56524021E-13
  -14.1700001      -2.33716821E-14
  -14.1599998      -1.05250541E-12
  -14.1499996      -2.09295190E-12
  -14.1400003      -2.83182440E-12
  -14.1300001      -2.95788958E-12
  -14.1199999      -2.25846728E-12
  -14.1099997      -7.10710896E-13
  -14.1000004       1.46316824E-12
  -14.0900002       3.80265611E-12
  -14.0799999       5.68954345E-12
  -14.0699997       6.49333842E-12
  -14.0600004       5.75017681E-12
  -14.0500002       3.32750711E-12
  -14.0400000      -4.77349714E-13
  -14.0299997      -4.94497499E-12
  -14.0200005      -9.06191615E-12
  -14.0100002      -1.17484069E-11
  -14.0000000      -1.21323299E-11
  -13.9899998      -9.79596439E-12
  -13.9799995      -4.92289933E-12
  -13.9700003       1.70357597E-12
  -13.9600000       8.85767674E-12
  -13.9499998       1.51438966E-11
  -13.9399996       1.93081696E-11
  -13.9300003       2.04967137E-11
  -13.9200001       1.83889761E-11
  -13.9099998       1.31753948E-11
  -13.8999996       5.40848442E-12
  -13.8900003      -4.19355479E-12
  -13.8800001      -1.48885938E-11
  -13.8699999      -2.59140799E-11
  -13.8599997      -3.63282390E-11
  -13.8500004      -4.47496450E-11
  -13.8400002      -4.91370972E-11
  -13.8299999      -4.67953246E-11
  -13.8199997      -3.47709847E-11
  -13.8100004      -1.07056881E-11
  -13.8000002       2.59469789E-11
  -13.7900000       7.26189248E-11
  -13.7799997       1.22671304E-10
  -13.7700005       1.65278999E-10
  -13.7600002       1.86570731E-10
  -13.7500000       1.72204029E-10
  -13.7399998       1.11178247E-10
  -13.7299995       2.47774647E-13
  -13.7200003      -1.52109908E-10
  -13.7100000      -3.23458482E-10
  -13.6999998      -4.78149631E-10
  -13.6899996      -5.71903858E-10
  -13.6800003      -5.60313240E-10
  -13.6700001      -4.10317280E-10
  -13.6599998      -1.12578023E-10
  -13.6499996       3.08239684E-10
  -13.6400003       7.88694499E-10
  -13.6300001       1.23033406E-09
  -13.6199999       1.51371493E-09
  -13.6099997       1.52218638E-09
  -13.6000004       1.17219123E-09
  -13.5900002       4.44107140E-10
  -13.5799999      -5.94276572E-10
  -13.5699997      -1.77991100E-09
  -13.5600004      -2.86875013E-09
  -13.5500002      -3.57455998E-09
  -13.5400000      -3.62886343E-09
  -13.5299997      -2.85212631E-09
  -13.5200005      -1.22071209E-09
  -13.5100002       1.08868514E-09
  -13.5000000       3.69405750E-09
  -13.4899998       6.05325301E-09
  -13.4799995       7.55946594E-09
  -13.4700003       7.67419550E-09
  -13.4600000       6.07228623E-09
  -13.4499998       2.76517009E-09
  -13.4399996      -1.83309012E-09
  -13.4300003      -6.92485402E-09
  -13.4200001      -1.14447998E-08
  -13.4099998      -1.42622287E-08
  -13.3999996      -1.44356900E-08
  -13.3900003      -1.14667937E-08
  -13.3800001      -5.49130785E-09
  -13.3699999       2.64905164E-09
  -13.3599997       1.14903136E-08
  -13.3500004       1.91890202E-08
  -13.3400002       2.38894931E-08
  -13.3299999       2.41459031E-08
  -13.3199997       1.93066771E-08
  -13.3100004       9.76566916E-09
  -13.3000002      -2.99588265E-09
  -13.2900000      -1.66120682E-08
  -13.2799997      -2.82612991E-08
  -13.2700005      -3.52476590E-08
  -13.2600002      -3.56164307E-08
  -13.2500000      -2.86648998E-08
  -13.2399998      -1.52195394E-08
  -13.2299995       2.40782017E-09
  -13.2200003       2.08055866E-08
  -13.2100000       3.61326364E-08
  -13.1999998       4.49438851E-08
  -13.1899996       4.49931328E-08
  -13.1800003       3.58244208E-08
  -13.1700001       1.89953546E-08
  -13.1599998      -2.15055884E-09
  -13.1499996      -2.31458586E-08
  -13.1400003      -3.93728712E-08
  -13.1300001      -4.71405244E-08
  -13.1199999      -4.46115820E-08
  -13.1099997      -3.23413687E-08
  -13.1000004      -1.32630156E-08
  -13.0900002       7.92276822E-09
  -13.0799999       2.58494275E-08
  -13.0699997       3.58385428E-08
  -13.0600004       3.51781466E-08
  -13.0500002       2.39837679E-08
  -13.0400000       5.37420997E-09
  -13.0299997      -1.51535868E-08
  -13.0200005      -3.10654507E-08
  -13.0100002      -3.65596797E-08
  -13.0000000      -2.83292039E-08
  -12.9899998      -6.82965817E-09
  -12.9799995       2.33575879E-08
  -12.9700003       5.42819265E-08
  -12.9600000       7.64335937E-08
  -12.9499998       8.12431935E-08
  -12.9399996       6.36688213E-08
  -12.9300003       2.41661855E-08
  -12.9200001      -3.05877030E-08
  -12.9099998      -8.85879032E-08
  -12.8999996      -1.34989691E-07
  -12.8900003      -1.55730859E-07
  -12.8800001      -1.41459068E-07
  -12.8699999      -9.07415156E-08
  -12.8599997      -1.15958816E-08
  -12.8500004       7.92939261E-08
  -12.8400002       1.59777272E-07
  -12.8299999       2.07323424E-07
  -12.8199997       2.04904396E-07
  -12.8100004       1.46241902E-07
  -12.8000002       3.89792909E-08
  -12.7900000      -9.52936929E-08
  -12.7799997      -2.24553730E-07
  -12.7700005      -3.12932173E-07
  -12.7600002      -3.29096423E-07
  -12.7500000      -2.54565037E-07
  -12.7399998      -8.99332306E-08
  -12.7299995       1.42694887E-07
  -12.7200003       4.02003280E-07
  -12.7100000       6.34376988E-07
  -12.6999998       7.84218969E-07
  -12.6899996       8.05582090E-07
  -12.6800003       6.72598901E-07
  -12.6700001       3.86334563E-07
  -12.6599998      -2.35975559E-08
  -12.6499996      -5.03190961E-07
  -12.6400003      -9.83211180E-07
  -12.6300001      -1.39146346E-06
  -12.6199999      -1.66553093E-06
  -12.6099997      -1.76323238E-06
  -12.6000004      -1.66857615E-06
  -12.5900002      -1.39205338E-06
  -12.5799999      -9.65449999E-07
  -12.5699997      -4.32671442E-07
  -12.5600004       1.60973684E-07
  -12.5500002       7.78216872E-07
  -12.5400000       1.39550207E-06
  -12.5299997       2.00331624E-06
  -12.5200005       2.60093793E-06
  -12.5100002       3.18679713E-06
  -12.5000000       3.74678893E-06
  -12.4899998       4.24357631E-06
  -12.4799995       4.60984757E-06
  -12.4700003       4.74783474E-06
  -12.4600000       4.53610801E-06
  -12.4499998       3.84319264E-06
  -12.4399996       2.54607676E-06
  -12.4300003       5.50577965E-07
  -12.4200001      -2.18995342E-06
  -12.4099998      -5.66099379E-06
  -12.3999996      -9.78080880E-06
  -12.3900003      -1.44033120E-05
  -12.3800001      -1.93295436E-05
  -12.3699999      -2.43260893E-05
  -12.3599997      -2.91474826E-05
  -12.3500004      -3.35590921E-05
  -12.3400002      -3.73569383E-05
  -12.3299999      -4.03814302E-05
  -12.3199997      -4.25232101E-05
  -12.3100004      -4.37207527E-05
  -12.3000002      -4.39507348E-05
  -12.2900000      -4.32139495E-05
  -12.2799997      -4.15198883E-05
  -12.2700005      -3.88739791E-05
  -12.2600002      -3.52705465E-05
  -12.2500000      -3.06938127E-05
  -12.2399998      -2.51270394E-05
  -12.2299995      -1.85686422E-05
  -12.2200003      -1.10518013E-05
  -12.2100000      -2.66316761E-06
  -12.1999998       6.44412921E-06
  -12.1899996       1.60471973E-05
  -12.1800003       2.58622240E-05
  -12.1700001       3.55653465E-05
  -12.1599998       4.48228457E-05
  -12.1499996       5.33258244E-05
  -12.1400003       6.08231385E-05
  -12.1300001       6.71463422E-05
  -12.1199999       7.22220066E-05
  -12.1099997       7.60690527E-05
  -12.1000004       7.87820973E-05
  -12.0900002       8.05046584E-05
  -12.0799999       8.13979786E-05
  -12.0699997       8.16123866E-05
  -12.0600004       8.12663056E-05
  -12.0500002       8.04369047E-05
  -12.0400000       7.91618731E-05
  -12.0299997       7.74501168E-05
  -12.0200005       7.52962515E-05
  -12.0100002       7.26934450E-05
  -12.0000000       6.96402058E-05
  -11.9899998       6.61388913E-05
  -11.9799995       6.21872678E-05
  -11.9700003       5.77664214E-05
  -11.9600000       5.28306082E-05
  -11.9499998       4.73040527E-05
  -11.9399996       4.10882494E-05
  -11.9300003       3.40796068E-05
  -11.9200001       2.61947098E-05
  -11.9099998       1.73968656E-05
  -11.8999996       7.71722989E-06
  -11.8900003      -2.73577416E-06
  -11.8800001      -1.37818461E-05
  -11.8699999      -2.51883339E-05
  -11.8599997      -3.66994100E-05
  -11.8500004      -4.80674353E-05
  -11.8400002      -5.90788186E-05
  -11.8299999      -6.95680064E-05
  -11.8199997      -7.94173102E-05
  -11.8100004      -8.85440240E-05
  -11.8000002      -9.68809109E-05
  -11.7900000      -1.04357394E-04
  -11.7799997      -1.10888890E-04
  -11.7700005      -1.16378629E-04
  -11.7600002      -1.20731449E-04
  -11.7500000      -1.23875347E-04
  -11.7399998      -1.25782011E-04
  -11.7299995      -1.26478422E-04
  -11.7200003      -1.26042665E-04
  -11.7100000      -1.24583297E-04
  -11.6999998      -1.22206126E-04
  -11.6899996      -1.18978634E-04
  -11.6800003      -1.14903509E-04
  -11.6700001      -1.09912529E-04
  -11.6599998      -1.03885825E-04
  -11.6499996      -9.66953739E-05
  -11.6400003      -8.82622044E-05
  -11.6300001      -7.86122910E-05
  -11.6199999      -6.79134610E-05
  -11.6099997      -5.64793590E-05
  -11.6000004      -4.47340390E-05
  -11.5900002      -3.31415649E-05
  -11.5799999      -2.21151513E-05
  -11.5699997      -1.19274473E-05
  -11.5600004      -2.64562073E-06
  -11.5500002       5.89015963E-06
  -11.5400000       1.40358889E-05
  -11.5299997       2.22648559E-05
  -11.5200005       3.10573669E-05
  -11.5100002       4.07846674E-05
  -11.5000000       5.16145665E-05
  -11.4899998       6.34617973E-05
  -11.4799995       7.59947798E-05
  -11.4700003       8.86972630E-05
  -11.4600000       1.00968879E-04
  -11.4499998       1.12240217E-04
  -11.4399996       1.22074751E-04
  -11.4300003       1.30234650E-04
  -11.4200001       1.36697447E-04
  -11.4099998       1.41623983E-04
  -11.3999996       1.45289887E-04
  -11.3900003       1.48001694E-04
  -11.3800001       1.50020031E-04
  -11.3699999       1.51509332E-04
  -11.3599997       1.52523266E-04
  -11.3500004       1.53025016E-04
  -11.3400002       1.52932509E-04
  -11.3299999       1.52171327E-04
  -11.3199997       1.50719527E-04
  -11.3100004       1.48631108E-04
  -11.3000002       1.46033941E-04
  -11.2900000       1.43104655E-04
  -11.2799997       1.40029661E-04
  -11.2700005       1.36964372E-04
  -11.2600002       1.34001079E-04
  -11.2500000       1.31151566E-04
  -11.2399998       1.28346801E-04
  -11.2299995       1.25449500E-04
  -11.2200003       1.22275029E-04
  -11.2100000       1.18615324E-04
  -11.1999998       1.14262955E-04
  -11.1899996       1.09034467E-04
  -11.1800003       1.02794293E-04
  -11.1700001       9.54792413E-05
  -11.1599998       8.71216835E-05
  -11.1499996       7.78664835E-05
  -11.1400003       6.79747754E-05
  -11.1300001       5.78083564E-05
  -11.1199999       4.77919311E-05
  -11.1099997       3.83571751E-05
  -11.1000004       2.98784944E-05
  -11.0900002       2.26164648E-05
  -11.0799999       1.66846457E-05
  -11.0699997       1.20509567E-05
  -11.0600004       8.57601390E-06
  -11.0500002       6.07916718E-06
  -11.0400000       4.41327302E-06
  -11.0299997       3.52496045E-06
  -11.0200005       3.47968739E-06
  -11.0100002       4.44110538E-06
  -11.0000000       6.60842034E-06
  -10.9899998       1.01301293E-05
  -10.9799995       1.50216219E-05
  -10.9700003       2.11153638E-05
  -10.9600000       2.80630247E-05
  -10.9499998       3.53930009E-05
  -10.9399996       4.26082333E-05
  -10.9300003       4.92943072E-05
  -10.9200001       5.52030760E-05
  -10.9099998       6.02826804E-05
  -10.8999996       6.46426342E-05
  -10.8900003       6.84642364E-05
  -10.8800001       7.18866577E-05
  -10.8699999       7.49102546E-05
  -10.8599997       7.73549618E-05
  -10.8500004       7.88958205E-05
  -10.8400002       7.91705024E-05
  -10.8299999       7.79282782E-05
  -10.8199997       7.51711850E-05
  -10.8100004       7.12347173E-05
  -10.8000002       6.67706772E-05
  -10.7900000       6.26227265E-05
  -10.7799997       5.96195205E-05
  -10.7700005       5.83389992E-05
  -10.7600002       5.89120973E-05
  -10.7500000       6.09266826E-05
  -10.7399998       6.34683747E-05
  -10.7299995       6.52963208E-05
  -10.7200003       6.51143127E-05
  -10.7100000       6.18688573E-05
  -10.6999998       5.49987053E-05
  -10.6899996       4.45723417E-05
  -10.6800003       3.12823104E-05
  -10.6700001       1.63026416E-05
  -10.6599998       1.05214235E-06
  -10.6499996      -1.30737790E-05
  -10.6400003      -2.49377190E-05
  -10.6300001      -3.38128848E-05
  -10.6199999      -3.94337840E-05
  -10.6099997      -4.19539538E-05
  -10.6000004      -4.18421841E-05
  -10.5900002      -3.97562544E-05
  -10.5799999      -3.64272819E-05
  -10.5699997      -3.25717992E-05
  -10.5600004      -2.88311403E-05
  -10.5500002      -2.57259944E-05
  -10.5400000      -2.36120850E-05
  -10.5299997      -2.26316915E-05
  -10.5200005      -2.26693792E-05
  -10.5100002      -2.33317605E-05
  -10.5000000      -2.39746787E-05
  -10.4899998      -2.37925997E-05
  -10.4799995      -2.19655813E-05
  -10.4700003      -1.78374976E-05
  -10.4600000      -1.10816800E-05
  -10.4499998      -1.80552968E-06
  -10.4399996       9.44215844E-06
  -10.4300003       2.17719225E-05
  -10.4200001       3.41411433E-05
  -10.4099998       4.55787267E-05
  -10.3999996       5.53850696E-05
  -10.3900003       6.32507363E-05
  -10.3800001       6.92624017E-05
  -10.3699999       7.37999944E-05
  -10.3599997       7.73637657E-05
  -10.3500004       8.03912626E-05
  -10.3400002       8.31259895E-05
  -10.3299999       8.55802573E-05
  -10.3199997       8.75999031E-05
  -10.3100004       8.90022638E-05
  -10.3000002       8.97320206E-05
  -10.2900000       8.99716179E-05
  -10.2799997       9.01588501E-05
  -10.2700005       9.08959919E-05
  -10.2600002       9.27745932E-05
  -10.2500000       9.61713595E-05
  -10.2399998       1.01084021E-04
  -10.2299995       1.07067943E-04
  -10.2200003       1.13301830E-04
  -10.2100000       1.18772536E-04
  -10.1999998       1.22528465E-04
  -10.1899996       1.23929582E-04
  -10.1800003       1.22820915E-04
  -10.1700001       1.19579672E-04
  -10.1599998       1.15022005E-04
  -10.1499996       1.10199762E-04
  -10.1400003       1.06146159E-04
  -10.1300001       1.03642720E-04
  -10.1199999       1.03069600E-04
  -10.1099997       1.04373124E-04
  -10.1000004       1.07146450E-04
  -10.0900002       1.10788453E-04
  -10.0799999       1.14683346E-04
  -10.0699997       1.18346179E-04
  -10.0600004       1.21495039E-04
  -10.0500002       1.24040002E-04
  -10.0400000       1.26008032E-04
  -10.0299997       1.27444291E-04
  -10.0200005       1.28334097E-04
  -10.0100002       1.28579428E-04
  -10.0000000       1.28039595E-04
  -9.98999977       1.26621046E-04
  -9.97999954       1.24378596E-04
  -9.97000027       1.21584409E-04
  -9.96000004       1.18729979E-04
  -9.94999981       1.16447191E-04
  -9.93999958       1.15363742E-04
  -9.93000031       1.15932307E-04
  -9.92000008       1.18285832E-04
  -9.90999985       1.22167956E-04
  -9.89999962       1.26967163E-04
  -9.89000034       1.31854118E-04
  -9.88000011       1.35986324E-04
  -9.86999989       1.38726158E-04
  -9.85999966       1.39808850E-04
  -9.85000038       1.39410055E-04
  -9.84000015       1.38094954E-04
  -9.82999992       1.36663148E-04
  -9.81999969       1.35938535E-04
  -9.81000042       1.36569535E-04
  -9.80000019       1.38900825E-04
  -9.78999996       1.42954697E-04
  -9.77999973       1.48520499E-04
  -9.77000046       1.55315225E-04
  -9.76000023       1.63150908E-04
  -9.75000000       1.72039814E-04
  -9.73999977       1.82192220E-04
  -9.72999954       1.93898508E-04
  -9.72000027       2.07333549E-04
  -9.71000004       2.22354938E-04
  -9.69999981       2.38378081E-04
  -9.68999958       2.54392246E-04
  -9.68000031       2.69135984E-04
  -9.67000008       2.81396642E-04
  -9.65999985       2.90348718E-04
  -9.64999962       2.95822741E-04
  -9.64000034       2.98410625E-04
  -9.63000011       2.99355277E-04
  -9.61999989       3.00244166E-04
  -9.60999966       3.02586443E-04
  -9.60000038       3.07398208E-04
  -9.59000015       3.14919685E-04
  -9.57999992       3.24550638E-04
  -9.56999969       3.35021323E-04
  -9.56000042       3.44740401E-04
  -9.55000019       3.52206902E-04
  -9.53999996       3.56354052E-04
  -9.52999973       3.56722623E-04
  -9.52000046       3.53423704E-04
  -9.51000023       3.46928631E-04
  -9.50000000       3.37782258E-04
  -9.48999977       3.26360896E-04
  -9.47999954       3.12773365E-04
  -9.47000027       2.96940561E-04
  -9.46000004       2.78814608E-04
  -9.44999981       2.58637680E-04
  -9.43999958       2.37117041E-04
  -9.43000031       2.15421911E-04
  -9.42000008       1.94975757E-04
  -9.40999985       1.77100490E-04
  -9.39999962       1.62635682E-04
  -9.39000034       1.51679487E-04
  -9.38000011       1.43562880E-04
  -9.36999989       1.37087351E-04
  -9.35999966       1.30961285E-04
  -9.35000038       1.24285914E-04
  -9.34000015       1.16916934E-04
  -9.32999992       1.09559267E-04
  -9.31999969       1.03546779E-04
  -9.31000042       1.00371144E-04
  -9.30000019       1.01122641E-04
  -9.28999996       1.06047853E-04
  -9.27999973       1.14392155E-04
  -9.27000046       1.24607279E-04
  -9.26000023       1.34862668E-04
  -9.25000000       1.43692960E-04
  -9.23999977       1.50552674E-04
  -9.22999954       1.56071110E-04
  -9.22000027       1.61905686E-04
  -9.21000004       1.70226980E-04
  -9.19999981       1.83005192E-04
  -9.18999958       2.01342787E-04
  -9.18000031       2.25085998E-04
  -9.17000008       2.52852042E-04
  -9.15999985       2.82464665E-04
  -9.14999962       3.11640993E-04
  -9.14000034       3.38686456E-04
  -9.13000011       3.62947816E-04
  -9.11999989       3.84869112E-04
  -9.10999966       4.05634928E-04
  -9.10000038       4.26546176E-04
  -9.09000015       4.48366016E-04
  -9.07999992       4.70892410E-04
  -9.06999969       4.92922147E-04
  -9.06000042       5.12632192E-04
  -9.05000019       5.28237782E-04
  -9.03999996       5.38682740E-04
  -9.02999973       5.44100069E-04
  -9.02000046       5.45856426E-04
  -9.01000023       5.46153868E-04
  -9.00000000       5.47315169E-04
  -8.98999977       5.51010482E-04
  -8.97999954       5.57698833E-04
  -8.97000027       5.66490751E-04
  -8.96000004       5.75481972E-04
  -8.94999981       5.82440232E-04
  -8.93999958       5.85599395E-04
  -8.93000031       5.84271445E-04
  -8.92000008       5.79063373E-04
  -8.90999985       5.71620010E-04
  -8.89999962       5.63999987E-04
  -8.89000034       5.57913037E-04
  -8.88000011       5.54102822E-04
  -8.86999989       5.52100886E-04
  -8.85999966       5.50431840E-04
  -8.85000038       5.47191710E-04
  -8.84000015       5.40773326E-04
  -8.82999992       5.30471036E-04
  -8.81999969       5.16739674E-04
  -8.81000042       5.01017785E-04
  -8.80000019       4.85189375E-04
  -8.78999996       4.70889529E-04
  -8.77999973       4.58917872E-04
  -8.77000046       4.48975625E-04
  -8.76000023       4.39817988E-04
  -8.75000000       4.29757696E-04
  -8.73999977       4.17324307E-04
  -8.72999954       4.01827914E-04
  -8.72000027       3.83623643E-04
  -8.71000004       3.63986648E-04
  -8.69999981       3.44661355E-04
  -8.68999958       3.27267713E-04
  -8.68000031       3.12802993E-04
  -8.67000008       3.01426538E-04
  -8.65999985       2.92610173E-04
  -8.64999962       2.85576418E-04
  -8.64000034       2.79849832E-04
  -8.63000011       2.75685656E-04
  -8.61999989       2.74198886E-04
  -8.60999966       2.77126004E-04
  -8.60000038       2.86301452E-04
  -8.59000015       3.03035515E-04
  -8.57999992       3.27629445E-04
  -8.56999969       3.59207013E-04
  -8.56000042       3.95930809E-04
  -8.55000019       4.35522583E-04
  -8.53999996       4.75900044E-04
  -8.52999973       5.15701366E-04
  -8.52000046       5.54514409E-04
  -8.51000023       5.92742523E-04
  -8.50000000       6.31177390E-04
  -8.48999977       6.70457084E-04
  -8.47999954       7.10627239E-04
  -8.47000027       7.50971318E-04
  -8.46000004       7.90178368E-04
  -8.44999981       8.26770032E-04
  -8.43999958       8.59619584E-04
  -8.43000031       8.88357637E-04
  -8.42000008       9.13499855E-04
  -8.40999985       9.36252705E-04
  -8.39999962       9.58064338E-04
  -8.39000034       9.80093610E-04
  -8.38000011       1.00279809E-03
  -8.36999989       1.02578604E-03
  -8.35999966       1.04798621E-03
  -8.35000038       1.06806238E-03
  -8.34000015       1.08490151E-03
  -8.32999992       1.09799847E-03
  -8.31999969       1.10759283E-03
  -8.31000042       1.11451326E-03
  -8.30000019       1.11981062E-03
  -8.28999996       1.12432637E-03
  -8.27999973       1.12836913E-03
  -8.27000046       1.13162783E-03
  -8.26000023       1.13334088E-03
  -8.25000000       1.13264727E-03
  -8.23999977       1.12897193E-03
  -8.22999954       1.12227874E-03
  -8.22000027       1.11310044E-03
  -8.21000004       1.10232516E-03
  -8.19999981       1.09083438E-03
  -8.18999958       1.07914023E-03
  -8.18000031       1.06718275E-03
  -8.17000008       1.05435913E-03
  -8.15999985       1.03979174E-03
  -8.14999962       1.02272478E-03
  -8.14000034       1.00289402E-03
  -8.13000011       9.80719691E-04
  -8.11999989       9.57241107E-04
  -8.10999966       9.33817471E-04
  -8.10000038       9.11705429E-04
  -8.09000015       8.91683681E-04
  -8.07999992       8.73862766E-04
  -8.06999969       8.57767765E-04
  -8.06000042       8.42653622E-04
  -8.05000019       8.27932090E-04
  -8.03999996       8.13543331E-04
  -8.02999973       8.00118141E-04
  -8.02000046       7.88862002E-04
  -8.01000023       7.81201699E-04
  -8.00000000       7.78325601E-04
  -7.98999977       7.80793314E-04
  -7.98000002       7.88368343E-04
  -7.96999979       8.00140318E-04
  -7.96000004       8.14889732E-04
  -7.94999981       8.31560523E-04
  -7.94000006       8.49650300E-04
  -7.92999983       8.69370706E-04
  -7.92000008       8.91497999E-04
  -7.90999985       9.16984282E-04
  -7.90000010       9.46460292E-04
  -7.88999987       9.79835051E-04
  -7.88000011       1.01614674E-03
  -7.86999989       1.05374830E-03
  -7.86000013       1.09075743E-03
  -7.84999990       1.12562499E-03
  -7.84000015       1.15760602E-03
  -7.82999992       1.18696236E-03
  -7.82000017       1.21480809E-03
  -7.80999994       1.24264986E-03
  -7.80000019       1.27177231E-03
  -7.78999996       1.30269805E-03
  -7.78000021       1.33490784E-03
  -7.76999998       1.36693427E-03
  -7.76000023       1.39679958E-03
  -7.75000000       1.42264587E-03
  -7.73999977       1.44334021E-03
  -7.73000002       1.45884720E-03
  -7.71999979       1.47024333E-03
  -7.71000004       1.47936877E-03
  -7.69999981       1.48824148E-03
  -7.69000006       1.49844890E-03
  -7.67999983       1.51071383E-03
  -7.67000008       1.52479042E-03
  -7.65999985       1.53969368E-03
  -7.65000010       1.55419228E-03
  -7.63999987       1.56735012E-03
  -7.63000011       1.57893414E-03
  -7.61999989       1.58953655E-03
  -7.61000013       1.60037237E-03
  -7.59999990       1.61283009E-03
  -7.59000015       1.62794371E-03
  -7.57999992       1.64597889E-03
  -7.57000017       1.66628405E-03
  -7.55999994       1.68746372E-03
  -7.55000019       1.70781335E-03
  -7.53999996       1.72585936E-03
  -7.53000021       1.74083491E-03
  -7.51999998       1.75291440E-03
  -7.51000023       1.76314171E-03
  -7.50000000       1.77307636E-03
  -7.48999977       1.78428728E-03
  -7.48000002       1.79785327E-03
  -7.46999979       1.81405072E-03
  -7.46000004       1.83231395E-03
  -7.44999981       1.85147650E-03
  -7.44000006       1.87021215E-03