  -16.0000000       0.00000000    
  -15.9899998       0.00000000    
  -15.9799995       0.00000000    
  -15.9700003       0.00000000    
  -15.9600000       0.00000000    
  -15.9499998       0.00000000    
  -15.9399996       0.00000000    
  -15.9300003       0.00000000    
  -15.9200001       0.00000000    
  -15.9099998       0.00000000    
  -15.8999996       0.00000000    
  -15.8900003      -7.30646828E-40
  -15.8800001      -3.10510924E-38
  -15.8699999      -6.15584721E-37
  -15.8599997      -7.82816890E-36
  -15.8500004      -7.26101655E-35
  -15.8400002      -5.26861481E-34
  -15.8299999      -3.12668457E-33
  -15.8199997      -1.56523876E-32
  -15.8100004      -6.76075349E-32
  -15.8000002      -2.56274437E-31
  -15.7900000      -8.63620277E-31
  -15.7799997      -2.61268271E-30
  -15.7700005      -7.14636092E-30
  -15.7600002      -1.77561984E-29
  -15.7500000      -4.01629428E-29
  -15.7399998      -8.26343715E-29
  -15.7299995      -1.53882862E-28
  -15.7200003      -2.56272664E-28
  -15.7100000      -3.71710859E-28
  -15.6999998      -4.39739592E-28
  -15.6899996      -3.33687441E-28
  -15.6800003       1.47822634E-28
  -15.6700001       1.24275868E-27
  -15.6599998       3.10217490E-27
  -15.6499996       5.55746075E-27
  -15.6400003       7.81006732E-27
  -15.6300001       8.17806708E-27
  -15.6199999       4.15723765E-27
  -15.6099997      -6.87758905E-27
  -15.6000004      -2.61102359E-26
  -15.5900002      -5.10222846E-26
  -15.5799999      -7.32459323E-26
  -15.5699997      -7.80245681E-26
  -15.5600004      -4.70070042E-26
  -15.5500002       3.46672320E-26
  -15.5400000       1.68026029E-25
  -15.5299997       3.30335184E-25
  -15.5200005       4.70985854E-25
  -15.5100002       5.17533232E-25
  -15.5000000       3.91571325E-25
  -15.4899998       2.80400640E-26
  -15.4799995      -6.10427520E-25
  -15.4700003      -1.52410284E-24
  -15.4600000      -2.65221742E-24
  -15.4499998      -3.79693663E-24
  -15.4399996      -4.46866708E-24
  -15.4300003      -3.69691854E-24
  -15.4200001       1.36722522E-26
  -15.4099998       8.26126615E-24
  -15.3999996       2.15309865E-23
  -15.3900003       3.71675444E-23
  -15.3800001       4.72479940E-23
  -15.3699999       3.80560006E-23
  -15.3599997      -6.45481215E-24
  -15.3500004      -9.53516813E-23
  -15.3400002      -2.16317398E-22
  -15.3299999      -3.21635126E-22
  -15.3199997      -3.25346483E-22
  -15.3100004      -1.24730294E-22
  -15.3000002       3.45826852E-22
  -15.2900000       1.03606331E-21
  -15.2799997       1.70779637E-21
  -15.2700005       1.92418084E-21
  -15.2600002       1.15966925E-21
  -15.2500000      -9.41403027E-22
  -15.2399998      -4.20500617E-21
  -15.2299995      -7.61654903E-21
  -15.2200003      -9.29206717E-21
  -15.2100000      -6.95868114E-21
  -15.1999998       9.83573789E-22
  -15.1899996       1.40563529E-20
  -15.1800003       2.85654643E-20
  -15.1700001       3.75859755E-20
  -15.1599998       3.27984060E-20
  -15.1499996       8.24923960E-21
  -15.1400003      -3.49996661E-20
  -15.1300001      -8.55165425E-20
  -15.1199999      -1.22115860E-19
  -15.1099997      -1.20249779E-19
  -15.1000004      -6.34822992E-20
  -15.0900002       4.41415499E-20
  -15.0799999       1.71845208E-19
  -15.0699997       2.68911325E-19
  -15.0600004       2.86711993E-19
  -15.0500002       2.09141283E-19
  -15.0400000       7.47001608E-20
  -15.0299997      -3.10133244E-20
  -15.0200005      -2.59582993E-20
  -15.0100002       8.38980990E-20
  -15.0000000       1.28436838E-19
  -14.9899998      -2.25608342E-19
  -14.9799995      -1.33005235E-18
  -14.9700003      -3.25220223E-18
  -14.9600000      -5.40104231E-18
  -14.9499998      -6.29342419E-18
  -14.9399996      -3.74873249E-18
  -14.9300003       4.25118805E-18
  -14.9200001       1.80439988E-17
  -14.9099998       3.45423245E-17
  -14.8999996       4.61700421E-17
  -14.8900003       4.16638599E-17
  -14.8800001       9.70084997E-18
  -14.8699999      -5.46283510E-17
  -14.8599997      -1.42089261E-16
  -14.8500004      -2.23724324E-16
  -14.8400002      -2.51996405E-16
  -14.8299999      -1.72678307E-16
  -14.8199997       5.15454290E-17
  -14.8100004       4.10309615E-16
  -14.8000002       8.18785193E-16
  -14.7900000       1.11098874E-15
  -14.7799997       1.06910328E-15
  -14.7700005       4.96467663E-16
  -14.7600002      -6.74973451E-16
  -14.7500000      -2.27404502E-15
  -14.7399998      -3.82732345E-15
  -14.7299995      -4.60064632E-15
  -14.7200003      -3.78472744E-15
  -14.7100000      -8.19305800E-16
  -14.6999998       4.21627040E-15
  -14.6899996       1.02864528E-14
  -14.6800003       1.53372798E-14
  -14.6700001       1.66482361E-14
  -14.6599998       1.16561449E-14
  -14.6499996      -8.68163613E-16
  -14.6400003      -1.96206017E-14
  -14.6300001      -4.00411515E-14
  -14.6199999      -5.46018783E-14
  -14.6099997      -5.44648148E-14
  -14.6000004      -3.24637608E-14
  -14.5900002       1.32036495E-14
  -14.5799999       7.57522842E-14
  -14.5699997       1.38563071E-13
  -14.5600004       1.77282885E-13
  -14.5500002       1.65893178E-13
  -14.5400000       8.60650865E-14
  -14.5299997      -6.24513733E-14
  -14.5200005      -2.53979265E-13
  -14.5100002      -4.35649645E-13
  -14.5000000      -5.35859660E-13
  -14.4899998      -4.83154315E-13
  -14.4799995      -2.32599909E-13
  -14.4700003       2.07173349E-13
  -14.4600000       7.55888516E-13
  -14.4499998       1.26242365E-12
  -14.4399996       1.53122599E-12
  -14.4300003       1.37432860E-12
  -14.4200001       6.79892557E-13
  -14.4099998      -5.20763445E-13
  -14.3999996      -2.01136091E-12
  -14.3900003      -3.39716796E-12
  -14.3800001      -4.17415885E-12
  -14.3699999      -3.85877441E-12
  -14.3599997      -2.15530371E-12
  -14.3500004       8.81891944E-13
  -14.3400002       4.74599700E-12
  -14.3299999       8.48763247E-12
  -14.3199997       1.08696663E-11
  -14.3100004       1.06635404E-11
  -14.3000002       7.03819945E-12
  -14.2900000      -5.08704339E-14
  -14.2799997      -9.59247785E-12
  -14.2700005      -1.94893320E-11
  -14.2600002      -2.68478868E-11
  -14.2500000      -2.85977093E-11
  -14.2399998      -2.23545193E-11
  -14.2299995      -7.34447919E-12
  -14.2200003       1.48631194E-11
  -14.2100000       4.00847376E-11
  -14.1999998       6.19279628E-11
  -14.1899996       7.29567795E-11
  -14.1800003       6.65084723E-11
  -14.1700001       3.88387551E-11
  -14.1599998      -8.91413072E-12
  -14.1499996      -6.95527524E-11
  -14.1400003      -1.29994127E-10
  -14.1300001      -1.73146386E-10
  -14.1199999      -1.81471657E-10
  -14.1099997      -1.41746753E-10
  -14.1000004      -5.00576351E-11
  -14.0900002       8.42867096E-11
  -14.0799999       2.37325437E-10
  -14.0699997       3.72638836E-10
  -14.0600004       4.47636622E-10
  -14.0500002       4.23423546E-10
  -14.0400000       2.76583451E-10
  -14.0299997       1.01998288E-11
  -14.0200005      -3.39148487E-10
  -14.0100002      -7.01524172E-10
  -14.0000000      -9.82945281E-10
  -13.9899998      -1.08397780E-09
  -13.9799995      -9.25170052E-10
  -13.9700003      -4.74301765E-10
  -13.9600000       2.31513975E-10
  -13.9499998       1.07638065E-09
  -13.9399996       1.87493687E-09
  -13.9300003       2.40307330E-09
  -13.9200001       2.44750531E-09
  -13.9099998       1.86578153E-09
  -13.8999996       6.43171238E-10
  -13.8900003      -1.06984321E-09
  -13.8800001      -2.95469715E-09
  -13.8699999      -4.56616656E-09
  -13.8599997      -5.41811085E-09
  -13.8500004      -5.10146325E-09
  -13.8400002      -3.41065265E-09
  -13.8299999      -4.46527010E-10
  -13.8199997       3.33741612E-09
  -13.8100004       7.17111126E-09
  -13.8000002       1.00956337E-08
  -13.7900000       1.11692406E-08
  -13.7799997       9.71433511E-09
  -13.7700005       5.54882984E-09
  -13.7600002      -8.62604876E-10
  -13.7500000      -8.39396108E-09
  -13.7399998      -1.54116417E-08
  -13.7299995      -2.00896704E-08
  -13.7200003      -2.08351381E-08
  -13.7100000      -1.67336083E-08
  -13.6999998      -7.90214738E-09
  -13.6899996       4.35843051E-09
  -13.6800003       1.76864408E-08
  -13.6700001       2.90720230E-08
  -13.6599998       3.55004524E-08
  -13.6499996       3.46968108E-08
  -13.6400003       2.57960178E-08
  -13.6300001       9.75521708E-09
  -13.6199999      -1.06336104E-08
  -13.6099997      -3.11884385E-08
  -13.6000004      -4.71854484E-08
  -13.5900002      -5.44445307E-08
  -13.5799999      -5.04033331E-08
  -13.5699997      -3.49045557E-08
  -13.5600004      -1.04647588E-08
  -13.5500002       1.80972357E-08
  -13.5400000       4.46393038E-08
  -13.5299997       6.30873345E-08
  -13.5200005       6.89171031E-08
  -13.5100002       6.03520363E-08
  -13.5000000       3.89444388E-08
  -13.4899998       9.34347799E-09
  -13.4799995      -2.17463914E-08
  -13.4700003      -4.71959609E-08
  -13.4600000      -6.12745765E-08
  -13.4499998      -6.11876274E-08
  -13.4399996      -4.78907864E-08
  -13.4300003      -2.59079709E-08
  -13.4200001      -2.13346762E-09
  -13.4099998       1.61201825E-08
  -13.3999996       2.33330812E-08
  -13.3900003       1.76329564E-08
  -13.3800001       1.71903203E-09
  -13.3699999      -1.75181647E-08
  -13.3599997      -3.07269516E-08
  -13.3500004      -2.88440987E-08
  -13.3400002      -6.20303897E-09
  -13.3299999       3.68513362E-08
  -13.3199997       9.26781993E-08
  -13.3100004       1.46981378E-07
  -13.3000002       1.81534219E-07
  -13.2900000       1.78607110E-07
  -13.2799997       1.26194294E-07
  -13.2700005       2.27699211E-08
  -13.2600002      -1.19791125E-07
  -13.2500000      -2.76250319E-07
  -13.2399998      -4.11554026E-07
  -13.2299995      -4.87640079E-07
  -13.2200003      -4.72370175E-07
  -13.2100000      -3.48716156E-07
  -13.1999998      -1.21931137E-07
  -13.1899996       1.77449778E-07
  -13.1800003       4.96262771E-07
  -13.1700001       7.67340737E-07
  -13.1599998       9.22990353E-07
  -13.1499996       9.10801418E-07
  -13.1400003       7.08280368E-07
  -13.1300001       3.32538065E-07
  -13.1199999      -1.58085285E-07
  -13.1099997      -6.72027909E-07
  -13.1000004      -1.10153724E-06
  -13.0900002      -1.34576783E-06
  -13.0799999      -1.33506160E-06
  -13.0699997      -1.05058405E-06
  -13.0600004      -5.33905165E-07
  -13.0500002       1.17015944E-07
  -13.0400000       7.65969617E-07
  -13.0299997       1.26776456E-06
  -13.0200005       1.50246501E-06
  -13.0100002       1.40650127E-06
  -13.0000000       9.92497803E-07
  -12.9899998       3.51727323E-07
  -12.9799995      -3.63052976E-07
  -12.9700003      -9.71789973E-07
  -12.9600000      -1.31112813E-06
  -12.9499998      -1.27778731E-06
  -12.9399996      -8.60118632E-07
  -12.9300003      -1.48686553E-07
  -12.9200001       6.78663412E-07
  -12.9099998       1.39561428E-06
  -12.8999996       1.78215612E-06
  -12.8900003       1.68268241E-06
  -12.8800001       1.05289041E-06
  -12.8699999      -1.73356423E-08
  -12.8599997      -1.31279683E-06
  -12.8500004      -2.53396274E-06
  -12.8400002      -3.36245216E-06
  -12.8299999      -3.53681912E-06
  -12.8199997      -2.92100549E-06
  -12.8100004      -1.54851193E-06
  -12.8000002       3.69799466E-07
  -12.7900000       2.47833759E-06
  -12.7799997       4.34458616E-06
  -12.7700005       5.54839107E-06
  -12.7600002       5.77359287E-06
  -12.7500000       4.88176101E-06
  -12.7399998       2.95136329E-06
  -12.7299995       2.73162613E-07
  -12.7200003      -2.69780753E-06
  -12.7100000      -5.42390671E-06
  -12.6999998      -7.38338258E-06
  -12.6899996      -8.16582451E-06
  -12.6800003      -7.54622579E-06
  -12.6700001      -5.52479287E-06
  -12.6599998      -2.32761226E-06
  -12.6499996       1.62847573E-06
  -12.6400003       5.79691550E-06
  -12.6300001       9.57527209E-06
  -12.6199999       1.23792224E-05
  -12.6099997       1.37076140E-05
  -12.6000004       1.31945626E-05
  -12.5900002       1.06492016E-05
  -12.5799999       6.08609480E-06
  -12.5699997      -2.51366032E-07
  -12.5600004      -7.87577937E-06
  -12.5500002      -1.60549735E-05
  -12.5400000      -2.38360135E-05
  -12.5299997      -3.01053242E-05
  -12.5200005      -3.36926496E-05
  -12.5100002      -3.35179648E-05
  -12.5000000      -2.87683433E-05
  -12.4899998      -1.90793853E-05
  -12.4799995      -4.68647977E-06
  -12.4700003       1.34913762E-05
  -12.4600000       3.38661121E-05
  -12.4499998       5.43092901E-05
  -12.4399996       7.23893609E-05
  -12.4300003       8.56885890E-05
  -12.4200001       9.21511455E-05
  -12.4099998       9.04030603E-05
  -12.3999996       7.99857371E-05
  -12.3900003       6.14584496E-05
  -12.3800001       3.63484069E-05
  -12.3699999       6.95560402E-06
  -12.3599997      -2.39537821E-05
  -12.3500004      -5.35120998E-05
  -12.3400002      -7.91114726E-05
  -12.3299999      -9.87046296E-05
  -12.3199997      -1.11003465E-04
  -12.3100004      -1.15555398E-04
  -12.3000002      -1.12700691E-04
  -12.2900000      -1.03433347E-04
  -12.2799997      -8.92006356E-05
  -12.2700005      -7.16802097E-05
  -12.2600002      -5.25702380E-05
  -12.2500000      -3.34194774E-05
  -12.2399998      -1.55129710E-05
  -12.2299995       1.81801681E-07
  -12.2200003       1.30131439E-05
  -12.2100000       2.26002066E-05
  -12.1999998       2.87630919E-05
  -12.1899996       3.14498793E-05
  -12.1800003       3.06833899E-05
  -12.1700001       2.65475082E-05
  -12.1599998       1.92246971E-05
  -12.1499996       9.08290986E-06
  -12.1400003      -3.20713093E-06
  -12.1300001      -1.65605034E-05
  -12.1199999      -2.94205820E-05
  -12.1099997      -3.98041884E-05
  -12.1000004      -4.54838737E-05
  -12.0900002      -4.43123499E-05
  -12.0799999      -3.46539091E-05
  -12.0699997      -1.58463918E-05
  -12.0600004       1.14134482E-05
  -12.0500002       4.48763676E-05
  -12.0400000       8.08323093E-05
  -12.0299997       1.14528826E-04
  -12.0200005       1.40884193E-04
  -12.0100002       1.55384871E-04
  -12.0000000       1.54993584E-04
  -11.9899998       1.38866293E-04
  -11.9799995       1.08695735E-04
  -11.9700003       6.85668492E-05
  -11.9600000       2.43139202E-05
  -11.9499998      -1.75134282E-05
  -11.9399996      -5.08674675E-05
  -11.9300003      -7.13381960E-05
  -11.9200001      -7.69491089E-05
  -11.9099998      -6.84255210E-05
  -11.8999996      -4.88710211E-05
  -11.8900003      -2.29310663E-05
  -11.8800001       4.34751291E-06
  -11.8699999       2.86740706E-05
  -11.8599997       4.73959844E-05
  -11.8500004       5.98838378E-05
  -11.8400002       6.73318718E-05
  -11.8299999       7.20445678E-05
  -11.8199997       7.64231881E-05
  -11.8100004       8.19523775E-05
  -11.8000002       8.84915353E-05
  -11.7900000       9.40943137E-05
  -11.7799997       9.54332281E-05
  -11.7700005       8.87333154E-05
  -11.7600002       7.09678134E-05
  -11.7500000       4.09823442E-05
  -11.7399998       2.18445194E-07
  -11.7299995      -4.71959975E-05
  -11.7200003      -9.50579124E-05
  -11.7100000      -1.36282484E-04
  -11.6999998      -1.64399768E-04
  -11.6899996      -1.74987465E-04
  -11.6800003      -1.66682308E-04
  -11.6700001      -1.41515804E-04
  -11.6599998      -1.04491468E-04
  -11.6499996      -6.25109315E-05
  -11.6400003      -2.29162470E-05
  -11.6300001       7.99778081E-06
  -11.6199999       2.61547120E-05
  -11.6099997       3.03000670E-05
  -11.6000004       2.19406247E-05
  -11.5900002       4.69122097E-06
  -11.5799999      -1.67618800E-05
  -11.5699997      -3.77997458E-05
  -11.5600004      -5.48370263E-05
  -11.5500002      -6.59162470E-05
  -11.5400000      -7.08472435E-05
  -11.5299997      -7.09296946E-05
  -11.5200005      -6.83889666E-05
  -11.5100002      -6.56991033E-05
  -11.5000000      -6.49579888E-05
  -11.4899998      -6.74325784E-05
  -11.4799995      -7.33284105E-05
  -11.4700003      -8.17805631E-05
  -11.4600000      -9.10275849E-05
  -11.4499998      -9.87192616E-05
  -11.4399996      -1.02314276E-04
  -11.4300003      -9.95322480E-05
  -11.4200001      -8.88221766E-05
  -11.4099998      -6.97936775E-05
  -11.3999996      -4.35333677E-05
  -11.3900003      -1.27122894E-05
  -11.3800001       1.86017569E-05
  -11.3699999       4.54696892E-05
  -11.3599997       6.29111018E-05
  -11.3500004       6.69127330E-05
  -11.3400002       5.54090766E-05
  -11.3299999       2.89908312E-05
  -11.3199997      -8.87695387E-06
  -11.3100004      -5.22510709E-05
  -11.3000002      -9.37008517E-05
  -11.2900000      -1.25716848E-04
  -11.2799997      -1.42235906E-04
  -11.2700005      -1.39927914E-04
  -11.2600002      -1.18928605E-04
  -11.2500000      -8.28288248E-05
  -11.2399998      -3.79123012E-05
  -11.2299995       8.17909950E-06
  -11.2200003       4.80320050E-05
  -11.2100000       7.59241811E-05
  -11.1999998       8.88311770E-05
  -11.1899996       8.67746567E-05
  -11.1800003       7.24856873E-05
  -11.1700001       5.05273129E-05
  -11.1599998       2.61399709E-05
  -11.1499996       4.11237897E-06
  -11.1400003      -1.20655950E-05
  -11.1300001      -2.06192417E-05
  -11.1199999      -2.14584579E-05
  -11.1099997      -1.58001858E-05
  -11.1000004      -5.61185334E-06
  -11.0900002       6.94828259E-06
  -11.0799999       1.99615515E-05
  -11.0699997       3.19894862E-05
  -11.0600004       4.21346886E-05
  -11.0500002       4.99787093E-05
  -11.0400000       5.54659528E-05
  -11.0299997       5.87855793E-05
  -11.0200005       6.02724176E-05
  -11.0100002       6.03215776E-05
  -11.0000000       5.93021468E-05
  -10.9899998       5.74656588E-05
  -10.9799995       5.48653661E-05
  -10.9700003       5.13186278E-05
  -10.9600000       4.64435179E-05
  -10.9499998       3.97786280E-05
  -10.9399996       3.09589996E-05
  -10.9300003       1.98884336E-05
  -10.9200001       6.83664985E-06
  -10.9099998      -7.58836450E-06
  -10.8999996      -2.25923814E-05
  -10.8900003      -3.74090014E-05
  -10.8800001      -5.14683998E-05
  -10.8699999      -6.44119937E-05
  -10.8599997      -7.58970200E-05
  -10.8500004      -8.52326048E-05
  -10.8400002      -9.09966839E-05
  -10.8299999      -9.08553848E-05
  -10.8199997      -8.17997789E-05
  -10.8100004      -6.09096533E-05
  -10.8000002      -2.65662820E-05
  -10.7900000       2.01809853E-05
  -10.7799997       7.45577709E-05
  -10.7700005       1.27822976E-04
  -10.7600002       1.68216575E-04
  -10.7500000       1.83170938E-04
  -10.7399998       1.62458397E-04
  -10.7299995       1.01560719E-04
  -10.7200003       4.30628961E-06
  -10.7100000      -1.16163654E-04
  -10.6999998      -2.38727866E-04
  -10.6899996      -3.37986101E-04
  -10.6800003      -3.89725115E-04
  -10.6700001      -3.76952637E-04
  -10.6599998      -2.94971163E-04
  -10.6499996      -1.54033609E-04
  -10.6400003       2.13897856E-05
  -10.6300001       1.96893219E-04
  -10.6199999       3.35199788E-04
  -10.6099997       4.04454127E-04
  -10.6000004       3.85770865E-04
  -10.5900002       2.78154621E-04
  -10.5799999       9.94991569E-05
  -10.5699997      -1.16677453E-04
  -10.5600004      -3.28052614E-04
  -10.5500002      -4.92293271E-04
  -10.5400000      -5.75788668E-04
  -10.5299997      -5.60358167E-04
  -10.5200005      -4.46537335E-04
  -10.5100002      -2.52924103E-04
  -10.5000000      -1.20084314E-05
  -10.4899998       2.36344669E-04
  -10.4799995       4.52214794E-04
  -10.4700003       6.02255343E-04
  -10.4600000       6.64535211E-04
  -10.4499998       6.31066738E-04
  -10.4399996       5.08042227E-04
  -10.4300003       3.14177189E-04
  -10.4200001       7.77003224E-05
  -10.4099998      -1.67519887E-04
  -10.3999996      -3.86346248E-04
  -10.3900003      -5.46955678E-04
  -10.3800001      -6.25298766E-04
  -10.3699999      -6.08941715E-04
  -10.3599997      -4.99615853E-04
  -10.3500004      -3.13748867E-04
  -10.3400002      -8.04445444E-05
  -10.3299999       1.63149132E-04
  -10.3199997       3.78477562E-04
  -10.3100004       5.32950740E-04
  -10.3000002       6.06357702E-04
  -10.2900000       5.94657264E-04
  -10.2799997       5.10021870E-04
  -10.2700005       3.76971380E-04
  -10.2600002       2.25545853E-04
  -10.2500000       8.33828890E-05
  -10.2399998      -3.10319811E-05
  -10.2299995      -1.11964400E-04
  -10.2200003      -1.65834892E-04
  -10.2100000      -2.06693279E-04
  -10.1999998      -2.49304343E-04
  -10.1899996      -3.02198780E-04
  -10.1800003      -3.63101572E-04
  -10.1700001      -4.18406504E-04
  -10.1599998      -4.47036349E-04
  -10.1499996      -4.27542604E-04
  -10.1400003      -3.46152403E-04
  -10.1300001      -2.03056377E-04
  -10.1199999      -1.47131514E-05
  -10.1099997       1.88818638E-04
  -10.1000004       3.70919210E-04
  -10.0900002       4.97788598E-04
  -10.0799999       5.47356380E-04
  -10.0699997       5.15024236E-04
  -10.0600004       4.14525217E-04
  -10.0500002       2.73704238E-04
  -10.0400000       1.26575949E-04
  -10.0299997       4.10497432E-06
  -10.0200005      -7.35696958E-05
  -10.0100002      -1.01324687E-04
  -10.0000000      -8.87317874E-05
  -9.98999977      -5.57210442E-05
  -9.97999954      -2.58651398E-05
  -9.97000027      -1.94481709E-05
  -9.96000004      -4.82684954E-05
  -9.94999981      -1.13327871E-04
  -9.93999958      -2.05514705E-04
  -9.93000031      -3.08489456E-04
  -9.92000008      -4.02524078E-04
  -9.90999985      -4.68127109E-04
  -9.89999962      -4.88776946E-04
  -9.89000034      -4.52707260E-04
  -9.88000011      -3.54134914E-04
  -9.86999989      -1.94392327E-04
  -9.85999966       1.68892366E-05
  -9.85000038       2.60915636E-04
  -9.84000015       5.09980251E-04
  -9.82999992       7.29687978E-04
  -9.81999969       8.83584493E-04
  -9.81000042       9.39803256E-04
  -9.80000019       8.78420426E-04
  -9.78999996       6.97560201E-04
  -9.77999973       4.16246359E-04
  -9.77000046       7.26635117E-05
  -9.76000023      -2.82276684E-04
  -9.75000000      -5.94747777E-04
  -9.73999977      -8.18773231E-04
  -9.72999954      -9.25115601E-04
  -9.72000027      -9.05963418E-04
  -9.71000004      -7.74344604E-04
  -9.69999981      -5.58802742E-04
  -9.68999958      -2.95278878E-04
  -9.68000031      -1.88604208E-05
  -9.67000008       2.42153183E-04
  -9.65999985       4.68471117E-04
  -9.64999962       6.48412388E-04
  -9.64000034       7.74352404E-04
  -9.63000011       8.39210523E-04
  -9.61999989       8.34994134E-04
  -9.60999966       7.54395965E-04
  -9.60000038       5.94983634E-04
  -9.59000015       3.64200707E-04
  -9.57999992       8.27597105E-05
  -9.56999969      -2.15666281E-04
  -9.56000042      -4.89326019E-04
  -9.55000019      -6.97025331E-04
  -9.53999996      -8.08153825E-04
  -9.52999973      -8.10946513E-04
  -9.52000046      -7.16113369E-04
  -9.51000023      -5.54307713E-04
  -9.50000000      -3.67855333E-04
  -9.48999977      -1.99070826E-04
  -9.47999954      -7.86852106E-05
  -9.47000027      -1.79558283E-05
  -9.46000004      -6.89771286E-06
  -9.44999981      -1.91261406E-05
  -9.43999958      -2.16892877E-05
  -9.43000031       1.32998202E-05
  -9.42000008       9.89342952E-05
  -9.40999985       2.28693913E-04
  -9.39999962       3.77896271E-04
  -9.39000034       5.10759011E-04
  -9.38000011       5.90693089E-04
  -9.36999989       5.90575102E-04
  -9.35999966       4.99963935E-04
  -9.35000038       3.27393995E-04
  -9.34000015       9.75403163E-05
  -9.32999992      -1.55368572E-04
  -9.31999969      -3.95541603E-04
  -9.31000042      -5.92566910E-04
  -9.30000019      -7.25570018E-04
  -9.28999996      -7.84059055E-04
  -9.27999973      -7.66143901E-04
  -9.27000046      -6.75611431E-04
  -9.26000023      -5.19458205E-04
  -9.25000000      -3.06954782E-04
  -9.23999977      -5.03923147E-05
  -9.22999954       2.33259707E-04
  -9.22000027       5.21114562E-04
  -9.21000004       7.84854579E-04
  -9.19999981       9.93657159E-04
  -9.18999958       1.11933530E-03
  -9.18000031       1.14252244E-03
  -9.17000008       1.05813274E-03
  -9.15999985       8.78294057E-04
  -9.14999962       6.31512201E-04
  -9.14000034       3.57834040E-04
  -9.13000011       1.00912504E-04
  -9.11999989      -1.01183250E-04
  -9.10999966      -2.24118747E-04
  -9.10000038      -2.62277958E-04
  -9.09000015      -2.29207886E-04
  -9.07999992      -1.53300425E-04
  -9.06999969      -6.97302021E-05
  -9.06000042      -1.06843245E-05
  -9.05000019       3.56677970E-06
  -9.03999996      -2.96546441E-05
  -9.02999973      -9.46411965E-05
  -9.02000046      -1.61767413E-04
  -9.01000023      -1.96171779E-04
  -9.00000000      -1.68393351E-04
  -8.98999977      -6.40397338E-05
  -8.97999954       1.10322486E-04
  -8.97000027       3.26943613E-04
  -8.96000004       5.42698486E-04
  -8.94999981       7.09565124E-04
  -8.93999958       7.86982186E-04
  -8.93000031       7.52612948E-04
  -8.92000008       6.08372327E-04
  -8.90999985       3.79881792E-04
  -8.89999962       1.09448287E-04
  -8.89000034      -1.55356844E-04
  -8.88000011      -3.74054915E-04
  -8.86999989      -5.22772316E-04
  -8.85999966      -5.98039129E-04
  -8.85000038      -6.13884593E-04
  -8.84000015      -5.93496545E-04
  -8.82999992      -5.58575673E-04
  -8.81999969      -5.20331028E-04
  -8.81000042      -4.75496898E-04
  -8.80000019      -4.08957392E-04
  -8.78999996      -3.02128115E-04
  -8.77999973      -1.44023405E-04
  -8.77000046       5.92626238E-05
  -8.76000023       2.80618435E-04
  -8.75000000       4.75696637E-04
  -8.73999977       5.93907200E-04
  -8.72999954       5.93455101E-04
  -8.72000027       4.55575355E-04
  -8.71000004       1.93059794E-04
  -8.69999981      -1.50173946E-04
  -8.68999958      -5.08866331E-04
  -8.68000031      -8.12855957E-04
  -8.67000008      -1.00521685E-03
  -8.65999985      -1.05650327E-03
  -8.64999962      -9.70759545E-04
  -8.64000034      -7.81657756E-04
  -8.63000011      -5.40368492E-04
  -8.61999989      -2.99421750E-04
  -8.60999966      -9.79685283E-05
  -8.60000038       4.68700891E-05
  -8.59000015       1.40197648E-04
  -8.57999992       2.01767616E-04
  -8.56999969       2.54024402E-04
  -8.56000042       3.10532399E-04
  -8.55000019       3.69179674E-04
  -8.53999996       4.12574067E-04
  -8.52999973       4.15257877E-04
  -8.52000046       3.54796677E-04
  -8.51000023       2.22387258E-04
  -8.50000000       2.88719802E-05
  -8.48999977      -1.96187786E-04
  -8.47999954      -4.12126654E-04
  -8.47000027      -5.78772102E-04
  -8.46000004      -6.67911780E-04
  -8.44999981      -6.70660287E-04
  -8.43999958      -5.98338316E-04
  -8.43000031      -4.76887973E-04
  -8.42000008      -3.37157137E-04
  -8.40999985      -2.04749871E-04
  -8.39999962      -9.30812748E-05
  -8.39000034      -1.87303328E-06
  -8.38000011       7.88441466E-05
  -8.36999989       1.61245145E-04
  -8.35999966       2.51988327E-04
  -8.35000038       3.47424706E-04
  -8.34000015       4.33612411E-04
  -8.32999992       4.91036219E-04
  -8.31999969       5.02063078E-04
  -8.31000042       4.58125927E-04
  -8.30000019       3.63782689E-04
  -8.28999996       2.36066349E-04
  -8.27999973       9.93874346E-05
  -8.27000046      -2.20482070E-05
  -8.26000023      -1.11446920E-04
  -8.25000000      -1.63626260E-04
  -8.23999977      -1.84807883E-04
  -8.22999954      -1.88340942E-04
  -8.22000027      -1.88240345E-04
  -8.21000004      -1.93189320E-04
  -8.19999981      -2.03365460E-04
  -8.18999958      -2.11241073E-04
  -8.18000031      -2.05880729E-04
  -8.17000008      -1.78855538E-04
  -8.15999985      -1.29260472E-04
  -8.14999962      -6.56900156E-05
  -8.14000034      -4.24191740E-06
  -8.13000011       3.68046931E-05
  -8.11999989       4.36666414E-05
  -8.10999966       1.25501301E-05
  -8.10000038      -4.81798270E-05
  -8.09000015      -1.20089375E-04
  -8.07999992      -1.80408315E-04
  -8.06999969      -2.09466802E-04
  -8.06000042      -1.97284215E-04
  -8.05000019      -1.47058876E-04
  -8.03999996      -7.43913988E-05
  -8.02999973      -2.53177313E-06
  -8.02000046       4.47496095E-05
  -8.01000023       5.03465235E-05
  -8.00000000       8.82275344E-06
  -7.98999977      -7.21868782E-05
  -7.98000002      -1.74396118E-04
  -7.96999979      -2.74143182E-04
  -7.96000004      -3.48787988E-04
  -7.94999981      -3.82343802E-04
  -7.94000006      -3.68892448E-04
  -7.92999983      -3.13148834E-04
  -7.92000008      -2.28419754E-04
  -7.90999985      -1.32862813E-04
  -7.90000010      -4.52348904E-05
  -7.88999987       1.87937967E-05
  -7.88000011       4.90655293E-05
  -7.86999989       4.18819436E-05
  -7.86000013      -3.46316000E-07
  -7.84999990      -7.03334736E-05
  -7.84000015      -1.57571718E-04
  -7.82999992      -2.50018114E-04
  -7.82000017      -3.35562829E-04
  -7.80999994      -4.03157814E-04
  -7.80000019      -4.43587895E-04
  -7.78999996      -4.49944229E-04
  -7.78000021      -4.17917385E-04
  -7.76999998      -3.46059212E-04
  -7.76000023      -2.36145977E-04
  -7.75000000      -9.36894357E-05
  -7.73999977       7.15158603E-05
  -7.73000002       2.45106959E-04
  -7.71999979       4.08555497E-04
  -7.71000004       5.40671870E-04
  -7.69999981       6.20400242E-04
  -7.69000006       6.30688795E-04
  -7.67999983       5.62734727E-04
  -7.67000008       4.19518066E-04
  -7.65999985       2.17432098E-04
  -7.65000010      -1.48970248E-05
  -7.63999987      -2.40850961E-04
  -7.63000011      -4.22504876E-04
  -7.61999989      -5.28332079E-04
  -7.61000013      -5.40033972E-04
  -7.59999990      -4.56669746E-04
  -7.59000015      -2.94893660E-04
  -7.57999992      -8.51384466E-05
  -7.57000017       1.35294496E-04
  -7.55999994       3.30420124E-04
  -7.55000019       4.72893065E-04
  -7.53999996       5.48654003E-04
  -7.53000021       5.57927822E-04
  -7.51999998       5.12696977E-04
  -7.51000023       4.31760360E-04
  -7.50000000       3.35055403E-04
  -7.48999977       2.38936671E-04
  -7.48000002       1.53594199E-04
  -7.46999979       8.29791461E-05
  -7.46000004       2.67676642E-05
  -7.44999981      -1.66943664E-05
  -7.44000006      -4.77027388E-05