  -16.0000000       0.00000000    
  -15.9899998       0.00000000    
  -15.9799995       0.00000000    
  -15.9700003       0.00000000    
  -15.9600000       0.00000000    
  -15.9499998       0.00000000    
  -15.9399996       0.00000000    
  -15.9300003       0.00000000    
  -15.9200001       0.00000000    
  -15.9099998       0.00000000    
  -15.8999996       7.30244656E-41
  -15.8900003       1.69559637E-39
  -15.8800001       3.37045351E-38
  -15.8699999       5.52329211E-37
  -15.8599997       6.58976293E-36
  -15.8500004       5.86228905E-35
  -15.8400002       4.09594440E-34
  -15.8299999       2.34859198E-33
  -15.8199997       1.14220082E-32
  -15.8100004       4.82756869E-32
  -15.8000002       1.80549843E-31
  -15.7900000       6.05567623E-31
  -15.7799997       1.83952471E-30
  -15.7700005       5.09667831E-30
  -15.7600002       1.29401503E-29
  -15.7500000       3.01819914E-29
  -15.7399998       6.46875151E-29
  -15.7299995       1.27083462E-28
  -15.7200003       2.27410173E-28
  -15.7100000       3.65917349E-28
  -15.6999998       5.15559650E-28
  -15.6899996       5.97044253E-28
  -15.6800003       4.55211116E-28
  -15.6700001      -1.42026572E-28
  -15.6599998      -1.44854757E-27
  -15.6499996      -3.59370554E-27
  -15.6400003      -6.33562620E-27
  -15.6300001      -8.77102701E-27
  -15.6199999      -9.15988999E-27
  -15.6099997      -5.11945613E-27
  -15.6000004       5.54944811E-27
  -15.5900002       2.33205649E-26
  -15.5799999       4.50252993E-26
  -15.5699997       6.24874842E-26
  -15.5600004       6.30987035E-26
  -15.5500002       3.36037859E-26
  -15.5400000      -3.27575908E-26
  -15.5299997      -1.27759561E-25
  -15.5200005      -2.22796654E-25
  -15.5100002      -2.72201608E-25
  -15.5000000      -2.28926646E-25
  -15.4899998      -7.02391396E-26
  -15.4799995       1.77473884E-25
  -15.4700003       4.32217186E-25
  -15.4600000       5.83624640E-25
  -15.4499998       5.54087913E-25
  -15.4399996       3.67689448E-25
  -15.4300003       1.76287190E-25
  -15.4200001       1.90252456E-25
  -15.4099998       5.01096231E-25
  -15.3999996       8.64496790E-25
  -15.3900003       6.01566985E-25
  -15.3800001      -1.19210205E-24
  -15.3699999      -5.03631166E-24
  -15.3599997      -1.02088675E-23
  -15.3500004      -1.41150298E-23
  -15.3400002      -1.25588021E-23
  -15.3299999      -1.42972440E-24
  -15.3199997       2.03470909E-23
  -15.3100004       4.77832046E-23
  -15.3000002       6.87948998E-23
  -15.2900000       6.72241389E-23
  -15.2799997       3.04431931E-23
  -15.2700005      -4.08457630E-23
  -15.2600002      -1.26074223E-22
  -15.2500000      -1.88009762E-22
  -15.2399998      -1.89000269E-22
  -15.2299995      -1.15800893E-22
  -15.2200003       9.63394803E-25
  -15.2100000       9.16525800E-23
  -15.1999998       8.91274993E-23
  -15.1899996      -2.16617596E-24
  -15.1800003      -4.88635843E-23
  -15.1700001       1.95954059E-22
  -15.1599998       9.54493019E-22
  -15.1499996       2.17273589E-21
  -15.1400003       3.26613052E-21
  -15.1300001       3.06917410E-21
  -15.1199999       2.10587290E-22
  -15.1099997      -6.00494270E-21
  -15.1000004      -1.44404361E-20
  -15.0900002      -2.13169129E-20
  -15.0799999      -2.06155720E-20
  -15.0699997      -6.37394320E-21
  -15.0600004       2.32402791E-20
  -15.0500002       6.15054474E-20
  -15.0400000       9.10974913E-20
  -15.0299997       8.75341717E-20
  -15.0200005       2.98097346E-20
  -15.0100002      -8.36418928E-20
  -15.0000000      -2.20350498E-19
  -14.9899998      -3.11080088E-19
  -14.9799995      -2.69042149E-19
  -14.9700003      -3.38428152E-20
  -14.9600000       3.71161059E-19
  -14.9499998       7.95944773E-19
  -14.9399996       9.73167237E-19
  -14.9300003       6.10290754E-19
  -14.9200001      -4.36744022E-19
  -14.9099998      -1.96211439E-18
  -14.8999996      -3.28959473E-18
  -14.8900003      -3.36607316E-18
  -14.8800001      -1.16135372E-18
  -14.8699999       3.65845110E-18
  -14.8599997       1.00058869E-17
  -14.8500004       1.50004026E-17
  -14.8400002       1.44193363E-17
  -14.8299999       4.27271998E-18
  -14.8199997      -1.66507404E-17
  -14.8100004      -4.40806831E-17
  -14.8000002      -6.68455572E-17
  -14.7900000      -6.83951047E-17
  -14.7799997      -3.23593453E-17
  -14.7700005       4.82797034E-17
  -14.7600002       1.61056300E-16
  -14.7500000       2.67755400E-16
  -14.7399998       3.07769316E-16
  -14.7299995       2.15301389E-16
  -14.7200003      -4.99883541E-17
  -14.7100000      -4.66429386E-16
  -14.6999998      -9.22832867E-16
  -14.6899996      -1.21912107E-15
  -14.6800003      -1.11116249E-15
  -14.6700001      -4.03260078E-16
  -14.6599998       9.29484617E-16
  -14.6499996       2.63086295E-15
  -14.6400003       4.12427881E-15
  -14.6300001       4.60159458E-15
  -14.6199999       3.26756872E-15
  -14.6099997      -2.90285920E-16
  -14.6000004      -5.70964200E-15
  -14.5900002      -1.16048833E-14
  -14.5799999      -1.56465789E-14
  -14.5699997      -1.50982573E-14
  -14.5600004      -7.80082108E-15
  -14.5500002       6.60602308E-15
  -14.5400000       2.56391774E-14
  -14.5299997       4.36365421E-14
  -14.5200005       5.26059976E-14
  -14.5100002       4.44501749E-14
  -14.5000000       1.42656950E-14
  -14.4899998      -3.61665586E-14
  -14.4799995      -9.60513204E-14
  -14.4700003      -1.45870038E-13
  -14.4600000      -1.61312532E-13
  -14.4499998      -1.20828112E-13
  -14.4399996      -1.53155771E-14
  -14.4300003       1.42988946E-13
  -14.4200001       3.16243939E-13
  -14.4099998       4.44892441E-13
  -14.3999996       4.61475584E-13
  -14.3900003       3.12996780E-13
  -14.3800001      -1.33366803E-14
  -14.3699999      -4.69413733E-13
  -14.3599997      -9.40232701E-13
  -14.3500004      -1.26036876E-12
  -14.3400002      -1.25512448E-12
  -14.3299999      -8.00306219E-13
  -14.3199997       1.14388032E-13
  -14.3100004       1.33993391E-12
  -14.3000002       2.56304873E-12
  -14.2900000       3.35751500E-12
  -14.2799997       3.29287530E-12
  -14.2700005       2.08182820E-12
  -14.2600002      -2.71931756E-13
  -14.2500000      -3.37613206E-12
  -14.2399998      -6.45214481E-12
  -14.2299995      -8.46809428E-12
  -14.2200003      -8.39931857E-12
  -14.2100000      -5.56896499E-12
  -14.1999998       1.93117363E-14
  -14.1899996       7.46799497E-12
  -14.1800003       1.49967313E-11
  -14.1700001       2.02403060E-11
  -14.1599998       2.08217367E-11
  -14.1499996       1.50976766E-11
  -14.1400003       2.89036633E-12
  -14.1300001      -1.40262975E-11
  -14.1199999      -3.19053776E-11
  -14.1099997      -4.56043432E-11
  -14.1000004      -4.97477406E-11
  -14.0900002      -4.02804907E-11
  -14.0799999      -1.60491863E-11
  -14.0699997       2.00526557E-11
  -14.0600004       6.08282660E-11
  -14.0500002       9.57159560E-11
  -14.0400000       1.12955485E-10
  -14.0299997       1.02668082E-10
  -14.0200005       6.01946340E-11
  -14.0100002      -1.11984909E-11
  -14.0000000      -9.91750640E-11
  -13.9899998      -1.83459317E-10
  -13.9799995      -2.39487652E-10
  -13.9700003      -2.44181231E-10
  -13.9600000      -1.82750176E-10
  -13.9499998      -5.48908176E-11
  -13.9399996       1.21489624E-10
  -13.9300003       3.10650949E-10
  -13.9200001       4.64391359E-10
  -13.9099998       5.32143052E-10
  -13.8999996       4.74161654E-10
  -13.8900003       2.74943512E-10
  -13.8800001      -4.67376450E-11
  -13.8699999      -4.34709019E-10
  -13.8599997      -8.01669120E-10
  -13.8500004      -1.04533870E-09
  -13.8400002      -1.07239917E-09
  -13.8299999      -8.25516433E-10
  -13.8199997      -3.06832421E-10
  -13.8100004       4.09229733E-10
  -13.8000002       1.17969423E-09
  -13.7900000       1.81593474E-09
  -13.7799997       2.12374829E-09
  -13.7700005       1.95349226E-09
  -13.7600002       1.24891886E-09
  -13.7500000       8.12940965E-11
  -13.7399998      -1.34339118E-09
  -13.7299995      -2.71151102E-09
  -13.7200003      -3.66276631E-09
  -13.7100000      -3.87533339E-09
  -13.6999998      -3.15707815E-09
  -13.6899996      -1.51961776E-09
  -13.6800003       7.87703736E-10
  -13.6700001       3.30026406E-09
  -13.6599998       5.42110401E-09
  -13.6499996       6.55285737E-09
  -13.6400003       6.25200292E-09
  -13.6300001       4.36823422E-09
  -13.6199999       1.12956933E-09
  -13.6099997      -2.85801538E-09
  -13.6000004      -6.70971678E-09
  -13.5900002      -9.44866674E-09
  -13.5799999      -1.02440305E-08
  -13.5699997      -8.64496386E-09
  -13.5600004      -4.74794737E-09
  -13.5500002       7.56121110E-10
  -13.5400000       6.68402400E-09
  -13.5299997       1.16044516E-08
  -13.5200005       1.41782568E-08
  -13.5100002       1.35166971E-08
  -13.5000000       9.46457135E-09
  -13.4899998       2.72339040E-09
  -13.4799995      -5.23798782E-09
  -13.4700003      -1.24870301E-08
  -13.4600000      -1.70895174E-08
  -13.4499998      -1.76240764E-08
  -13.4399996      -1.36162690E-08
  -13.4300003      -5.76497694E-09
  -13.4200001       4.12485424E-09
  -13.4099998       1.35191396E-08
  -13.3999996       1.97742178E-08
  -13.3900003       2.08572288E-08
  -13.3800001       1.59803815E-08
  -13.3699999       5.96308380E-09
  -13.3599997      -6.81178003E-09
  -13.3500004      -1.88853573E-08
  -13.3400002      -2.65737832E-08
  -13.3299999      -2.69912359E-08
  -13.3199997      -1.89815754E-08
  -13.3100004      -3.68643360E-09
  -13.3000002       1.54569850E-08
  -13.2900000       3.33644117E-08
  -13.2799997       4.45068657E-08
  -13.2700005       4.44096067E-08
  -13.2600002       3.10746699E-08
  -13.2500000       5.92510929E-09
  -13.2399998      -2.60543729E-08
  -13.2299995      -5.71313130E-08
  -13.2200003      -7.85074690E-08
  -13.2100000      -8.25381221E-08
  -13.1999998      -6.49710330E-08
  -13.1899996      -2.66142575E-08
  -13.1800003       2.60846917E-08
  -13.1700001       8.18482562E-08
  -13.1599998       1.26745405E-07
  -13.1499996       1.47360197E-07
  -13.1400003       1.34278167E-07
  -13.1300001       8.50542392E-08
  -13.1199999       5.85579363E-09
  -13.1099997      -8.87929446E-08
  -13.1000004      -1.78338723E-07
  -13.0900002      -2.40290717E-07
  -13.0799999      -2.55309374E-07
  -13.0699997      -2.12206700E-07
  -13.0600004      -1.11678297E-07
  -13.0500002       3.22408908E-08
  -13.0400000       1.93585038E-07
  -13.0299997       3.38726466E-07
  -13.0200005       4.32859849E-07
  -13.0100002       4.47502202E-07
  -13.0000000       3.67473319E-07
  -12.9899998       1.95790207E-07
  -12.9799995      -4.47854767E-08
  -12.9700003      -3.14210297E-07
  -12.9600000      -5.61505090E-07
  -12.9499998      -7.34029641E-07
  -12.9399996      -7.88029467E-07
  -12.9300003      -6.98385975E-07
  -12.9200001      -4.65477768E-07
  -12.9099998      -1.17478073E-07
  -12.8999996       2.92786581E-07
  -12.8900003       6.96227175E-07
  -12.8800001       1.01982039E-06
  -12.8699999       1.20060906E-06
  -12.8599997       1.19855486E-06
  -12.8500004       1.00542991E-06
  -12.8400002       6.47568811E-07
  -12.8299999       1.81490606E-07
  -12.8199997      -3.17064746E-07
  -12.8100004      -7.68579014E-07
  -12.8000002      -1.10635153E-06
  -12.7900000      -1.29038563E-06
  -12.7799997      -1.31505749E-06
  -12.7700005      -1.20833033E-06
  -12.7600002      -1.02224021E-06
  -12.7500000      -8.16627619E-07
  -12.7399998      -6.40050075E-07
  -12.7299995      -5.12951374E-07
  -12.7200003      -4.18072204E-07
  -12.7100000      -3.01643325E-07
  -12.6999998      -8.63419771E-08
  -12.6899996       3.06123667E-07
  -12.6800003       9.27828353E-07
  -12.6700001       1.77970855E-06
  -12.6599998       2.79595474E-06
  -12.6499996       3.84306350E-06
  -12.6400003       4.73557066E-06
  -12.6300001       5.26633767E-06
  -12.6199999       5.24529742E-06
  -12.6099997       4.53798702E-06
  -12.6000004       3.09476582E-06
  -12.5900002       9.63677621E-07
  -12.5799999      -1.71592671E-06
  -12.5699997      -4.73672026E-06
  -12.5600004      -7.85660541E-06
  -12.5500002      -1.08318018E-05
  -12.5400000      -1.34397933E-05
  -12.5299997      -1.54852842E-05
  -12.5200005      -1.67879880E-05
  -12.5100002      -1.71577049E-05
  -12.5000000      -1.63678815E-05
  -12.4899998      -1.41416331E-05
  -12.4799995      -1.01628220E-05
  -12.4700003      -4.11912151E-06
  -12.4600000       4.22503126E-06
  -12.4499998       1.49375792E-05
  -12.4399996       2.78303905E-05
  -12.4300003       4.23972961E-05
  -12.4200001       5.78005784E-05
  -12.4099998       7.29193198E-05
  -12.3999996       8.64599715E-05
  -12.3900003       9.71145710E-05
  -12.3800001       1.03739440E-04
  -12.3699999       1.05519845E-04
  -12.3599997       1.02087033E-04
  -12.3500004       9.35631761E-05
  -12.3400002       8.05251475E-05
  -12.3299999       6.38966303E-05
  -12.3199997       4.47944658E-05
  -12.3100004       2.43653940E-05
  -12.3000002       3.65062419E-06
  -12.2900000      -1.64932535E-05
  -12.2799997      -3.54046097E-05
  -12.2700005      -5.25658506E-05
  -12.2600002      -6.75166229E-05
  -12.2500000      -7.97672546E-05
  -12.2399998      -8.87491624E-05
  -12.2299995      -9.38283483E-05
  -12.2200003      -9.43895720E-05
  -12.2100000      -8.99759762E-05
  -12.1999998      -8.04499286E-05
  -12.1899996      -6.61294325E-05
  -12.1800003      -4.78558213E-05
  -12.1700001      -2.69623451E-05
  -12.1599998      -5.13662553E-06
  -12.1499996       1.58025905E-05
  -12.1400003       3.41704726E-05
  -12.1300001       4.86651879E-05
  -12.1199999       5.85443704E-05
  -12.1099997       6.36876575E-05
  -12.1000004       6.45312684E-05
  -12.0900002       6.18922058E-05
  -12.0799999       5.67276802E-05
  -12.0699997       4.98924783E-05
  -12.0600004       4.19577118E-05
  -12.0500002       3.31386327E-05
  -12.0400000       2.33501378E-05
  -12.0299997       1.23739173E-05
  -12.0200005       8.97688182E-08
  -12.0100002      -1.32961914E-05
  -12.0000000      -2.70960481E-05
  -11.9899998      -4.01110774E-05
  -11.9799995      -5.07521545E-05
  -11.9700003      -5.72945864E-05
  -11.9600000      -5.82168395E-05
  -11.9499998      -5.25484938E-05
  -11.9399996      -4.01465004E-05
  -11.9300003      -2.18319292E-05
  -11.9200001       6.50926779E-07
  -11.9099998       2.48523011E-05
  -11.8999996       4.79722003E-05
  -11.8900003       6.72845417E-05
  -11.8800001       8.05483869E-05
  -11.8699999       8.63299138E-05
  -11.8599997       8.41806759E-05
  -11.8500004       7.46497462E-05
  -11.8400002       5.91417083E-05
  -11.8299999       3.96609867E-05
  -11.8199997       1.84988676E-05
  -11.8100004      -2.07808762E-06
  -11.8000002      -2.00906870E-05
  -11.7900000      -3.40323459E-05
  -11.7799997      -4.29694737E-05
  -11.7700005      -4.65665908E-05
  -11.7600002      -4.50548396E-05
  -11.7500000      -3.91628819E-05
  -11.7399998      -3.00229185E-05
  -11.7299995      -1.90559913E-05
  -11.7200003      -7.83420455E-06
  -11.7100000       2.08274037E-06
  -11.6999998       9.33289448E-06
  -11.6899996       1.29438240E-05
  -11.6800003       1.25027518E-05
  -11.6700001       8.26872565E-06
  -11.6599998       1.19104345E-06
  -11.6499996      -7.19019772E-06
  -11.6400003      -1.49639509E-05
  -11.6300001      -2.01637777E-05
  -11.6199999      -2.11284951E-05
  -11.6099997      -1.68397073E-05
  -11.6000004      -7.16475506E-06
  -11.5900002       7.05304410E-06
  -11.5799999       2.40866430E-05
  -11.5699997       4.15922477E-05
  -11.5600004       5.70052071E-05
  -11.5500002       6.79892837E-05
  -11.5400000       7.28501909E-05
  -11.5299997       7.08303560E-05
  -11.5200005       6.22264924E-05
  -11.5100002       4.83098702E-05
  -11.5000000       3.10709584E-05
  -11.4899998       1.28470201E-05
  -11.4799995      -4.08654660E-06
  -11.4700003      -1.78770024E-05
  -11.4600000      -2.73390524E-05
  -11.4499998      -3.20463696E-05
  -11.4399996      -3.22699125E-05
  -11.4300003      -2.87977491E-05
  -11.4200001      -2.26941083E-05
  -11.4099998      -1.50623464E-05
  -11.3999996      -6.86574094E-06
  -11.3900003       1.16360104E-06
  -11.3800001       8.52715311E-06
  -11.3699999       1.48998961E-05
  -11.3599997       2.00501763E-05
  -11.3500004       2.37831264E-05
  -11.3400002       2.59375011E-05
  -11.3299999       2.64416758E-05
  -11.3199997       2.54078750E-05
  -11.3100004       2.32232160E-05
  -11.3000002       2.05891574E-05
  -11.2900000       1.84707878E-05
  -11.2799997       1.79422477E-05
  -11.2700005       1.99479855E-05
  -11.2600002       2.50318044E-05
  -11.2500000       3.31062256E-05
  -11.2399998       4.33360292E-05
  -11.2299995       5.41892623E-05
  -11.2200003       6.36700133E-05
  -11.2100000       6.96992865E-05
  -11.1999998       7.05661150E-05
  -11.1899996       6.53439565E-05
  -11.1800003       5.41662230E-05
  -11.1700001       3.82823127E-05
  -11.1599998       1.98664020E-05
  -11.1499996       1.61292110E-06
  -11.1400003      -1.37912430E-05
  -11.1300001      -2.41930775E-05
  -11.1199999      -2.83713562E-05
  -11.1099997      -2.62113590E-05
  -11.1000004      -1.86208745E-05
  -11.0900002      -7.22240839E-06
  -11.0799999       6.08222172E-06
  -11.0699997       1.95445209E-05
  -11.0600004       3.18734601E-05
  -11.0500002       4.23291094E-05
  -11.0400000       5.05944627E-05
  -11.0299997       5.64914517E-05
  -11.0200005       5.96663558E-05
  -11.0100002       5.93900149E-05
  -11.0000000       5.45896473E-05
  -10.9899998       4.41558514E-05
  -10.9799995       2.74697268E-05
  -10.9700003       5.00046872E-06
  -10.9600000      -2.12352570E-05
  -10.9499998      -4.75601882E-05
  -10.9399996      -6.90087036E-05
  -10.9300003      -8.01978968E-05
  -10.9200001      -7.65594377E-05
  -10.9099998      -5.56581108E-05
  -10.8999996      -1.82468048E-05
  -10.8900003       3.12795710E-05
  -10.8800001       8.52571829E-05
  -10.8699999       1.33989233E-04
  -10.8599997       1.67654798E-04
  -10.8500004       1.78498551E-04
  -10.8400002       1.62788972E-04
  -10.8299999       1.22034922E-04
  -10.8199997       6.30875220E-05
  -10.8100004      -2.99844692E-06
  -10.8000002      -6.31686926E-05
  -10.7900000      -1.05183972E-04
  -10.7799997      -1.20406577E-04
  -10.7700005      -1.05886917E-04
  -10.7600002      -6.52130329E-05
  -10.7500000      -7.86382225E-06
  -10.7399998       5.28380369E-05
  -10.7299995       1.02731450E-04
  -10.7200003       1.30091037E-04
  -10.7100000       1.28397252E-04
  -10.6999998       9.79360411E-05
  -10.6899996       4.58345785E-05
  -10.6800003      -1.54883437E-05
  -10.6700001      -7.10987370E-05
  -10.6599998      -1.06900894E-04
  -10.6499996      -1.12787151E-04
  -10.6400003      -8.48629206E-05
  -10.6300001      -2.62587564E-05
  -10.6199999       5.36157240E-05
  -10.6099997       1.41155266E-04
  -10.6000004       2.21461756E-04
  -10.5900002       2.81388348E-04
  -10.5799999       3.12056392E-04
  -10.5699997       3.10340460E-04
  -10.5600004       2.79084954E-04
  -10.5500002       2.26114877E-04
  -10.5400000       1.62356591E-04
  -10.5299997       9.95394366E-05
  -10.5200005       4.79780465E-05
  -10.5100002       1.48518493E-05
  -10.5000000       3.23762060E-06
  -10.4899998       1.19645720E-05
  -10.4799995       3.61986167E-05
  -10.4700003       6.85537307E-05
  -10.4600000       1.00485224E-04
  -10.4499998       1.23731559E-04
  -10.4399996       1.31614943E-04
  -10.4300003       1.20062679E-04
  -10.4200001       8.82537934E-05
  -10.4099998       3.88258341E-05
  -10.3999996      -2.23962070E-05
  -10.3900003      -8.71514931E-05
  -10.3800001      -1.45922459E-04
  -10.3699999      -1.89414583E-04
  -10.3599997      -2.10131009E-04
  -10.3500004      -2.03776610E-04
  -10.3400002      -1.70212603E-04
  -10.3299999      -1.13731250E-04
  -10.3199997      -4.25342078E-05
  -10.3100004       3.25442234E-05
  -10.3000002       9.98604737E-05
  -10.2900000       1.48990875E-04
  -10.2799997       1.72564905E-04
  -10.2700005       1.67532737E-04
  -10.2600002       1.35616676E-04
  -10.2500000       8.28749617E-05
  -10.2399998       1.84996534E-05
  -10.2299995      -4.68710132E-05
  -10.2200003      -1.02960090E-04
  -10.2100000      -1.41418364E-04
  -10.1999998      -1.56878261E-04
  -10.1899996      -1.47367246E-04
  -10.1800003      -1.14108945E-04
  -10.1700001      -6.08688169E-05
  -10.1599998       6.92788399E-06
  -10.1499996       8.30760182E-05
  -10.1400003       1.61294840E-04
  -10.1300001       2.35674917E-04
  -10.1199999       3.00882006E-04
  -10.1099997       3.52206640E-04
  -10.1000004       3.85580439E-04
  -10.0900002       3.97672819E-04
  -10.0799999       3.86133965E-04
  -10.0699997       3.49985959E-04
  -10.0600004       2.90095544E-04
  -10.0500002       2.09609803E-04
  -10.0400000       1.14206974E-04
  -10.0299997       1.20202430E-05
  -10.0200005      -8.68701682E-05
  -10.0100002      -1.71411317E-04
  -10.0000000      -2.30961043E-04
  -9.98999977      -2.56919651E-04
  -9.97999954      -2.44355004E-04
  -9.97000027      -1.93305372E-04
  -9.96000004      -1.09438311E-04
  -9.94999981      -3.81202040E-06
  -9.93999958       1.08372398E-04
  -9.93000031       2.09939928E-04
  -9.92000008       2.84526439E-04
  -9.90999985       3.19489918E-04
  -9.89999962       3.08362476E-04
  -9.89000034       2.52289610E-04
  -9.88000011       1.60072275E-04
  -9.86999989       4.67104146E-05
  -9.85999966      -6.93195034E-05
  -9.85000038      -1.69516381E-04
  -9.84000015      -2.38807013E-04
  -9.82999992      -2.68248230E-04
  -9.81999969      -2.56390806E-04
  -9.81000042      -2.09030492E-04
  -9.80000019      -1.37456387E-04
  -9.78999996      -5.56650011E-05
  -9.77999973       2.27584624E-05
  -9.77000046       8.73418467E-05
  -9.76000023       1.32406756E-04
  -9.75000000       1.57422386E-04
  -9.73999977       1.66088314E-04
  -9.72999954       1.64526427E-04
  -9.72000027       1.59160743E-04
  -9.71000004       1.54889116E-04
  -9.69999981       1.54006659E-04
  -9.68999958       1.56080830E-04
  -9.68000031       1.58687093E-04
  -9.67000008       1.58677634E-04
  -9.65999985       1.53539251E-04
  -9.64999962       1.42420424E-04
  -9.64000034       1.26552477E-04
  -9.63000011       1.08996872E-04
  -9.61999989       9.38511585E-05
  -9.60999966       8.51818695E-05
  -9.60000038       8.59915453E-05
  -9.59000015       9.74737050E-05
  -9.57999992       1.18696247E-04
  -9.56999969       1.46726787E-04
  -9.56000042       1.77115566E-04
  -9.55000019       2.04604337E-04
  -9.53999996       2.23932773E-04
  -9.52999973       2.30644131E-04
  -9.52000046       2.21823400E-04
  -9.51000023       1.96709501E-04
  -9.50000000       1.57107192E-04
  -9.48999977       1.07498512E-04
  -9.47999954       5.47452255E-05
  -9.47000027       7.31010823E-06
  -9.46000004      -2.59859353E-05
  -9.44999981      -3.75254967E-05
  -9.43999958      -2.24984487E-05
  -9.43000031       1.98127800E-05
  -9.42000008       8.54229002E-05
  -9.40999985       1.65954247E-04
  -9.39999962       2.49911682E-04
  -9.39000034       3.24721652E-04
  -9.38000011       3.79119447E-04
  -9.36999989       4.05346043E-04
  -9.35999966       4.00633697E-04
  -9.35000038       3.67617147E-04
  -9.34000015       3.13570286E-04
  -9.32999992       2.48660770E-04
  -9.31999969       1.83659926E-04
  -9.31000042       1.27669875E-04
  -9.30000019       8.64048343E-05
  -9.28999996       6.13981829E-05
  -9.27999973       5.02532857E-05
  -9.27000046       4.77884969E-05
  -9.26000023       4.77164467E-05
  -9.25000000       4.44004982E-05
  -9.23999977       3.42598505E-05
  -9.22999954       1.65293513E-05
  -9.22000027      -6.72756778E-06
  -9.21000004      -3.12629018E-05
  -9.19999981      -5.17151129E-05
  -9.18999958      -6.28159833E-05
  -9.18000031      -6.04606430E-05
  -9.17000008      -4.24469836E-05
  -9.15999985      -8.79623894E-06
  -9.14999962       3.83341467E-05
  -9.14000034       9.50625690E-05
  -9.13000011       1.56401424E-04
  -9.11999989       2.16956891E-04
  -9.10999966       2.71602214E-04
  -9.10000038       3.16042133E-04
  -9.09000015       3.47212452E-04
  -9.07999992       3.63486324E-04
  -9.06999969       3.64687934E-04
  -9.06000042       3.51941242E-04
  -9.05000019       3.27406276E-04
  -9.03999996       2.93968857E-04
  -9.02999973       2.54945859E-04
  -9.02000046       2.13847961E-04
  -9.01000023       1.74205852E-04
  -9.00000000       1.39429321E-04
  -8.98999977       1.12648377E-04
  -8.97999954       9.64892533E-05
  -8.97000027       9.27737492E-05
  -8.96000004       1.02182632E-04
  -8.94999981       1.23975085E-04
  -8.93999958       1.55883143E-04
  -8.93000031       1.94283872E-04
  -8.92000008       2.34688807E-04
  -8.90999985       2.72496167E-04
  -8.89999962       3.03855864E-04
  -8.89000034       3.26434063E-04
  -8.88000011       3.39862483E-04
  -8.86999989       3.45723791E-04
  -8.85999966       3.47044726E-04
  -8.85000038       3.47409310E-04
  -8.84000015       3.49919457E-04
  -8.82999992       3.56283359E-04
  -8.81999969       3.66282533E-04
  -8.81000042       3.77765158E-04
  -8.80000019       3.87167645E-04
  -8.78999996       3.90423025E-04
  -8.77999973       3.84017796E-04
  -8.77000046       3.65931512E-04
  -8.76000023       3.36242374E-04
  -8.75000000       2.97281076E-04
  -8.73999977       2.53330596E-04
  -8.72999954       2.09966034E-04
  -8.72000027       1.73181688E-04
  -8.71000004       1.48458712E-04
  -8.69999981       1.39901385E-04
  -8.68999958       1.49534448E-04
  -8.68000031       1.76831833E-04
  -8.67000008       2.18539528E-04
  -8.65999985       2.68857315E-04
  -8.64999962       3.20033694E-04
  -8.64000034       3.63383937E-04
  -8.63000011       3.90658155E-04
  -8.61999989       3.95577285E-04
  -8.60999966       3.75253963E-04
  -8.60000038       3.31164163E-04
  -8.59000015       2.69371463E-04
  -8.57999992       1.99836504E-04
  -8.56999969       1.34850110E-04
  -8.56000042       8.68556672E-05
  -8.55000019       6.61050290E-05
  -8.53999996       7.86666860E-05
  -8.52999973       1.25239952E-04
  -8.52000046       2.01038187E-04
  -8.51000023       2.96739425E-04
  -8.50000000       4.00240446E-04
  -8.48999977       4.98771784E-04
  -8.47999954       5.80885098E-04
  -8.47000027       6.37916382E-04
  -8.46000004       6.64724153E-04
  -8.44999981       6.59726211E-04
  -8.43999958       6.24442182E-04
  -8.43000031       5.62824658E-04
  -8.42000008       4.80627583E-04
  -8.40999985       3.84932617E-04
  -8.39999962       2.83803442E-04
  -8.39000034       1.85926474E-04
  -8.38000011       1.00072371E-04
  -8.36999989       3.42900094E-05
  -8.35999966      -5.11123380E-06
  -8.35000038      -1.45840240E-05
  -8.34000015       5.92493370E-06
  -8.32999992       5.28104829E-05
  -8.31999969       1.19361772E-04
  -8.31000042       1.96980080E-04
  -8.30000019       2.76802544E-04
  -8.28999996       3.51335126E-04
  -8.27999973       4.15683346E-04
  -8.27000046       4.68081504E-04
  -8.26000023       5.09628793E-04
  -8.25000000       5.43368398E-04
  -8.23999977       5.73026191E-04
  -8.22999954       6.01792475E-04
  -8.22000027       6.31469418E-04
  -8.21000004       6.62155391E-04
  -8.19999981       6.92444155E-04
  -8.18999958       7.19958218E-04
  -8.18000031       7.41968106E-04
  -8.17000008       7.55884743E-04
  -8.15999985       7.59520743E-04
  -8.14999962       7.51154672E-04
  -8.14000034       7.29534018E-04
  -8.13000011       6.93970243E-04
  -8.11999989       6.44612010E-04
  -8.10999966       5.82863751E-04
  -8.10000038       5.11787890E-04
  -8.09000015       4.36266157E-04
  -8.07999992       3.62726045E-04
  -8.06999969       2.98359577E-04
  -8.06000042       2.49942590E-04
  -8.05000019       2.22526447E-04
  -8.03999996       2.18365371E-04
  -8.02999973       2.36416498E-04
  -8.02000046       2.72602192E-04
  -8.01000023       3.20804189E-04
  -8.00000000       3.74335330E-04
  -7.98999977       4.27483494E-04
  -7.98000002       4.76694491E-04
  -7.96999979       5.21066657E-04
  -7.96000004       5.62041067E-04
  -7.94999981       6.02415123E-04
  -7.94000006       6.45005784E-04
  -7.92999983       6.91378780E-04
  -7.92000008       7.41024851E-04
  -7.90999985       7.91207247E-04
  -7.90000010       8.37492815E-04
  -7.88999987       8.74774472E-04
  -7.88000011       8.98458413E-04
  -7.86999989       9.05469817E-04
  -7.86000013       8.94810655E-04
  -7.84999990       8.67563183E-04
  -7.84000015       8.26406758E-04
  -7.82999992       7.74850370E-04
  -7.82000017       7.16448820E-04
  -7.80999994       6.54241128E-04
  -7.80000019       5.90556534E-04
  -7.78999996       5.27196971E-04
  -7.78000021       4.65883437E-04
  -7.76999998       4.08775493E-04
  -7.76000023       3.58852179E-04
  -7.75000000       3.19990009E-04
  -7.73999977       2.96663115E-04
  -7.73000002       2.93297315E-04
  -7.71999979       3.13404569E-04
  -7.71000004       3.58688150E-04
  -7.69999981       4.28324362E-04
  -7.69000006       5.18595800E-04
  -7.67999983       6.22987282E-04
  -7.67000008       7.32764194E-04
  -7.65999985       8.37964180E-04
  -7.65000010       9.28652822E-04
  -7.63999987       9.96248797E-04
  -7.63000011       1.03471137E-03
  -7.61999989       1.04140246E-03
  -7.61000013       1.01749576E-03
  -7.59999990       9.67875123E-04
  -7.59000015       9.00537125E-04
  -7.57999992       8.25585041E-04
  -7.57000017       7.53947941E-04
  -7.55999994       6.95987139E-04
  -7.55000019       6.60160324E-04
  -7.53999996       6.51907350E-04
  -7.53000021       6.72901399E-04
  -7.51999998       7.20777200E-04
  -7.51000023       7.89405021E-04
  -7.50000000       8.69706040E-04
  -7.48999977       9.50934947E-04
  -7.48000002       1.02226355E-03
  -7.46999979       1.07442355E-03
  -7.46000004       1.10113202E-03
  -7.44999981       1.10003073E-03
  -7.44000006       1.07294926E-03