  -16.0000000       0.00000000    
  -15.9899998       0.00000000    
  -15.9799995       0.00000000    
  -15.9700003       0.00000000    
  -15.9600000       0.00000000    
  -15.9499998       0.00000000    
  -15.9399996       0.00000000    
  -15.9300003       0.00000000    
  -15.9200001       0.00000000    
  -15.9099998       0.00000000    
  -15.8999996       3.99492115E-39
  -15.8900003       1.31785607E-37
  -15.8800001       2.24507995E-36
  -15.8699999       2.58061303E-35
  -15.8599997       2.21640401E-34
  -15.8500004       1.50532089E-33
  -15.8400002       8.39997022E-33
  -15.8299999       3.96134191E-32
  -15.8199997       1.61325280E-31
  -15.8100004       5.76973629E-31
  -15.8000002       1.83608832E-30
  -15.7900000       5.25162088E-30
  -15.7799997       1.36015883E-29
  -15.7700005       3.20576847E-29
  -15.7600002       6.89167369E-29
  -15.7500000       1.35017006E-28
  -15.7399998       2.39769973E-28
  -15.7299995       3.81004554E-28
  -15.7200003       5.26436628E-28
  -15.7100000       5.88325135E-28
  -15.6999998       4.01453452E-28
  -15.6899996      -2.72328252E-28
  -15.6800003      -1.67735440E-27
  -15.6700001      -3.90016298E-27
  -15.6599998      -6.60456614E-27
  -15.6499996      -8.73738487E-27
  -15.6400003      -8.38685945E-27
  -15.6300001      -3.07156359E-27
  -15.6199999       9.27341046E-27
  -15.6099997       2.85643360E-26
  -15.6000004       5.05006195E-26
  -15.5900002       6.51518558E-26
  -15.5799999       5.76057048E-26
  -15.5699997       1.19697994E-26
  -15.5600004      -8.08205808E-26
  -15.5500002      -2.12356968E-25
  -15.5400000      -3.45809750E-25
  -15.5299997      -4.08689804E-25
  -15.5200005      -2.95238121E-25
  -15.5100002       1.12220998E-25
  -15.5000000       8.89008178E-25
  -15.4899998       1.96641074E-24
  -15.4799995       2.98451383E-24
  -15.4700003       3.15132537E-24
  -15.4600000       1.24767986E-24
  -15.4499998      -3.99152180E-24
  -15.4399996      -1.28904510E-23
  -15.4300003      -2.32477451E-23
  -15.4200001      -2.87428066E-23
  -15.4099998      -1.87581152E-23
  -15.3999996       1.83216874E-23
  -15.3900003       8.66961669E-23
  -15.3800001       1.70417318E-22
  -15.3699999       2.21869490E-22
  -15.3599997       1.62611584E-22
  -15.3500004      -8.95798511E-23
  -15.3400002      -5.59484590E-22
  -15.3299999      -1.13006746E-21
  -15.3199997      -1.47687626E-21
  -15.3100004      -1.09349238E-21
  -15.3000002       5.14628368E-22
  -15.2900000       3.44094089E-21
  -15.2799997       6.88893059E-21
  -15.2700005       8.85213472E-21
  -15.2600002       6.37261600E-21
  -15.2500000      -3.24008928E-21
  -15.2399998      -2.01838176E-20
  -15.2299995      -3.95758069E-20
  -15.2200003      -5.00152140E-20
  -15.2100000      -3.54028294E-20
  -15.1999998       1.82282205E-20
  -15.1899996       1.11013222E-19
  -15.1800003       2.16315601E-19
  -15.1700001       2.74244262E-19
  -15.1599998       2.01730585E-19
  -15.1499996      -7.30159629E-20
  -15.1400003      -5.53238815E-19
  -15.1300001      -1.11132429E-18
  -15.1199999      -1.45733776E-18
  -15.1099997      -1.18425070E-18
  -15.1000004       7.52957825E-20
  -15.0900002       2.38738573E-18
  -15.0799999       5.22711931E-18
  -15.0699997       7.31501293E-18
  -15.0600004       6.77721690E-18
  -15.0500002       1.78526752E-18
  -15.0400000      -8.33455108E-18
  -15.0299997      -2.18143227E-17
  -15.0200005      -3.35904018E-17
  -15.0100002      -3.56890913E-17
  -15.0000000      -1.95364791E-17
  -14.9899998       1.97171337E-17
  -14.9799995       7.78240571E-17
  -14.9700003       1.37228774E-16
  -14.9600000       1.67110164E-16
  -14.9499998       1.30556881E-16
  -14.9399996      -1.36644150E-19
  -14.9300003      -2.22717096E-16
  -14.9200001      -4.86019723E-16
  -14.9099998      -6.83795828E-16
  -14.8999996      -6.72674762E-16
  -14.8900003      -3.20394792E-16
  -14.8800001       4.21092504E-16
  -14.8699999       1.43882056E-15
  -14.8599997       2.41409260E-15
  -14.8500004       2.85112116E-15
  -14.8400002       2.20867102E-15
  -14.8299999       1.31593662E-16
  -14.8199997      -3.27074319E-15
  -14.8100004      -7.20458273E-15
  -14.8000002      -1.01672507E-14
  -14.7900000      -1.02386403E-14
  -14.7799997      -5.72797179E-15
  -14.7700005       3.92822922E-15
  -14.7600002       1.72919066E-14
  -14.7500000       3.04822492E-14
  -14.7399998       3.75940192E-14
  -14.7299995       3.22354685E-14
  -14.7200003       1.00788281E-14
  -14.7100000      -2.81857803E-14
  -14.6999998      -7.45823759E-14
  -14.6899996      -1.13591780E-13
  -14.6800003      -1.25001165E-13
  -14.6700001      -9.01450952E-14
  -14.6599998      -5.08074396E-16
  -14.6499996       1.33825419E-13
  -14.6400003       2.79486964E-13
  -14.6300001       3.82594835E-13
  -14.6199999       3.81235652E-13
  -14.6099997       2.26910857E-13
  -14.6000004      -8.98025889E-14
  -14.5900002      -5.17914758E-13
  -14.5799999      -9.39472350E-13
  -14.5699997      -1.18676737E-12
  -14.5600004      -1.08656736E-12
  -14.5500002      -5.25268739E-13
  -14.5400000       4.81859832E-13
  -14.5299997       1.74259728E-12
  -14.5200005       2.88798282E-12
  -14.5100002       3.44003558E-12
  -14.5000000       2.94781669E-12
  -14.4899998       1.16696529E-12
  -14.4799995      -1.76805814E-12
  -14.4700003      -5.24611648E-12
  -14.4600000      -8.22015199E-12
  -14.4499998      -9.42290430E-12
  -14.4399996      -7.74265894E-12
  -14.4300003      -2.68025576E-12
  -14.4200001       5.24869774E-12
  -14.4099998       1.43299018E-11
  -14.3999996       2.18260930E-11
  -14.3900003       2.45735446E-11
  -14.3800001       1.99320803E-11
  -14.3699999       6.87504264E-12
  -14.3599997      -1.31125024E-11
  -14.3500004      -3.56988779E-11
  -14.3400002      -5.42292600E-11
  -14.3299999      -6.12011761E-11
  -14.3199997      -5.04911980E-11
  -14.3100004      -1.98180777E-11
  -14.3000002       2.73055190E-11
  -14.2900000       8.09304151E-11
  -14.2799997       1.25934541E-10
  -14.2700005       1.45335369E-10
  -14.2600002       1.25166391E-10
  -14.2500000       5.97924765E-11
  -14.2399998      -4.39108715E-11
  -14.2299995      -1.65151434E-10
  -14.2200003      -2.71781819E-10
  -14.2100000      -3.27087191E-10
  -14.1999998      -2.99803349E-10
  -14.1899996      -1.75112133E-10
  -14.1800003       3.65056284E-11
  -14.1700001       2.95796415E-10
  -14.1599998       5.39029488E-10
  -14.1499996       6.90677571E-10
  -14.1400003       6.82726931E-10
  -14.1300001       4.76471196E-10
  -14.1199999       8.09494485E-11
  -14.1099997      -4.38154235E-10
  -14.1000004      -9.63926938E-10
  -14.0900002      -1.34963196E-09
  -14.0799999      -1.45351453E-09
  -14.0699997      -1.18000121E-09
  -14.0600004      -5.16965859E-10
  -14.0500002       4.42331921E-10
  -14.0400000       1.50206503E-09
  -14.0299997       2.39581022E-09
  -14.0200005       2.84479462E-09
  -14.0100002       2.63162736E-09
  -14.0000000       1.67227376E-09
  -13.9899998       6.61253899E-11
  -13.9799995      -1.89386484E-09
  -13.9700003      -3.76151332E-09
  -13.9600000      -5.02692377E-09
  -13.9499998      -5.24024912E-09
  -13.9399996      -4.14265733E-09
  -13.9300003      -1.77055592E-09
  -13.9200001       1.49980761E-09
  -13.9099998       4.99000974E-09
  -13.8999996       7.84385623E-09
  -13.8900003       9.22041643E-09
  -13.8800001       8.51603410E-09
  -13.8699999       5.56114621E-09
  -13.8599997       7.35479400E-10
  -13.8500004      -5.04221553E-09
  -13.8400002      -1.04672022E-08
  -13.8299999      -1.41264200E-08
  -13.8199997      -1.48464512E-08
  -13.8100004      -1.20303838E-08
  -13.8000002      -5.89288573E-09
  -13.7900000       2.48321674E-09
  -13.7799997       1.13088392E-08
  -13.7700005       1.84561220E-08
  -13.7600002       2.19617142E-08
  -13.7500000       2.05503188E-08
  -13.7399998       1.40423575E-08
  -13.7299995       3.52338292E-09
  -13.7200003      -8.79822970E-09
  -13.7100000      -2.00436130E-08
  -13.6999998      -2.73400822E-08
  -13.6899996      -2.85657844E-08
  -13.6800003      -2.29699033E-08
  -13.6700001      -1.14886332E-08
  -13.6599998       3.35896644E-09
  -13.6499996       1.80082385E-08
  -13.6400003       2.87145383E-08
  -13.6300001       3.25411342E-08
  -13.6199999       2.82090298E-08
  -13.6099997       1.65611880E-08
  -13.6000004       4.77441031E-10
  -13.5900002      -1.57851279E-08
  -13.5799999      -2.76919252E-08
  -13.5699997      -3.16987858E-08
  -13.5600004      -2.63420343E-08
  -13.5500002      -1.28220128E-08
  -13.5400000       5.13545695E-09
  -13.5299997       2.21687291E-08
  -13.5200005       3.27360574E-08
  -13.5100002       3.27694956E-08
  -13.5000000       2.10631246E-08
  -13.4899998      -4.02796026E-11
  -13.4799995      -2.49431924E-08
  -13.4700003      -4.60923921E-08
  -13.4600000      -5.60178677E-08
  -13.4499998      -4.96010131E-08
  -13.4399996      -2.59358117E-08
  -13.4300003       1.08100799E-08
  -13.4200001       5.19088665E-08
  -13.4099998       8.59837570E-08
  -13.3999996       1.01942106E-07
  -13.3900003       9.22163821E-08
  -13.3800001       5.54244934E-08
  -13.3699999      -2.38215248E-09
  -13.3599997      -6.84146002E-08
  -13.3500004      -1.25832955E-07
  -13.3400002      -1.57914599E-07
  -13.3299999      -1.52716765E-07
  -13.3199997      -1.06988530E-07
  -13.3100004      -2.81484951E-08
  -13.3000002       6.64573321E-08
  -13.2900000       1.53138018E-07
  -13.2799997       2.07625774E-07
  -13.2700005       2.11690718E-07
  -13.2600002       1.58871543E-07
  -13.2500000       5.76336028E-08
  -13.2399998      -6.92203486E-08
  -13.2299995      -1.89163799E-07
  -13.2200003      -2.67786248E-07
  -13.2100000      -2.78081473E-07
  -13.1999998      -2.08805190E-07
  -13.1899996      -6.95046296E-08
  -13.1800003       1.09541958E-07
  -13.1700001       2.83054675E-07
  -13.1599998       4.01255278E-07
  -13.1499996       4.22859955E-07
  -13.1400003       3.27353746E-07
  -13.1300001       1.23177642E-07
  -13.1199999      -1.50816916E-07
  -13.1099997      -4.31787839E-07
  -13.1000004      -6.46382205E-07
  -13.0900002      -7.28522821E-07
  -13.0799999      -6.37347000E-07
  -13.0699997      -3.70688468E-07
  -13.0600004       2.98059462E-08
  -13.0500002       4.84060081E-07
  -13.0400000       8.89117814E-07
  -13.0299997       1.14192346E-06
  -13.0200005       1.16433728E-06
  -13.0100002       9.24416497E-07
  -13.0000000       4.48441739E-07
  -12.9899998      -1.79979992E-07
  -12.9799995      -8.34518914E-07
  -12.9700003      -1.37194957E-06
  -12.9600000      -1.66384791E-06
  -12.9499998      -1.62706340E-06
  -12.9399996      -1.24572944E-06
  -12.9300003      -5.79169352E-07
  -12.9200001       2.46942449E-07
  -12.9099998       1.06501659E-06
  -12.8999996       1.70075486E-06
  -12.8900003       2.01157718E-06
  -12.8800001       1.91965046E-06
  -12.8699999       1.43177488E-06
  -12.8599997       6.41089230E-07
  -12.8500004      -2.90494370E-07
  -12.8400002      -1.16586591E-06
  -12.8299999      -1.79529536E-06
  -12.8199997      -2.03872173E-06
  -12.8100004      -1.83821624E-06
  -12.8000002      -1.23298571E-06
  -12.7900000      -3.52987456E-07
  -12.7799997       6.08058770E-07
  -12.7700005       1.43477507E-06
  -12.7600002       1.93823507E-06
  -12.7500000       1.99928741E-06
  -12.7399998       1.59701256E-06
  -12.7299995       8.15291514E-07
  -12.7200003      -1.74734581E-07
  -12.7100000      -1.15301248E-06
  -12.6999998      -1.90140213E-06
  -12.6899996      -2.25532654E-06
  -12.6800003      -2.14383931E-06
  -12.6700001      -1.60784884E-06
  -12.6599998      -7.90977140E-07
  -12.6499996       9.61072359E-08
  -12.6400003       8.30423346E-07
  -12.6300001       1.23775283E-06
  -12.6199999       1.24475810E-06
  -12.6099997       9.07841411E-07
  -12.6000004       4.09053740E-07
  -12.5900002       1.67967613E-08
  -12.5799999       1.77370083E-08
  -12.5699997       6.34285243E-07
  -12.5600004       1.94712266E-06
  -12.5500002       3.84308623E-06
  -12.5400000       6.00458770E-06
  -12.5299997       7.94821790E-06
  -12.5200005       9.10888502E-06
  -12.5100002       8.95434277E-06
  -12.5000000       7.10603217E-06
  -12.4899998       3.43826810E-06
  -12.4799995      -1.86959846E-06
  -12.4700003      -8.34441380E-06
  -12.4600000      -1.52963948E-05
  -12.4499998      -2.19491940E-05
  -12.4399996      -2.75960610E-05
  -12.4300003      -3.17471058E-05
  -12.4200001      -3.42323365E-05
  -12.4099998      -3.52334355E-05
  -12.3999996      -3.52328825E-05
  -12.3900003      -3.48883477E-05
  -12.3800001      -3.48590693E-05
  -12.3699999      -3.56240926E-05
  -12.3599997      -3.73363800E-05
  -12.3500004      -3.97502663E-05
  -12.3400002      -4.22434023E-05
  -12.3299999      -4.39321302E-05
  -12.3199997      -4.38562711E-05
  -12.3100004      -4.11914698E-05
  -12.3000002      -3.54393414E-05
  -12.2900000      -2.65502713E-05
  -12.2799997      -1.49495099E-05
  -12.2700005      -1.46140064E-06
  -12.2600002       1.28481588E-05
  -12.2500000       2.68700860E-05
  -12.2399998       3.96405703E-05
  -12.2299995       5.04724158E-05
  -12.2200003       5.89986012E-05
  -12.2100000       6.51225637E-05
  -12.1999998       6.88967048E-05
  -12.1899996       7.03719779E-05
  -12.1800003       6.94708287E-05
  -12.1700001       6.59299185E-05
  -12.1599998       5.93397090E-05
  -12.1499996       4.92789259E-05
  -12.1400003       3.55122502E-05
  -12.1300001       1.81969590E-05
  -12.1199999      -1.96425913E-06
  -12.1099997      -2.36781943E-05
  -12.1000004      -4.51529522E-05
  -12.0900002      -6.43215608E-05
  -12.0799999      -7.91571074E-05
  -12.0699997      -8.80126972E-05
  -12.0600004      -8.99095830E-05
  -12.0500002      -8.47065457E-05
  -12.0400000      -7.31108667E-05
  -12.0299997      -5.65295522E-05
  -12.0200005      -3.67985376E-05
  -12.0100002      -1.58569565E-05
  -12.0000000       4.55469808E-06
  -11.9899998       2.31031663E-05
  -11.9799995       3.89365086E-05
  -11.9700003       5.16214823E-05
  -11.9600000       6.09814342E-05
  -11.9499998       6.68999637E-05
  -11.9399996       6.91647583E-05
  -11.9300003       6.74126059E-05
  -11.9200001       6.12040749E-05
  -11.9099998       5.02142211E-05
  -11.8999996       3.44847940E-05
  -11.8900003       1.46571865E-05
  -11.8800001      -7.89869591E-06
  -11.8699999      -3.11232652E-05
  -11.8599997      -5.24957322E-05
  -11.8500004      -6.94224655E-05
  -11.8400002      -7.97077810E-05
  -11.8299999      -8.19995112E-05
  -11.8199997      -7.60983603E-05
  -11.8100004      -6.30461873E-05
  -11.8000002      -4.49584950E-05
  -11.7900000      -2.46278596E-05
  -11.7799997      -4.98294185E-06
  -11.7700005       1.14745826E-05
  -11.7600002       2.31247395E-05
  -11.7500000       2.94706533E-05
  -11.7399998       3.11138901E-05
  -11.7299995       2.94776946E-05
  -11.7200003       2.63550828E-05
  -11.7100000       2.34020281E-05
  -11.6999998       2.17077923E-05
  -11.6899996       2.15513155E-05
  -11.6800003       2.24009618E-05
  -11.6700001       2.31483446E-05
  -11.6599998       2.25035365E-05
  -11.6499996       1.94358126E-05
  -11.6400003       1.35329901E-05
  -11.6300001       5.17637181E-06
  -11.6199999      -4.51925553E-06
  -11.6099997      -1.39846488E-05
  -11.6000004      -2.16159769E-05
  -11.5900002      -2.62167559E-05
  -11.5799999      -2.73353926E-05
  -11.5699997      -2.53995659E-05
  -11.5600004      -2.16043682E-05
  -11.5500002      -1.75796158E-05
  -11.5400000      -1.49244370E-05
  -11.5299997      -1.47362653E-05
  -11.5200005      -1.72663749E-05
  -11.5100002      -2.18023524E-05
  -11.5000000      -2.68182539E-05
  -11.4899998      -3.03609631E-05
  -11.4799995      -3.05760404E-05
  -11.4700003      -2.62359063E-05
  -11.4600000      -1.71286101E-05
  -11.4499998      -4.19872958E-06
  -11.4399996       1.06052203E-05
  -11.4300003       2.47465450E-05
  -11.4200001       3.56795572E-05
  -11.4099998       4.14479473E-05
  -11.3999996       4.11507172E-05
  -11.3900003       3.51556773E-05
  -11.3800001       2.50036483E-05
  -11.3699999       1.30245762E-05
  -11.3599997       1.76007813E-06
  -11.3500004      -6.66391543E-06
  -11.3400002      -1.10579913E-05
  -11.3299999      -1.14540217E-05
  -11.3199997      -9.08392485E-06
  -11.3100004      -6.05879859E-06
  -11.3000002      -4.82845599E-06
  -11.2900000      -7.55354904E-06
  -11.2799997      -1.55405451E-05
  -11.2700005      -2.88702086E-05
  -11.2600002      -4.62996650E-05
  -11.2500000      -6.54507821E-05
  -11.2399998      -8.32316437E-05
  -11.2299995      -9.63900602E-05
  -11.2200003      -1.02078986E-04
  -11.2100000      -9.83255231E-05
  -11.1999998      -8.43312155E-05
  -11.1899996      -6.05784226E-05
  -11.1800003      -2.87613075E-05
  -11.1700001       8.41226847E-06
  -11.1599998       4.74949302E-05
  -11.1499996       8.46092807E-05
  -11.1400003       1.15773866E-04
  -11.1300001       1.37246403E-04
  -11.1199999       1.45891638E-04
  -11.1099997       1.39569616E-04
  -11.1000004       1.17513649E-04
  -11.0900002       8.06355602E-05
  -11.0799999       3.16740661E-05
  -11.0699997      -2.48972719E-05
  -11.0600004      -8.32554069E-05
  -11.0500002      -1.36901435E-04
  -11.0400000      -1.79544993E-04
  -11.0299997      -2.06055120E-04
  -11.0200005      -2.13292195E-04
  -11.0100002      -2.00639246E-04
  -11.0000000      -1.70099825E-04
  -10.9899998      -1.25920706E-04
  -10.9799995      -7.38048257E-05
  -10.9700003      -1.98795078E-05
  -10.9600000       3.03541055E-05
  -10.9499998       7.28573141E-05
  -10.9399996       1.05496292E-04
  -10.9300003       1.28011103E-04
  -10.9200001       1.41553042E-04
  -10.9099998       1.47941901E-04
  -10.8999996       1.48863619E-04
  -10.8900003       1.45237282E-04
  -10.8800001       1.36926930E-04
  -10.8699999       1.22872094E-04
  -10.8599997       1.01590980E-04
  -10.8500004       7.19035015E-05
  -10.8400002       3.36587727E-05
  -10.8299999      -1.17517675E-05
  -10.8199997      -6.12567674E-05
  -10.8100004      -1.10403591E-04
  -10.8000002      -1.54037407E-04
  -10.7900000      -1.87205311E-04
  -10.7799997      -2.06072407E-04
  -10.7700005      -2.08635945E-04
  -10.7600002      -1.95077097E-04
  -10.7500000      -1.67681472E-04
  -10.7399998      -1.30363856E-04
  -10.7299995      -8.79213258E-05
  -10.7200003      -4.51916058E-05
  -10.7100000      -6.29865508E-06
  -10.6999998       2.58706732E-05
  -10.6899996       4.98832633E-05
  -10.6800003       6.56713455E-05
  -10.6700001       7.42057819E-05
  -10.6599998       7.70371771E-05
  -10.6499996       7.58182941E-05
  -10.6400003       7.19013842E-05
  -10.6300001       6.60681762E-05
  -10.6199999       5.84123118E-05
  -10.6099997       4.83651784E-05
  -10.6000004       3.48421381E-05
  -10.5900002       1.64840694E-05
  -10.5799999      -8.02664908E-06
  -10.5699997      -3.95969982E-05
  -10.5600004      -7.83320647E-05
  -10.5500002      -1.23172969E-04
  -10.5400000      -1.71639258E-04
  -10.5299997      -2.19765498E-04
  -10.5200005      -2.62316171E-04
  -10.5100002      -2.93324731E-04
  -10.5000000      -3.06938280E-04
  -10.4899998      -2.98463798E-04
  -10.4799995      -2.65433890E-04
  -10.4700003      -2.08457830E-04
  -10.4600000      -1.31625988E-04
  -10.4499998      -4.22973462E-05
  -10.4399996       4.97813235E-05
  -10.4300003       1.33924565E-04
  -10.4200001       2.00278737E-04
  -10.4099998       2.41562680E-04
  -10.3999996       2.54400598E-04
  -10.3900003       2.39933244E-04
  -10.3800001       2.03540330E-04
  -10.3699999       1.53706802E-04
  -10.3599997       1.00265468E-04
  -10.3500004       5.24027128E-05
  -10.3400002       1.68751158E-05
  -10.3299999      -3.16157434E-06
  -10.3199997      -8.45782142E-06
  -10.3100004      -3.06741072E-06
  -10.3000002       6.98503300E-06
  -10.2900000       1.54151348E-05
  -10.2799997       1.73360277E-05
  -10.2700005       1.04604760E-05
  -10.2600002      -4.42201826E-06
  -10.2500000      -2.37688855E-05
  -10.2399998      -4.22811318E-05
  -10.2299995      -5.42876223E-05
  -10.2200003      -5.51583289E-05
  -10.2100000      -4.24131795E-05
  -10.1999998      -1.63021468E-05
  -10.1899996       2.02129522E-05
  -10.1800003       6.19909697E-05
  -10.1700001       1.02566759E-04
  -10.1599998       1.35101654E-04
  -10.1499996       1.53237852E-04
  -10.1400003       1.51753193E-04
  -10.1300001       1.27012667E-04
  -10.1199999       7.72877320E-05
  -10.1099997       3.03421757E-06
  -10.1000004      -9.28195077E-05
  -10.0900002      -2.04606331E-04
  -10.0799999      -3.23799351E-04
  -10.0699997      -4.39217023E-04
  -10.0600004      -5.37728425E-04
  -10.0500002      -6.05546520E-04
  -10.0400000      -6.30048104E-04
  -10.0299997      -6.01884094E-04
  -10.0200005      -5.16996370E-04
  -10.0100002      -3.78088414E-04
  -10.0000000      -1.95137138E-04
  -9.98999977       1.53081201E-05
  -9.97999954       2.32051621E-04
  -9.97000027       4.32140077E-04
  -9.96000004       5.94217214E-04
  -9.94999981       7.01713434E-04
  -9.93999958       7.45247875E-04
  -9.93000031       7.23775302E-04
  -9.92000008       6.44275278E-04
  -9.90999985       5.20097732E-04
  -9.89999962       3.68363311E-04
  -9.89000034       2.07003803E-04
  -9.88000011       5.20678041E-05
  -9.86999989      -8.41948786E-05
  -9.85999966      -1.94186170E-04
  -9.85000038      -2.74750753E-04
  -9.84000015      -3.26166773E-04
  -9.82999992      -3.50767019E-04
  -9.81999969      -3.51655995E-04
  -9.81000042      -3.31887422E-04
  -9.80000019      -2.94265687E-04
  -9.78999996      -2.41698930E-04
  -9.77999973      -1.77834911E-04
  -9.77000046      -1.07611660E-04
  -9.76000023      -3.73862495E-05
  -9.75000000       2.55477953E-05
  -9.73999977       7.40247633E-05
  -9.72999954       1.02403741E-04
  -9.72000027       1.07899767E-04
  -9.71000004       9.14221455E-05
  -9.69999981       5.75998638E-05
  -9.68999958       1.38886307E-05
  -9.68000031      -3.10831601E-05
  -9.67000008      -6.95393464E-05
  -9.65999985      -9.64287756E-05
  -9.64999962      -1.10633315E-04
  -9.64000034      -1.15154675E-04
  -9.63000011      -1.16185664E-04
  -9.61999989      -1.21269870E-04
  -9.60999966      -1.37006471E-04
  -9.60000038      -1.66893893E-04
  -9.59000015      -2.09889913E-04
  -9.57999992      -2.60097964E-04
  -9.56999969      -3.07712995E-04
  -9.56000042      -3.41046747E-04
  -9.55000019      -3.49180336E-04
  -9.53999996      -3.24628752E-04
  -9.52999973      -2.65387789E-04
  -9.52000046      -1.75869238E-04
  -9.51000023      -6.64802719E-05
  -9.50000000       4.80901726E-05
  -9.48999977       1.51526183E-04
  -9.47999954       2.28919438E-04
  -9.47000027       2.69540091E-04
  -9.46000004       2.68760225E-04
  -9.44999981       2.28733246E-04
  -9.43999958       1.57705683E-04
  -9.43000031       6.81355377E-05
  -9.42000008      -2.59502522E-05
  -9.40999985      -1.11763467E-04
  -9.39999962      -1.80103758E-04
  -9.39000034      -2.26738659E-04
  -9.38000011      -2.52536149E-04
  -9.36999989      -2.62371264E-04
  -9.35999966      -2.63125054E-04
  -9.35000038      -2.61317036E-04
  -9.34000015      -2.61001493E-04
  -9.32999992      -2.62488000E-04
  -9.31999969      -2.62228714E-04
  -9.31000042      -2.53903476E-04
  -9.30000019      -2.30406891E-04
  -9.28999996      -1.86190664E-04
  -9.27999973      -1.19307697E-04
  -9.27000046      -3.25770525E-05
  -9.26000023       6.64755062E-05
  -9.25000000       1.66911268E-04
  -9.23999977       2.56576634E-04
  -9.22999954       3.24626802E-04
  -9.22000027       3.63712170E-04
  -9.21000004       3.71268892E-04
  -9.19999981       3.49615235E-04
  -9.18999958       3.04894958E-04
  -9.18000031       2.45226198E-04
  -9.17000008       1.78613656E-04
  -9.15999985       1.11212124E-04
  -9.14999962       4.63850556E-05
  -9.14000034      -1.52635657E-05
  -9.13000011      -7.50056060E-05
  -9.11999989      -1.34616508E-04
  -9.10999966      -1.94988374E-04
  -9.10000038      -2.55160558E-04
  -9.09000015      -3.12030665E-04
  -9.07999992      -3.60776874E-04
  -9.06999969      -3.95810435E-04
  -9.06000042      -4.11947374E-04
  -9.05000019      -4.05477360E-04
  -9.03999996      -3.74896161E-04
  -9.02999973      -3.21213331E-04
  -9.02000046      -2.47883931E-04
  -9.01000023      -1.60490134E-04
  -9.00000000      -6.62976745E-05
  -8.98999977       2.62538961E-05
  -8.97999954       1.08151966E-04
  -8.97000027       1.70576925E-04
  -8.96000004       2.05885983E-04
  -8.94999981       2.08770813E-04
  -8.93999958       1.77408205E-04
  -8.93000031       1.14305498E-04
  -8.92000008       2.65085691E-05
  -8.90999985      -7.50747276E-05
  -8.89999962      -1.77280250E-04
  -8.89000034      -2.67000927E-04
  -8.88000011      -3.33737378E-04
  -8.86999989      -3.71773640E-04
  -8.85999966      -3.81391204E-04
  -8.85000038      -3.68737878E-04
  -8.84000015      -3.44300148E-04
  -8.82999992      -3.20298946E-04
  -8.81999969      -3.07627692E-04
  -8.81000042      -3.13087454E-04
  -8.80000019      -3.37607344E-04
  -8.78999996      -3.75885254E-04
  -8.77999973      -4.17520670E-04
  -8.77000046      -4.49342013E-04
  -8.76000023      -4.58357070E-04
  -8.75000000      -4.34643240E-04
  -8.73999977      -3.73558723E-04
  -8.72999954      -2.76862644E-04
  -8.72000027      -1.52603243E-04
  -8.71000004      -1.38956857E-05
  -8.69999981       1.23102785E-04
  -8.68999958       2.41625894E-04
  -8.68000031       3.26748792E-04
  -8.67000008       3.67526227E-04
  -8.65999985       3.58568825E-04
  -8.64999962       3.00880783E-04
  -8.64000034       2.01845643E-04
  -8.63000011       7.43163619E-05
  -8.61999989      -6.51375667E-05
  -8.60999966      -1.98642258E-04
  -8.60000038      -3.09756899E-04
  -8.59000015      -3.86075117E-04
  -8.57999992      -4.21176490E-04
  -8.56999969      -4.15481074E-04
  -8.56000042      -3.75759235E-04
  -8.55000019      -3.13348544E-04
  -8.53999996      -2.41456262E-04
  -8.52999973      -1.72184577E-04
  -8.52000046      -1.14018156E-04
  -8.51000023      -7.04150516E-05
  -8.50000000      -3.98534685E-05
  -8.48999977      -1.72823529E-05
  -8.47999954       3.47812329E-06
  -8.47000027       2.71187455E-05
  -8.46000004       5.48053395E-05
  -8.44999981       8.33510203E-05
  -8.43999958       1.05859915E-04
  -8.43000031       1.13660426E-04
  -8.42000008       9.89544933E-05
  -8.40999985       5.73896396E-05
  -8.39999962      -1.02182848E-05
  -8.39000034      -9.75320218E-05
  -8.38000011      -1.93826840E-04
  -8.36999989      -2.86295137E-04
  -8.35999966      -3.62876104E-04
  -8.35000038      -4.14833310E-04
  -8.34000015      -4.38399904E-04
  -8.32999992      -4.35103488E-04
  -8.31999969      -4.10771609E-04
  -8.31000042      -3.73587362E-04
  -8.30000019      -3.31803894E-04
  -8.28999996      -2.91775708E-04
  -8.27999973      -2.56819127E-04
  -8.27000046      -2.27130819E-04
  -8.26000023      -2.00665381E-04
  -8.25000000      -1.74597866E-04
  -8.23999977      -1.46857652E-04
  -8.22999954      -1.17242569E-04
  -8.22000027      -8.77920756E-05
  -8.21000004      -6.23545493E-05
  -8.19999981      -4.55401787E-05
  -8.18999958      -4.14315109E-05
  -8.18000031      -5.24756033E-05
  -8.17000008      -7.88971884E-05
  -8.15999985      -1.18781747E-04
  -8.14999962      -1.68747109E-04
  -8.14000034      -2.24926800E-04
  -8.13000011      -2.83890491E-04
  -8.11999989      -3.43161169E-04
  -8.10999966      -4.01142024E-04
  -8.10000038      -4.56491252E-04
  -8.09000015      -5.07206423E-04
  -8.07999992      -5.49822114E-04
  -8.06999969      -5.79133688E-04
  -8.06000042      -5.88719384E-04
  -8.05000019      -5.72277990E-04
  -8.03999996      -5.25505166E-04
  -8.02999973      -4.47993574E-04
  -8.02000046      -3.44544736E-04
  -8.01000023      -2.25372947E-04
  -8.00000000      -1.04949773E-04
  -7.98999977       3.85769312E-07
  -7.98000002       7.55489600E-05
  -7.96999979       1.09804911E-04
  -7.96000004       9.90332119E-05
  -7.94999981       4.65459780E-05
  -7.94000006      -3.77783435E-05
  -7.92999983      -1.39822470E-04
  -7.92000008      -2.44392635E-04
  -7.90999985      -3.38371232E-04
  -7.90000010      -4.13045782E-04
  -7.88999987      -4.65074671E-04
  -7.88000011      -4.95977001E-04
  -7.86999989      -5.10471698E-04
  -7.86000013      -5.14302927E-04
  -7.84999990      -5.12274972E-04
  -7.84000015      -5.07064397E-04
  -7.82999992      -4.99041867E-04
  -7.82000017      -4.86954872E-04
  -7.80999994      -4.69031802E-04
  -7.80000019      -4.43969911E-04
  -7.78999996      -4.11394809E-04
  -7.78000021      -3.71666974E-04
  -7.76999998      -3.25242348E-04
  -7.76000023      -2.72025092E-04
  -7.75000000      -2.11185965E-04
  -7.73999977      -1.41731362E-04
  -7.73000002      -6.37647900E-05
  -7.71999979       1.99763217E-05
  -7.71000004       1.02959522E-04
  -7.69999981       1.74709377E-04
  -7.69000006       2.22036921E-04
  -7.67999983       2.31558675E-04
  -7.67000008       1.92931577E-04
  -7.65999985       1.01904363E-04
  -7.65000010      -3.77588403E-05
  -7.63999987      -2.14151834E-04
  -7.63000011      -4.09044384E-04
  -7.61999989      -6.01203763E-04
  -7.61000013      -7.70318846E-04
  -7.59999990      -9.00458195E-04
  -7.59000015      -9.82174184E-04
  -7.57999992      -1.01283670E-03
  -7.57000017      -9.95371724E-04
  -7.55999994      -9.36079188E-04
  -7.55000019      -8.42439069E-04
  -7.53999996      -7.21705379E-04
  -7.53000021      -5.80682536E-04
  -7.51999998      -4.26537328E-04
  -7.51000023      -2.68037664E-04
  -7.50000000      -1.16396906E-04
  -7.48999977       1.49648977E-05
  -7.48000002       1.12009140E-04
  -7.46999979       1.62722092E-04
  -7.46000004       1.60042488E-04
  -7.44999981       1.04088926E-04
  -7.44000006       2.84810108E-06