  -16.0000000       0.00000000    
  -15.9899998       0.00000000    
  -15.9799995       0.00000000    
  -15.9700003       0.00000000    
  -15.9600000       0.00000000    
  -15.9499998       0.00000000    
  -15.9399996       0.00000000    
  -15.9300003       0.00000000    
  -15.9200001       0.00000000    
  -15.9099998       0.00000000    
  -15.8999996      -1.31189002E-38
  -15.8900003       4.46653768E-38
  -15.8800001       2.17444267E-36
  -15.8699999       1.85636702E-35
  -15.8599997       8.43972055E-35
  -15.8500004       2.37498302E-34
  -15.8400002       4.87935215E-34
  -15.8299999       1.69295321E-33
  -15.8199997       1.16085533E-32
  -15.8100004       6.64970454E-32
  -15.8000002       2.77742937E-31
  -15.7900000       8.70381344E-31
  -15.7799997       2.03488699E-30
  -15.7700005       3.13511641E-30
  -15.7600002       5.77398499E-31
  -15.7500000      -1.59215214E-29
  -15.7399998      -6.66663058E-29
  -15.7299995      -1.77786445E-28
  -15.7200003      -3.55455240E-28
  -15.7100000      -5.21960285E-28
  -15.6999998      -4.12387823E-28
  -15.6899996       5.19170817E-28
  -15.6800003       3.04418188E-27
  -15.6700001       7.71629456E-27
  -15.6599998       1.37936397E-26
  -15.6499996       1.75325908E-26
  -15.6400003       1.05409535E-26
  -15.6300001      -2.00077744E-26
  -15.6199999      -8.63748519E-26
  -15.6099997      -1.87483887E-25
  -15.6000004      -2.88038656E-25
  -15.5900002      -2.96138704E-25
  -15.5799999      -5.72492383E-26
  -15.5699997       6.05789363E-25
  -15.5600004       1.77399474E-24
  -15.5500002       3.22253940E-24
  -15.5400000       4.16716759E-24
  -15.5299997       3.11519535E-24
  -15.5200005      -1.91340520E-24
  -15.5100002      -1.24710950E-23
  -15.5000000      -2.78754856E-23
  -15.4899998      -4.27590063E-23
  -15.4799995      -4.50558569E-23
  -15.4700003      -1.65533783E-23
  -15.4600000       6.11515444E-23
  -15.4499998       1.93043212E-22
  -15.4399996       3.50227812E-22
  -15.4300003       4.49584931E-22
  -15.4200001       3.48797815E-22
  -15.4099998      -1.21238480E-22
  -15.3999996      -1.06635476E-21
  -15.3900003      -2.37973279E-21
  -15.3800001      -3.57256075E-21
  -15.3699999      -3.68262586E-21
  -15.3599997      -1.41202528E-21
  -15.3500004       4.35054876E-21
  -15.3400002       1.35676507E-20
  -15.3299999       2.38402064E-20
  -15.3199997       2.95027019E-20
  -15.3100004       2.19546449E-20
  -15.3000002      -7.72460676E-21
  -15.2900000      -6.32910266E-20
  -15.2799997      -1.35696459E-19
  -15.2700005      -1.96110358E-19
  -15.2600002      -1.94711983E-19
  -15.2500000      -7.15531845E-20
  -15.2399998       2.15901662E-19
  -15.2299995       6.50097529E-19
  -15.2200003       1.10788777E-18
  -15.2100000       1.33738427E-18
  -15.1999998       9.91229760E-19
  -15.1899996      -2.53533960E-19
  -15.1800003      -2.48413505E-18
  -15.1700001      -5.29415072E-18
  -15.1599998      -7.58912818E-18
  -15.1499996      -7.62133942E-18
  -15.1400003      -3.42487577E-18
  -15.1300001       6.26516150E-18
  -15.1199999       2.07304002E-17
  -15.1099997       3.60437533E-17
  -15.1000004       4.46199685E-17
  -15.0900002       3.63960826E-17
  -15.0799999       2.26788253E-18
  -15.0699997      -6.03290085E-17
  -15.0600004      -1.41031595E-16
  -15.0500002      -2.12112588E-16
  -15.0400000      -2.29750778E-16
  -15.0299997      -1.44524825E-16
  -15.0200005       7.75840688E-17
  -15.0100002       4.26848728E-16
  -15.0000000       8.23213163E-16
  -14.9899998       1.10598479E-15
  -14.9799995       1.05614145E-15
  -14.9700003       4.62541928E-16
  -14.9600000      -7.70621311E-16
  -14.9499998      -2.49957644E-15
  -14.9399996      -4.24844367E-15
  -14.9300003      -5.21311594E-15
  -14.9200001      -4.42186986E-15
  -14.9099998      -1.07739785E-15
  -14.8999996       4.96423903E-15
  -14.8900003       1.27131226E-14
  -14.8800001       1.97821580E-14
  -14.8699999       2.25926760E-14
  -14.8599997       1.72388721E-14
  -14.8500004       1.01742707E-15
  -14.8400002      -2.56639379E-14
  -14.8299999      -5.76177222E-14
  -14.8199997      -8.43143101E-14
  -14.8100004      -9.12994927E-14
  -14.8000002      -6.40965755E-14
  -14.7900000       5.68936530E-15
  -14.7799997       1.13439579E-13
  -14.7700005       2.36226593E-13
  -14.7600002       3.32246790E-13
  -14.7500000       3.47728872E-13
  -14.7399998       2.32405919E-13
  -14.7299995      -3.83185610E-14
  -14.7200003      -4.40059556E-13
  -14.7100000      -8.83798026E-13
  -14.6999998      -1.21798556E-12
  -14.6899996      -1.25637868E-12
  -14.6800003      -8.33247262E-13
  -14.6700001       1.22383996E-13
  -14.6599998       1.51319625E-12
  -14.6499996       3.02944779E-12
  -14.6400003       4.16491754E-12
  -14.6300001       4.31460380E-12
  -14.6199999       2.95456931E-12
  -14.6099997      -1.26529456E-13
  -14.6000004      -4.60752443E-12
  -14.5900002      -9.51297287E-12
  -14.5799999      -1.32770080E-11
  -14.5699997      -1.40491681E-11
  -14.5600004      -1.02338311E-11
  -14.5500002      -1.16663081E-12
  -14.5400000       1.22577157E-11
  -14.5299997       2.72493746E-11
  -14.5200005       3.93155196E-11
  -14.5100002       4.31233868E-11
  -14.5000000       3.39967811E-11
  -14.4899998       9.77311548E-12
  -14.4799995      -2.74804728E-11
  -14.4700003      -7.05321981E-11
  -14.4600000      -1.07440799E-10
  -14.4499998      -1.23758212E-10
  -14.4399996      -1.06374368E-10
  -14.4300003      -4.83096965E-11
  -14.4200001       4.67984505E-11
  -14.4099998       1.62099043E-10
  -14.3999996       2.68318562E-10
  -14.3900003       3.28829020E-10
  -14.3800001       3.08781306E-10
  -14.3699999       1.86706775E-10
  -14.3599997      -3.43165600E-11
  -14.3500004      -3.19614141E-10
  -14.3400002      -6.03499251E-10
  -14.3299999      -7.99672717E-10
  -14.3199997      -8.21193780E-10
  -14.3100004      -6.06713790E-10
  -14.3000002      -1.46751000E-10
  -14.2900000       4.98019292E-10
  -14.2799997       1.19431032E-09
  -14.2700005       1.75481318E-09
  -14.2600002       1.97808037E-09
  -14.2500000       1.70360004E-09
  -14.2399998       8.69773309E-10
  -14.2299995      -4.41562120E-10
  -14.2200003      -1.99062633E-09
  -14.2100000      -3.40710304E-09
  -14.1999998      -4.26199831E-09
  -14.1899996      -4.17414503E-09
  -14.1800003      -2.92914604E-09
  -14.1700001      -5.79743198E-10
  -14.1599998       2.50522425E-09
  -14.1499996       5.66886493E-09
  -14.1400003       8.08067924E-09
  -14.1300001       8.92444518E-09
  -14.1199999       7.62314389E-09
  -14.1099997       4.04656308E-09
  -14.1000004      -1.35919043E-09
  -14.0900002      -7.57160112E-09
  -14.0799999      -1.31468969E-08
  -14.0699997      -1.65186389E-08
  -14.0600004      -1.63865330E-08
  -14.0500002      -1.21078223E-08
  -14.0400000      -3.98700539E-09
  -14.0299997       6.63154820E-09
  -14.0200005       1.75271389E-08
  -14.0100002       2.60231054E-08
  -14.0000000       2.95963325E-08
  -13.9899998       2.65469922E-08
  -13.9799995       1.65630887E-08
  -13.9700003       1.01631847E-09
  -13.9600000      -1.71285564E-08
  -13.9499998      -3.38249464E-08
  -13.9399996      -4.48054607E-08
  -13.9300003      -4.66206167E-08
  -13.9200001      -3.76129599E-08
  -13.9099998      -1.85679880E-08
  -13.8999996       7.16752435E-09
  -13.8900003       3.41988198E-08
  -13.8800001       5.61766704E-08
  -13.8699999       6.72636347E-08
  -13.8599997       6.36440234E-08
  -13.8500004       4.46978277E-08
  -13.8400002       1.35004248E-08
  -13.8299999      -2.35556499E-08
  -13.8199997      -5.80177257E-08
  -13.8100004      -8.12834955E-08
  -13.8000002      -8.67462902E-08
  -13.7900000      -7.16504829E-08
  -13.7799997      -3.81505245E-08
  -13.7700005       6.78052947E-09
  -13.7600002       5.26868469E-08
  -13.7500000       8.79910402E-08
  -13.7399998       1.02872868E-07
  -13.7299995       9.19705414E-08
  -13.7200003       5.61845397E-08
  -13.7100000       3.02405034E-09
  -13.6999998      -5.47406280E-08
  -13.6899996      -1.01937736E-07
  -13.6800003      -1.24769230E-07
  -13.6700001      -1.14604227E-07
  -13.6599998      -7.07964674E-08
  -13.6499996      -1.68604275E-09
  -13.6400003       7.66647972E-08
  -13.6300001       1.43903307E-07
  -13.6199999       1.80308902E-07
  -13.6099997       1.72070287E-07
  -13.6000004       1.15572227E-07
  -13.5900002       1.94697609E-08
  -13.5799999      -9.62172777E-08
  -13.5699997      -2.04055809E-07
  -13.5600004      -2.75475998E-07
  -13.5500002      -2.87976064E-07
  -13.5400000      -2.31482488E-07
  -13.5299997      -1.12143049E-07
  -13.5200005       4.76652993E-08
  -13.5100002       2.13462570E-07
  -13.5000000       3.46234884E-07
  -13.4899998       4.11801466E-07
  -13.4799995       3.89724335E-07
  -13.4700003       2.79429315E-07
  -13.4600000       1.01735743E-07
  -13.4499998      -1.04964037E-07
  -13.4399996      -2.93298712E-07
  -13.4300003      -4.18413265E-07
  -13.4200001      -4.49576987E-07
  -13.4099998      -3.78859539E-07
  -13.3999996      -2.24356000E-07
  -13.3900003      -2.66835141E-08
  -13.3800001       1.60839122E-07
  -13.3699999       2.86186349E-07
  -13.3599997       3.13338347E-07
  -13.3500004       2.33743734E-07
  -13.3400002       7.10705166E-08
  -13.3299999      -1.22730739E-07
  -13.3199997      -2.79864480E-07
  -13.3100004      -3.35105767E-07
  -13.3000002      -2.45768831E-07
  -13.2900000      -7.88346366E-09
  -13.2799997       3.36361040E-07
  -13.2700005       7.03077774E-07
  -13.2600002       9.83418204E-07
  -13.2500000       1.06972823E-06
  -13.2399998       8.85427539E-07
  -13.2299995       4.11226040E-07
  -13.2200003      -2.99671740E-07
  -13.2100000      -1.12280372E-06
  -13.1999998      -1.88202080E-06
  -13.1899996      -2.38487200E-06
  -13.1800003      -2.46701438E-06
  -13.1700001      -2.03581476E-06
  -13.1599998      -1.10238716E-06
  -13.1499996       2.07057795E-07
  -13.1400003       1.66563302E-06
  -13.1300001       2.98534997E-06
  -13.1199999       3.87513774E-06
  -13.1099997       4.10553139E-06
  -13.1000004       3.56556802E-06
  -13.0900002       2.29794978E-06
  -13.0799999       5.02465980E-07
  -13.0699997      -1.49573134E-06
  -13.0600004      -3.30841681E-06
  -13.0500002      -4.56506496E-06
  -13.0400000      -4.99481666E-06
  -13.0299997      -4.49086519E-06
  -13.0200005      -3.14131466E-06
  -13.0100002      -1.21741346E-06
  -13.0000000       8.80527523E-07
  -12.9899998       2.70924443E-06
  -12.9799995       3.88222315E-06
  -12.9700003       4.16027979E-06
  -12.9600000       3.51119525E-06
  -12.9499998       2.12270061E-06
  -12.9399996       3.63382384E-07
  -12.9300003      -1.30177727E-06
  -12.9200001      -2.42323540E-06
  -12.9099998      -2.68049644E-06
  -12.8999996      -1.96998303E-06
  -12.8900003      -4.44245018E-07
  -12.8800001       1.51004474E-06
  -12.8699999       3.35383902E-06
  -12.8599997       4.52123822E-06
  -12.8500004       4.56124008E-06
  -12.8400002       3.26250506E-06
  -12.8299999       7.29827946E-07
  -12.8199997      -2.60951151E-06
  -12.8100004      -6.07611992E-06
  -12.8000002      -8.87446913E-06
  -12.7900000      -1.02672584E-05
  -12.7799997      -9.75024977E-06
  -12.7700005      -7.18725596E-06
  -12.7600002      -2.87179500E-06
  -12.7500000       2.50313633E-06
  -12.7399998       7.96571294E-06
  -12.7299995       1.24543149E-05
  -12.7200003       1.50363512E-05
  -12.7100000       1.51098839E-05
  -12.6999998       1.25429760E-05
  -12.6899996       7.71790656E-06
  -12.6800003       1.46750858E-06
  -12.6700001      -5.08553558E-06
  -12.6599998      -1.07536816E-05
  -12.6499996      -1.45260428E-05
  -12.6400003      -1.57740269E-05
  -12.6300001      -1.43757743E-05
  -12.6199999      -1.07316018E-05
  -12.6099997      -5.66668086E-06
  -12.6000004      -2.42542797E-07
  -12.5900002       4.48032188E-06
  -12.5799999       7.67510937E-06
  -12.5699997       8.92375829E-06
  -12.5600004       8.29446799E-06
  -12.5500002       6.30399154E-06
  -12.5400000       3.77356605E-06
  -12.5299997       1.61210642E-06
  -12.5200005       5.77576373E-07
  -12.5100002       1.07310245E-06
  -12.5000000       3.02697708E-06
  -12.4899998       5.88679904E-06
  -12.4799995       8.73180306E-06
  -12.4700003       1.04799456E-05
  -12.4600000       1.01438418E-05
  -12.4499998       7.07749996E-06
  -12.4399996       1.15674322E-06
  -12.4300003      -7.14962425E-06
  -12.4200001      -1.68368060E-05
  -12.4099998      -2.65393937E-05
  -12.3999996      -3.47887326E-05
  -12.3900003      -4.02972764E-05
  -12.3800001      -4.22086523E-05
  -12.3699999      -4.02596997E-05
  -12.3599997      -3.48204267E-05
  -12.3500004      -2.68048443E-05
  -12.3400002      -1.74744437E-05
  -12.3299999      -8.17920227E-06
  -12.3199997      -9.41719946E-08
  -12.3100004       5.99085979E-06
  -12.3000002       9.78458957E-06
  -12.2900000       1.14895847E-05
  -12.2799997       1.16867923E-05
  -12.2700005       1.11416384E-05
  -12.2600002       1.05815125E-05
  -12.2500000       1.04998553E-05
  -12.2399998       1.10341807E-05
  -12.2299995       1.19463466E-05
  -12.2200003       1.27078929E-05
  -12.2100000       1.26672066E-05
  -12.1999998       1.12551279E-05
  -12.1899996       8.17596901E-06
  -12.1800003       3.53418204E-06
  -12.1700001      -2.13779299E-06
  -12.1599998      -7.96118002E-06
  -12.1499996      -1.28861348E-05
  -12.1400003      -1.59217198E-05
  -12.1300001      -1.63675068E-05
  -12.1199999      -1.39920739E-05
  -12.1099997      -9.11476491E-06
  -12.1000004      -2.56856129E-06
  -12.0900002       4.45115802E-06
  -12.0799999       1.06211492E-05
  -12.0699997       1.47578558E-05
  -12.0600004       1.60597756E-05
  -12.0500002       1.42714171E-05
  -12.0400000       9.73278293E-06
  -12.0299997       3.30350304E-06
  -12.0200005      -3.82163171E-06
  -12.0100002      -1.03651373E-05
  -12.0000000      -1.52320799E-05
  -11.9899998      -1.77306629E-05
  -11.9799995      -1.77010952E-05
  -11.9700003      -1.55265807E-05
  -11.9600000      -1.20265540E-05
  -11.9499998      -8.25805182E-06
  -11.9399996      -5.27088559E-06
  -11.9300003      -3.87133241E-06
  -11.9200001      -4.44602892E-06
  -11.9099998      -6.88327918E-06
  -11.8999996      -1.06066964E-05
  -11.8900003      -1.47109859E-05
  -11.8800001      -1.81675750E-05
  -11.8699999      -2.00533177E-05
  -11.8599997      -1.97516401E-05
  -11.8500004      -1.70828171E-05
  -11.8400002      -1.23367245E-05
  -11.8299999      -6.20330093E-06
  -11.8199997       3.81758355E-07
  -11.8100004       6.44040301E-06
  -11.8000002       1.11593044E-05
  -11.7900000       1.40551656E-05
  -11.7799997       1.50624319E-05
  -11.7700005       1.45247514E-05
  -11.7600002       1.30923227E-05
  -11.7500000       1.15473968E-05
  -11.7399998       1.05958061E-05
  -11.7299995       1.06702064E-05
  -11.7200003       1.17894833E-05
  -11.7100000       1.35084092E-05
  -11.6999998       1.49742473E-05
  -11.6899996       1.50858605E-05
  -11.6800003       1.27294797E-05
  -11.6700001       7.04818149E-06
  -11.6599998      -2.30782484E-06
  -11.6499996      -1.50033102E-05
  -11.6400003      -2.99557560E-05
  -11.6300001      -4.54131441E-05
  -11.6199999      -5.91712342E-05
  -11.6099997      -6.89031440E-05
  -11.6000004      -7.25502177E-05
  -11.5900002      -6.87075371E-05
  -11.5799999      -5.69329386E-05
  -11.5699997      -3.79169978E-05
  -11.5600004      -1.34728216E-05
  -11.5500002       1.36655544E-05
  -11.5400000       4.02126207E-05
  -11.5299997       6.28134512E-05
  -11.5200005       7.85594893E-05
  -11.5100002       8.54493846E-05
  -11.5000000       8.27126350E-05
  -11.4899998       7.09353262E-05
  -11.4799995       5.19616842E-05
  -11.4700003       2.85847655E-05
  -11.4600000       4.07815651E-06
  -11.4499998      -1.83494922E-05
  -11.4399996      -3.60803751E-05
  -11.4300003      -4.74994522E-05
  -11.4200001      -5.22182818E-05
  -11.4099998      -5.10707287E-05
  -11.3999996      -4.58825416E-05
  -11.3900003      -3.90587265E-05
  -11.3800001      -3.30672738E-05
  -11.3699999      -2.99176736E-05
  -11.3599997      -3.07346127E-05
  -11.3500004      -3.55104203E-05
  -11.3400002      -4.30867440E-05
  -11.3299999      -5.13729356E-05
  -11.3199997      -5.77630526E-05
  -11.3100004      -5.96741556E-05
  -11.3000002      -5.51030353E-05
  -11.2900000      -4.30921755E-05
  -11.2799997      -2.40101017E-05
  -11.2700005       4.15263401E-07
  -11.2600002       2.73251990E-05
  -11.2500000       5.31849510E-05
  -11.2399998       7.43834462E-05
  -11.2299995       8.78658757E-05
  -11.2200003       9.16779536E-05
  -11.2100000       8.53150123E-05
  -11.1999998       6.98057702E-05
  -11.1899996       4.75120178E-05
  -11.1800003       2.16822136E-05
  -11.1700001      -4.15342174E-06
  -11.1599998      -2.68258646E-05
  -11.1499996      -4.40794684E-05
  -11.1400003      -5.49230535E-05
  -11.1300001      -5.97109720E-05
  -11.1199999      -5.99416890E-05
  -11.1099997      -5.78205909E-05
  -11.1000004      -5.56837877E-05
  -11.0900002      -5.54088947E-05
  -11.0799999      -5.79416119E-05
  -11.0699997      -6.30422510E-05
  -11.0600004      -6.93091497E-05
  -11.0500002      -7.44766076E-05
  -11.0400000      -7.59256727E-05
  -11.0299997      -7.12999026E-05
  -11.0200005      -5.90945710E-05
  -11.0100002      -3.90919013E-05
  -11.0000000      -1.25458173E-05
  -10.9899998       1.79287545E-05
  -10.9799995       4.87462130E-05
  -10.9700003       7.59464820E-05
  -10.9600000       9.58807868E-05
  -10.9499998       1.05851919E-04
  -10.9399996       1.04583458E-04
  -10.9300003       9.24270935E-05
  -10.9200001       7.12709807E-05
  -10.9099998       4.41724114E-05
  -10.8999996       1.47930368E-05
  -10.8900003      -1.32473269E-05
  -10.8800001      -3.69693007E-05
  -10.8699999      -5.44703580E-05
  -10.8599997      -6.51223672E-05
  -10.8500004      -6.95063063E-05
  -10.8400002      -6.91160967E-05
  -10.8299999      -6.59099460E-05
  -10.8199997      -6.18149570E-05
  -10.8100004      -5.82935063E-05
  -10.8000002      -5.60590815E-05
  -10.7900000      -5.49905308E-05
  -10.7799997      -5.42473936E-05
  -10.7700005      -5.25455471E-05
  -10.7600002      -4.85223609E-05
  -10.7500000      -4.11082219E-05
  -10.7399998      -2.98283321E-05
  -10.7299995      -1.49803491E-05
  -10.7200003       2.33729975E-06
  -10.7100000       2.03424261E-05
  -10.6999998       3.68046603E-05
  -10.6899996       4.93594962E-05
  -10.6800003       5.58562751E-05
  -10.6700001       5.46970077E-05
  -10.6599998       4.51265587E-05
  -10.6499996       2.74377744E-05
  -10.6400003       3.05806680E-06
  -10.6300001      -2.55113227E-05
  -10.6199999      -5.49212637E-05
  -10.6099997      -8.13642982E-05
  -10.6000004      -1.01097481E-04
  -10.5900002      -1.11034671E-04
  -10.5799999      -1.09314584E-04
  -10.5699997      -9.57340671E-05
  -10.5600004      -7.19419477E-05
  -10.5500002      -4.13210546E-05
  -10.5400000      -8.54191057E-06
  -10.5299997       2.11593087E-05
  -10.5200005       4.28599087E-05
  -10.5100002       5.28223281E-05
  -10.5000000       4.91827122E-05
  -10.4899998       3.23097302E-05
  -10.4799995       4.75214665E-06
  -10.4700003      -2.92197619E-05
  -10.4600000      -6.43862586E-05
  -10.4499998      -9.55042342E-05
  -10.4399996      -1.18198564E-04
  -10.4300003      -1.29644322E-04
  -10.4200001      -1.28919506E-04
  -10.4099998      -1.16986084E-04
  -10.3999996      -9.63388884E-05
  -10.3900003      -7.04279446E-05
  -10.3800001      -4.29933207E-05
  -10.3699999      -1.74501711E-05
  -10.3599997       3.57200338E-06
  -10.3500004       1.84831224E-05
  -10.3400002       2.67804589E-05
  -10.3299999       2.89330801E-05
  -10.3199997       2.61655114E-05
  -10.3100004       2.02016054E-05
  -10.3000002       1.30117896E-05
  -10.2900000       6.58292265E-06
  -10.2799997       2.71057934E-06
  -10.2700005       2.80531867E-06
  -10.2600002       7.70917995E-06
  -10.2500000       1.75329442E-05
  -10.2399998       3.15411380E-05
  -10.2299995       4.81221505E-05
  -10.2200003       6.48794812E-05
  -10.2100000       7.88649559E-05
  -10.1999998       8.69478827E-05
  -10.1899996       8.62826055E-05
  -10.1800003       7.48073071E-05
  -10.1700001       5.16885921E-05
  -10.1599998       1.76232697E-05
  -10.1499996      -2.50760386E-05
  -10.1400003      -7.26530052E-05
  -10.1300001      -1.20335579E-04
  -10.1199999      -1.62970027E-04
  -10.1099997      -1.95767949E-04
  -10.1000004      -2.15043343E-04
  -10.0900002      -2.18807501E-04
  -10.0799999      -2.07106394E-04
  -10.0699997      -1.82026444E-04
  -10.0600004      -1.47354745E-04
  -10.0500002      -1.07949010E-04
  -10.0400000      -6.89333465E-05
  -10.0299997      -3.48761314E-05
  -10.0200005      -9.11190182E-06
  -10.0100002       6.66196956E-06
  -10.0000000       1.24462567E-05
  -9.98999977       9.67162396E-06
  -9.97999954       6.91355126E-07
  -9.97000027      -1.18220560E-05
  -9.96000004      -2.54201095E-05
  -9.94999981      -3.82350408E-05
  -9.93999958      -4.90887978E-05
  -9.93000031      -5.73726793E-05
  -9.92000008      -6.27863847E-05
  -9.90999985      -6.50637012E-05
  -9.89999962      -6.38066485E-05
  -9.89000034      -5.85017988E-05
  -9.88000011      -4.87191282E-05
  -9.86999989      -3.44190048E-05
  -9.85999966      -1.62433171E-05
  -9.85000038       4.33948298E-06
  -9.84000015       2.51251950E-05
  -9.82999992       4.35149668E-05
  -9.81999969       5.70359662E-05
  -9.81000042       6.39042846E-05
  -9.80000019       6.34682001E-05
  -9.78999996       5.63967224E-05
  -9.77999973       4.45491496E-05
  -9.77000046       3.05539434E-05
  -9.76000023       1.72098062E-05
  -9.75000000       6.87130841E-06
  -9.73999977       9.80376626E-07
  -9.72999954      -1.44975104E-07
  -9.72000027       2.76547416E-06
  -9.71000004       8.24277868E-06
  -9.69999981       1.45042077E-05
  -9.68999958       1.98609687E-05
  -9.68000031       2.30010955E-05
  -9.67000008       2.31002741E-05
  -9.65999985       1.97820791E-05
  -9.64999962       1.30013186E-05
  -9.64000034       2.94083657E-06
  -9.63000011      -1.00109519E-05
  -9.61999989      -2.51863839E-05
  -9.60999966      -4.15127834E-05
  -9.60000038      -5.74207297E-05
  -9.59000015      -7.08790612E-05
  -9.57999992      -7.96158201E-05
  -9.56999969      -8.15207313E-05
  -9.56000042      -7.51531043E-05
  -9.55000019      -6.02249856E-05
  -9.53999996      -3.79140001E-05
  -9.52999973      -1.08906916E-05
  -9.52000046       1.69857049E-05
  -9.51000023       4.12611298E-05
  -9.50000000       5.76490311E-05
  -9.48999977       6.27924164E-05
  -9.47999954       5.48553544E-05
  -9.47000027       3.38171594E-05
  -9.46000004       1.41756630E-06
  -9.44999981      -3.92146430E-05
  -9.43999958      -8.41470464E-05
  -9.43000031      -1.29301901E-04
  -9.42000008      -1.71046107E-04
  -9.40999985      -2.06605357E-04
  -9.39999962      -2.34249281E-04
  -9.39000034      -2.53254140E-04
  -9.38000011      -2.63698166E-04
  -9.36999989      -2.66172923E-04
  -9.35999966      -2.61499314E-04
  -9.35000038      -2.50520068E-04
  -9.34000015      -2.34011080E-04
  -9.32999992      -2.12716142E-04
  -9.31999969      -1.87474754E-04
  -9.31000042      -1.59385469E-04
  -9.30000019      -1.29932741E-04
  -9.28999996      -1.01009246E-04
  -9.27999973      -7.47883532E-05
  -9.27000046      -5.34396531E-05
  -9.26000023      -3.87294058E-05
  -9.25000000      -3.15933648E-05
  -9.23999977      -3.17989034E-05
  -9.22999954      -3.78140940E-05
  -9.22000027      -4.69656334E-05
  -9.21000004      -5.58998436E-05
  -9.19999981      -6.12761942E-05
  -9.18999958      -6.05440837E-05
  -9.18000031      -5.26072945E-05
  -9.17000008      -3.81864593E-05
  -9.15999985      -1.97533609E-05
  -9.14999962      -1.01919602E-06
  -9.14000034       1.39155090E-05
  -9.13000011       2.15382079E-05
  -9.11999989       1.97695590E-05
  -9.10999966       8.44401984E-06
  -9.10000038      -1.07076785E-05
  -9.09000015      -3.45643712E-05
  -9.07999992      -5.94541052E-05
  -9.06999969      -8.20736532E-05
  -9.06000042      -1.00213569E-04
  -9.05000019      -1.13081638E-04
  -9.03999996      -1.21152414E-04
  -9.02999973      -1.25629726E-04
  -9.02000046      -1.27738662E-04
  -9.01000023      -1.28119573E-04
  -9.00000000      -1.26557556E-04
  -8.98999977      -1.22158308E-04
  -8.97999954      -1.13915463E-04
  -8.97000027      -1.01463258E-04
  -8.96000004      -8.57242121E-05
  -8.94999981      -6.91776368E-05
  -8.93999958      -5.55889892E-05
  -8.93000031      -4.92174950E-05
  -8.92000008      -5.37013766E-05
  -8.90999985      -7.09446103E-05
  -8.89999962      -1.00352925E-04
  -8.89000034      -1.38678181E-04
  -8.88000011      -1.80555173E-04
  -8.86999989      -2.19609952E-04
  -8.85999966      -2.49846751E-04
  -8.85000038      -2.66939576E-04
  -8.84000015      -2.69087410E-04
  -8.82999992      -2.57226435E-04
  -8.81999969      -2.34584659E-04
  -8.81000042      -2.05751101E-04
  -8.80000019      -1.75553738E-04
  -8.78999996      -1.48066334E-04
  -8.77999973      -1.25987397E-04
  -8.77000046      -1.10492641E-04
  -8.76000023      -1.01503443E-04
  -8.75000000      -9.81934936E-05
  -8.73999977      -9.95106893E-05
  -8.72999954      -1.04528663E-04
  -8.72000027      -1.12539994E-04
  -8.71000004      -1.22921032E-04
  -8.69999981      -1.34889240E-04
  -8.68999958      -1.47306928E-04
  -8.68000031      -1.58652052E-04
  -8.67000008      -1.67197024E-04
  -8.65999985      -1.71342806E-04
  -8.64999962      -1.69988693E-04
  -8.64000034      -1.62802433E-04
  -8.63000011      -1.50296124E-04
  -8.61999989      -1.33690555E-04
  -8.60999966      -1.14630799E-04
  -8.60000038      -9.48689994E-05
  -8.59000015      -7.60302210E-05
  -8.57999992      -5.95289494E-05
  -8.56999969      -4.66269012E-05
  -8.56000042      -3.85528365E-05
  -8.55000019      -3.65702217E-05
  -8.53999996      -4.18983218E-05
  -8.52999973      -5.54596081E-05
  -8.52000046      -7.75127337E-05
  -8.51000023      -1.07302061E-04
  -8.50000000      -1.42877412E-04
  -8.48999977      -1.81198295E-04
  -8.47999954      -2.18546440E-04
  -8.47000027      -2.51160061E-04
  -8.46000004      -2.75917526E-04
  -8.44999981      -2.90868804E-04
  -8.43999958      -2.95456761E-04
  -8.43000031      -2.90375407E-04
  -8.42000008      -2.77136191E-04
  -8.40999985      -2.57516978E-04
  -8.39999962      -2.33104394E-04
  -8.39000034      -2.05098346E-04
  -8.38000011      -1.74438683E-04
  -8.36999989      -1.42179706E-04
  -8.35999966      -1.09928660E-04
  -8.35000038      -8.01243514E-05
  -8.34000015      -5.59793516E-05
  -8.32999992      -4.10295470E-05
  -8.31999969      -3.83846600E-05
  -8.31000042      -4.98979934E-05
  -8.30000019      -7.55247820E-05
  -8.28999996      -1.13094276E-04
  -8.27999973      -1.58594223E-04
  -8.27000046      -2.06902769E-04
  -8.26000023      -2.52760452E-04
  -8.25000000      -2.91704579E-04
  -8.23999977      -3.20715044E-04
  -8.22999954      -3.38435115E-04
  -8.22000027      -3.44984146E-04
  -8.21000004      -3.41517210E-04
  -8.19999981      -3.29754635E-04
  -8.18999958      -3.11677257E-04
  -8.18000031      -2.89475080E-04
  -8.17000008      -2.65692652E-04
  -8.15999985      -2.43394985E-04
  -8.14999962      -2.26136151E-04
  -8.14000034      -2.17573397E-04
  -8.13000011      -2.20713220E-04
  -8.11999989      -2.36950669E-04
  -8.10999966      -2.65202165E-04
  -8.10000038      -3.01473250E-04
  -8.09000015      -3.39120714E-04
  -8.07999992      -3.69881105E-04
  -8.06999969      -3.85499094E-04
  -8.06000042      -3.79584468E-04
  -8.05000019      -3.49220558E-04
  -8.03999996      -2.95885489E-04
  -8.02999973      -2.25419077E-04
  -8.02000046      -1.47022016E-04
  -8.01000023      -7.15326387E-05
  -8.00000000      -9.40958216E-06
  -7.98999977       3.10978867E-05
  -7.98000002       4.51933083E-05
  -7.96999979       3.19766041E-05
  -7.96000004      -5.90168975E-06
  -7.94999981      -6.31736912E-05
  -7.94000006      -1.33167458E-04
  -7.92999983      -2.08989761E-04
  -7.92000008      -2.84449983E-04
  -7.90999985      -3.54621268E-04
  -7.90000010      -4.16050374E-04
  -7.88999987      -4.66699974E-04
  -7.88000011      -5.05724689E-04
  -7.86999989      -5.33159415E-04
  -7.86000013      -5.49565244E-04
  -7.84999990      -5.55662322E-04
  -7.84000015      -5.51991921E-04
  -7.82999992      -5.38678374E-04
  -7.82000017      -5.15386986E-04
  -7.80999994      -4.81558440E-04
  -7.80000019      -4.36936738E-04
  -7.78999996      -3.82299477E-04
  -7.78000021      -3.20188759E-04
  -7.76999998      -2.55367748E-04
  -7.76000023      -1.94740976E-04
  -7.75000000      -1.46588107E-04
  -7.73999977      -1.19153250E-04
  -7.73000002      -1.18848082E-04
  -7.71999979      -1.48497958E-04
  -7.71000004      -2.06118420E-04
  -7.69999981      -2.84624490E-04
  -7.69000006      -3.72660637E-04
  -7.67999983      -4.56450914E-04
  -7.67000008      -5.22295595E-04
  -7.65999985      -5.59160195E-04
  -7.65000010      -5.60775050E-04
  -7.63999987      -5.26788761E-04
  -7.63000011      -4.62761702E-04
  -7.61999989      -3.79064324E-04
  -7.61000013      -2.88984302E-04
  -7.59999990      -2.06479555E-04
  -7.59000015      -1.44023492E-04
  -7.57999992      -1.10890134E-04
  -7.57000017      -1.12073802E-04
  -7.55999994      -1.47887491E-04
  -7.55000019      -2.14174652E-04
  -7.53999996      -3.03024455E-04
  -7.53000021      -4.03874408E-04
  -7.51999998      -5.04891213E-04
  -7.51000023      -5.94515586E-04
  -7.50000000      -6.63014886E-04
  -7.48999977      -7.03835336E-04
  -7.48000002      -7.14516966E-04
  -7.46999979      -6.96956995E-04
  -7.46000004      -6.56907738E-04
  -7.44999981      -6.02761924E-04
  -7.44000006      -5.43864153E-04