  -16.0000000       0.00000000    
  -15.9899998       0.00000000    
  -15.9799995       0.00000000    
  -15.9700003       0.00000000    
  -15.9600000       0.00000000    
  -15.9499998       0.00000000    
  -15.9399996       0.00000000    
  -15.9300003       0.00000000    
  -15.9200001       0.00000000    
  -15.9099998       0.00000000    
  -15.8999996      -1.82425238E-39
  -15.8900003      -4.30200450E-38
  -15.8800001      -1.50617657E-36
  -15.8699999      -2.23424326E-35
  -15.8599997      -1.88566490E-34
  -15.8500004      -1.06660482E-33
  -15.8400002      -4.35950925E-33
  -15.8299999      -1.31763131E-32
  -15.8199997      -2.83836453E-32
  -15.8100004      -3.45905787E-32
  -15.8000002       2.52900674E-32
  -15.7900000       2.60061386E-31
  -15.7799997       7.52971135E-31
  -15.7700005       1.34182520E-30
  -15.7600002       1.45544830E-30
  -15.7500000       8.11346043E-31
  -15.7399998       2.30668028E-30
  -15.7299995       1.73397732E-29
  -15.7200003       6.87885241E-29
  -15.7100000       1.77760662E-28
  -15.6999998       3.14579158E-28
  -15.6899996       3.11680465E-28
  -15.6800003      -2.00786478E-28
  -15.6700001      -1.67252475E-27
  -15.6599998      -4.10200583E-27
  -15.6499996      -6.05474511E-27
  -15.6400003      -3.81385051E-27
  -15.6300001       7.74710559E-27
  -15.6199999       3.03428814E-26
  -15.6099997       5.26556396E-26
  -15.6000004       4.02874746E-26
  -15.5900002      -6.13614161E-26
  -15.5799999      -2.90428091E-25
  -15.5699997      -5.83519228E-25
  -15.5600004      -6.63280511E-25
  -15.5500002       9.70700585E-27
  -15.5400000       2.05007969E-24
  -15.5299997       5.54566731E-24
  -15.5200005       9.03781215E-24
  -15.5100002       8.53610214E-24
  -15.5000000      -2.32250787E-24
  -15.4899998      -2.93851571E-23
  -15.4799995      -7.12220291E-23
  -15.4700003      -1.09532504E-22
  -15.4600000      -1.01922640E-22
  -15.4499998       1.28976218E-23
  -15.4399996       2.85487146E-22
  -15.4300003       6.95892297E-22
  -15.4200001       1.07712093E-21
  -15.4099998       1.06624692E-21
  -15.3999996       1.58157486E-22
  -15.3900003      -2.05840240E-21
  -15.3800001      -5.45728814E-21
  -15.3699999      -8.83431560E-21
  -15.3599997      -9.57874826E-21
  -15.3500004      -4.04279718E-21
  -15.3400002       1.09070929E-20
  -15.3299999       3.50360588E-20
  -15.3199997       6.12838018E-20
  -15.3100004       7.35472326E-20
  -15.3000002       4.85113447E-20
  -15.2900000      -3.57169480E-20
  -15.2799997      -1.83411003E-19
  -15.2700005      -3.61075840E-19
  -15.2600002      -4.82949297E-19
  -15.2500000      -4.16847175E-19
  -15.2399998      -2.51372239E-20
  -15.2299995       7.53668348E-19
  -15.2200003       1.79799121E-18
  -15.2100000       2.71510063E-18
  -15.1999998       2.84179120E-18
  -15.1899996       1.40814709E-18
  -15.1800003      -2.09807848E-18
  -15.1700001      -7.41742616E-18
  -15.1599998      -1.30341298E-17
  -15.1499996      -1.60233835E-17
  -15.1400003      -1.25766691E-17
  -15.1300001       5.68895483E-19
  -15.1199999       2.39076968E-17
  -15.1099997       5.27810813E-17
  -15.1000004       7.60124455E-17
  -15.0900002       7.70401149E-17
  -15.0799999       3.87336123E-17
  -15.0699997      -4.80488472E-17
  -15.0600004      -1.74032475E-16
  -15.0500002      -3.03346480E-16
  -15.0400000      -3.73317887E-16
  -15.0299997      -3.07682362E-16
  -15.0200005      -4.54237829E-17
  -15.0100002       4.18953348E-16
  -15.0000000       9.96263953E-16
  -14.9899998       1.48447098E-15
  -14.9799995       1.59346358E-15
  -14.9700003       1.02742439E-15
  -14.9600000      -3.79311624E-16
  -14.9499998      -2.50482720E-15
  -14.9399996      -4.82145341E-15
  -14.9300003      -6.39468455E-15
  -14.9200001      -6.06744396E-15
  -14.9099998      -2.85162853E-15
  -14.8999996       3.53305574E-15
  -14.8900003       1.21322985E-14
  -14.8800001       2.04829270E-14
  -14.8699999       2.48488093E-14
  -14.8599997       2.11368297E-14
  -14.8500004       6.45545959E-15
  -14.8400002      -1.90181750E-14
  -14.8299999      -5.04987965E-14
  -14.8199997      -7.81969229E-14
  -14.8100004      -8.88042420E-14
  -14.8000002      -6.91727288E-14
  -14.7900000      -1.17415919E-14
  -14.7799997       7.96639976E-14
  -14.7700005       1.85834150E-13
  -14.7600002       2.72422736E-13
  -14.7500000       2.96302181E-13
  -14.7399998       2.18289742E-13
  -14.7299995       2.01144050E-14
  -14.7200003      -2.79095892E-13
  -14.7100000      -6.13372092E-13
  -14.6999998      -8.74139682E-13
  -14.6899996      -9.32316073E-13
  -14.6800003      -6.77401928E-13
  -14.6700001      -6.59632464E-14
  -14.6599998       8.34632385E-13
  -14.6499996       1.82517044E-12
  -14.6400003       2.59279469E-12
  -14.6300001       2.77705289E-12
  -14.6199999       2.07832601E-12
  -14.6099997       3.86006141E-13
  -14.6000004      -2.11143342E-12
  -14.5900002      -4.87945925E-12
  -14.5799999      -7.09231502E-12
  -14.5699997      -7.80647508E-12
  -14.5600004      -6.23450206E-12
  -14.5500002      -2.06082677E-12
  -14.5400000       4.29225449E-12
  -14.5299997       1.15527735E-11
  -14.5200005       1.77275798E-11
  -14.5100002       2.05046657E-11
  -14.5000000       1.78838090E-11
  -14.4899998       8.90266506E-12
  -14.4799995      -5.74352111E-12
  -14.4700003      -2.34140294E-11
  -14.4600000      -3.97503662E-11
  -14.4499998      -4.94924830E-11
  -14.4399996      -4.77946259E-11
  -14.4300003      -3.17759950E-11
  -14.4200001      -1.90358449E-12
  -14.4099998       3.72444436E-11
  -14.3999996       7.72117856E-11
  -14.3900003       1.07066467E-10
  -14.3800001       1.15846513E-10
  -14.3699999       9.55955384E-11
  -14.3599997       4.42703547E-11
  -14.3500004      -3.23115631E-11
  -14.3400002      -1.20219737E-10
  -14.3299999      -1.99271322E-10
  -14.3199997      -2.46931697E-10
  -14.3100004      -2.43628423E-10
  -14.3000002      -1.78368431E-10
  -14.2900000      -5.32803558E-11
  -14.2799997       1.14253586E-10
  -14.2700005       2.92825569E-10
  -14.2600002       4.41861520E-10
  -14.2500000       5.19547017E-10
  -14.2399998       4.92447694E-10
  -14.2299995       3.44856449E-10
  -14.2200003       8.56871379E-11
  -14.2100000      -2.49019638E-10
  -14.1999998      -5.99213901E-10
  -14.1899996      -8.89772811E-10
  -14.1800003      -1.04424069E-09
  -14.1700001      -1.00121811E-09
  -14.1599998      -7.30376704E-10
  -14.1499996      -2.44704312E-10
  -14.1400003       3.94195898E-10
  -14.1300001       1.08004994E-09
  -14.1199999       1.67594283E-09
  -14.1099997       2.03739337E-09
  -14.1000004       2.04138972E-09
  -14.0900002       1.61649361E-09
  -14.0799999       7.67910457E-10
  -14.0699997      -4.08774598E-10
  -14.0600004      -1.73038361E-09
  -14.0500002      -2.94817948E-09
  -14.0400000      -3.78824483E-09
  -14.0299997      -4.00505051E-09
  -14.0200005      -3.43909212E-09
  -14.0100002      -2.06667927E-09
  -14.0000000      -2.93680774E-11
  -13.9899998       2.36726039E-09
  -13.9799995       4.69075534E-09
  -13.9700003       6.45288711E-09
  -13.9600000       7.20459070E-09
  -13.9499998       6.63746391E-09
  -13.9399996       4.67026950E-09
  -13.9300003       1.49891921E-09
  -13.9200001      -2.40642706E-09
  -13.9099998      -6.36375752E-09
  -13.8999996      -9.59511759E-09
  -13.8900003      -1.13771064E-08
  -13.8800001      -1.11970522E-08
  -13.8699999      -8.88132856E-09
  -13.8599997      -4.66497108E-09
  -13.8500004       8.18192236E-10
  -13.8400002       6.63001076E-09
  -13.8299999       1.16938601E-08
  -13.8199997       1.50020014E-08
  -13.8100004       1.58231099E-08
  -13.8000002       1.38658329E-08
  -13.7900000       9.36098932E-09
  -13.7799997       3.04040459E-09
  -13.7700005      -3.98849442E-09
  -13.7600002      -1.04508127E-08
  -13.7500000      -1.51548480E-08
  -13.7399998      -1.72341252E-08
  -13.7299995      -1.63294942E-08
  -13.7200003      -1.26704824E-08
  -13.7100000      -7.03516934E-09
  -13.6999998      -5.92669192E-10
  -13.6899996       5.34254418E-09
  -13.6800003       9.59505364E-09
  -13.6700001       1.13918190E-08
  -13.6599998       1.05460236E-08
  -13.6499996       7.51684137E-09
  -13.6400003       3.32427286E-09
  -13.6300001      -6.71891986E-10
  -13.6199999      -3.09040438E-09
  -13.6099997      -2.88102164E-09
  -13.6000004       3.64729108E-10
  -13.5900002       6.21891516E-09
  -13.5799999       1.33958178E-08
  -13.5699997       1.99300541E-08
  -13.5600004       2.35406965E-08
  -13.5500002       2.21261338E-08
  -13.5400000       1.42999008E-08
  -13.5299997      -1.43029213E-10
  -13.5200005      -1.99397654E-08
  -13.5100002      -4.23399911E-08
  -13.5000000      -6.33963779E-08
  -13.4899998      -7.85498102E-08
  -13.4799995      -8.34313099E-08
  -13.4700003      -7.47494724E-08
  -13.4600000      -5.10990468E-08
  -13.4499998      -1.35234961E-08
  -13.4399996       3.43048328E-08
  -13.4300003       8.63617942E-08
  -13.4200001       1.34999269E-07
  -13.4099998       1.72029942E-07
  -13.3999996       1.90002268E-07
  -13.3900003       1.83453707E-07
  -13.3800001       1.49926180E-07
  -13.3699999       9.05659050E-08
  -13.3599997       1.02044799E-08
  -13.3500004      -8.30890414E-08
  -13.3400002      -1.78901246E-07
  -13.3299999      -2.65658741E-07
  -13.3199997      -3.31917278E-07
  -13.3100004      -3.67581578E-07
  -13.3000002      -3.64931964E-07
  -13.2900000      -3.19407036E-07
  -13.2799997      -2.30158676E-07
  -13.2700005      -1.00436530E-07
  -13.2600002       6.21468601E-08
  -13.2500000       2.45474013E-07
  -13.2399998       4.32996529E-07
  -13.2299995       6.04206946E-07
  -13.2200003       7.35748358E-07
  -13.2100000       8.03377816E-07
  -13.1999998       7.84875624E-07
  -13.1899996       6.63775779E-07
  -13.1800003       4.33507012E-07
  -13.1700001       1.01248581E-07
  -13.1599998      -3.09391680E-07
  -13.1499996      -7.57817418E-07
  -13.1400003      -1.18875346E-06
  -13.1300001      -1.53776989E-06
  -13.1199999      -1.73975582E-06
  -13.1099997      -1.73939873E-06
  -13.1000004      -1.50209064E-06
  -13.0900002      -1.02327920E-06
  -13.0799999      -3.34219578E-07
  -13.0699997       4.97539304E-07
  -13.0600004       1.37382563E-06
  -13.0500002       2.17747470E-06
  -13.0400000       2.78854077E-06
  -13.0299997       3.10266910E-06
  -13.0200005       3.04855098E-06
  -13.0100002       2.60130219E-06
  -13.0000000       1.78914206E-06
  -12.9899998       6.91876380E-07
  -12.9799995      -5.68836754E-07
  -12.9700003      -1.84591408E-06
  -12.9600000      -2.98714053E-06
  -12.9499998      -3.85578960E-06
  -12.9399996      -4.34803815E-06
  -12.9300003      -4.40439908E-06
  -12.9200001      -4.01373381E-06
  -12.9099998      -3.21004836E-06
  -12.8999996      -2.06374921E-06
  -12.8900003      -6.70118823E-07
  -12.8800001       8.62000149E-07
  -12.8699999       2.41884550E-06
  -12.8599997       3.88647231E-06
  -12.8500004       5.15196371E-06
  -12.8400002       6.10300549E-06
  -12.8299999       6.62867023E-06
  -12.8199997       6.62433513E-06
  -12.8100004       6.00267549E-06
  -12.8000002       4.71085150E-06
  -12.7900000       2.75165553E-06
  -12.7799997       2.04207794E-07
  -12.7700005      -2.76164837E-06
  -12.7600002      -5.88324883E-06
  -12.7500000      -8.81986398E-06
  -12.7399998      -1.11859472E-05
  -12.7299995      -1.26006380E-05
  -12.7200003      -1.27471931E-05
  -12.7100000      -1.14327140E-05
  -12.6999998      -8.63682544E-06
  -12.6899996      -4.53855637E-06
  -12.6800003       4.86418742E-07
  -12.6700001       5.90104628E-06
  -12.6599998       1.10715619E-05
  -12.6499996       1.53525143E-05
  -12.6400003       1.81786218E-05
  -12.6300001       1.91479012E-05
  -12.6199999       1.80815732E-05
  -12.6099997       1.50502237E-05
  -12.6000004       1.03619286E-05
  -12.5900002       4.51525648E-06
  -12.5799999      -1.87339288E-06
  -12.5699997      -8.15416752E-06
  -12.5600004      -1.37244397E-05
  -12.5500002      -1.80922762E-05
  -12.5400000      -2.09140690E-05
  -12.5299997      -2.20041547E-05
  -12.5200005      -2.13208914E-05
  -12.5100002      -1.89386701E-05
  -12.5000000      -1.50174828E-05
  -12.4899998      -9.78048047E-06
  -12.4799995      -3.50557548E-06
  -12.4700003       3.46901493E-06
  -12.4600000       1.07317719E-05
  -12.4499998       1.77885213E-05
  -12.4399996       2.40692079E-05
  -12.4300003       2.89606305E-05
  -12.4200001       3.18687125E-05
  -12.4099998       3.23052809E-05
  -12.3999996       2.99855037E-05
  -12.3900003       2.49156146E-05
  -12.3800001       1.74482102E-05
  -12.3699999       8.28558041E-06
  -12.3599997      -1.57986597E-06
  -12.3500004      -1.09865905E-05
  -12.3400002      -1.87709775E-05
  -12.3299999      -2.39530309E-05
  -12.3199997      -2.59061089E-05
  -12.3100004      -2.44757957E-05
  -12.3000002      -2.00205086E-05
  -12.2900000      -1.33603889E-05
  -12.2799997      -5.63922049E-06
  -12.2700005       1.87766614E-06
  -12.2600002       8.03195780E-06
  -12.2500000       1.19826118E-05
  -12.2399998       1.33549383E-05
  -12.2299995       1.22969632E-05
  -12.2200003       9.42998668E-06
  -12.2100000       5.70227621E-06
  -12.1999998       2.17559273E-06
  -12.1899996      -2.10797609E-07
  -12.1800003      -8.48354716E-07
  -12.1700001       4.05355905E-07
  -12.1599998       3.19403330E-06
  -12.1499996       6.74073590E-06
  -12.1400003       1.00204561E-05
  -12.1300001       1.19902143E-05
  -12.1199999       1.18266125E-05
  -12.1099997       9.11888219E-06
  -12.1000004       3.97491476E-06
  -12.0900002      -2.98317400E-06
  -12.0799999      -1.07331380E-05
  -12.0699997      -1.80512870E-05
  -12.0600004      -2.37521945E-05
  -12.0500002      -2.69171560E-05
  -12.0400000      -2.70621476E-05
  -12.0299997      -2.42104106E-05
  -12.0200005      -1.88566046E-05
  -12.0100002      -1.18345333E-05
  -12.0000000      -4.12190275E-06
  -11.9899998       3.37052143E-06
  -11.9799995       9.97564257E-06
  -11.9700003       1.53722176E-05
  -11.9600000       1.95908269E-05
  -11.9499998       2.29258785E-05
  -11.9399996       2.57791216E-05
  -11.9300003       2.84770977E-05
  -11.9200001       3.11117983E-05
  -11.9099998       3.34484575E-05
  -11.8999996       3.49283837E-05
  -11.8900003       3.47714958E-05
  -11.8800001       3.21584484E-05
  -11.8699999       2.64516402E-05
  -11.8599997       1.74030720E-05
  -11.8500004       5.29786121E-06
  -11.8400002      -9.00501618E-06
  -11.8299999      -2.41509479E-05
  -11.8199997      -3.84765845E-05
  -11.8100004      -5.02705516E-05
  -11.8000002      -5.80560154E-05
  -11.7900000      -6.08375849E-05
  -11.7799997      -5.82624452E-05
  -11.7700005      -5.06641336E-05
  -11.7600002      -3.89828019E-05
  -11.7500000      -2.45825595E-05
  -11.7399998      -9.00749728E-06
  -11.7299995       6.27015334E-06
  -11.7200003       2.00576978E-05
  -11.7100000       3.15662546E-05
  -11.6999998       4.04339626E-05
  -11.6899996       4.66553502E-05
  -11.6800003       5.04457385E-05
  -11.6700001       5.20834728E-05
  -11.6599998       5.17750050E-05
  -11.6499996       4.95788699E-05
  -11.6400003       4.54064320E-05
  -11.6300001       3.90952482E-05
  -11.6199999       3.05304893E-05
  -11.6099997       1.97765548E-05
  -11.6000004       7.17808189E-06
  -11.5900002      -6.60228397E-06
  -11.5799999      -2.06250879E-05
  -11.5699997      -3.37887868E-05
  -11.5600004      -4.49927720E-05
  -11.5500002      -5.33102466E-05
  -11.5400000      -5.81295571E-05
  -11.5299997      -5.92304823E-05
  -11.5200005      -5.67787174E-05
  -11.5100002      -5.12431034E-05
  -11.5000000      -4.32602210E-05
  -11.4899998      -3.34843135E-05
  -11.4799995      -2.24640789E-05
  -11.4700003      -1.05796444E-05
  -11.4600000       1.94410654E-06
  -11.4499998       1.49538273E-05
  -11.4399996       2.82406945E-05
  -11.4300003       4.14115857E-05
  -11.4200001       5.38034183E-05
  -11.4099998       6.44767424E-05
  -11.3999996       7.23053308E-05
  -11.3900003       7.61529445E-05
  -11.3800001       7.51035259E-05
  -11.3699999       6.86927306E-05
  -11.3599997       5.70825869E-05
  -11.3500004       4.11294386E-05
  -11.3400002       2.23165189E-05
  -11.3299999       2.55290661E-06
  -11.3199997      -1.61278022E-05
  -11.3100004      -3.19097780E-05
  -11.3000002      -4.35057482E-05
  -11.2900000      -5.03670162E-05
  -11.2799997      -5.27433222E-05
  -11.2700005      -5.15753200E-05
  -11.2600002      -4.82401592E-05
  -11.2500000      -4.42049713E-05
  -11.2399998      -4.06657018E-05
  -11.2299995      -3.82541148E-05
  -11.2200003      -3.68822148E-05
  -11.2100000      -3.57632416E-05
  -11.1999998      -3.36086632E-05
  -11.1899996      -2.89601321E-05
  -11.1800003      -2.05836295E-05
  -11.1700001      -7.83708219E-06
  -11.1599998       9.07311369E-06
  -11.1499996       2.90084172E-05
  -11.1400003       5.00122842E-05
  -11.1300001       6.96047064E-05
  -11.1199999       8.52010417E-05
  -11.1099997       9.45725697E-05
  -11.1000004       9.62571503E-05
  -11.0900002       8.98387007E-05
  -11.0799999       7.60405164E-05
  -11.0699997       5.66148192E-05
  -11.0600004       3.40504412E-05
  -11.0500002       1.11547288E-05
  -11.0400000      -9.41181588E-06
  -11.0299997      -2.55628765E-05
  -11.0200005      -3.60995946E-05
  -11.0100002      -4.08565393E-05
  -11.0000000      -4.06585605E-05
  -10.9899998      -3.71010537E-05
  -10.9799995      -3.21971056E-05
  -10.9700003      -2.79577034E-05
  -10.9600000      -2.59821445E-05
  -10.9499998      -2.71332301E-05
  -10.9399996      -3.13569035E-05
  -10.9300003      -3.76803764E-05
  -10.9200001      -4.43913341E-05
  -10.9099998      -4.93679727E-05
  -10.8999996      -5.05014068E-05
  -10.8900003      -4.61333038E-05
  -10.8800001      -3.54261319E-05
  -10.8699999      -1.85935478E-05
  -10.8599997       3.05765707E-06
  -10.8500004       2.72882971E-05
  -10.8400002       5.12656734E-05
  -10.8299999       7.20210228E-05
  -10.8199997       8.69414944E-05
  -10.8100004       9.42044426E-05
  -10.8000002       9.30725510E-05
  -10.7900000       8.39953937E-05
  -10.7799997       6.85020859E-05
  -10.7700005       4.89112026E-05
  -10.7600002       2.79197193E-05
  -10.7500000       8.15428029E-06
  -10.7399998      -8.22918173E-06
  -10.7299995      -1.98270736E-05
  -10.7200003      -2.61107525E-05
  -10.7100000      -2.73862042E-05
  -10.6999998      -2.46206000E-05
  -10.6899996      -1.91887393E-05
  -10.6800003      -1.26000014E-05
  -10.6700001      -6.25876783E-06
  -10.6599998      -1.29174714E-06
  -10.6499996       1.54823761E-06
  -10.6400003       1.91328854E-06
  -10.6300001      -1.50893740E-07
  -10.6199999      -4.23599613E-06
  -10.6099997      -9.60915622E-06
  -10.6000004      -1.52603698E-05
  -10.5900002      -1.99739097E-05
  -10.5799999      -2.24424111E-05
  -10.5699997      -2.14344254E-05
  -10.5600004      -1.60080490E-05
  -10.5500002      -5.74020896E-06
  -10.5400000       9.07859521E-06
  -10.5299997       2.73424230E-05
  -10.5200005       4.71702733E-05
  -10.5100002       6.61118538E-05
  -10.5000000       8.15033636E-05
  -10.4899998       9.09170558E-05
  -10.4799995       9.26168505E-05
  -10.4700003       8.59202701E-05
  -10.4600000       7.13797999E-05
  -10.4499998       5.07328950E-05
  -10.4399996       2.66214211E-05
  -10.4300003       2.13500721E-06
  -10.4200001      -1.97254321E-05
  -10.4099998      -3.65491105E-05
  -10.3999996      -4.68766375E-05
  -10.3900003      -5.03519223E-05
  -10.3800001      -4.76475980E-05
  -10.3699999      -4.02010446E-05
  -10.3599997      -2.98403047E-05
  -10.3500004      -1.83981774E-05
  -10.3400002      -7.40470477E-06
  -10.3299999       2.08300798E-06
  -10.3199997       9.49940204E-06
  -10.3100004       1.46673710E-05
  -10.3000002       1.76345384E-05
  -10.2900000       1.85194331E-05
  -10.2799997       1.74245488E-05
  -10.2700005       1.44421047E-05
  -10.2600002       9.74008981E-06
  -10.2500000       3.68357792E-06
  -10.2399998      -3.07027653E-06
  -10.2299995      -9.56047006E-06
  -10.2200003      -1.46254924E-05
  -10.2100000      -1.71162064E-05
  -10.1999998      -1.61740136E-05
  -10.1899996      -1.15021821E-05
  -10.1800003      -3.54997610E-06
  -10.1700001       6.45590353E-06
  -10.1599998       1.66633799E-05
  -10.1499996       2.49157110E-05
  -10.1400003       2.91815631E-05
  -10.1300001       2.80034747E-05
  -10.1199999       2.08638012E-05
  -10.1099997       8.38171945E-06
  -10.1000004      -7.70945371E-06
  -10.0900002      -2.48074120E-05
  -10.0799999      -3.98625816E-05
  -10.0699997      -4.98930785E-05
  -10.0600004      -5.24918069E-05
  -10.0500002      -4.62298885E-05
  -10.0400000      -3.08869712E-05
  -10.0299997      -7.47846479E-06
  -10.0200005       2.19078738E-05
  -10.0100002       5.44183167E-05
  -10.0000000       8.68149364E-05
  -9.98999977       1.15863222E-04
  -9.97999954       1.38670104E-04
  -9.97000027       1.52940469E-04
  -9.96000004       1.57145259E-04
  -9.94999981       1.50612032E-04
  -9.93999958       1.33555703E-04
  -9.93000031       1.07062660E-04
  -9.92000008       7.30292013E-05
  -9.90999985       3.40432489E-05
  -9.89999962      -6.80612902E-06
  -9.89000034      -4.62000316E-05
  -9.88000011      -8.09310732E-05
  -9.86999989      -1.08278298E-04
  -9.85999966      -1.26355357E-04
  -9.85000038      -1.34360089E-04
  -9.84000015      -1.32661109E-04
  -9.82999992      -1.22685422E-04
  -9.81999969      -1.06615793E-04
  -9.81000042      -8.69540090E-05
  -9.80000019      -6.60455189E-05
  -9.78999996      -4.56758717E-05
  -9.77999973      -2.68354215E-05
  -9.77000046      -9.70656674E-06
  -9.76000023       6.13203656E-06
  -9.75000000       2.13500662E-05
  -9.73999977       3.64676816E-05
  -9.72999954       5.15357569E-05
  -9.72000027       6.59907746E-05
  -9.71000004       7.87273020E-05
  -9.69999981       8.83638568E-05
  -9.68999958       9.36174474E-05
  -9.68000031       9.36677170E-05
  -9.67000008       8.83944667E-05
  -9.65999985       7.84124277E-05
  -9.64999962       6.48921632E-05
  -9.64000034       4.92253275E-05
  -9.63000011       3.26444861E-05
  -9.61999989       1.59242372E-05
  -9.60999966      -7.33860873E-07
  -9.60000038      -1.75886307E-05
  -9.59000015      -3.50496193E-05
  -9.57999992      -5.32684790E-05
  -9.56999969      -7.17673247E-05
  -9.56000042      -8.92362805E-05
  -9.55000019      -1.03586790E-04
  -9.53999996      -1.12273621E-04
  -9.52999973      -1.12818394E-04
  -9.52000046      -1.03405422E-04
  -9.51000023      -8.33955928E-05
  -9.50000000      -5.36216830E-05
  -9.48999977      -1.63851018E-05
  -9.47999954       2.48495271E-05
  -9.47000027       6.59902435E-05
  -9.46000004       1.02959908E-04
  -9.44999981       1.32304340E-04
  -9.43999958       1.51646527E-04
  -9.43000031       1.59916162E-04
  -9.42000008       1.57344708E-04
  -9.40999985       1.45269078E-04
  -9.39999962       1.25820690E-04
  -9.39000034       1.01581580E-04
  -9.38000011       7.52723572E-05
  -9.36999989       4.95050517E-05
  -9.35999966       2.66026454E-05
  -9.35000038       8.46647345E-06
  -9.34000015      -3.53207383E-06
  -9.32999992      -8.64844151E-06
  -9.31999969      -6.84498809E-06
  -9.31000042       1.16834542E-06
  -9.30000019       1.39627609E-05
  -9.28999996       2.95125392E-05
  -9.27999973       4.54156980E-05
  -9.27000046       5.91942189E-05
  -9.26000023       6.86318454E-05
  -9.25000000       7.20938260E-05
  -9.23999977       6.87722713E-05
  -9.22999954       5.88137846E-05
  -9.22000027       4.33069690E-05
  -9.21000004       2.41325743E-05
  -9.19999981       3.70099110E-06
  -9.18999958      -1.53826732E-05
  -9.18000031      -3.06782167E-05
  -9.17000008      -4.02462647E-05
  -9.15999985      -4.29172578E-05
  -9.14999962      -3.84581763E-05
  -9.14000034      -2.76132560E-05
  -9.13000011      -1.20089180E-05
  -9.11999989       6.06971844E-06
  -9.10999966       2.40041827E-05
  -9.10000038       3.92250477E-05
  -9.09000015       4.95928180E-05
  -9.07999992       5.37146771E-05
  -9.06999969       5.11426515E-05
  -9.06000042       4.24192767E-05
  -9.05000019       2.89663312E-05
  -9.03999996       1.28435240E-05
  -9.02999973      -3.57100271E-06
  -9.02000046      -1.79143826E-05
  -9.01000023      -2.81276116E-05
  -9.00000000      -3.26586451E-05
  -8.98999977      -3.05670765E-05
  -8.97999954      -2.15442124E-05
  -8.97000027      -5.87991690E-06
  -8.96000004       1.55892485E-05
  -8.94999981       4.15274153E-05
  -8.93999958       7.01399476E-05
  -8.93000031       9.92260175E-05
  -8.92000008       1.26275190E-04
  -8.90999985       1.48638530E-04
  -8.89999962       1.63787496E-04
  -8.89000034       1.69645718E-04
  -8.88000011       1.64948084E-04
  -8.86999989       1.49558618E-04
  -8.85999966       1.24671627E-04
  -8.85000038       9.28324589E-05
  -8.84000015       5.77442006E-05
  -8.82999992       2.38658904E-05
  -8.81999969      -4.15068371E-06
  -8.81000042      -2.21064893E-05
  -8.80000019      -2.68855747E-05
  -8.78999996      -1.69719806E-05
  -8.77999973       7.23007133E-06
  -8.77000046       4.33297064E-05
  -8.76000023       8.71598240E-05
  -8.75000000       1.33251262E-04
  -8.73999977       1.75521767E-04
  -8.72999954       2.08097903E-04
  -8.72000027       2.26161646E-04
  -8.71000004       2.26696779E-04
  -8.69999981       2.09009944E-04
  -8.68999958       1.74920642E-04
  -8.68000031       1.28556800E-04
  -8.67000008       7.57551388E-05
  -8.65999985       2.31396589E-05
  -8.64999962      -2.29775123E-05
  -8.64000034      -5.76759885E-05
  -8.63000011      -7.82758143E-05
  -8.61999989      -8.47712727E-05
  -8.60999966      -7.97393659E-05
  -8.60000038      -6.77180287E-05
  -8.59000015      -5.41648369E-05
  -8.57999992      -4.42060918E-05
  -8.56999969      -4.14433198E-05
  -8.56000042      -4.70839659E-05
  -8.55000019      -5.96003338E-05
  -8.53999996      -7.50093968E-05
  -8.52999973      -8.77290076E-05
  -8.52000046      -9.18355727E-05
  -8.51000023      -8.24541494E-05
  -8.50000000      -5.69772928E-05
  -8.48999977      -1.58418206E-05
  -8.47999954       3.73143557E-05
  -8.47000027       9.61612895E-05
  -8.46000004       1.52755936E-04
  -8.44999981       1.98975016E-04
  -8.43999958       2.28013116E-04
  -8.43000031       2.35646439E-04
  -8.42000008       2.21013805E-04
  -8.40999985       1.86767822E-04
  -8.39999962       1.38576841E-04
  -8.39000034       8.40875655E-05
  -8.38000011       3.15596990E-05
  -8.36999989      -1.15582934E-05
  -8.35999966      -3.98418197E-05
  -8.35000038      -5.06720025E-05
  -8.34000015      -4.44599573E-05
  -8.32999992      -2.43014565E-05
  -8.31999969       4.83839949E-06
  -8.31000042       3.72222930E-05
  -8.30000019       6.74848561E-05
  -8.28999996       9.15918790E-05
  -8.27999973       1.07433072E-04
  -8.27000046       1.14954433E-04
  -8.26000023       1.15840121E-04
  -8.25000000       1.12852402E-04
  -8.23999977       1.09008703E-04
  -8.22999954       1.06802472E-04
  -8.22000027       1.07652355E-04
  -8.21000004       1.11697918E-04
  -8.19999981       1.17966061E-04
  -8.18999958       1.24834041E-04
  -8.18000031       1.30637360E-04
  -8.17000008       1.34234680E-04
  -8.15999985       1.35357142E-04
  -8.14999962       1.34634742E-04
  -8.14000034       1.33288777E-04
  -8.13000011       1.32582412E-04
  -8.11999989       1.33201640E-04
  -8.10999966       1.34770555E-04
  -8.10000038       1.35678260E-04
  -8.09000015       1.33312162E-04
  -8.07999992       1.24675891E-04
  -8.06999969       1.07251806E-04
  -8.06000042       7.98813780E-05
  -8.05000019       4.34114845E-05
  -8.03999996       8.99802046E-07
  -8.02999973      -4.27191990E-05
  -8.02000046      -8.14643645E-05
  -8.01000023      -1.09452478E-04
  -8.00000000      -1.22083162E-04
  -7.98999977      -1.16970470E-04
  -7.98000002      -9.43892810E-05
  -7.96999979      -5.71305682E-05
  -7.96000004      -9.81737867E-06
  -7.94999981       4.21254299E-05
  -7.94000006       9.35686403E-05
  -7.92999983       1.40559117E-04
  -7.92000008       1.80774790E-04
  -7.90999985       2.13478881E-04
  -7.90000010       2.39048066E-04
  -7.88999987       2.58269429E-04
  -7.88000011       2.71657511E-04
  -7.86999989       2.79020314E-04
  -7.86000013       2.79410189E-04
  -7.84999990       2.71465571E-04
  -7.84000015       2.54022161E-04
  -7.82999992       2.26788892E-04
  -7.82000017       1.90865860E-04
  -7.80999994       1.48932158E-04
  -7.80000019       1.05031701E-04
  -7.78999996       6.39999926E-05
  -7.78000021       3.06694274E-05
  -7.76999998       9.04033368E-06
  -7.76000023       1.59735998E-06
  -7.75000000       8.89936109E-06
  -7.73999977       2.94950842E-05
  -7.73000002       6.01437459E-05
  -7.71999979       9.62704871E-05
  -7.71000004       1.32567671E-04
  -7.69999981       1.63660443E-04
  -7.69000006       1.84773249E-04
  -7.67999983       1.92347958E-04
  -7.67000008       1.84564473E-04
  -7.65999985       1.61703647E-04
  -7.65000010       1.26280240E-04
  -7.63999987       8.28770717E-05
  -7.63000011       3.76420357E-05
  -7.61999989      -2.53039570E-06
  -7.61000013      -3.10356772E-05
  -7.59999990      -4.26457555E-05
  -7.59000015      -3.44376131E-05
  -7.57999992      -6.36564619E-06
  -7.57000017       3.86564498E-05
  -7.55999994       9.51970796E-05
  -7.55000019       1.56187933E-04
  -7.53999996       2.14065629E-04
  -7.53000021       2.61946203E-04
  -7.51999998       2.94613215E-04
  -7.51000023       3.09161551E-04
  -7.50000000       3.05228692E-04
  -7.48999977       2.84836919E-04
  -7.48000002       2.51935242E-04
  -7.46999979       2.11758103E-04
  -7.46000004       1.70109139E-04
  -7.44999981       1.32650122E-04
  -7.44000006       1.04244296E-04