  -16.0000000       0.00000000    
  -15.9899998       0.00000000    
  -15.9799995       0.00000000    
  -15.9700003       0.00000000    
  -15.9600000       0.00000000    
  -15.9499998       0.00000000    
  -15.9399996       0.00000000    
  -15.9300003       0.00000000    
  -15.9200001       0.00000000    
  -15.9099998       0.00000000    
  -15.8999996      -0.00000000    
  -15.8900003      -7.49050081E-41
  -15.8800001      -6.12973070E-39
  -15.8699999      -1.40314358E-37
  -15.8599997      -1.81164457E-36
  -15.8500004      -1.62472031E-35
  -15.8400002      -1.11808236E-34
  -15.8299999      -6.25508278E-34
  -15.8199997      -2.95247465E-33
  -15.8100004      -1.20606036E-32
  -15.8000002      -4.34114413E-32
  -15.7900000      -1.39481738E-31
  -15.7799997      -4.03752405E-31
  -15.7700005      -1.05952337E-30
  -15.7600002      -2.52971180E-30
  -15.7500000      -5.50051987E-30
  -15.7399998      -1.08674539E-29
  -15.7299995      -1.93758874E-29
  -15.7200003      -3.07125009E-29
  -15.7100000      -4.18929094E-29
  -15.6999998      -4.51834450E-29
  -15.6899996      -2.65976011E-29
  -15.6800003       3.29143684E-29
  -15.6700001       1.50705836E-28
  -15.6599998       3.27909097E-28
  -15.6499996       5.28361595E-28
  -15.6400003       6.58832178E-28
  -15.6300001       5.66548404E-28
  -15.6199999       7.47774259E-29
  -15.6099997      -9.28913857E-28
  -15.6000004      -2.36052624E-27
  -15.5900002      -3.81217726E-27
  -15.5799999      -4.51918152E-27
  -15.5699997      -3.52463129E-27
  -15.5600004      -9.48907429E-29
  -15.5500002       5.68938811E-27
  -15.5400000       1.24205133E-26
  -15.5299997       1.73196723E-26
  -15.5200005       1.70139563E-26
  -15.5100002       9.16834867E-27
  -15.5000000      -5.57012066E-27
  -15.4899998      -2.24597559E-26
  -15.4799995      -3.37216898E-26
  -15.4700003      -3.24409772E-26
  -15.4600000      -1.83046221E-26
  -15.4499998      -1.95921406E-27
  -15.4399996      -3.29069205E-27
  -15.4300003      -3.98873434E-26
  -15.4200001      -1.06616376E-25
  -15.4099998      -1.55220610E-25
  -15.3999996      -9.10192150E-26
  -15.3900003       1.93634599E-25
  -15.3800001       7.39195011E-25
  -15.3699999       1.40796624E-24
  -15.3599997       1.79632661E-24
  -15.3500004       1.25901175E-24
  -15.3400002      -8.60677422E-25
  -15.3299999      -4.75620451E-24
  -15.3199997      -9.53375244E-24
  -15.3100004      -1.27282502E-23
  -15.3000002      -1.04308971E-23
  -15.2900000       1.46364444E-24
  -15.2799997       2.46504518E-23
  -15.2700005       5.48888724E-23
  -15.2600002       7.90274355E-23
  -15.2500000       7.50670003E-23
  -15.2399998       1.80807014E-23
  -15.2299995      -1.06400486E-22
  -15.2200003      -2.83287928E-22
  -15.2100000      -4.50136503E-22
  -15.1999998      -4.93113948E-22
  -15.1899996      -2.71510853E-22
  -15.1800003       3.19474732E-22
  -15.1700001       1.25340148E-21
  -15.1599998       2.27530285E-21
  -15.1499996       2.85967102E-21
  -15.1400003       2.29421794E-21
  -15.1300001      -5.87801654E-23
  -15.1199999      -4.33607552E-21
  -15.1099997      -9.70080264E-21
  -15.1000004      -1.40590525E-20
  -15.0900002      -1.42671886E-20
  -15.0799999      -7.07195157E-21
  -15.0699997       9.21375643E-21
  -15.0600004       3.27028569E-20
  -15.0500002       5.64541010E-20
  -15.0400000       6.86638814E-20
  -15.0299997       5.55154901E-20
  -15.0200005       6.87754474E-21
  -15.0100002      -7.63442275E-20
  -15.0000000      -1.75982701E-19
  -14.9899998      -2.55336774E-19
  -14.9799995      -2.66299993E-19
  -14.9700003      -1.65945873E-19
  -14.9600000       6.06294890E-20
  -14.9499998       3.79262414E-19
  -14.9399996       6.98708969E-19
  -14.9300003       8.85842090E-19
  -14.9200001       8.07316956E-19
  -14.9099998       3.88949526E-19
  -14.8999996      -3.29065760E-19
  -14.8900003      -1.17060088E-18
  -14.8800001      -1.86025413E-18
  -14.8699999      -2.12184152E-18
  -14.8599997      -1.80915381E-18
  -14.8500004      -1.00700451E-18
  -14.8400002      -2.85004789E-20
  -14.8299999       7.38783233E-19
  -14.8199997       1.11358663E-18
  -14.8100004       1.40599921E-18
  -14.8000002       2.50231544E-18
  -14.7900000       5.54149220E-18
  -14.7799997       1.11007919E-17
  -14.7700005       1.80719972E-17
  -14.7600002       2.27426080E-17
  -14.7500000       1.88481292E-17
  -14.7399998      -6.68232791E-19
  -14.7299995      -3.99306816E-17
  -14.7200003      -9.51355113E-17
  -14.7100000      -1.50186035E-16
  -14.6999998      -1.75828634E-16
  -14.6899996      -1.35230319E-16
  -14.6800003       2.48642903E-18
  -14.6700001       2.42345549E-16
  -14.6599998       5.43078774E-16
  -14.6499996       8.05892239E-16
  -14.6400003       8.83690733E-16
  -14.6300001       6.18982349E-16
  -14.6199999      -8.99895347E-17
  -14.6099997      -1.20876493E-15
  -14.6000004      -2.50024433E-15
  -14.5900002      -3.51029533E-15
  -14.5799999      -3.64102449E-15
  -14.5699997      -2.32785173E-15
  -14.5600004       7.00319165E-16
  -14.5500002       5.14544648E-15
  -14.5400000       9.95852486E-15
  -14.5299997       1.33768220E-14
  -14.5200005       1.32763919E-14
  -14.5100002       7.85237320E-15
  -14.5000000      -3.48944964E-15
  -14.4899998      -1.92890493E-14
  -14.4799995      -3.55996123E-14
  -14.4700003      -4.63343793E-14
  -14.4600000      -4.46212450E-14
  -14.4499998      -2.50995886E-14
  -14.4399996       1.33056662E-14
  -14.4300003       6.49906358E-14
  -14.4200001       1.16749329E-13
  -14.4099998       1.49321541E-13
  -14.3999996       1.41903267E-13
  -14.3900003       7.92022088E-14
  -14.3800001      -4.05093981E-14
  -14.3699999      -1.98907419E-13
  -14.3599997      -3.55733157E-13
  -14.3500004      -4.54100706E-13
  -14.3400002      -4.34000329E-13
  -14.3299999      -2.52438288E-13
  -14.3199997       9.43495024E-14
  -14.3100004       5.53688660E-13
  -14.3000002       1.01229962E-12
  -14.2900000       1.31167841E-12
  -14.2799997       1.28514267E-12
  -14.2700005       8.11916018E-13
  -14.2600002      -1.23982652E-13
  -14.2500000      -1.38840924E-12
  -14.2399998      -2.68571493E-12
  -14.2299995      -3.59750858E-12
  -14.2200003      -3.67659549E-12
  -14.2100000      -2.58439971E-12
  -14.1999998      -2.41628305E-13
  -14.1899996       3.05286677E-12
  -14.1800003       6.58497649E-12
  -14.1700001       9.31001370E-12
  -14.1599998       1.00729806E-11
  -14.1499996       7.93898367E-12
  -14.1400003       2.56455924E-12
  -14.1300001      -5.49475136E-12
  -14.1199999      -1.46585279E-11
  -14.1099997      -2.24752144E-11
  -14.1000004      -2.60963230E-11
  -14.0900002      -2.30244435E-11
  -14.0799999      -1.19891840E-11
  -14.0699997       6.27863386E-12
  -14.0600004       2.86418719E-11
  -14.0500002       4.97550057E-11
  -14.0400000       6.29847494E-11
  -14.0299997       6.19895593E-11
  -14.0200005       4.26783782E-11
  -14.0100002       5.07640371E-12
  -14.0000000      -4.54786278E-11
  -13.9899998      -9.83485307E-11
  -13.9799995      -1.39146666E-10
  -13.9700003      -1.52801910E-10
  -13.9600000      -1.27660965E-10
  -13.9499998      -5.97308869E-11
  -13.9399996       4.41100871E-11
  -13.9300003       1.65112271E-10
  -13.9200001       2.74716416E-10
  -13.9099998       3.39879597E-10
  -13.8999996       3.31001559E-10
  -13.8900003       2.30901701E-10
  -13.8800001       4.26309682E-11
  -13.8699999      -2.06302614E-10
  -13.8599997      -4.65302186E-10
  -13.8500004      -6.68589906E-10
  -13.8400002      -7.49045548E-10
  -13.8299999      -6.55627830E-10
  -13.8199997      -3.70545566E-10
  -13.8100004       7.84298113E-11
  -13.8000002       6.14826356E-10
  -13.7900000       1.12232446E-09
  -13.7799997       1.46585744E-09
  -13.7700005       1.52206359E-09
  -13.7600002       1.21316679E-09
  -13.7500000       5.36274747E-10
  -13.7399998      -4.20328355E-10
  -13.7299995      -1.48062651E-09
  -13.7200003      -2.40704279E-09
  -13.7100000      -2.94709723E-09
  -13.6999998      -2.89270741E-09
  -13.6899996      -2.13964557E-09
  -13.6800003      -7.32373939E-10
  -13.6700001       1.11947041E-09
  -13.6599998       3.06198200E-09
  -13.6499996       4.65655958E-09
  -13.6400003       5.47004575E-09
  -13.6300001       5.17847054E-09
  -13.6199999       3.66137698E-09
  -13.6099997       1.06245479E-09
  -13.6000004      -2.20321983E-09
  -13.5900002      -5.50491031E-09
  -13.5799999      -8.11054690E-09
  -13.5699997      -9.34049993E-09
  -13.5600004      -8.72957351E-09
  -13.5500002      -6.16004980E-09
  -13.5400000      -1.93103644E-09
  -13.5299997       3.25944982E-09
  -13.5200005       8.42499315E-09
  -13.5100002       1.24777637E-08
  -13.5000000       1.44561376E-08
  -13.4899998       1.37442635E-08
  -13.4799995       1.02327444E-08
  -13.4700003       4.37959313E-09
  -13.4600000      -2.84870105E-09
  -13.4499998      -1.01492343E-08
  -13.4399996      -1.61343436E-08
  -13.4300003      -1.96093577E-08
  -13.4200001      -1.98153067E-08
  -13.4099998      -1.65825806E-08
  -13.3999996      -1.03621716E-08
  -13.3900003      -2.13019735E-09
  -13.3800001       6.80834900E-09
  -13.3699999       1.50675650E-08
  -13.3599997       2.14213660E-08
  -13.3500004       2.49842351E-08
  -13.3400002       2.52997996E-08
  -13.3299999       2.23336123E-08
  -13.3199997       1.63948020E-08
  -13.3100004       8.02995093E-09
  -13.3000002      -2.06406048E-09
  -13.2900000      -1.30756925E-08
  -13.2799997      -2.40573321E-08
  -13.2700005      -3.38730644E-08
  -13.2600002      -4.11671088E-08
  -13.2500000      -4.44129604E-08
  -13.2399998      -4.20892547E-08
  -13.2299995      -3.29927801E-08
  -13.2200003      -1.66492846E-08
  -13.2100000       6.26717078E-09
  -13.1999998       3.36306272E-08
  -13.1899996       6.18050038E-08
  -13.1800003       8.59301110E-08
  -13.1700001       1.00584785E-07
  -13.1599998       1.00770620E-07
  -13.1499996       8.30655225E-08
  -13.1400003       4.67213859E-08
  -13.1300001      -5.55527402E-09
  -13.1199999      -6.73812082E-08
  -13.1099997      -1.29195840E-07
  -13.1000004      -1.79517613E-07
  -13.0900002      -2.06836006E-07
  -13.0799999      -2.01862520E-07
  -13.0699997      -1.59742427E-07
  -13.0600004      -8.17713399E-08
  -13.0500002       2.38119320E-08
  -13.0400000       1.42265307E-07
  -13.0299997       2.54125183E-07
  -13.0200005       3.38184464E-07
  -13.0100002       3.75256718E-07
  -13.0000000       3.52095469E-07
  -12.9899998       2.64707779E-07
  -12.9799995       1.20314752E-07
  -12.9700003      -6.26217869E-08
  -12.9600000      -2.56567546E-07
  -12.9499998      -4.29116540E-07
  -12.9399996      -5.48607318E-07
  -12.9300003      -5.90155366E-07
  -12.9200001      -5.40884628E-07
  -12.9099998      -4.03171157E-07
  -12.8999996      -1.95021585E-07
  -12.8900003       5.27368655E-08
  -12.8800001       3.02072777E-07
  -12.8699999       5.15090335E-07
  -12.8599997       6.61492095E-07
  -12.8500004       7.24388087E-07
  -12.8400002       7.02932198E-07
  -12.8299999       6.10960171E-07
  -12.8199997       4.71798131E-07
  -12.8100004       3.10487223E-07
  -12.8000002       1.45541264E-07
  -12.7900000      -1.72544095E-08
  -12.7799997      -1.86765149E-07
  -12.7700005      -3.82871491E-07
  -12.7600002      -6.27483018E-07
  -12.7500000      -9.32086323E-07
  -12.7399998      -1.28513159E-06
  -12.7299995      -1.64328549E-06
  -12.7200003      -1.93027472E-06
  -12.7100000      -2.04564026E-06
  -12.6999998      -1.88340505E-06
  -12.6899996      -1.35793164E-06
  -12.6800003      -4.31768655E-07
  -12.6700001       8.61216847E-07
  -12.6599998       2.40412737E-06
  -12.6499996       4.00171302E-06
  -12.6400003       5.40316114E-06
  -12.6300001       6.34058824E-06
  -12.6199999       6.57677128E-06
  -12.6099997       5.95274196E-06
  -12.6000004       4.42490864E-06
  -12.5900002       2.08288952E-06
  -12.5799999      -8.56980080E-07
  -12.5699997      -4.08218466E-06
  -12.5600004      -7.23272024E-06
  -12.5500002      -9.95755090E-06
  -12.5400000      -1.19662946E-05
  -12.5299997      -1.30645667E-05
  -12.5200005      -1.31653542E-05
  -12.5100002      -1.22749670E-05
  -12.5000000      -1.04589335E-05
  -12.4899998      -7.79890161E-06
  -12.4799995      -4.35452330E-06
  -12.4700003      -1.43492443E-07
  -12.4600000       4.85178134E-06
  -12.4499998       1.06498701E-05
  -12.4399996       1.72158889E-05
  -12.4300003       2.44016228E-05
  -12.4200001       3.18987222E-05
  -12.4099998       3.92225520E-05
  -12.3999996       4.57383976E-05
  -12.3900003       5.07319637E-05
  -12.3800001       5.35149156E-05
  -12.3699999       5.35459621E-05
  -12.3599997       5.05420685E-05
  -12.3500004       4.45539008E-05
  -12.3400002       3.59857950E-05
  -12.3299999       2.55517498E-05
  -12.3199997       1.41729661E-05
  -12.3100004       2.83594545E-06
  -12.3000002      -7.56035251E-06
  -12.2900000      -1.63365621E-05
  -12.2799997      -2.31167578E-05
  -12.2700005      -2.78473435E-05
  -12.2600002      -3.07490845E-05
  -12.2500000      -3.22157466E-05
  -12.2399998      -3.26849658E-05
  -12.2299995      -3.25130095E-05
  -12.2200003      -3.18835118E-05
  -12.2100000      -3.07715163E-05
  -12.1999998      -2.89702984E-05
  -12.1899996      -2.61730765E-05
  -12.1800003      -2.20883758E-05
  -12.1700001      -1.65597285E-05
  -12.1599998      -9.65950494E-06
  -12.1499996      -1.73285139E-06
  -12.1400003       6.62057346E-06
  -12.1300001       1.46250313E-05
  -12.1199999       2.14517422E-05
  -12.1099997       2.63612055E-05
  -12.1000004       2.88356041E-05
  -12.0900002       2.86744907E-05
  -12.0799999       2.60348879E-05
  -12.0699997       2.14083811E-05
  -12.0600004       1.55400194E-05
  -12.0500002       9.30469832E-06
  -12.0400000       3.56397550E-06
  -12.0299997      -9.71019631E-07
  -12.0200005      -3.84662872E-06
  -12.0100002      -4.92562731E-06
  -12.0000000      -4.38863026E-06
  -11.9899998      -2.67843802E-06
  -11.9799995      -3.97710949E-07
  -11.9700003       1.82132237E-06
  -11.9600000       3.45081139E-06
  -11.9499998       4.17883302E-06
  -11.9399996       3.97524263E-06
  -11.9300003       3.09589268E-06
  -11.9200001       2.02057527E-06
  -11.9099998       1.33367405E-06
  -11.8999996       1.56995054E-06
  -11.8900003       3.05824597E-06
  -11.8800001       5.80012056E-06
  -11.8699999       9.41674898E-06
  -11.8599997       1.31852139E-05
  -11.8500004       1.61664539E-05
  -11.8400002       1.74051656E-05
  -11.8299999       1.61620246E-05
  -11.8199997       1.21259091E-05
  -11.8100004       5.55259430E-06
  -11.8000002      -2.71177578E-06
  -11.7900000      -1.13407095E-05
  -11.7799997      -1.87588794E-05
  -11.7700005      -2.34529671E-05
  -11.7600002      -2.42973383E-05
  -11.7500000      -2.08215497E-05
  -11.7399998      -1.33554995E-05
  -11.7299995      -3.01264890E-06
  -11.7200003       8.49264325E-06
  -11.7100000       1.91597865E-05
  -11.6999998       2.70835517E-05
  -11.6899996       3.08211711E-05
  -11.6800003       2.96662038E-05
  -11.6700001       2.37717468E-05
  -11.6599998       1.41003393E-05
  -11.6499996       2.21739151E-06
  -11.6400003      -1.00204934E-05
  -11.6300001      -2.08100319E-05
  -11.6199999      -2.87036037E-05
  -11.6099997      -3.28099377E-05
  -11.6000004      -3.28626229E-05
  -11.5900002      -2.91600445E-05
  -11.5799999      -2.24106097E-05
  -11.5699997      -1.35357386E-05
  -11.5600004      -3.48591084E-06
  -11.5500002       6.88739419E-06
  -11.5400000       1.68842580E-05
  -11.5299997       2.59402041E-05
  -11.5200005       3.35699297E-05
  -11.5100002       3.93103001E-05
  -11.5000000       4.26989645E-05
  -11.4899998       4.33099012E-05
  -11.4799995       4.08444830E-05
  -11.4700003       3.52539828E-05
  -11.4600000       2.68535878E-05
  -11.4499998       1.63839650E-05
  -11.4399996       4.98635154E-06
  -11.4300003      -5.92201059E-06
  -11.4200001      -1.48582194E-05
  -11.4099998      -2.05306715E-05
  -11.3999996      -2.20866441E-05
  -11.3900003      -1.92913867E-05
  -11.3800001      -1.25917522E-05
  -11.3699999      -3.04230662E-06
  -11.3599997       7.89606020E-06
  -11.3500004       1.86436082E-05
  -11.3400002       2.78113221E-05
  -11.3299999       3.44608234E-05
  -11.3199997       3.82526559E-05
  -11.3100004       3.94469280E-05
  -11.3000002       3.87562905E-05
  -11.2900000       3.70889829E-05
  -11.2799997       3.52495590E-05
  -11.2700005       3.36783523E-05
  -11.2600002       3.23037348E-05
  -11.2500000       3.05539616E-05
  -11.2399998       2.75338571E-05
  -11.2299995       2.23261486E-05
  -11.2200003       1.43394755E-05
  -11.2100000       3.60627223E-06
  -11.1999998      -9.06008154E-06
  -11.1899996      -2.21078571E-05
  -11.1800003      -3.34982578E-05
  -11.1700001      -4.11184410E-05
  -11.1599998      -4.32623056E-05
  -11.1499996      -3.90606583E-05
  -11.1400003      -2.87483072E-05
  -11.1300001      -1.36921908E-05
  -11.1199999       3.83724091E-06
  -11.1099997       2.11041734E-05
  -11.1000004       3.54539188E-05
  -11.0900002       4.48387036E-05
  -11.0799999       4.81996722E-05
  -11.0699997       4.56207999E-05
  -11.0600004       3.82306825E-05
  -11.0500002       2.78926564E-05
  -11.0400000       1.67746275E-05
  -11.0299997       6.91246305E-06
  -11.0200005      -1.30098172E-07
  -11.0100002      -3.44146633E-06
  -11.0000000      -2.77265326E-06
  -10.9899998       1.58015916E-06
  -10.9799995       8.94788172E-06
  -10.9700003       1.84401651E-05
  -10.9600000       2.90268836E-05
  -10.9499998       3.95435964E-05
  -10.9399996       4.86594399E-05
  -10.9300003       5.48736207E-05
  -10.9200001       5.66062045E-05
  -10.9099998       5.24178067E-05
  -10.8999996       4.13413545E-05
  -10.8900003       2.32542152E-05
  -10.8800001      -8.19141746E-07
  -10.8699999      -2.85893457E-05
  -10.8599997      -5.66518429E-05
  -10.8500004      -8.09228950E-05
  -10.8400002      -9.73025817E-05
  -10.8299999      -1.02437029E-04
  -10.8199997      -9.44138301E-05
  -10.8100004      -7.32294648E-05
  -10.8000002      -4.09152526E-05
  -10.7900000      -1.28553688E-06
  -10.7799997       4.06426007E-05
  -10.7700005       7.94389271E-05
  -10.7600002       1.10102948E-04
  -10.7500000       1.28806860E-04
  -10.7399998       1.33422742E-04
  -10.7299995       1.23774909E-04
  -10.7200003       1.01614700E-04
  -10.7100000       7.03569604E-05
  -10.6999998       3.46354027E-05
  -10.6899996      -2.66924587E-07
  -10.6800003      -2.90666358E-05
  -10.6700001      -4.71694257E-05
  -10.6599998      -5.13531049E-05
  -10.6499996      -4.03750164E-05
  -10.6400003      -1.54067111E-05
  -10.6300001       1.98189136E-05
  -10.6199999       5.92523174E-05
  -10.6099997       9.52204500E-05
  -10.6000004       1.19540775E-04
  -10.5900002       1.24925471E-04
  -10.5799999       1.06449072E-04
  -10.5699997       6.27944828E-05
  -10.5600004      -3.00587703E-06
  -10.5500002      -8.35461033E-05
  -10.5400000      -1.67822902E-04
  -10.5299997      -2.42735492E-04
  -10.5200005      -2.95079837E-04
  -10.5100002      -3.13699769E-04
  -10.5000000      -2.91418110E-04
  -10.4899998      -2.26410033E-04
  -10.4799995      -1.22784390E-04
  -10.4700003       9.71889040E-06
  -10.4600000       1.56858427E-04
  -10.4499998       3.01668653E-04
  -10.4399996       4.26624028E-04
  -10.4300003       5.15898166E-04
  -10.4200001       5.57432882E-04
  -10.4099998       5.44571143E-04
  -10.3999996       4.77056368E-04
  -10.3900003       3.61266721E-04
  -10.3800001       2.09619451E-04
  -10.3699999       3.91699068E-05
  -10.3599997      -1.30472312E-04
  -10.3500004      -2.79677275E-04
  -10.3400002      -3.91446461E-04
  -10.3299999      -4.53785819E-04
  -10.3199997      -4.61401331E-04
  -10.3100004      -4.16396535E-04
  -10.3000002      -3.27806483E-04
  -10.2900000      -2.10014143E-04
  -10.2799997      -8.03149305E-05
  -10.2700005       4.39262949E-05
  -10.2600002       1.47994186E-04
  -10.2500000       2.21915208E-04
  -10.2399998       2.61563255E-04
  -10.2299995       2.68640026E-04
  -10.2200003       2.49634555E-04
  -10.2100000       2.14069674E-04
  -10.1999998       1.72456770E-04
  -10.1899996       1.34381771E-04
  -10.1800003       1.07047599E-04
  -10.1700001       9.44395288E-05
  -10.1599998       9.71156551E-05
  -10.1499996       1.12502952E-04
  -10.1400003       1.35529626E-04
  -10.1300001       1.59444928E-04
  -10.1199999       1.76740126E-04
  -10.1099997       1.80146002E-04
  -10.1000004       1.63704884E-04
  -10.0900002       1.23878344E-04
  -10.0799999       6.05685491E-05
  -10.0699997      -2.21618993E-05
  -10.0600004      -1.15938223E-04
  -10.0500002      -2.08721773E-04
  -10.0400000      -2.86352646E-04
  -10.0299997      -3.34861223E-04
  -10.0200005      -3.43179214E-04
  -10.0100002      -3.05689988E-04
  -10.0000000      -2.23992276E-04
  -9.98999977      -1.07354696E-04
  -9.97999954       2.83967929E-05
  -9.97000027       1.63449396E-04
  -9.96000004       2.77550687E-04
  -9.94999981       3.53778451E-04
  -9.93999958       3.81692575E-04
  -9.93000031       3.59159138E-04
  -9.92000008       2.92456243E-04
  -9.90999985       1.94693144E-04
  -9.89999962       8.29828132E-05
  -9.89000034      -2.49133900E-05
  -9.88000011      -1.13673290E-04
  -9.86999989      -1.72578351E-04
  -9.85999966      -1.96406807E-04
  -9.85000038      -1.85081983E-04
  -9.84000015      -1.42429082E-04
  -9.82999992      -7.45795987E-05
  -9.81999969       1.14396180E-05
  -9.81000042       1.08566877E-04
  -9.80000019       2.09922568E-04
  -9.78999996       3.08561081E-04
  -9.77999973       3.97115073E-04
  -9.77000046       4.67717851E-04
  -9.76000023       5.12463041E-04
  -9.75000000       5.24432166E-04
  -9.73999977       4.99072892E-04
  -9.72999954       4.35534312E-04
  -9.72000027       3.37522884E-04
  -9.71000004       2.13348612E-04
  -9.69999981       7.50497202E-05
  -9.68999958      -6.32578231E-05
  -9.68000031      -1.87447469E-04
  -9.67000008      -2.85407121E-04
  -9.65999985      -3.48601840E-04
  -9.64999962      -3.72909388E-04
  -9.64000034      -3.58676945E-04
  -9.63000011      -3.10145086E-04
  -9.61999989      -2.34502295E-04
  -9.60999966      -1.40844320E-04
  -9.60000038      -3.92281836E-05
  -9.59000015       6.01204192E-05
  -9.57999992       1.47503204E-04
  -9.56999969       2.14454660E-04
  -9.56000042       2.54524144E-04
  -9.55000019       2.64095579E-04
  -9.53999996       2.43082657E-04
  -9.52999973       1.95257642E-04
  -9.52000046       1.27986408E-04
  -9.51000023       5.12615552E-05
  -9.50000000      -2.38797547E-05
  -9.48999977      -8.72590899E-05
  -9.47999954      -1.31345558E-04
  -9.47000027      -1.52476889E-04
  -9.46000004      -1.51186556E-04
  -9.44999981      -1.31551715E-04
  -9.43999958      -9.97580864E-05
  -9.43000031      -6.23089436E-05
  -9.42000008      -2.44060393E-05
  -9.40999985       1.10363399E-05
  -9.39999962       4.34984031E-05
  -9.39000034       7.41308468E-05
  -9.38000011       1.04521328E-04
  -9.36999989       1.35433656E-04
  -9.35999966       1.65994410E-04
  -9.35000038       1.93628948E-04
  -9.34000015       2.14771877E-04
  -9.32999992       2.26092685E-04
  -9.31999969       2.25786600E-04
  -9.31000042       2.14451313E-04
  -9.30000019       1.95211658E-04
  -9.28999996       1.73017354E-04
  -9.27999973       1.53328787E-04
  -9.27000046       1.40620003E-04
  -9.26000023       1.37188545E-04
  -9.25000000       1.42650533E-04
  -9.23999977       1.54254842E-04
  -9.22999954       1.67864579E-04
  -9.22000027       1.79230643E-04
  -9.21000004       1.85102137E-04
  -9.19999981       1.83809752E-04
  -9.18999958       1.75183435E-04
  -9.18000031       1.59938063E-04
  -9.17000008       1.38873511E-04
  -9.15999985       1.12304893E-04
  -9.14999962       8.00331982E-05
  -9.14000034       4.19255739E-05
  -9.13000011      -1.11063264E-06
  -9.11999989      -4.61932541E-05
  -9.10999966      -8.80565567E-05
  -9.10000038      -1.19513330E-04
  -9.09000015      -1.32834612E-04
  -9.07999992      -1.21741112E-04
  -9.06999969      -8.34238672E-05
  -9.06000042      -1.99206734E-05
  -9.05000019       6.16814432E-05
  -9.03999996       1.50405089E-04
  -9.02999973       2.33657120E-04
  -9.02000046       2.99998821E-04
  -9.01000023       3.41608014E-04
  -9.00000000       3.55711090E-04
  -8.98999977       3.44587868E-04
  -8.97999954       3.14216624E-04
  -8.97000027       2.72071949E-04
  -8.96000004       2.24854011E-04
  -8.94999981       1.76926682E-04
  -8.93999958       1.29959823E-04
  -8.93000031       8.38149281E-05
  -8.92000008       3.82383878E-05
  -8.90999985      -5.39031817E-06
  -8.89999962      -4.30494219E-05
  -8.89000034      -6.83396356E-05
  -8.88000011      -7.40842224E-05
  -8.86999989      -5.48023745E-05
  -8.85999966      -9.21127867E-06
  -8.85000038       5.81853128E-05
  -8.84000015       1.37126641E-04
  -8.82999992       2.13442734E-04
  -8.81999969       2.72314413E-04
  -8.81000042       3.02038505E-04
  -8.80000019       2.97171267E-04
  -8.78999996       2.60067754E-04
  -8.77999973       2.00308379E-04
  -8.77000046       1.32151545E-04
  -8.76000023       7.07631552E-05
  -8.75000000       2.83471982E-05
  -8.73999977       1.13129554E-05
  -8.72999954       1.92622865E-05
  -8.72000027       4.59873190E-05
  -8.71000004       8.20312780E-05
  -8.69999981       1.17897609E-04
  -8.68999958       1.46844337E-04
  -8.68000031       1.66408805E-04
  -8.67000008       1.78290473E-04
  -8.65999985       1.86800738E-04
  -8.64999962       1.96565947E-04
  -8.64000034       2.10382510E-04
  -8.63000011       2.28008095E-04
  -8.61999989       2.46285577E-04
  -8.60999966       2.60484434E-04
  -8.60000038       2.66295305E-04
  -8.59000015       2.61688343E-04
  -8.57999992       2.47917458E-04
  -8.56999969       2.29287514E-04
  -8.56000042       2.11769089E-04
  -8.55000019       2.00974871E-04
  -8.53999996       2.00243085E-04
  -8.52999973       2.09528051E-04
  -8.52000046       2.25496406E-04
  -8.51000023       2.42784066E-04
  -8.50000000       2.55946448E-04
  -8.48999977       2.61387293E-04
  -8.47999954       2.58567859E-04
  -8.47000027       2.50066718E-04
  -8.46000004       2.40481531E-04
  -8.44999981       2.34585314E-04
  -8.43999958       2.35415078E-04
  -8.43000031       2.42991853E-04
  -8.42000008       2.54140468E-04
  -8.40999985       2.63483787E-04
  -8.39999962       2.65270908E-04
  -8.39000034       2.55411927E-04
  -8.38000011       2.33027633E-04
  -8.36999989       2.01000512E-04
  -8.35999966       1.65361140E-04
  -8.35000038       1.33733469E-04
  -8.34000015       1.13357724E-04
  -8.32999992       1.09309716E-04
  -8.31999969       1.23421269E-04
  -8.31000042       1.54129040E-04
  -8.30000019       1.97152534E-04
  -8.28999996       2.46649550E-04
  -8.27999973       2.96401762E-04
  -8.27000046       3.40671366E-04
  -8.26000023       3.74588592E-04
  -8.25000000       3.94178351E-04
  -8.23999977       3.96304618E-04
  -8.22999954       3.78830708E-04
  -8.22000027       3.41152016E-04
  -8.21000004       2.85016198E-04
  -8.19999981       2.15308915E-04
  -8.18999958       1.40359887E-04
  -8.18000031       7.13837071E-05
  -8.17000008       2.09104692E-05
  -8.15999985       4.08241476E-07
  -8.14999962       1.76325648E-05
  -8.14000034       7.44276331E-05
  -8.13000011       1.65666555E-04
  -8.11999989       2.79747415E-04
  -8.10999966       4.00632998E-04
  -8.10000038       5.10969723E-04
  -8.09000015       5.95495221E-04
  -8.07999992       6.43854088E-04
  -8.06999969       6.52122893E-04
  -8.06000042       6.22739724E-04
  -8.05000019       5.63010748E-04
  -8.03999996       4.82773961E-04
  -8.02999973       3.91999056E-04
  -8.02000046       2.99040112E-04
  -8.01000023       2.09958787E-04
  -8.00000000       1.28912114E-04
  -7.98999977       5.92077558E-05
  -7.98000002       4.40278154E-06
  -7.96999979      -3.11585609E-05
  -7.96000004      -4.27182240E-05
  -7.94999981      -2.63435795E-05
  -7.94000006       1.93990873E-05
  -7.92999983       9.20027378E-05
  -7.92000008       1.84467150E-04
  -7.90999985       2.86030496E-04
  -7.90000010       3.84153129E-04
  -7.88999987       4.67270846E-04
  -7.88000011       5.27523283E-04
  -7.86999989       5.62603411E-04
  -7.86000013       5.76099381E-04
  -7.84999990       5.76148217E-04
  -7.84000015       5.72748599E-04
  -7.82999992       5.74517122E-04
  -7.82000017       5.85872156E-04
  -7.80999994       6.05521840E-04
  -7.80000019       6.26747089E-04
  -7.78999996       6.39420701E-04
  -7.78000021       6.33170246E-04
  -7.76999998       6.00737752E-04
  -7.76000023       5.40526758E-04
  -7.75000000       4.57576622E-04
  -7.73999977       3.62681196E-04
  -7.73000002       2.69931159E-04
  -7.71999979       1.93415937E-04
  -7.71000004       1.44046557E-04
  -7.69999981       1.27383391E-04
  -7.69000006       1.43005804E-04
  -7.67999983       1.85469238E-04
  -7.67000008       2.46412441E-04
  -7.65999985       3.17060214E-04
  -7.65000010       3.90308676E-04
  -7.63999987       4.61789226E-04
  -7.63000011       5.29700366E-04
  -7.61999989       5.93640318E-04
  -7.61000013       6.53013994E-04
  -7.59999990       7.05717073E-04
  -7.59000015       7.47673272E-04
  -7.57999992       7.73476611E-04
  -7.57000017       7.77970476E-04
  -7.55999994       7.58235052E-04
  -7.55000019       7.15269009E-04
  -7.53999996       6.54709875E-04
  -7.53000021       5.86222042E-04
  -7.51999998       5.21601876E-04
  -7.51000023       4.72066196E-04
  -7.50000000       4.45476617E-04
  -7.48999977       4.44306177E-04
  -7.48000002       4.64964513E-04
  -7.46999979       4.98716079E-04
  -7.46000004       5.33969258E-04
  -7.44999981       5.59322303E-04
  -7.44000006       5.66538307E-04