  -16.0000000       0.00000000    
  -15.9899998       0.00000000    
  -15.9799995       0.00000000    
  -15.9700003       0.00000000    
  -15.9600000       0.00000000    
  -15.9499998       0.00000000    
  -15.9399996       0.00000000    
  -15.9300003       0.00000000    
  -15.9200001       0.00000000    
  -15.9099998       0.00000000    
  -15.8999996       0.00000000    
  -15.8900003       1.38275228E-39
  -15.8800001       2.38861413E-38
  -15.8699999       3.25337738E-37
  -15.8599997       4.07444967E-36
  -15.8500004       4.09684376E-35
  -15.8400002       3.21363281E-34
  -15.8299999       2.02480794E-33
  -15.8199997       1.06164978E-32
  -15.8100004       4.76978403E-32
  -15.8000002       1.87766344E-31
  -15.7900000       6.58465574E-31
  -15.7799997       2.08214167E-30
  -15.7700005       5.98842676E-30
  -15.7600002       1.57577798E-29
  -15.7500000       3.80698452E-29
  -15.7399998       8.45524051E-29
  -15.7299995       1.72438788E-28
  -15.7200003       3.21559186E-28
  -15.7100000       5.43323134E-28
  -15.6999998       8.16867875E-28
  -15.6899996       1.05079460E-27
  -15.6800003       1.03892471E-27
  -15.6700001       4.36534122E-28
  -15.6599998      -1.19485060E-27
  -15.6499996      -4.21464962E-27
  -15.6400003      -8.56532537E-27
  -15.6300001      -1.33124838E-26
  -15.6199999      -1.62488445E-26
  -15.6099997      -1.39114142E-26
  -15.6000004      -2.43919278E-27
  -15.5900002       2.04606545E-26
  -15.5799999       5.26892956E-26
  -15.5699997       8.51674633E-26
  -15.5600004       1.01410756E-25
  -15.5500002       8.13994137E-26
  -15.5400000       1.07145492E-26
  -15.5299997      -1.06937984E-25
  -15.5200005      -2.39563104E-25
  -15.5100002      -3.27669992E-25
  -15.5000000      -3.03481422E-25
  -15.4899998      -1.28502693E-25
  -15.4799995       1.63919133E-25
  -15.4700003       4.47991396E-25
  -15.4600000       5.37407646E-25
  -15.4499998       2.83480051E-25
  -15.4399996      -2.87209859E-25
  -15.4300003      -8.72745021E-25
  -15.4200001      -9.38926310E-25
  -15.4099998       2.24803449E-26
  -15.3999996       2.06524653E-24
  -15.3900003       4.40628593E-24
  -15.3800001       5.43379974E-24
  -15.3699999       3.39348634E-24
  -15.3599997      -2.30566155E-24
  -15.3500004      -9.80578244E-24
  -15.3400002      -1.46903003E-23
  -15.3299999      -1.21467185E-23
  -15.3199997      -1.39991877E-24
  -15.3100004       9.71269449E-24
  -15.3000002       4.39030045E-24
  -15.2900000      -3.44142021E-23
  -15.2799997      -1.04782419E-22
  -15.2700005      -1.62870318E-22
  -15.2600002      -1.13564391E-22
  -15.2500000       1.61350505E-22
  -15.2399998       7.20595533E-22
  -15.2299995       1.43745007E-21
  -15.2200003       1.88851211E-21
  -15.2100000       1.36262819E-21
  -15.1999998      -8.92675606E-22
  -15.1899996      -5.13545592E-21
  -15.1800003      -1.04178051E-20
  -15.1700001      -1.40470681E-20
  -15.1599998      -1.17677315E-20
  -15.1499996       7.95153668E-22
  -15.1400003       2.52751579E-20
  -15.1300001       5.69507648E-20
  -15.1199999       8.21117185E-20
  -15.1099997       7.89551456E-20
  -15.1000004       2.43947987E-20
  -15.0900002      -9.26487910E-20
  -15.0799999      -2.54507655E-19
  -15.0699997      -4.02103508E-19
  -15.0600004      -4.37198351E-19
  -15.0500002      -2.49623851E-19
  -15.0400000       2.27788222E-19
  -15.0299997       9.48114005E-19
  -15.0200005       1.69229873E-18
  -15.0100002       2.06658234E-18
  -15.0000000       1.59588855E-18
  -14.9899998      -7.24000106E-20
  -14.9799995      -2.89145181E-18
  -14.9700003      -6.16691519E-18
  -14.9600000      -8.49104538E-18
  -14.9499998      -8.01294492E-18
  -14.9399996      -3.11713729E-18
  -14.9300003       6.58808371E-18
  -14.9200001       1.92941019E-17
  -14.9099998       3.05379763E-17
  -14.8999996       3.38184158E-17
  -14.8900003       2.26063498E-17
  -14.8800001      -6.44126329E-18
  -14.8699999      -4.99676382E-17
  -14.8599997      -9.56629084E-17
  -14.8500004      -1.23077739E-16
  -14.8400002      -1.08801673E-16
  -14.8299999      -3.58934016E-17
  -14.8199997       9.46451454E-17
  -14.8100004       2.54680123E-16
  -14.8000002       3.87515191E-16
  -14.7900000       4.18837146E-16
  -14.7799997       2.81228941E-16
  -14.7700005      -5.21869903E-17
  -14.7600002      -5.35678088E-16
  -14.7500000      -1.03543923E-15
  -14.7399998      -1.34532994E-15
  -14.7299995      -1.24127268E-15
  -14.7200003      -5.68218183E-16
  -14.7100000       6.63138071E-16
  -14.6999998       2.20660638E-15
  -14.6899996       3.57834871E-15
  -14.6800003       4.15122758E-15
  -14.6700001       3.34613632E-15
  -14.6599998       8.81308559E-16
  -14.6499996      -2.99753186E-15
  -14.6400003      -7.40395650E-15
  -14.6300001      -1.09010083E-14
  -14.6199999      -1.18319847E-14
  -14.6099997      -8.84937672E-15
  -14.6000004      -1.51149779E-15
  -14.5900002       9.24833178E-15
  -14.5799999       2.09852768E-14
  -14.5699997       3.00823412E-14
  -14.5600004       3.25803498E-14
  -14.5500002       2.53513810E-14
  -14.5400000       7.32448617E-15
  -14.5299997      -1.96000815E-14
  -14.5200005      -5.02789271E-14
  -14.5100002      -7.68901747E-14
  -14.5000000      -9.03287658E-14
  -14.4899998      -8.22271464E-14
  -14.4799995      -4.72574318E-14
  -14.4700003       1.46809394E-14
  -14.4600000       9.67737853E-14
  -14.4499998       1.84478545E-13
  -14.4399996       2.56000272E-13
  -14.4300003       2.84564120E-13
  -14.4200001       2.43022887E-13
  -14.4099998       1.11110699E-13
  -14.3999996      -1.15044638E-13
  -14.3900003      -4.12787507E-13
  -14.3800001      -7.25407310E-13
  -14.3699999      -9.61800951E-13
  -14.3599997      -1.00814192E-12
  -14.3500004      -7.54580318E-13
  -14.3400002      -1.35693757E-13
  -14.3299999       8.22985072E-13
  -14.3199997       1.96689301E-12
  -14.3100004       3.00192184E-12
  -14.3000002       3.52972968E-12
  -14.2900000       3.13845803E-12
  -14.2799997       1.54165938E-12
  -14.2700005      -1.26363102E-12
  -14.2600002      -4.86929073E-12
  -14.2500000      -8.41910916E-12
  -14.2399998      -1.07146575E-11
  -14.2299995      -1.04854380E-11
  -14.2200003      -6.79348505E-12
  -14.2100000       5.17798152E-13
  -14.1999998       1.04710511E-11
  -14.1899996       2.08571875E-11
  -14.1800003       2.85186146E-11
  -14.1700001       3.00510450E-11
  -14.1599998       2.28295126E-11
  -14.1499996       6.12172856E-12
  -14.1400003      -1.80545006E-11
  -14.1300001      -4.46944148E-11
  -14.1199999      -6.64583943E-11
  -14.1099997      -7.52658214E-11
  -14.1000004      -6.45887926E-11
  -14.0900002      -3.19075669E-11
  -14.0799999       1.94083308E-11
  -14.0699997       7.95376195E-11
  -14.0600004       1.33475980E-10
  -14.0500002       1.64194297E-10
  -14.0400000       1.57165683E-10
  -14.0299997       1.05194395E-10
  -14.0200005       1.21529340E-11
  -14.0100002      -1.05725761E-10
  -14.0000000      -2.21882332E-10
  -13.9899998      -3.04836656E-10
  -13.9799995      -3.26006527E-10
  -13.9700003      -2.68091799E-10
  -13.9600000      -1.31701733E-10
  -13.9499998       6.19444773E-11
  -13.9399996       2.73586098E-10
  -13.9300003       4.53751953E-10
  -13.9200001       5.54323532E-10
  -13.9099998       5.41043543E-10
  -13.8999996       4.03609562E-10
  -13.8900003       1.60357505E-10
  -13.8800001      -1.44172924E-10
  -13.8699999      -4.48590026E-10
  -13.8599997      -6.88719026E-10
  -13.8500004      -8.12705181E-10
  -13.8400002      -7.93004329E-10
  -13.8299999      -6.31894370E-10
  -13.8199997      -3.59006019E-10
  -13.8100004      -2.18117798E-11
  -13.8000002       3.27721322E-10
  -13.7900000       6.45774600E-10
  -13.7799997       9.04195163E-10
  -13.7700005       1.09014753E-09
  -13.7600002       1.19800181E-09
  -13.7500000       1.21674493E-09
  -13.7399998       1.11867893E-09
  -13.7299995       8.55972848E-10
  -13.7200003       3.70179304E-10
  -13.7100000      -3.83880400E-10
  -13.6999998      -1.40367284E-09
  -13.6899996      -2.60319322E-09
  -13.6800003      -3.78907750E-09
  -13.6700001      -4.66263383E-09
  -13.6599998      -4.85845764E-09
  -13.6499996      -4.02247791E-09
  -13.6400003      -1.92094163E-09
  -13.6300001       1.44071610E-09
  -13.6199999       5.72081227E-09
  -13.6099997       1.02027649E-08
  -13.6000004       1.38474423E-08
  -13.5900002       1.54542779E-08
  -13.5799999       1.39240157E-08
  -13.5699997       8.58466986E-09
  -13.5600004      -4.88309670E-10
  -13.5500002      -1.22477610E-08
  -13.5400000      -2.46387035E-08
  -13.5299997      -3.48193829E-08
  -13.5200005      -3.96583708E-08
  -13.5100002      -3.64559014E-08
  -13.5000000      -2.37603199E-08
  -13.4899998      -2.08723749E-09
  -13.4799995       2.56784976E-08
  -13.4700003       5.43912435E-08
  -13.4600000       7.73689308E-08
  -13.4499998       8.76988011E-08
  -13.4399996       7.99237867E-08
  -13.4300003       5.17568708E-08
  -13.4200001       5.37955192E-09
  -13.4099998      -5.21101882E-08
  -13.3999996      -1.09405171E-07
  -13.3900003      -1.52914964E-07
  -13.3800001      -1.69664574E-07
  -13.3699999      -1.50613218E-07
  -13.3599997      -9.36219564E-08
  -13.3500004      -5.24441690E-09
  -13.3400002       9.93301938E-08
  -13.3299999       1.98491307E-07
  -13.3199997       2.68384071E-07
  -13.3100004       2.88316784E-07
  -13.3000002       2.46234151E-07
  -13.2900000       1.42896923E-07
  -13.2799997      -6.46524922E-09
  -13.2700005      -1.73795087E-07
  -13.2600002      -3.23185816E-07
  -13.2500000      -4.18405335E-07
  -13.2399998      -4.31437229E-07
  -13.2299995      -3.50069286E-07
  -13.2200003      -1.82564051E-07
  -13.2100000       4.20536175E-08
  -13.1999998       2.78635270E-07
  -13.1899996       4.74863100E-07
  -13.1800003       5.82790619E-07
  -13.1700001       5.70440307E-07
  -13.1599998       4.30680188E-07
  -13.1499996       1.85011530E-07
  -13.1400003      -1.19074542E-07
  -13.1300001      -4.17073153E-07
  -13.1199999      -6.41145846E-07
  -13.1099997      -7.35620063E-07
  -13.1000004      -6.70769850E-07
  -13.0900002      -4.51493293E-07
  -13.0799999      -1.18476180E-07
  -13.0699997       2.58943828E-07
  -13.0600004       5.97081339E-07
  -13.0500002       8.16467832E-07
  -13.0400000       8.60571561E-07
  -13.0299997       7.10271081E-07
  -13.0200005       3.90411856E-07
  -13.0100002      -3.35754144E-08
  -13.0000000      -4.68786851E-07
  -12.9899998      -8.15160661E-07
  -12.9799995      -9.88608349E-07
  -12.9700003      -9.41641304E-07
  -12.9600000      -6.76443278E-07
  -12.9499998      -2.46834503E-07
  -12.9399996       2.52001314E-07
  -12.9300003       7.04297577E-07
  -12.9200001       1.00063687E-06
  -12.9099998       1.06492269E-06
  -12.8999996       8.74860007E-07
  -12.8900003       4.70541181E-07
  -12.8800001      -5.17784606E-08
  -12.8699999      -5.60253511E-07
  -12.8599997      -9.18405078E-07
  -12.8500004      -1.01967703E-06
  -12.8400002      -8.17403702E-07
  -12.8299999      -3.42443968E-07
  -12.8199997       2.96931404E-07
  -12.8100004       9.34501543E-07
  -12.8000002       1.38200312E-06
  -12.7900000       1.47438539E-06
  -12.7799997       1.11443956E-06
  -12.7700005       3.06059889E-07
  -12.7600002      -8.32931391E-07
  -12.7500000      -2.08351548E-06
  -12.7399998      -3.16340288E-06
  -12.7299995      -3.78391314E-06
  -12.7200003      -3.71460419E-06
  -12.7100000      -2.84163502E-06
  -12.6999998      -1.20601624E-06
  -12.6899996       9.88737611E-07
  -12.6800003       3.40394604E-06
  -12.6700001       5.62485457E-06
  -12.6599998       7.24067195E-06
  -12.6499996       7.92900755E-06
  -12.6400003       7.52578353E-06
  -12.6300001       6.06354024E-06
  -12.6199999       3.76712683E-06
  -12.6099997       1.00502848E-06
  -12.6000004      -1.79480628E-06
  -12.5900002      -4.24631571E-06
  -12.5799999      -6.09954805E-06
  -12.5699997      -7.30289457E-06
  -12.5600004      -8.01400802E-06
  -12.5500002      -8.55113194E-06
  -12.5400000      -9.29093312E-06
  -12.5299997      -1.05335112E-05
  -12.5200005      -1.23663249E-05
  -12.5100002      -1.45632439E-05
  -12.5000000      -1.65507608E-05
  -12.4899998      -1.74607412E-05
  -12.4799995      -1.62699926E-05
  -12.4700003      -1.20055920E-05
  -12.4600000      -3.97621898E-06
  -12.4499998       8.02117756E-06
  -12.4399996       2.35698317E-05
  -12.4300003       4.16147159E-05
  -12.4200001       6.05724708E-05
  -12.4099998       7.85565571E-05
  -12.3999996       9.36771685E-05
  -12.3900003       1.04355749E-04
  -12.3800001       1.09587345E-04
  -12.3699999       1.09093147E-04
  -12.3599997       1.03328486E-04
  -12.3500004       9.33443735E-05
  -12.3400002       8.05343225E-05
  -12.3299999       6.63256433E-05
  -12.3199997       5.18879970E-05
  -12.3100004       3.79276353E-05
  -12.3000002       2.46149921E-05
  -12.2900000       1.16597557E-05
  -12.2799997      -1.48916922E-06
  -12.2700005      -1.53731798E-05
  -12.2600002      -3.02550634E-05
  -12.2500000      -4.59233779E-05
  -12.2399998      -6.16230609E-05
  -12.2299995      -7.61327465E-05
  -12.2200003      -8.79719883E-05
  -12.2100000      -9.56884251E-05
  -12.1999998      -9.81553821E-05
  -12.1899996      -9.48084926E-05
  -12.1800003      -8.57664854E-05
  -12.1700001      -7.18114024E-05
  -12.1599998      -5.42388261E-05
  -12.1499996      -3.46198249E-05
  -12.1400003      -1.45355489E-05
  -12.1300001       4.65241283E-06
  -12.1199999       2.19471531E-05
  -12.1099997       3.67542598E-05
  -12.1000004       4.88199148E-05
  -12.0900002       5.81027198E-05
  -12.0799999       6.46271656E-05
  -12.0699997       6.83668404E-05
  -12.0600004       6.91918758E-05
  -12.0500002       6.68926295E-05
  -12.0400000       6.12679578E-05
  -12.0299997       5.22475093E-05
  -12.0200005       4.00093195E-05
  -12.0100002       2.50574958E-05
  -12.0000000       8.23816572E-06
  -11.9899998      -9.31010163E-06
  -11.9799995      -2.62582525E-05
  -11.9700003      -4.12174049E-05
  -11.9600000      -5.28726596E-05
  -11.9499998      -6.01007778E-05
  -11.9399996      -6.20633073E-05
  -11.9300003      -5.82771754E-05
  -11.9200001      -4.86704193E-05
  -11.9099998      -3.36290468E-05
  -11.8999996      -1.40327838E-05
  -11.8900003       8.73385852E-06
  -11.8800001       3.28175774E-05
  -11.8699999       5.60031949E-05
  -11.8599997       7.59061295E-05
  -11.8500004       9.02458269E-05
  -11.8400002       9.71703193E-05
  -11.8299999       9.55783762E-05
  -11.8199997       8.53710153E-05
  -11.8100004       6.75654228E-05
  -11.8000002       4.42236815E-05
  -11.7900000       1.81839532E-05
  -11.7799997      -7.37413575E-06
  -11.7700005      -2.94562342E-05
  -11.7600002      -4.57694587E-05
  -11.7500000      -5.51181074E-05
  -11.7399998      -5.75874255E-05
  -11.7299995      -5.44656868E-05
  -11.7200003      -4.79111950E-05
  -11.7100000      -4.04293642E-05
  -11.6999998      -3.42718013E-05
  -11.6899996      -3.08921626E-05
  -11.6800003      -3.05864050E-05
  -11.6700001      -3.24076282E-05
  -11.6599998      -3.43855900E-05
  -11.6499996      -3.40115366E-05
  -11.6400003      -2.88852934E-05
  -11.6300001      -1.73792796E-05
  -11.6199999       8.36415893E-07
  -11.6099997       2.45388383E-05
  -11.6000004       5.10416176E-05
  -11.5900002       7.66279263E-05
  -11.5799999       9.72470225E-05
  -11.5699997       1.09330402E-04
  -11.5600004       1.10550092E-04
  -11.5500002       1.00346915E-04
  -11.5400000       8.01023052E-05
  -11.5299997       5.29033568E-05
  -11.5200005       2.29415400E-05
  -11.5100002      -5.32914964E-06
  -11.5000000      -2.80905060E-05
  -11.4899998      -4.29125175E-05
  -11.4799995      -4.91867650E-05
  -11.4700003      -4.81385396E-05
  -11.4600000      -4.24125101E-05
  -11.4499998      -3.53282703E-05
  -11.4399996      -2.99828589E-05
  -11.4300003      -2.84175167E-05
  -11.4200001      -3.10542782E-05
  -11.4099998      -3.65457163E-05
  -11.3999996      -4.20822907E-05
  -11.3900003      -4.40899021E-05
  -11.3800001      -3.91531321E-05
  -11.3699999      -2.49414152E-05
  -11.3599997      -9.11924360E-07
  -11.3500004       3.13846467E-05
  -11.3400002       6.84732513E-05
  -11.3299999       1.05561208E-04
  -11.3199997       1.37439973E-04
  -11.3100004       1.59470699E-04
  -11.3000002       1.68428494E-04
  -11.2900000       1.63022545E-04
  -11.2799997       1.43997240E-04
  -11.2700005       1.13827336E-04
  -11.2600002       7.61188639E-05
  -11.2500000       3.48916692E-05
  -11.2399998      -6.06931781E-06
  -11.2299995      -4.36478113E-05
  -11.2200003      -7.55488218E-05
  -11.2100000      -1.00197729E-04
  -11.1999998      -1.16491654E-04
  -11.1899996      -1.23548409E-04
  -11.1800003      -1.20586606E-04
  -11.1700001      -1.07012682E-04
  -11.1599998      -8.27047916E-05
  -11.1499996      -4.83989461E-05
  -11.1400003      -6.02697901E-06
  -11.1300001       4.11502078E-05
  -11.1199999       8.87231072E-05
  -11.1099997       1.31647743E-04
  -11.1000004       1.65009755E-04
  -11.0900002       1.84868870E-04
  -11.0799999       1.88974518E-04
  -11.0699997       1.77165246E-04
  -11.0600004       1.51343949E-04
  -11.0500002       1.15035895E-04
  -11.0400000       7.26521466E-05
  -11.0299997       2.86616996E-05
  -11.0200005      -1.31046463E-05
  -11.0100002      -4.98452318E-05
  -11.0000000      -7.98038600E-05
  -10.9899998      -1.01968304E-04
  -10.9799995      -1.15615228E-04
  -10.9700003      -1.19918812E-04
  -10.9600000      -1.13817921E-04
  -10.9499998      -9.62442937E-05
  -10.9399996      -6.66786436E-05
  -10.9300003      -2.58659202E-05
  -10.9200001       2.35682528E-05
  -10.9099998       7.68679383E-05
  -10.8999996       1.27453022E-04
  -10.8900003       1.67820530E-04
  -10.8800001       1.90901803E-04
  -10.8699999       1.91582483E-04
  -10.8599997       1.68010534E-04
  -10.8500004       1.22338010E-04
  -10.8400002       6.06618669E-05
  -10.8299999      -7.88008310E-06
  -10.8199997      -7.26944345E-05
  -10.8100004      -1.23664344E-04
  -10.8000002      -1.53009460E-04
  -10.7900000      -1.56675247E-04
  -10.7799997      -1.34970338E-04
  -10.7700005      -9.23507105E-05
  -10.7600002      -3.64399893E-05
  -10.7500000       2.34698382E-05
  -10.7399998       7.81115523E-05
  -10.7299995       1.19802826E-04
  -10.7200003       1.43615689E-04
  -10.7100000       1.48005245E-04
  -10.6999998       1.34860180E-04
  -10.6899996       1.09027926E-04
  -10.6800003       7.74222935E-05
  -10.6700001       4.78471848E-05
  -10.6599998       2.76785104E-05
  -10.6499996       2.25558033E-05
  -10.6400003       3.52502539E-05
  -10.6300001       6.48923015E-05
  -10.6199999       1.06741027E-04
  -10.6099997       1.52637775E-04
  -10.6000004       1.92194188E-04
  -10.5900002       2.14622924E-04
  -10.5799999       2.10953585E-04
  -10.5699997       1.76229340E-04
  -10.5600004       1.11200621E-04
  -10.5500002       2.30607184E-05
  -10.5400000      -7.50841718E-05
  -10.5299997      -1.66066995E-04
  -10.5200005      -2.31592479E-04
  -10.5100002      -2.55733787E-04
  -10.5000000      -2.28297708E-04
  -10.4899998      -1.47335377E-04
  -10.4799995      -2.02133360E-05
  -10.4700003       1.37059469E-04
  -10.4600000       3.02193861E-04
  -10.4499998       4.50260559E-04
  -10.4399996       5.57926076E-04
  -10.4300003       6.07477676E-04
  -10.4200001       5.89874224E-04
  -10.4099998       5.06261189E-04
  -10.3999996       3.67692468E-04
  -10.3900003       1.93147513E-04
  -10.3800001       6.24438871E-06
  -10.3699999      -1.68727667E-04
  -10.3599997      -3.10733245E-04
  -10.3500004      -4.05185128E-04
  -10.3400002      -4.45873360E-04
  -10.3299999      -4.35335765E-04
  -10.3199997      -3.83662700E-04
  -10.3100004      -3.06011905E-04
  -10.3000002      -2.19343798E-04
  -10.2900000      -1.39030220E-04
  -10.2799997      -7.60131297E-05
  -10.2700005      -3.50787705E-05
  -10.2600002      -1.45834938E-05
  -10.2500000      -7.65494860E-06
  -10.2399998      -4.56022735E-06
  -10.2299995       4.34374306E-06
  -10.2200003       2.58126511E-05
  -10.2100000       6.17810947E-05
  -10.1999998       1.08798486E-04
  -10.1899996       1.58993353E-04
  -10.1800003       2.02320691E-04
  -10.1700001       2.29490586E-04
  -10.1599998       2.34770501E-04
  -10.1499996       2.17862122E-04
  -10.1400003       1.84289092E-04
  -10.1300001       1.44133883E-04
  -10.1199999       1.09426554E-04
  -10.1099997       9.08805305E-05
  -10.1000004       9.48780144E-05
  -10.0900002       1.21561134E-04
  -10.0799999       1.64593614E-04
  -10.0699997       2.12697254E-04
  -10.0600004       2.52569560E-04
  -10.0500002       2.72397709E-04
  -10.0400000       2.65010167E-04
  -10.0299997       2.29806057E-04
  -10.0200005       1.72940956E-04
  -10.0100002       1.05731167E-04
  -10.0000000       4.17244919E-05
  -9.98999977      -6.76247782E-06
  -9.97999954      -3.17189188E-05
  -9.97000027      -3.13400051E-05
  -9.96000004      -1.03106813E-05
  -9.94999981       2.15244872E-05
  -9.93999958       5.16854379E-05
  -9.93000031       6.80805606E-05
  -9.92000008       6.17694677E-05
  -9.90999985       2.88439714E-05
  -9.89999962      -2.89060008E-05
  -9.89000034      -1.04538034E-04
  -9.88000011      -1.87425976E-04
  -9.86999989      -2.65204144E-04
  -9.85999966      -3.25729750E-04
  -9.85000038      -3.58722929E-04
  -9.84000015      -3.56922712E-04
  -9.82999992      -3.16764374E-04
  -9.81999969      -2.38680950E-04
  -9.81000042      -1.27137901E-04
  -9.80000019       9.55922860E-06
  -9.78999996       1.59737450E-04
  -9.77999973       3.09223018E-04
  -9.77000046       4.42696502E-04
  -9.76000023       5.45521500E-04
  -9.75000000       6.05862355E-04
  -9.73999977       6.16734498E-04
  -9.72999954       5.77528786E-04
  -9.72000027       4.94569133E-04
  -9.71000004       3.80427780E-04
  -9.69999981       2.51994701E-04
  -9.68999958       1.27615145E-04
  -9.68000031       2.38763660E-05
  -9.67000008      -4.72463398E-05
  -9.65999985      -8.02265640E-05
  -9.64999962      -7.63874777E-05
  -9.64000034      -4.28081003E-05
  -9.63000011       9.93549293E-06
  -9.61999989       7.05636921E-05
  -9.60999966       1.29663385E-04
  -9.60000038       1.81364740E-04
  -9.59000015       2.23734300E-04
  -9.57999992       2.57885084E-04
  -9.56999969       2.86190363E-04
  -9.56000042       3.10253672E-04
  -9.55000019       3.29351577E-04
  -9.53999996       3.39904451E-04
  -9.52999973       3.36197409E-04
  -9.52000046       3.12162592E-04
  -9.51000023       2.63677211E-04
  -9.50000000       1.90638748E-04
  -9.48999977       9.81129633E-05
  -9.47999954      -3.89404886E-06
  -9.47000027      -1.02086080E-04
  -9.46000004      -1.82567674E-04
  -9.44999981      -2.33870276E-04
  -9.43999958      -2.49489618E-04
  -9.43000031      -2.29234414E-04
  -9.42000008      -1.79016861E-04
  -9.40999985      -1.09156150E-04
  -9.39999962      -3.16821570E-05
  -9.39000034       4.26035513E-05
  -9.38000011       1.06505955E-04
  -9.36999989       1.57638307E-04
  -9.35999966       1.98189649E-04
  -9.35000038       2.33418454E-04
  -9.34000015       2.69385055E-04
  -9.32999992       3.10619216E-04
  -9.31999969       3.58392455E-04
  -9.31000042       4.10042499E-04
  -9.30000019       4.59465693E-04
  -9.28999996       4.98554145E-04
  -9.27999973       5.19109133E-04
  -9.27000046       5.14679763E-04
  -9.26000023       4.81862109E-04
  -9.25000000       4.20803233E-04
  -9.23999977       3.34913784E-04
  -9.22999954       2.30010104E-04
  -9.22000027       1.13225855E-04
  -9.21000004      -7.97316534E-06
  -9.19999981      -1.26446743E-04
  -9.18999958      -2.35648564E-04
  -9.18000031      -3.29593866E-04
  -9.17000008      -4.02709993E-04
  -9.15999985      -4.49766521E-04
  -9.14999962      -4.66024125E-04
  -9.14000034      -4.47642553E-04
  -9.13000011      -3.92290065E-04
  -9.11999989      -2.99823849E-04
  -9.10999966      -1.72884567E-04
  -9.10000038      -1.72569908E-05
  -9.09000015       1.58115814E-04
  -9.07999992       3.41534644E-04
  -9.06999969       5.19383757E-04
  -9.06000042       6.77375996E-04
  -9.05000019       8.02103139E-04
  -9.03999996       8.82712367E-04
  -9.02999973       9.12450370E-04
  -9.02000046       8.89768067E-04
  -9.01000023       8.18693487E-04
  -9.00000000       7.08284555E-04
  -8.98999977       5.71164128E-04
  -8.97999954       4.21378500E-04
  -8.97000027       2.72038742E-04
  -8.96000004       1.33325069E-04
  -8.94999981       1.13894512E-05
  -8.93999958      -9.15284327E-05
  -8.93000031      -1.75811918E-04
  -8.92000008      -2.42429654E-04
  -8.90999985      -2.90860102E-04
  -8.89999962      -3.17762897E-04
  -8.89000034      -3.16990569E-04
  -8.88000011      -2.81112210E-04
  -8.86999989      -2.04091572E-04
  -8.85999966      -8.42971131E-05
  -8.85000038       7.32014014E-05
  -8.84000015       2.55978550E-04
  -8.82999992       4.45714599E-04
  -8.81999969       6.21578714E-04
  -8.81000042       7.64675846E-04
  -8.80000019       8.62267625E-04
  -8.78999996       9.10449249E-04
  -8.77999973       9.14378732E-04
  -8.77000046       8.85908783E-04
  -8.76000023       8.39322340E-04
  -8.75000000       7.86534045E-04
  -8.73999977       7.33356283E-04
  -8.72999954       6.78125478E-04
  -8.72000027       6.13217941E-04
  -8.71000004       5.29000186E-04
  -8.69999981       4.18873562E-04
  -8.68999958       2.83615809E-04
  -8.68000031       1.33368609E-04
  -8.67000008      -1.36488052E-05
  -8.65999985      -1.35522554E-04
  -8.64999962      -2.12847837E-04
  -8.64000034      -2.34756793E-04
  -8.63000011      -2.02703304E-04
  -8.61999989      -1.30574597E-04
  -8.60999966      -4.08581946E-05
  -8.60000038       4.20940560E-05
  -8.59000015       9.96372546E-05
  -8.57999992       1.24797589E-04
  -8.56999969       1.24610000E-04
  -8.56000042       1.17925163E-04
  -8.55000019       1.29235952E-04
  -8.53999996       1.80391973E-04
  -8.52999973       2.82809662E-04
  -8.52000046       4.32688248E-04
  -8.51000023       6.10821240E-04
  -8.50000000       7.87142257E-04
  -8.48999977       9.28634836E-04
  -8.47999954       1.00816553E-03
  -8.47000027       1.01152249E-03
  -8.46000004       9.40552156E-04
  -8.44999981       8.11574922E-04
  -8.43999958       6.49791444E-04
  -8.43000031       4.81663388E-04
  -8.42000008       3.27830930E-04
  -8.40999985       1.98838345E-04
  -8.39999962       9.48854868E-05
  -8.39000034       9.38387711E-06
  -8.38000011      -6.52343442E-05
  -8.36999989      -1.31765424E-04
  -8.35999966      -1.84788805E-04
  -8.35000038      -2.10917293E-04
  -8.34000015      -1.92783802E-04
  -8.32999992      -1.15441144E-04
  -8.31999969       2.70557193E-05
  -8.31000042       2.27248645E-04
  -8.30000019       4.63734206E-04
  -8.28999996       7.04896054E-04
  -8.27999973       9.15911573E-04
  -8.27000046       1.06694910E-03
  -8.26000023       1.14008854E-03
  -8.25000000       1.13291887E-03
  -8.23999977       1.05785520E-03
  -8.22999954       9.37580946E-04
  -8.22000027       7.98206369E-04
  -8.21000004       6.62358420E-04
  -8.19999981       5.44287788E-04
  -8.18999958       4.48284554E-04
  -8.18000031       3.70521622E-04
  -8.17000008       3.03314795E-04
  -8.15999985       2.40075751E-04
  -8.14999962       1.79154798E-04
  -8.14000034       1.25305174E-04
  -8.13000011       8.84314577E-05
  -8.11999989       8.02560389E-05
  -8.10999966       1.10214329E-04
  -8.10000038       1.82055301E-04
  -8.09000015       2.92256096E-04
  -8.07999992       4.30639338E-04
  -8.06999969       5.82787674E-04
  -8.06000042       7.33280496E-04
  -8.05000019       8.68614297E-04
  -8.03999996       9.78942611E-04
  -8.02999973       1.05833565E-03
  -8.02000046       1.10387325E-03
  -8.01000023       1.11430511E-03
  -8.00000000       1.08908501E-03
  -7.98999977       1.02830667E-03
  -7.98000002       9.33579169E-04
  -7.96999979       8.09380144E-04
  -7.96000004       6.64147490E-04
  -7.94999981       5.10411395E-04
  -7.94000006       3.63618252E-04
  -7.92999983       2.39813191E-04
  -7.92000008       1.52806344E-04
  -7.90999985       1.11677997E-04
  -7.90000010       1.19374454E-04
  -7.88999987       1.72762273E-04
  -7.88000011       2.63994822E-04
  -7.86999989       3.82606580E-04
  -7.86000013       5.17564535E-04
  -7.84999990       6.58634584E-04
  -7.84000015       7.96804496E-04
  -7.82999992       9.23963846E-04
  -7.82000017       1.03238458E-03
  -7.80999994       1.11461454E-03
  -7.80000019       1.16415881E-03
  -7.78999996       1.17688137E-03
  -7.78000021       1.15259388E-03
  -7.76999998       1.09605736E-03
  -7.76000023       1.01670111E-03
  -7.75000000       9.26796347E-04
  -7.73999977       8.38434440E-04
  -7.73000002       7.60233263E-04
  -7.71999979       6.94956980E-04
  -7.71000004       6.39058067E-04
  -7.69999981       5.84547990E-04
  -7.69000006       5.22757473E-04
  -7.67999983       4.48786537E-04
  -7.67000008       3.65049404E-04
  -7.65999985       2.82485795E-04
  -7.65000010       2.18718356E-04
  -7.63999987       1.93474058E-04
  -7.63000011       2.22593764E-04
  -7.61999989       3.12560762E-04
  -7.61000013       4.57440794E-04
  -7.59999990       6.39419712E-04
  -7.59000015       8.32969963E-04
  -7.57999992       1.01144996E-03
  -7.57000017       1.15408318E-03
  -7.55999994       1.25107379E-03
  -7.55000019       1.30519690E-03
  -7.53999996       1.32934947E-03
  -7.53000021       1.34090462E-03
  -7.51999998       1.35478494E-03
  -7.51000023       1.37760863E-03
  -7.50000000       1.40490208E-03
  -7.48999977       1.42233551E-03
  -7.48000002       1.41057803E-03
  -7.46999979       1.35215605E-03
  -7.46000004       1.23803725E-03
  -7.44999981       1.07177906E-03
  -7.44000006       8.69916286E-04