  -16.0000000       0.00000000    
  -15.9899998       0.00000000    
  -15.9799995       0.00000000    
  -15.9700003       0.00000000    
  -15.9600000       0.00000000    
  -15.9499998       0.00000000    
  -15.9399996       0.00000000    
  -15.9300003       0.00000000    
  -15.9200001       0.00000000    
  -15.9099998       0.00000000    
  -15.8999996       0.00000000    
  -15.8900003       0.00000000    
  -15.8800001      -1.40129846E-45
  -15.8699999      -1.26116862E-44
  -15.8599997      -6.16571324E-44
  -15.8500004      -6.58610278E-44
  -15.8400002       9.90718014E-43
  -15.8299999       7.33299486E-42
  -15.8199997       3.01503378E-41
  -15.8100004       1.03522325E-40
  -15.8000002       4.22450849E-40
  -15.7900000       2.13293601E-39
  -15.7799997       1.04061349E-38
  -15.7700005       4.30867076E-38
  -15.7600002       1.47989797E-37
  -15.7500000       4.22465030E-37
  -15.7399998       9.98009340E-37
  -15.7299995       1.89470099E-36
  -15.7200003       2.59580509E-36
  -15.7100000       1.25086421E-36
  -15.6999998      -6.22147174E-36
  -15.6899996      -2.60384253E-35
  -15.6800003      -6.33146799E-35
  -15.6700001      -1.13294444E-34
  -15.6599998      -1.47324041E-34
  -15.6499996      -1.01488934E-34
  -15.6400003       1.12204770E-34
  -15.6300001       5.43708060E-34
  -15.6199999       1.07569956E-33
  -15.6099997       1.26554677E-33
  -15.6000004       2.99679910E-34
  -15.5900002      -2.68867260E-33
  -15.5799999      -7.68802399E-33
  -15.5699997      -1.23003156E-32
  -15.5600004      -1.03952418E-32
  -15.5500002       7.34464372E-33
  -15.5400000       4.86078963E-32
  -15.5299997       1.08838176E-31
  -15.5200005       1.56918246E-31
  -15.5100002       1.25922035E-31
  -15.5000000      -7.49242937E-32
  -15.4899998      -5.08928116E-31
  -15.4799995      -1.11533076E-30
  -15.4700003      -1.59488835E-30
  -15.4600000      -1.35621429E-30
  -15.4499998       3.52929648E-31
  -15.4399996       4.01117417E-30
  -15.4300003       9.08086426E-30
  -15.4200001       1.32022769E-29
  -15.4099998       1.19072364E-29
  -15.3999996      -3.15312371E-31
  -15.3900003      -2.69021508E-29
  -15.3800001      -6.41717209E-29
  -15.3699999      -9.60953459E-29
  -15.3599997      -9.26373808E-29
  -15.3500004      -1.67233477E-29
  -15.3400002       1.56179437E-28
  -15.3299999       4.06949671E-28
  -15.3199997       6.40581633E-28
  -15.3100004       6.74431296E-28
  -15.3000002       2.75488606E-28
  -15.2900000      -7.30749388E-28
  -15.2799997      -2.28417506E-27
  -15.2700005      -3.90009827E-27
  -15.2600002      -4.57748866E-27
  -15.2500000      -2.95616900E-27
  -15.2399998       2.14993794E-27
  -15.2299995       1.08416513E-26
  -15.2200003       2.10784543E-26
  -15.2100000       2.80016902E-26
  -15.1999998       2.43781239E-26
  -15.1899996       2.85415673E-27
  -15.1800003      -3.97918574E-26
  -15.1700001      -9.72342495E-26
  -15.1599998      -1.49207124E-25
  -15.1499996      -1.61480752E-25
  -15.1400003      -9.37111104E-26
  -15.1300001       8.30228956E-26
  -15.1199999       3.61164632E-25
  -15.1099997       6.72043178E-25
  -15.1000004       8.75308918E-25
  -15.0900002       7.78628738E-25
  -15.0799999       1.99562728E-25
  -15.0699997      -9.32025354E-25
  -15.0600004      -2.45492981E-24
  -15.0500002      -3.89018827E-24
  -15.0400000      -4.45408814E-24
  -15.0299997      -3.23296932E-24
  -15.0200005       4.56397547E-25
  -15.0100002       6.57295591E-24
  -15.0000000       1.38759056E-23
  -14.9899998       1.97095951E-23
  -14.9799995       2.03214861E-23
  -14.9700003       1.19051101E-23
  -14.9600000      -7.66068032E-24
  -14.9499998      -3.67493629E-23
  -14.9399996      -6.83518692E-23
  -14.9300003      -8.98796877E-23
  -14.9200001      -8.53645571E-23
  -14.9099998      -4.05013463E-23
  -14.8999996       5.00343801E-23
  -14.8900003       1.74894880E-22
  -14.8800001       3.01150263E-22
  -14.8699999       3.75876596E-22
  -14.8599997       3.37214207E-22
  -14.8500004       1.35438241E-22
  -14.8400002      -2.39379779E-22
  -14.8299999      -7.31175508E-22
  -14.8199997      -1.20485561E-21
  -14.8100004      -1.45878956E-21
  -14.8000002      -1.27104793E-21
  -14.7900000      -4.78000029E-22
  -14.7799997       9.29980523E-22
  -14.7700005       2.72541976E-21
  -14.7600002       4.41261921E-21
  -14.7500000       5.28627340E-21
  -14.7399998       4.60044091E-21
  -14.7299995       1.83494913E-21
  -14.7200003      -2.99745576E-21
  -14.7100000      -9.10183986E-21
  -14.6999998      -1.48312401E-20
  -14.6899996      -1.79039673E-20
  -14.6800003      -1.59556161E-20
  -14.6700001      -7.36829871E-21
  -14.6599998       7.80782970E-21
  -14.6499996       2.71388395E-20
  -14.6400003       4.56448246E-20
  -14.6300001       5.64818503E-20
  -14.6199999       5.25712183E-20
  -14.6099997       2.89816880E-20
  -14.6000004      -1.44753958E-20
  -14.5900002      -7.12660042E-20
  -14.5799999      -1.27695490E-19
  -14.5699997      -1.64757330E-19
  -14.5600004      -1.62494629E-19
  -14.5500002      -1.06321240E-19
  -14.5400000       6.12039861E-21
  -14.5299997       1.59680910E-19
  -14.5200005       3.20318170E-19
  -14.5100002       4.39423053E-19
  -14.5000000       4.64383228E-19
  -14.4899998       3.54030510E-19
  -14.4799995       9.55795307E-20
  -14.4700003      -2.81911761E-19
  -14.4600000      -7.02961504E-19
  -14.4499998      -1.05418482E-18
  -14.4399996      -1.20724467E-18
  -14.4300003      -1.05338690E-18
  -14.4200001      -5.42265747E-19
  -14.4099998       2.85667109E-19
  -14.3999996       1.28486357E-18
  -14.3900003       2.21781226E-18
  -14.3800001       2.79900611E-18
  -14.3699999       2.76473436E-18
  -14.3599997       1.95467576E-18
  -14.3500004       3.84368342E-19
  -14.3400002      -1.71484891E-18
  -14.3299999      -3.90745315E-18
  -14.3199997      -5.62557552E-18
  -14.3100004      -6.29402431E-18
  -14.3000002      -5.48502141E-18
  -14.2900000      -3.06567962E-18
  -14.2799997       7.03673500E-19
  -14.2700005       5.15697729E-18
  -14.2600002       9.31488336E-18
  -14.2500000       1.20766384E-17
  -14.2399998       1.24777979E-17
  -14.2299995       9.95737853E-18
  -14.2200003       4.56655852E-18
  -14.2100000      -2.94219934E-18
  -14.1999998      -1.11861272E-17
  -14.1899996      -1.83859850E-17
  -14.1800003      -2.27261388E-17
  -14.1700001      -2.27694219E-17
  -14.1599998      -1.78336864E-17
  -14.1499996      -8.23903737E-18
  -14.1400003       4.64298132E-18
  -14.1300001       1.85645220E-17
  -14.1199999       3.07809556E-17
  -14.1099997       3.85660354E-17
  -14.1000004       3.97652422E-17
  -14.0900002       3.32778599E-17
  -14.0799999       1.93706807E-17
  -14.0699997      -2.42674552E-19
  -14.0600004      -2.25806378E-17
  -14.0500002      -4.38117634E-17
  -14.0400000      -5.98551134E-17
  -14.0299997      -6.70760626E-17
  -14.0200005      -6.29776342E-17
  -14.0100002      -4.67785426E-17
  -14.0000000      -1.97757279E-17
  -13.9899998       1.46000108E-17
  -13.9799995       5.10906153E-17
  -13.9700003       8.32997611E-17
  -13.9600000       1.04709399E-16
  -13.9499998       1.09903729E-16
  -13.9399996       9.57944831E-17
  -13.9300003       6.25959664E-17
  -13.9200001       1.42794766E-17
  -13.9099998      -4.16946873E-17
  -13.8999996      -9.54571721E-17
  -13.8900003      -1.36519437E-16
  -13.8800001      -1.55970278E-16
  -13.8699999      -1.48619104E-16
  -13.8599997      -1.14536430E-16
  -13.8500004      -5.95099805E-17
  -13.8400002       5.85945298E-18
  -13.8299999       6.83811287E-17
  -13.8199997       1.15394567E-16
  -13.8100004       1.38052606E-16
  -13.8000002       1.33870077E-16
  -13.7900000       1.07710609E-16
  -13.7799997       7.07197337E-17
  -13.7700005       3.72230846E-17
  -13.7600002       2.02392104E-17
  -13.7500000       2.67595509E-17
  -13.7399998       5.42257059E-17
  -13.7299995       8.95176447E-17
  -13.7200003       1.11245257E-16
  -13.7100000       9.52798974E-17
  -13.6999998       2.24916712E-17
  -13.6899996      -1.13210625E-16
  -13.6800003      -2.98884443E-16
  -13.6700001      -5.00813365E-16
  -13.6599998      -6.68447485E-16
  -13.6499996      -7.44088427E-16
  -13.6400003      -6.76837347E-16
  -13.6300001      -4.37835698E-16
  -13.6199999      -3.29883235E-17
  -13.6099997       4.90665593E-16
  -13.6000004       1.04770035E-15
  -13.5900002       1.52707144E-15
  -13.5799999       1.81327795E-15
  -13.5699997       1.81201290E-15
  -13.5600004       1.47462899E-15
  -13.5500002       8.15326016E-16
  -13.5400000      -8.39931767E-17
  -13.5299997      -1.08380364E-15
  -13.5200005      -2.01117470E-15
  -13.5100002      -2.69370114E-15
  -13.5000000      -2.99588354E-15
  -13.4899998      -2.84942519E-15
  -13.4799995      -2.26968556E-15
  -13.4700003      -1.35339930E-15
  -13.4600000      -2.57160262E-16
  -13.4499998       8.38733771E-16
  -13.4399996       1.77243995E-15
  -13.4300003       2.43764986E-15
  -13.4200001       2.80513638E-15
  -13.4099998       2.92176773E-15
  -13.3999996       2.88579721E-15
  -13.3900003       2.80406107E-15
  -13.3800001       2.74277485E-15
  -13.3699999       2.68700323E-15
  -13.3599997       2.52352206E-15
  -13.3500004       2.05701379E-15
  -13.3400002       1.06119909E-15
  -13.3299999      -6.43345929E-16
  -13.3199997      -3.10270307E-15
  -13.3100004      -6.15790242E-15
  -13.3000002      -9.41215727E-15
  -13.2900000      -1.22552894E-14
  -13.2799997      -1.39513145E-14
  -13.2700005      -1.37803977E-14
  -13.2600002      -1.12105802E-14
  -13.2500000      -6.06349679E-15
  -13.2399998       1.36651190E-15
  -13.2299995       1.02751703E-14
  -13.2200003       1.94142052E-14
  -13.2100000       2.72613217E-14
  -13.1999998       3.22709998E-14
  -13.1899996       3.31634778E-14
  -13.1800003       2.91950539E-14
  -13.1700001       2.03531463E-14
  -13.1599998       7.42953350E-15
  -13.1499996      -8.05109729E-15
  -13.1400003      -2.40418833E-14
  -13.1300001      -3.82887522E-14
  -13.1199999      -4.86917398E-14
  -13.1099997      -5.36437214E-14
  -13.1000004      -5.22818009E-14
  -13.0900002      -4.46043654E-14
  -13.0799999      -3.14367401E-14
  -13.0699997      -1.42608771E-14
  -13.0600004       5.04738463E-15
  -13.0500002       2.45106483E-14
  -13.0400000       4.23076830E-14
  -13.0299997       5.69464587E-14
  -13.0200005       6.73286906E-14
  -13.0100002       7.27150612E-14
  -13.0000000       7.26301411E-14
  -12.9899998       6.67635570E-14
  -12.9799995       5.49251433E-14
  -12.9700003       3.70937378E-14
  -12.9600000       1.35671791E-14
  -12.9499998      -1.48191480E-14
  -12.9399996      -4.64716495E-14
  -12.9300003      -7.89014646E-14
  -12.9200001      -1.08754978E-13
  -12.9099998      -1.32066572E-13
  -12.8999996      -1.44739201E-13
  -12.8900003      -1.43201193E-13
  -12.8800001      -1.25130863E-13
  -12.8699999      -9.01054201E-14
  -12.8599997      -4.00240516E-14
  -12.8500004       2.08181911E-14
  -12.8400002       8.60672211E-14
  -12.8299999       1.48042155E-13
  -12.8199997       1.98764114E-13
  -12.8100004       2.31115826E-13
  -12.8000002       2.39933941E-13
  -12.7900000       2.22836574E-13
  -12.7799997       1.80641011E-13
  -12.7700005       1.17296824E-13
  -12.7600002       3.93576095E-14
  -12.7500000      -4.49065630E-14
  -12.7399998      -1.26591148E-13
  -12.7299995      -1.97245811E-13
  -12.7200003      -2.49801590E-13
  -12.7100000      -2.79220115E-13
  -12.6999998      -2.82819422E-13
  -12.6899996      -2.60303904E-13
  -12.6800003      -2.13578436E-13
  -12.6700001      -1.46449503E-13
  -12.6599998      -6.43056843E-14
  -12.6499996       2.61742244E-14
  -12.6400003       1.17289479E-13
  -12.6300001       2.00620214E-13
  -12.6199999       2.67450016E-13
  -12.6099997       3.09387010E-13
  -12.6000004       3.19218095E-13
  -12.5900002       2.91956617E-13
  -12.5799999       2.25957396E-13
  -12.5699997       1.23896065E-13
  -12.5600004      -6.62593514E-15
  -12.5500002      -1.53077502E-13
  -12.5400000      -2.98752207E-13
  -12.5299997      -4.24310950E-13
  -12.5200005      -5.09996505E-13
  -12.5100002      -5.38254879E-13
  -12.5000000      -4.96382286E-13
  -12.4899998      -3.78773781E-13
  -12.4799995      -1.88388435E-13
  -12.4700003       6.28415099E-14
  -12.4600000       3.54748051E-13
  -12.4499998       6.60698655E-13
  -12.4399996       9.50100242E-13
  -12.4300003       1.19120653E-12
  -12.4200001       1.35376855E-12
  -12.4099998       1.41111894E-12
  -12.3999996       1.34145754E-12
  -12.3900003       1.12829006E-12
  -12.3800001       7.60194100E-13
  -12.3699999       2.30268414E-13
  -12.3599997      -4.64361351E-13
  -12.3500004      -1.32258126E-12
  -12.3400002      -2.33866464E-12
  -12.3299999      -3.50102629E-12
  -12.3199997      -4.79057939E-12
  -12.3100004      -6.17918477E-12
  -12.3000002      -7.62869629E-12
  -12.2900000      -9.09113410E-12
  -12.2799997      -1.05103079E-11
  -12.2700005      -1.18248805E-11
  -12.2600002      -1.29725475E-11
  -12.2500000      -1.38947534E-11
  -12.2399998      -1.45411599E-11
  -12.2299995      -1.48730091E-11
  -12.2200003      -1.48648316E-11
  -12.2100000      -1.45042294E-11
  -12.1999998      -1.37897506E-11
  -12.1899996      -1.27274935E-11
  -12.1800003      -1.13273280E-11
  -12.1700001      -9.59954772E-12
  -12.1599998      -7.55280474E-12
  -12.1499996      -5.19390173E-12
  -12.1400003      -2.52954298E-12
  -12.1300001       4.30594525E-13
  -12.1199999       3.67002435E-12
  -12.1099997       7.16211552E-12
  -12.1000004       1.08680747E-11
  -12.0900002       1.47370900E-11
  -12.0799999       1.87088001E-11
  -12.0699997       2.27177426E-11
  -12.0600004       2.66990232E-11
  -12.0500002       3.05939059E-11
  -12.0400000       3.43542070E-11
  -12.0299997       3.79442588E-11
  -12.0200005       4.13400494E-11
  -12.0100002       4.45255603E-11
  -12.0000000       4.74867506E-11
  -11.9899998       5.02048125E-11
  -11.9799995       5.26497214E-11
  -11.9700003       5.47757013E-11
  -11.9600000       5.65196431E-11
  -11.9499998       5.78028875E-11
  -11.9399996       5.85362522E-11
  -11.9300003       5.86274362E-11
  -11.9200001       5.79893841E-11
  -11.9099998       5.65482314E-11
  -11.8999996       5.42498303E-11
  -11.8900003       5.10632439E-11
  -11.8800001       4.69814777E-11
  -11.8699999       4.20196725E-11
  -11.8599997       3.62111521E-11
  -11.8500004       2.96028688E-11
  -11.8400002       2.22511506E-11
  -11.8299999       1.42188674E-11
  -11.8199997       5.57416786E-12
  -11.8100004      -3.60882006E-12
  -11.8000002      -1.32484050E-11
  -11.7900000      -2.32531737E-11
  -11.7799997      -3.35207070E-11
  -11.7700005      -4.39377770E-11
  -11.7600002      -5.43826477E-11
  -11.7500000      -6.47292220E-11
  -11.7399998      -7.48532139E-11
  -11.7299995      -8.46384629E-11
  -11.7200003      -9.39830089E-11
  -11.7100000      -1.02803724E-10
  -11.6999998      -1.11038380E-10
  -11.6899996      -1.18644927E-10
  -11.6800003      -1.25598101E-10
  -11.6700001      -1.31884018E-10
  -11.6599998      -1.37493655E-10
  -11.6499996      -1.42415968E-10
  -11.6400003      -1.46632637E-10
  -11.6300001      -1.50114504E-10
  -11.6199999      -1.52819674E-10
  -11.6099997      -1.54695035E-10
  -11.6000004      -1.55678498E-10
  -11.5900002      -1.55702451E-10
  -11.5799999      -1.54698088E-10
  -11.5699997      -1.52597934E-10
  -11.5600004      -1.49338056E-10
  -11.5500002      -1.44859832E-10
  -11.5400000      -1.39109099E-10
  -11.5299997      -1.32036063E-10
  -11.5200005      -1.23595231E-10
  -11.5100002      -1.13745943E-10
  -11.5000000      -1.02453795E-10
  -11.4899998      -8.96947239E-11
  -11.4799995      -7.54583826E-11
  -11.4700003      -5.97532718E-11
  -11.4600000      -4.26109599E-11
  -11.4499998      -2.40897614E-11
  -11.4399996      -4.27605173E-12
  -11.4300003       1.67166662E-11
  -11.4200001       3.87505063E-11
  -11.4099998       6.16684551E-11
  -11.3999996       8.53008636E-11
  -11.3900003       1.09472771E-10
  -11.3800001       1.34010747E-10
  -11.3699999       1.58750083E-10
  -11.3599997       1.83540308E-10
  -11.3500004       2.08249751E-10
  -11.3400002       2.32768957E-10
  -11.3299999       2.57013605E-10
  -11.3199997       2.80926477E-10
  -11.3100004       3.04478415E-10
  -11.3000002       3.27668420E-10
  -11.2900000       3.50521723E-10
  -11.2799997       3.73086978E-10
  -11.2700005       3.95430938E-10
  -11.2600002       4.17631346E-10
  -11.2500000       4.39768971E-10
  -11.2399998       4.61917532E-10
  -11.2299995       4.84136453E-10
  -11.2200003       5.06462872E-10
  -11.2100000       5.28908028E-10
  -11.1999998       5.51453494E-10
  -11.1899996       5.74053360E-10
  -11.1800003       5.96638572E-10
  -11.1700001       6.19118146E-10
  -11.1599998       6.41389275E-10
  -11.1499996       6.63341548E-10
  -11.1400003       6.84863610E-10
  -11.1300001       7.05847158E-10
  -11.1199999       7.26193883E-10
  -11.1099997       7.45817408E-10
  -11.1000004       7.64647179E-10
  -11.0900002       7.82632847E-10
  -11.0799999       7.99742939E-10
  -11.0699997       8.15968459E-10
  -11.0600004       8.31321512E-10
  -11.0500002       8.45831405E-10
  -11.0400000       8.59544602E-10
  -11.0299997       8.72518724E-10
  -11.0200005       8.84821771E-10
  -11.0100002       8.96526076E-10
  -11.0000000       9.07710573E-10
  -10.9899998       9.18453646E-10
  -10.9799995       9.28838950E-10
  -10.9700003       9.38953582E-10
  -10.9600000       9.48891743E-10
  -10.9499998       9.58744195E-10
  -10.9399996       9.68604086E-10
  -10.9300003       9.78560677E-10
  -10.9200001       9.88689353E-10
  -10.9099998       9.99049177E-10
  -10.8999996       1.00967146E-09
  -10.8900003       1.02055853E-09
  -10.8800001       1.03167630E-09
  -10.8699999       1.04295739E-09
  -10.8599997       1.05429776E-09
  -10.8500004       1.06556752E-09
  -10.8400002       1.07661569E-09
  -10.8299999       1.08728182E-09
  -10.8199997       1.09740328E-09
  -10.8100004       1.10682852E-09
  -10.8000002       1.11542264E-09
  -10.7900000       1.12307408E-09
  -10.7799997       1.12969145E-09
  -10.7700005       1.13521448E-09
  -10.7600002       1.13959753E-09
  -10.7500000       1.14280996E-09
  -10.7399998       1.14483178E-09
  -10.7299995       1.14564980E-09
  -10.7200003       1.14525700E-09
  -10.7100000       1.14365029E-09
  -10.6999998       1.14083376E-09
  -10.6899996       1.13683152E-09
  -10.6800003       1.13168586E-09
  -10.6700001       1.12546050E-09
  -10.6599998       1.11824960E-09
  -10.6499996       1.11016363E-09
  -10.6400003       1.10134235E-09
  -10.6300001       1.09192733E-09
  -10.6199999       1.08207221E-09
  -10.6099997       1.07191922E-09
  -10.6000004       1.06161124E-09
  -10.5900002       1.05126641E-09
  -10.5799999       1.04099007E-09
  -10.5699997       1.03087372E-09
  -10.5600004       1.02099107E-09
  -10.5500002       1.01139486E-09
  -10.5400000       1.00212905E-09
  -10.5299997       9.93226057E-10
  -10.5200005       9.84706428E-10
  -10.5100002       9.76581704E-10
  -10.5000000       9.68864766E-10
  -10.4899998       9.61562940E-10
  -10.4799995       9.54690660E-10
  -10.4700003       9.48257917E-10
  -10.4600000       9.42286249E-10
  -10.4499998       9.36796640E-10
  -10.4399996       9.31803967E-10
  -10.4300003       9.27322608E-10
  -10.4200001       9.23362165E-10
  -10.4099998       9.19924470E-10
  -10.3999996       9.17006693E-10
  -10.3900003       9.14595122E-10
  -10.3800001       9.12677267E-10
  -10.3699999       9.11237863E-10
  -10.3599997       9.10253317E-10
  -10.3500004       9.09701259E-10
  -10.3400002       9.09550213E-10
  -10.3299999       9.09765319E-10
  -10.3199997       9.10304443E-10
  -10.3100004       9.11121123E-10
  -10.3000002       9.12160680E-10
  -10.2900000       9.13381315E-10
  -10.2799997       9.14745113E-10
  -10.2700005       9.16223430E-10
  -10.2600002       9.17799614E-10
  -10.2500000       9.19468224E-10
  -10.2399998       9.21223431E-10
  -10.2299995       9.23057020E-10
  -10.2200003       9.24960053E-10
  -10.2100000       9.26910881E-10
  -10.1999998       9.28877697E-10
  -10.1899996       9.30824140E-10
  -10.1800003       9.32717570E-10
  -10.1700001       9.34531230E-10
  -10.1599998       9.36254185E-10
  -10.1499996       9.37896205E-10
  -10.1400003       9.39491929E-10
  -10.1300001       9.41089873E-10
  -10.1199999       9.42767198E-10
  -10.1099997       9.44621381E-10
  -10.1000004       9.46768330E-10
  -10.0900002       9.49337942E-10
  -10.0799999       9.52473211E-10
  -10.0699997       9.56324353E-10
  -10.0600004       9.61038360E-10
  -10.0500002       9.66745461E-10
  -10.0400000       9.73554459E-10
  -10.0299997       9.81529524E-10
  -10.0200005       9.90683202E-10
  -10.0100002       1.00098185E-09
  -10.0000000       1.01234288E-09
  -9.98999977       1.02464681E-09
  -9.97999954       1.03776343E-09
  -9.97000027       1.05156350E-09
  -9.96000004       1.06594522E-09
  -9.94999981       1.08085396E-09
  -9.93999958       1.09628162E-09
  -9.93000031       1.11226051E-09
  -9.92000008       1.12887821E-09
  -9.90999985       1.14624332E-09
  -9.89999962       1.16447552E-09
  -9.89000034       1.18370025E-09
  -9.88000011       1.20403088E-09
  -9.86999989       1.22556498E-09
  -9.85999966       1.24838595E-09
  -9.85000038       1.27255217E-09
  -9.84000015       1.29811295E-09
  -9.82999992       1.32509848E-09
  -9.81999969       1.35351863E-09
  -9.81000042       1.38337131E-09
  -9.80000019       1.41463163E-09
  -9.78999996       1.44725842E-09
  -9.77999973       1.48120294E-09
  -9.77000046       1.51640644E-09
  -9.76000023       1.55280777E-09
  -9.75000000       1.59035296E-09
  -9.73999977       1.62900260E-09
  -9.72999954       1.66872027E-09
  -9.72000027       1.70947645E-09
  -9.71000004       1.75123527E-09
  -9.69999981       1.79394544E-09
  -9.68999958       1.83754145E-09
  -9.68000031       1.88192040E-09
  -9.67000008       1.92696392E-09
  -9.65999985       1.97253636E-09
  -9.64999962       2.01848871E-09
  -9.64000034       2.06468198E-09
  -9.63000011       2.11099715E-09
  -9.61999989       2.15732476E-09
  -9.60999966       2.20358087E-09
  -9.60000038       2.24970331E-09
  -9.59000015       2.29562924E-09
  -9.57999992       2.34129582E-09
  -9.56999969       2.38663422E-09
  -9.56000042       2.43156340E-09
  -9.55000019       2.47599408E-09
  -9.53999996       2.51983856E-09
  -9.52999973       2.56301358E-09
  -9.52000046       2.60547450E-09
  -9.51000023       2.64720357E-09
  -9.50000000       2.68823297E-09
  -9.48999977       2.72865064E-09
  -9.47999954       2.76858469E-09
  -9.47000027       2.80820744E-09
  -9.46000004       2.84772539E-09
  -9.44999981       2.88734658E-09
  -9.43999958       2.92727642E-09
  -9.43000031       2.96770031E-09
  -9.42000008       3.00876835E-09
  -9.40999985       3.05057224E-09
  -9.39999962       3.09315795E-09
  -9.39000034       3.13652104E-09
  -9.38000011       3.18061355E-09
  -9.36999989       3.22536509E-09
  -9.35999966       3.27068284E-09
  -9.35000038       3.31649042E-09
  -9.34000015       3.36272077E-09
  -9.32999992       3.40932127E-09
  -9.31999969       3.45625106E-09
  -9.31000042       3.50347173E-09
  -9.30000019       3.55090668E-09
  -9.28999996       3.59843333E-09
  -9.27999973       3.64587049E-09
  -9.27000046       3.69295239E-09
  -9.26000023       3.73935372E-09
  -9.25000000       3.78470055E-09
  -9.23999977       3.82860277E-09
  -9.22999954       3.87067223E-09
  -9.22000027       3.91055188E-09
  -9.21000004       3.94794819E-09
  -9.19999981       3.98262312E-09
  -9.18999958       4.01440570E-09
  -9.18000031       4.04317824E-09
  -9.17000008       4.06889278E-09
  -9.15999985       4.09153333E-09
  -9.14999962       4.11113055E-09
  -9.14000034       4.12776391E-09
  -9.13000011       4.14155288E-09
  -9.11999989       4.15265999E-09
  -9.10999966       4.16129931E-09
  -9.10000038       4.16770796E-09
  -9.09000015       4.17215862E-09
  -9.07999992       4.17493862E-09
  -9.06999969       4.17634904E-09
  -9.06000042       4.17671764E-09
  -9.05000019       4.17636858E-09
  -9.03999996       4.17567225E-09
  -9.02999973       4.17502966E-09
  -9.02000046       4.17488089E-09
  -9.01000023       4.17569801E-09
  -9.00000000       4.17798240E-09
  -8.98999977       4.18222212E-09
  -8.97999954       4.18890744E-09
  -8.97000027       4.19848911E-09
  -8.96000004       4.21138147E-09
  -8.94999981       4.22795843E-09
  -8.93999958       4.24856994E-09
  -8.93000031       4.27356861E-09
  -8.92000008       4.30327995E-09
  -8.90999985       4.33805170E-09
  -8.89999962       4.37820979E-09
  -8.89000034       4.42406645E-09
  -8.88000011       4.47589210E-09
  -8.86999989       4.53390836E-09
  -8.85999966       4.59828131E-09
  -8.85000038       4.66914774E-09
  -8.84000015       4.74661288E-09
  -8.82999992       4.83078466E-09
  -8.81999969       4.92181007E-09
  -8.81000042       5.01984587E-09
  -8.80000019       5.12509146E-09
  -8.78999996       5.23771337E-09
  -8.77999973       5.35785416E-09
  -8.77000046       5.48559020E-09
  -8.76000023       5.62087576E-09
  -8.75000000       5.76358516E-09
  -8.73999977       5.91349547E-09
  -8.72999954       6.07030071E-09
  -8.72000027       6.23368557E-09
  -8.71000004       6.40333786E-09
  -8.69999981       6.57897337E-09
  -8.68999958       6.76036604E-09
  -8.68000031       6.94729474E-09
  -8.67000008       7.13954007E-09
  -8.65999985       7.33692040E-09
  -8.64999962       7.53918350E-09
  -8.64000034       7.74609799E-09
  -8.63000011       7.95740984E-09
  -8.61999989       8.17290324E-09
  -8.60999966       8.39237568E-09
  -8.60000038       8.61568328E-09
  -8.59000015       8.84273277E-09
  -8.57999992       9.07345044E-09
  -8.56999969       9.30777855E-09
  -8.56000042       9.54560786E-09
  -8.55000019       9.78681225E-09
  -8.53999996       1.00311839E-08
  -8.52999973       1.02784874E-08
  -8.52000046       1.05284030E-08
  -8.51000023       1.07806484E-08
  -8.50000000       1.10349054E-08
  -8.48999977       1.12908944E-08
  -8.47999954       1.15483640E-08
  -8.47000027       1.18070878E-08
  -8.46000004       1.20668497E-08
  -8.44999981       1.23273907E-08
  -8.43999958       1.25884920E-08
  -8.43000031       1.28498376E-08
  -8.42000008       1.31111451E-08
  -8.40999985       1.33720555E-08
  -8.39999962       1.36322260E-08
  -8.39000034       1.38912606E-08
  -8.38000011       1.41487702E-08
  -8.36999989       1.44043639E-08
  -8.35999966       1.46576138E-08
  -8.35000038       1.49080819E-08
  -8.34000015       1.51553436E-08
  -8.32999992       1.53988946E-08
  -8.31999969       1.56382924E-08
  -8.31000042       1.58729829E-08
  -8.30000019       1.61024705E-08
  -8.28999996       1.63261902E-08
  -8.27999973       1.65435683E-08
  -8.27000046       1.67540133E-08
  -8.26000023       1.69569656E-08
  -8.25000000       1.71518533E-08
  -8.23999977       1.73381949E-08
  -8.22999954       1.75155268E-08
  -8.22000027       1.76834742E-08
  -8.21000004       1.78417725E-08
  -8.19999981       1.79902280E-08
  -8.18999958       1.81286950E-08
  -8.18000031       1.82571327E-08
  -8.17000008       1.83754771E-08
  -8.15999985       1.84837710E-08
  -8.14999962       1.85820745E-08
  -8.14000034       1.86704341E-08
  -8.13000011       1.87489881E-08
  -8.11999989       1.88178841E-08
  -8.10999966       1.88772447E-08
  -8.10000038       1.89272384E-08
  -8.09000015       1.89679898E-08
  -8.07999992       1.89996268E-08
  -8.06999969       1.90222114E-08
  -8.06000042       1.90357703E-08
  -8.05000019       1.90403195E-08
  -8.03999996       1.90359994E-08
  -8.02999973       1.90228953E-08
  -8.02000046       1.90013036E-08
  -8.01000023       1.89716030E-08
  -8.00000000       1.89342959E-08
  -7.98999977       1.88900149E-08
  -7.98000002       1.88394171E-08
  -7.96999979       1.87832150E-08
  -7.96000004       1.87221740E-08
  -7.94999981       1.86570492E-08
  -7.94000006       1.85885849E-08
  -7.92999983       1.85175502E-08
  -7.92000008       1.84446964E-08
  -7.90999985       1.83708977E-08
  -7.90000010       1.82969870E-08
  -7.88999987       1.82237994E-08
  -7.88000011       1.81522637E-08
  -7.86999989       1.80831545E-08
  -7.86000013       1.80173210E-08
  -7.84999990       1.79555144E-08
  -7.84000015       1.78984809E-08
  -7.82999992       1.78469470E-08
  -7.82000017       1.78016624E-08
  -7.80999994       1.77633499E-08
  -7.80000019       1.77327770E-08
  -7.78999996       1.77106987E-08
  -7.78000021       1.76978645E-08
  -7.76999998       1.76949353E-08
  -7.76000023       1.77025807E-08
  -7.75000000       1.77213035E-08
  -7.73999977       1.77515727E-08
  -7.73000002       1.77937061E-08
  -7.71999979       1.78480413E-08
  -7.71000004       1.79147310E-08
  -7.69999981       1.79939015E-08
  -7.69000006       1.80856592E-08
  -7.67999983       1.81899544E-08
  -7.67000008       1.83066735E-08
  -7.65999985       1.84357027E-08
  -7.65000010       1.85768005E-08
  -7.63999987       1.87297733E-08
  -7.63000011       1.88943297E-08
  -7.61999989       1.90702369E-08
  -7.61000013       1.92572571E-08
  -7.59999990       1.94551149E-08
  -7.59000015       1.96637071E-08
  -7.57999992       1.98828438E-08
  -7.57000017       2.01123385E-08
  -7.55999994       2.03520454E-08
  -7.55000019       2.06017994E-08
  -7.53999996       2.08614939E-08
  -7.53000021       2.11310454E-08
  -7.51999998       2.14102442E-08
  -7.51000023       2.16990479E-08
  -7.50000000       2.19974012E-08
  -7.48999977       2.23051497E-08
  -7.48000002       2.26221299E-08
  -7.46999979       2.29482211E-08
  -7.46000004       2.32831390E-08
  -7.44999981       2.36265727E-08
  -7.44000006       2.39780107E-08