  -16.0000000       0.00000000    
  -15.9899998       0.00000000    
  -15.9799995       0.00000000    
  -15.9700003       0.00000000    
  -15.9600000       0.00000000    
  -15.9499998       0.00000000    
  -15.9399996       0.00000000    
  -15.9300003       0.00000000    
  -15.9200001       0.00000000    
  -15.9099998       0.00000000    
  -15.8999996      -1.06407178E-39
  -15.8900003      -5.62773402E-38
  -15.8800001      -1.46571506E-36
  -15.8699999      -2.13631921E-35
  -15.8599997      -2.08608187E-34
  -15.8500004      -1.52333452E-33
  -15.8400002      -8.89925263E-33
  -15.8299999      -4.34535563E-32
  -15.8199997      -1.82697495E-31
  -15.8100004      -6.75313041E-31
  -15.8000002      -2.22698439E-30
  -15.7900000      -6.61935652E-30
  -15.7799997      -1.78546841E-29
  -15.7700005      -4.38744084E-29
  -15.7600002      -9.83251996E-29
  -15.7500000      -2.00544437E-28
  -15.7399998      -3.69872101E-28
  -15.7299995      -6.08385140E-28
  -15.7200003      -8.66558601E-28
  -15.7100000      -9.93201976E-28
  -15.6999998      -6.88304684E-28
  -15.6899996       4.95299348E-28
  -15.6800003       3.02972700E-27
  -15.6700001       7.10036753E-27
  -15.6599998       1.21047316E-26
  -15.6499996       1.61217331E-26
  -15.6400003       1.57327060E-26
  -15.6300001       6.73441156E-27
  -15.6199999      -1.38363537E-26
  -15.6099997      -4.45618527E-26
  -15.6000004      -7.66997748E-26
  -15.5900002      -9.39321208E-26
  -15.5799999      -7.75669487E-26
  -15.5699997      -1.80931935E-26
  -15.5600004       7.05710467E-26
  -15.5500002       1.43804055E-25
  -15.5400000       1.39242935E-25
  -15.5299997       1.87303251E-26
  -15.5200005      -1.68986603E-25
  -15.5100002      -2.40305077E-25
  -15.5000000       9.66856337E-26
  -15.4899998       1.08408658E-24
  -15.4799995       2.62158082E-24
  -15.4700003       3.94735821E-24
  -15.4600000       3.53223593E-24
  -15.4499998      -5.07153795E-25
  -15.4399996      -9.28197091E-24
  -15.4300003      -2.14614027E-23
  -15.4200001      -3.17923472E-23
  -15.4099998      -3.10573844E-23
  -15.3999996      -8.77668657E-24
  -15.3900003       4.08518530E-23
  -15.3800001       1.11070984E-22
  -15.3699999       1.76325899E-22
  -15.3599997       1.92876971E-22
  -15.3500004       1.10911937E-22
  -15.3400002      -1.01016674E-22
  -15.3299999      -4.25147863E-22
  -15.3199997      -7.70456540E-22
  -15.3100004      -9.72331120E-22
  -15.3000002      -8.29171571E-22
  -15.2900000      -1.76540823E-22
  -15.2799997       1.01831638E-21
  -15.2700005       2.57368281E-21
  -15.2600002       4.05731727E-21
  -15.2500000       4.81936347E-21
  -15.2399998       4.09510828E-21
  -15.2299995       1.16582393E-21
  -15.2200003      -4.42134661E-21
  -15.2100000      -1.25379724E-20
  -15.1999998      -2.20066959E-20
  -15.1899996      -2.99900147E-20
  -15.1800003      -3.14594171E-20
  -15.1700001      -1.93209422E-20
  -15.1599998       1.39039820E-20
  -15.1499996       7.19877774E-20
  -15.1400003       1.48459274E-19
  -15.1300001       2.19389340E-19
  -15.1199999       2.39735398E-19
  -15.1099997       1.49461520E-19
  -15.1000004      -1.04738469E-19
  -15.0900002      -5.30998461E-19
  -15.0799999      -1.04578925E-18
  -15.0699997      -1.44093632E-18
  -15.0600004      -1.39606146E-18
  -15.0500002      -5.67552503E-19
  -15.0400000       1.23529147E-18
  -15.0299997       3.81945437E-18
  -15.0200005       6.41268751E-18
  -15.0100002       7.64176251E-18
  -15.0000000       5.82774715E-18
  -14.9899998      -3.31829164E-19
  -14.9799995      -1.07893129E-17
  -14.9700003      -2.32054255E-17
  -14.9600000      -3.25710638E-17
  -14.9499998      -3.19821311E-17
  -14.9399996      -1.49364830E-17
  -14.9300003       2.10411785E-17
  -14.9200001       7.04652532E-17
  -14.9099998       1.17480373E-16
  -14.8999996       1.37185562E-16
  -14.8900003       1.02364660E-16
  -14.8800001      -4.41968722E-18
  -14.8699999      -1.76140766E-16
  -14.8599997      -3.69760745E-16
  -14.8500004      -5.05387925E-16
  -14.8400002      -4.82862567E-16
  -14.8299999      -2.17871499E-16
  -14.8199997       3.08560338E-16
  -14.8100004       1.00324499E-15
  -14.8000002       1.64036941E-15
  -14.7900000       1.89166111E-15
  -14.7799997       1.42088866E-15
  -14.7700005       3.38479130E-17
  -14.7600002      -2.15530244E-15
  -14.7500000      -4.60845681E-15
  -14.7399998      -6.37752070E-15
  -14.7299995      -6.30865989E-15
  -14.7200003      -3.44334140E-15
  -14.7100000       2.46121686E-15
  -14.6999998       1.04600734E-14
  -14.6899996       1.82255198E-14
  -14.6800003       2.23476175E-14
  -14.6700001       1.92405821E-14
  -14.6599998       6.55984073E-15
  -14.6499996      -1.52243534E-14
  -14.6400003      -4.16776429E-14
  -14.6300001      -6.43439430E-14
  -14.6199999      -7.22958748E-14
  -14.6099997      -5.53828664E-14
  -14.6000004      -8.62144100E-15
  -14.5900002       6.35212979E-14
  -14.5799999       1.44684761E-13
  -14.5699997       2.07745550E-13
  -14.5600004       2.20577313E-13
  -14.5500002       1.56139587E-13
  -14.5400000       4.82297045E-15
  -14.5299997      -2.14694297E-13
  -14.5200005      -4.50720895E-13
  -14.5100002      -6.24108295E-13
  -14.5000000      -6.46027719E-13
  -14.4899998      -4.46177654E-13
  -14.4799995      -5.20365077E-15
  -14.4700003       6.18659366E-13
  -14.4600000       1.28026181E-12
  -14.4499998       1.76510054E-12
  -14.4399996       1.83734451E-12
  -14.4300003       1.31266504E-12
  -14.4200001       1.39795348E-13
  -14.4099998      -1.53365634E-12
  -14.3999996      -3.33860608E-12
  -14.3900003      -4.72737821E-12
  -14.3800001      -5.09022165E-12
  -14.3699999      -3.93228722E-12
  -14.3599997      -1.07408624E-12
  -14.3500004       3.18108604E-12
  -14.3400002       7.97695764E-12
  -14.3299999       1.19855671E-11
  -14.3199997       1.36642650E-11
  -14.3100004       1.16657222E-11
  -14.3000002       5.32379566E-12
  -14.2900000      -4.90994788E-12
  -14.2799997      -1.72291226E-11
  -14.2700005      -2.85723667E-11
  -14.2600002      -3.51393289E-11
  -14.2500000      -3.33015733E-11
  -14.2399998      -2.07610387E-11
  -14.2299995       2.31358747E-12
  -14.2200003       3.25227623E-11
  -14.2100000       6.31957542E-11
  -14.1999998       8.53212084E-11
  -14.1899996       8.94837746E-11
  -14.1800003       6.85498533E-11
  -14.1700001       2.05363435E-11
  -14.1599998      -4.91411946E-11
  -14.1499996      -1.26915561E-10
  -14.1400003      -1.92512811E-10
  -14.1300001      -2.22856192E-10
  -14.1199999      -1.98028607E-10
  -14.1099997      -1.08145236E-10
  -14.1000004       4.06459415E-11
  -14.0900002       2.23102301E-10
  -14.0799999       3.96570915E-10
  -14.0699997       5.08338094E-10
  -14.0600004       5.08123599E-10
  -14.0500002       3.63493874E-10
  -14.0400000       7.44439024E-11
  -14.0299997      -3.17428805E-10
  -14.0200005      -7.29399541E-10
  -14.0100002      -1.05026876E-09
  -14.0000000      -1.16476873E-09
  -13.9899998      -9.85677207E-10
  -13.9799995      -4.86225116E-10
  -13.9700003       2.76628775E-10
  -13.9600000       1.15719556E-09
  -13.9499998       1.94036254E-09
  -13.9399996       2.38557507E-09
  -13.9300003       2.28870967E-09
  -13.9200001       1.54820823E-09
  -13.9099998       2.17411075E-10
  -13.8999996      -1.47507662E-09
  -13.8900003      -3.14997828E-09
  -13.8800001      -4.34975878E-09
  -13.8699999      -4.64858019E-09
  -13.8599997      -3.77658615E-09
  -13.8500004      -1.72639458E-09
  -13.8400002       1.19174592E-09
  -13.8299999       4.37181535E-09
  -13.8199997       7.01977054E-09
  -13.8100004       8.33357827E-09
  -13.8000002       7.71906539E-09
  -13.7900000       4.98846697E-09
  -13.7799997       4.83798945E-10
  -13.7700005      -4.92207430E-09
  -13.7600002      -9.96808414E-09
  -13.7500000      -1.32766909E-08
  -13.7399998      -1.37021363E-08
  -13.7299995      -1.06731308E-08
  -13.7200003      -4.43625581E-09
  -13.7100000       3.88126642E-09
  -13.6999998       1.24343380E-08
  -13.6899996       1.90389056E-08
  -13.6800003       2.16978950E-08
  -13.6700001       1.91552942E-08
  -13.6599998       1.13345706E-08
  -13.6499996      -4.71980344E-10
  -13.6400003      -1.37487204E-08
  -13.6300001      -2.52456633E-08
  -13.6199999      -3.17294138E-08
  -13.6099997      -3.08337818E-08
  -13.6000004      -2.17993659E-08
  -13.5900002      -5.89198113E-09
  -13.5799999       1.36535752E-08
  -13.5699997       3.22137268E-08
  -13.5600004       4.47983375E-08
  -13.5500002       4.73061696E-08
  -13.5400000       3.77161520E-08
  -13.5299997       1.68946137E-08
  -13.5200005      -1.12429399E-08
  -13.5100002      -4.03428224E-08
  -13.5000000      -6.29392360E-08
  -13.4899998      -7.22444611E-08
  -13.4799995      -6.39988258E-08
  -13.4700003      -3.79086700E-08
  -13.4600000       1.75314041E-09
  -13.4499998       4.66465728E-08
  -13.4399996       8.59749250E-08
  -13.4300003       1.08932028E-07
  -13.4200001       1.07461545E-07
  -13.4099998       7.86585375E-08
  -13.3999996       2.61544830E-08
  -13.3900003      -3.99917006E-08
  -13.3800001      -1.05046560E-07
  -13.3699999      -1.52746097E-07
  -13.3599997      -1.69191836E-07
  -13.3500004      -1.46596591E-07
  -13.3400002      -8.59147349E-08
  -13.3299999       2.42891995E-09
  -13.3199997       1.00098809E-07
  -13.3100004       1.84543893E-07
  -13.3000002       2.34119540E-07
  -13.2900000       2.33495840E-07
  -13.2799997       1.78028813E-07
  -13.2700005       7.59053336E-08
  -13.2600002      -5.26794040E-08
  -13.2500000      -1.79376954E-07
  -13.2399998      -2.73887196E-07
  -13.2299995      -3.11175882E-07
  -13.2200003      -2.78012607E-07
  -13.2100000      -1.77160047E-07
  -13.1999998      -2.79916730E-08
  -13.1899996       1.36904504E-07
  -13.1800003       2.78625606E-07
  -13.1700001       3.60949144E-07
  -13.1599998       3.59396608E-07
  -13.1499996       2.68165337E-07
  -13.1400003       1.03079010E-07
  -13.1300001      -1.00471986E-07
  -13.1199999      -2.94503195E-07
  -13.1099997      -4.29039744E-07
  -13.1000004      -4.64107160E-07
  -13.0900002      -3.80362394E-07
  -13.0799999      -1.85729249E-07
  -13.0699997       8.38640943E-08
  -13.0600004       3.70315121E-07
  -13.0500002       6.04936076E-07
  -13.0400000       7.23589096E-07
  -13.0299997       6.82160476E-07
  -13.0200005       4.68826215E-07
  -13.0100002       1.10017496E-07
  -13.0000000      -3.31810611E-07
  -12.9899998      -7.68779216E-07
  -12.9799995      -1.10482404E-06
  -12.9700003      -1.25618772E-06
  -12.9600000      -1.17078105E-06
  -12.9499998      -8.41950850E-07
  -12.9399996      -3.13146131E-07
  -12.9300003       3.28178544E-07
  -12.9200001       9.66720904E-07
  -12.9099998       1.48246431E-06
  -12.8999996       1.77587867E-06
  -12.8900003       1.78949699E-06
  -12.8800001       1.52069356E-06
  -12.8699999       1.02230615E-06
  -12.8599997       3.90485468E-07
  -12.8500004      -2.57753499E-07
  -12.8400002      -8.12137557E-07
  -12.8299999      -1.19518995E-06
  -12.8199997      -1.38004702E-06
  -12.8100004      -1.39506847E-06
  -12.8000002      -1.31338959E-06
  -12.7900000      -1.22936058E-06
  -12.7799997      -1.22740346E-06
  -12.7700005      -1.35123639E-06
  -12.7600002      -1.58197099E-06
  -12.7500000      -1.83199359E-06
  -12.7399998      -1.95805728E-06
  -12.7299995      -1.79236349E-06
  -12.7200003      -1.18570711E-06
  -12.7100000      -5.31719522E-08
  -12.6999998       1.58866942E-06
  -12.6899996       3.60301829E-06
  -12.6800003       5.73900297E-06
  -12.6700001       7.66383346E-06
  -12.6599998       9.01617477E-06
  -12.6499996       9.47083481E-06
  -12.6400003       8.80180141E-06
  -12.6300001       6.93036736E-06
  -12.6199999       3.94785320E-06
  -12.6099997       1.07605260E-07
  -12.6000004      -4.21252571E-06
  -12.5900002      -8.56962106E-06
  -12.5799999      -1.25246588E-05
  -12.5699997      -1.57064806E-05
  -12.5600004      -1.78574537E-05
  -12.5500002      -1.88517060E-05
  -12.5400000      -1.86831603E-05
  -12.5299997      -1.74277338E-05
  -12.5200005      -1.51902705E-05
  -12.5100002      -1.20506947E-05
  -12.5000000      -8.02448812E-06
  -12.4899998      -3.04958326E-06
  -12.4799995       2.99423664E-06
  -12.4700003       1.02351860E-05
  -12.4600000       1.87382848E-05
  -12.4499998       2.84291036E-05
  -12.4399996       3.90314672E-05
  -12.4300003       5.00369606E-05
  -12.4200001       6.07189941E-05
  -12.4099998       7.01953541E-05
  -12.3999996       7.75332592E-05
  -12.3900003       8.18810149E-05
  -12.3800001       8.26033720E-05
  -12.3699999       7.93949439E-05
  -12.3599997       7.23484773E-05
  -12.3500004       6.19622151E-05
  -12.3400002       4.90816856E-05
  -12.3299999       3.47838031E-05
  -12.3199997       2.02228530E-05
  -12.3100004       6.46564013E-06
  -12.3000002      -5.65409300E-06
  -12.2900000      -1.56354345E-05
  -12.2799997      -2.33466035E-05
  -12.2700005      -2.89927430E-05
  -12.2600002      -3.30237854E-05
  -12.2500000      -3.60029262E-05
  -12.2399998      -3.84636041E-05
  -12.2299995      -4.07846310E-05
  -12.2200003      -4.31081608E-05
  -12.2100000      -4.53156499E-05
  -12.1999998      -4.70638442E-05
  -12.1899996      -4.78701731E-05
  -12.1800003      -4.72266802E-05
  -12.1700001      -4.47164493E-05
  -12.1599998      -4.01073958E-05
  -12.1499996      -3.34045835E-05
  -12.1400003      -2.48528177E-05
  -12.1300001      -1.48929557E-05
  -12.1199999      -4.08587948E-06
  -12.1099997       6.97535052E-06
  -12.1000004       1.77434449E-05
  -12.0900002       2.77674226E-05
  -12.0799999       3.67066968E-05
  -12.0699997       4.43102435E-05
  -12.0600004       5.03722476E-05
  -12.0500002       5.46822157E-05
  -12.0400000       5.69894255E-05
  -12.0299997       5.69977492E-05
  -12.0200005       5.43988790E-05
  -12.0100002       4.89412087E-05
  -12.0000000       4.05212268E-05
  -11.9899998       2.92764507E-05
  -11.9799995       1.56561728E-05
  -11.9700003       4.48770237E-07
  -11.9600000      -1.52477660E-05
  -11.9499998      -3.01143555E-05
  -11.9399996      -4.27487212E-05
  -11.9300003      -5.18327324E-05
  -11.9200001      -5.63029716E-05
  -11.9099998      -5.54975086E-05
  -11.8999996      -4.92560139E-05
  -11.8900003      -3.79585872E-05
  -11.8800001      -2.24992255E-05
  -11.8699999      -4.19988964E-06
  -11.8599997       1.53209821E-05
  -11.8500004       3.43071188E-05
  -11.8400002       5.10313876E-05
  -11.8299999       6.39545251E-05
  -11.8199997       7.18631854E-05
  -11.8100004       7.39790412E-05
  -11.8000002       7.00334349E-05
  -11.7900000       6.03035187E-05
  -11.7799997       4.56057569E-05
  -11.7700005       2.72422603E-05
  -11.7600002       6.89704939E-06
  -11.7500000      -1.35170412E-05
  -11.7399998      -3.20529944E-05
  -11.7299995      -4.69486804E-05
  -11.7200003      -5.68437135E-05
  -11.7100000      -6.09606614E-05
  -11.6999998      -5.92158904E-05
  -11.6899996      -5.22319751E-05
  -11.6800003      -4.12384070E-05
  -11.6700001      -2.78681910E-05
  -11.6599998      -1.38809764E-05
  -11.6499996      -8.63043965E-07
  -11.6400003       1.00351972E-05
  -11.6300001       1.82662770E-05
  -11.6199999       2.39167694E-05
  -11.6099997       2.75912826E-05
  -11.6000004       3.01733799E-05
  -11.5900002       3.25201399E-05
  -11.5799999       3.51681920E-05
  -11.5699997       3.81316204E-05
  -11.5600004       4.08536980E-05
  -11.5500002       4.23376259E-05
  -11.5400000       4.14343958E-05
  -11.5299997       3.72202012E-05
  -11.5200005       2.93642388E-05
  -11.5100002       1.83800348E-05
  -11.5000000       5.67396273E-06
  -11.4899998      -6.64906611E-06
  -11.4799995      -1.62012857E-05
  -11.4700003      -2.08657111E-05
  -11.4600000      -1.93583728E-05
  -11.4499998      -1.16539659E-05
  -11.4399996       8.49974867E-07
  -11.4300003       1.55004673E-05
  -11.4200001       2.88808260E-05
  -11.4099998       3.75376439E-05
  -11.3999996       3.87882355E-05
  -11.3900003       3.14217577E-05
  -11.3800001       1.61193329E-05
  -11.3699999      -4.52610675E-06
  -11.3599997      -2.64218706E-05
  -11.3500004      -4.47516832E-05
  -11.3400002      -5.49603828E-05
  -11.3299999      -5.37370870E-05
  -11.3199997      -3.97796757E-05
  -11.3100004      -1.41670689E-05
  -11.3000002       1.97504578E-05
  -11.2900000       5.69265940E-05
  -11.2799997       9.15414857E-05
  -11.2700005       1.18077609E-04
  -11.2600002       1.32324756E-04
  -11.2500000       1.32110348E-04
  -11.2399998       1.17616837E-04
  -11.2299995       9.12422547E-05
  -11.2200003       5.70594457E-05
  -11.2100000       2.00112863E-05
  -11.1999998      -1.49752905E-05
  -11.1899996      -4.37727940E-05
  -11.1800003      -6.35913675E-05
  -11.1700001      -7.31983600E-05
  -11.1599998      -7.28249215E-05
  -11.1499996      -6.38333149E-05
  -11.1400003      -4.82607757E-05
  -11.1300001      -2.83633835E-05
  -11.1199999      -6.25952498E-06
  -11.1099997       1.62725592E-05
  -11.1000004       3.78405457E-05
  -11.0900002       5.73674915E-05
  -11.0799999       7.39692405E-05
  -11.0699997       8.68446441E-05
  -11.0600004       9.52248374E-05
  -11.0500002       9.83986538E-05
  -11.0400000       9.58023084E-05
  -11.0299997       8.71423254E-05
  -11.0200005       7.25148711E-05
  -11.0100002       5.24920615E-05
  -11.0000000       2.81593766E-05
  -10.9899998       1.10206872E-06
  -10.9799995      -2.66547595E-05
  -10.9700003      -5.27488228E-05
  -10.9600000      -7.46292644E-05
  -10.9499998      -8.97602586E-05
  -10.9399996      -9.58863675E-05
  -10.9300003      -9.13526164E-05
  -10.9200001      -7.54471184E-05
  -10.9099998      -4.87057878E-05
  -10.8999996      -1.30978369E-05
  -10.8900003       2.79907799E-05
  -10.8800001       7.00338496E-05
  -10.8699999       1.07908316E-04
  -10.8599997       1.36644958E-04
  -10.8500004       1.52261317E-04
  -10.8400002       1.52508102E-04
  -10.8299999       1.37355222E-04
  -10.8199997       1.09083558E-04
  -10.8100004       7.19290620E-05
  -10.8000002       3.13289274E-05
  -10.7900000      -7.08193011E-06
  -10.7799997      -3.85076564E-05
  -10.7700005      -5.98284169E-05
  -10.7600002      -7.00467863E-05
  -10.7500000      -7.02446050E-05
  -10.7399998      -6.30705035E-05
  -10.7299995      -5.18938032E-05
  -10.7200003      -3.98424454E-05
  -10.7100000      -2.89686704E-05
  -10.6999998      -1.97505360E-05
  -10.6899996      -1.10494302E-05
  -10.6800003      -5.26652400E-07
  -10.6700001       1.45932963E-05
  -10.6599998       3.66101194E-05
  -10.6499996       6.65175976E-05
  -10.6400003       1.03464430E-04
  -10.6300001       1.44642167E-04
  -10.6199999       1.85633951E-04
  -10.6099997       2.21151320E-04
  -10.6000004       2.46000302E-04
  -10.5900002       2.56070984E-04
  -10.5799999       2.49144476E-04
  -10.5699997       2.25354510E-04
  -10.5600004       1.87217462E-04
  -10.5500002       1.39232870E-04
  -10.5400000       8.71419325E-05
  -10.5299997       3.69939880E-05
  -10.5200005      -5.79914740E-06
  -10.5100002      -3.72473951E-05
  -10.5000000      -5.52723614E-05
  -10.4899998      -5.98340885E-05
  -10.4799995      -5.27005832E-05
  -10.4700003      -3.69353511E-05
  -10.4600000      -1.62280667E-05
  -10.4499998       5.78545450E-06
  -10.4399996       2.60799316E-05
  -10.4300003       4.25801736E-05
  -10.4200001       5.42483103E-05
  -10.4099998       6.09447343E-05
  -10.3999996       6.31378207E-05
  -10.3900003       6.15623067E-05
  -10.3800001       5.69226431E-05
  -10.3699999       4.97088258E-05
  -10.3599997       4.01486141E-05
  -10.3500004       2.82769015E-05
  -10.3400002       1.40730617E-05
  -10.3299999      -2.39177234E-06
  -10.3199997      -2.08434030E-05
  -10.3100004      -4.07488733E-05
  -10.3000002      -6.13087905E-05
  -10.2900000      -8.14735613E-05
  -10.2799997      -9.99602853E-05
  -10.2700005      -1.15264629E-04
  -10.2600002      -1.25687046E-04
  -10.2500000      -1.29411710E-04
  -10.2399998      -1.24677143E-04
  -10.2299995      -1.10053967E-04
  -10.2200003      -8.48024065E-05
  -10.2100000      -4.92327417E-05
  -10.1999998      -4.95745871E-06
  -10.1899996       4.50781517E-05
  -10.1800003       9.68617605E-05
  -10.1700001       1.45875427E-04
  -10.1599998       1.87859943E-04
  -10.1499996       2.19609283E-04
  -10.1400003       2.39583838E-04
  -10.1300001       2.48153461E-04
  -10.1199999       2.47366232E-04
  -10.1099997       2.40267793E-04
  -10.1000004       2.29932950E-04
  -10.0900002       2.18474364E-04
  -10.0799999       2.06326309E-04
  -10.0699997       1.92047723E-04
  -10.0600004       1.72756292E-04
  -10.0500002       1.45126221E-04
  -10.0400000       1.06707870E-04
  -10.0299997       5.72081663E-05
  -10.0200005      -6.54045948E-07
  -10.0100002      -6.10196730E-05
  -10.0000000      -1.15615483E-04
  -9.98999977      -1.55240210E-04
  -9.97999954      -1.71706066E-04
  -9.97000027      -1.59790463E-04
  -9.96000004      -1.18722266E-04
  -9.94999981      -5.28165510E-05
  -9.93999958       2.89374402E-05
  -9.93000031       1.14288036E-04
  -9.92000008       1.89850820E-04
  -9.90999985       2.43507820E-04
  -9.89999962       2.66567979E-04
  -9.89000034       2.55242077E-04
  -9.88000011       2.11147082E-04
  -9.86999989       1.40778982E-04
  -9.85999966       5.41179907E-05
  -9.85000038      -3.72915019E-05
  -9.84000015      -1.22356229E-04
  -9.82999992      -1.92128660E-04
  -9.81999969      -2.40874171E-04
  -9.81000042      -2.66371819E-04
  -9.80000019      -2.69495213E-04
  -9.78999996      -2.53277220E-04
  -9.77999973      -2.21755385E-04
  -9.77000046      -1.78909075E-04
  -9.76000023      -1.27936859E-04
  -9.75000000      -7.10052482E-05
  -9.73999977      -9.46075397E-06
  -9.72999954       5.56271880E-05
  -9.72000027       1.22807149E-04
  -9.71000004       1.89704399E-04
  -9.69999981       2.52789760E-04
  -9.68999958       3.07560229E-04
  -9.68000031       3.49118112E-04
  -9.67000008       3.73025599E-04
  -9.65999985       3.76235228E-04
  -9.64999962       3.57868179E-04
  -9.64000034       3.19640792E-04
  -9.63000011       2.65817042E-04
  -9.61999989       2.02669326E-04
  -9.60999966       1.37542302E-04
  -9.60000038       7.77028617E-05
  -9.59000015       2.92078894E-05
  -9.57999992      -3.98195061E-06
  -9.56999969      -2.04700609E-05
  -9.56000042      -2.13935418E-05
  -9.55000019      -9.92339301E-06
  -9.53999996       9.57564134E-06
  -9.52999973       3.25291803E-05
  -9.52000046       5.50649493E-05
  -9.51000023       7.46663791E-05
  -9.50000000       9.04554690E-05
  -9.48999977       1.03086881E-04
  -9.47999954       1.14326249E-04
  -9.47000027       1.26450759E-04
  -9.46000004       1.41631914E-04
  -9.44999981       1.61435950E-04
  -9.43999958       1.86519639E-04
  -9.43000031       2.16528540E-04
  -9.42000008       2.50145124E-04
  -9.40999985       2.85209127E-04
  -9.39999962       3.18846462E-04
  -9.39000034       3.47591238E-04
  -9.38000011       3.67541506E-04
  -9.36999989       3.74630385E-04
  -9.35999966       3.65089480E-04
  -9.35000038       3.36125813E-04
  -9.34000015       2.86736817E-04
  -9.32999992       2.18481917E-04
  -9.31999969       1.35956216E-04
  -9.31000042       4.67140671E-05
  -9.30000019      -3.95169118E-05
  -9.28999996      -1.12313523E-04
  -9.27999973      -1.62494151E-04
  -9.27000046      -1.84094519E-04
  -9.26000023      -1.75867579E-04
  -9.25000000      -1.41842582E-04
  -9.23999977      -9.06776622E-05
  -9.22999954      -3.38463542E-05
  -9.22000027       1.69677733E-05
  -9.21000004       5.26360636E-05
  -9.19999981       6.87808570E-05
  -9.18999958       6.67848144E-05
  -9.18000031       5.32952727E-05
  -9.17000008       3.83154547E-05
  -9.15999985       3.23789936E-05
  -9.14999962       4.35763068E-05
  -9.14000034       7.52560882E-05
  -9.13000011       1.25039747E-04
  -9.11999989       1.85408921E-04
  -9.10999966       2.45674659E-04
  -9.10000038       2.94744270E-04
  -9.09000015       3.23891611E-04
  -9.07999992       3.28770373E-04
  -9.06999969       3.10168340E-04
  -9.06000042       2.73399957E-04
  -9.05000019       2.26640201E-04
  -9.03999996       1.78785427E-04
  -9.02999973       1.37501760E-04
  -9.02000046       1.07979999E-04
  -9.01000023       9.26171560E-05
  -9.00000000       9.15056953E-05
  -8.98999977       1.03353857E-04
  -8.97999954       1.26369749E-04
  -8.97000027       1.58741881E-04
  -8.96000004       1.98586509E-04
  -8.94999981       2.43505405E-04
  -8.93999958       2.90095224E-04
  -8.93000031       3.33789852E-04
  -8.92000008       3.69283051E-04
  -8.90999985       3.91524896E-04
  -8.89999962       3.97012482E-04
  -8.89000034       3.84919898E-04
  -8.88000011       3.57610086E-04
  -8.86999989       3.20255116E-04
  -8.85999966       2.79598811E-04
  -8.85000038       2.42214082E-04
  -8.84000015       2.12814339E-04
  -8.82999992       1.93188826E-04
  -8.81999969       1.82132673E-04
  -8.81000042       1.76397094E-04
  -8.80000019       1.72321525E-04
  -8.78999996       1.67556529E-04
  -8.77999973       1.62244352E-04
  -8.77000046       1.59209827E-04
  -8.76000023       1.63066667E-04
  -8.75000000       1.78535382E-04
  -8.73999977       2.08556317E-04
  -8.72999954       2.52858998E-04
  -8.72000027       3.07489914E-04
  -8.71000004       3.65463435E-04
  -8.69999981       4.18309734E-04
  -8.68999958       4.57996357E-04
  -8.68000031       4.78600763E-04
  -8.67000008       4.77244292E-04
  -8.65999985       4.54103545E-04
  -8.64999962       4.11670597E-04
  -8.64000034       3.53695563E-04
  -8.63000011       2.84313574E-04
  -8.61999989       2.07707330E-04
  -8.60999966       1.28352709E-04
  -8.60000038       5.15721476E-05
  -8.59000015      -1.60815707E-05
  -8.57999992      -6.70700610E-05
  -8.56999969      -9.39573438E-05
  -8.56000042      -9.11713505E-05
  -8.55000019      -5.68996147E-05
  -8.53999996       5.61214347E-06
  -8.52999973       8.80031002E-05
  -8.52000046       1.78264032E-04
  -8.51000023       2.63480557E-04
  -8.50000000       3.33101052E-04
  -8.48999977       3.81694350E-04
  -8.47999954       4.10230568E-04
  -8.47000027       4.25345002E-04
  -8.46000004       4.36700386E-04
  -8.44999981       4.53236251E-04
  -8.43999958       4.79532086E-04
  -8.43000031       5.13552397E-04
  -8.42000008       5.46638505E-04
  -8.40999985       5.65888127E-04
  -8.39999962       5.58254833E-04
  -8.39000034       5.15081687E-04
  -8.38000011       4.35583235E-04
  -8.36999989       3.28082591E-04
  -8.35999966       2.08519603E-04
  -8.35000038       9.66323860E-05
  -8.34000015       1.09765742E-05
  -8.32999992      -3.56712189E-05
  -8.31999969      -3.91123795E-05
  -8.31000042      -3.92222273E-06
  -8.30000019       5.88925250E-05
  -8.28999996       1.35875162E-04
  -8.27999973       2.15329841E-04
  -8.27000046       2.90333905E-04
  -8.26000023       3.59603029E-04
  -8.25000000       4.26061248E-04
  -8.23999977       4.93799162E-04
  -8.22999954       5.64680144E-04
  -8.22000027       6.35962875E-04
  -8.21000004       6.99921395E-04
  -8.19999981       7.45697471E-04
  -8.18999958       7.62786192E-04
  -8.18000031       7.44930992E-04
  -8.17000008       6.93008886E-04
  -8.15999985       6.15800556E-04
  -8.14999962       5.28246688E-04
  -8.14000034       4.47649974E-04
  -8.13000011       3.88993503E-04
  -8.11999989       3.60864215E-04
  -8.10999966       3.63284955E-04
  -8.10000038       3.88138200E-04
  -8.09000015       4.22020821E-04
  -8.07999992       4.50587017E-04
  -8.06999969       4.62978234E-04
  -8.06000042       4.54950205E-04
  -8.05000019       4.29770007E-04
  -8.03999996       3.96703341E-04
  -8.02999973       3.67694622E-04
  -8.02000046       3.53391719E-04
  -8.01000023       3.59820609E-04
  -8.00000000       3.86734988E-04
  -7.98999977       4.28071275E-04
  -7.98000002       4.74235858E-04
  -7.96999979       5.15376567E-04
  -7.96000004       5.44525974E-04
  -7.94999981       5.59613400E-04
  -7.94000006       5.63767331E-04
  -7.92999983       5.63909067E-04
  -7.92000008       5.68178250E-04
  -7.90999985       5.83061017E-04
  -7.90000010       6.11122407E-04
  -7.88999987       6.49994065E-04
  -7.88000011       6.92846603E-04
  -7.86999989       7.30123604E-04
  -7.86000013       7.51975749E-04
  -7.84999990       7.50697567E-04
  -7.84000015       7.22546945E-04
  -7.82999992       6.68567547E-04
  -7.82000017       5.94335084E-04
  -7.80999994       5.08817902E-04
  -7.80000019       4.22710378E-04
  -7.78999996       3.46640532E-04
  -7.78000021       2.89593154E-04
  -7.76999998       2.57773092E-04
  -7.76000023       2.54010462E-04
  -7.75000000       2.77704967E-04
  -7.73999977       3.25243571E-04
  -7.73000002       3.90783884E-04
  -7.71999979       4.67264821E-04
  -7.71000004       5.47481526E-04
  -7.69999981       6.25045039E-04
  -7.69000006       6.95057679E-04
  -7.67999983       7.54390261E-04
  -7.67000008       8.01533286E-04
  -7.65999985       8.36115447E-04
  -7.65000010       8.58280691E-04
  -7.63999987       8.68164003E-04
  -7.63000011       8.65672948E-04
  -7.61999989       8.50668293E-04
  -7.61000013       8.23478447E-04
  -7.59999990       7.85534212E-04
  -7.59000015       7.39831128E-04
  -7.57999992       6.90959860E-04
  -7.57000017       6.44583546E-04
  -7.55999994       6.06443326E-04
  -7.55000019       5.81168104E-04
  -7.53999996       5.71271346E-04
  -7.53000021       5.76691120E-04
  -7.51999998       5.95062098E-04
  -7.51000023       6.22658990E-04
  -7.50000000       6.55700336E-04
  -7.48999977       6.91552588E-04
  -7.48000002       7.29382795E-04
  -7.46999979       7.69992417E-04
  -7.46000004       8.14856263E-04
  -7.44999981       8.64693953E-04
  -7.44000006       9.18108679E-04