  -16.0000000       0.00000000    
  -15.9899998       0.00000000    
  -15.9799995       0.00000000    
  -15.9700003       0.00000000    
  -15.9600000       0.00000000    
  -15.9499998       0.00000000    
  -15.9399996       0.00000000    
  -15.9300003       0.00000000    
  -15.9200001       0.00000000    
  -15.9099998       0.00000000    
  -15.8999996       0.00000000    
  -15.8900003       0.00000000    
  -15.8800001       6.31453114E-39
  -15.8699999       1.19070830E-37
  -15.8599997       1.20131914E-36
  -15.8500004       8.96197926E-36
  -15.8400002       5.65016398E-35
  -15.8299999       3.14820208E-34
  -15.8199997       1.54873805E-33
  -15.8100004       6.64464271E-33
  -15.8000002       2.46379560E-32
  -15.7900000       7.84785948E-32
  -15.7799997       2.12909581E-31
  -15.7700005       4.82049168E-31
  -15.7600002       8.61203085E-31
  -15.7500000       9.84037824E-31
  -15.7399998      -3.93435867E-31
  -15.7299995      -6.14796485E-30
  -15.7200003      -2.12852423E-29
  -15.7100000      -5.20311280E-29
  -15.6999998      -1.01861075E-28
  -15.6899996      -1.63312179E-28
  -15.6800003      -2.06783656E-28
  -15.6700001      -1.71396763E-28
  -15.6599998       3.44907391E-29
  -15.6499996       5.19054057E-28
  -15.6400003       1.38614041E-27
  -15.6300001       2.72277421E-27
  -15.6199999       4.58563226E-27
  -15.6099997       6.88750913E-27
  -15.6000004       8.94511259E-27
  -15.5900002       8.40345404E-27
  -15.5799999      -3.84604430E-28
  -15.5699997      -2.73120101E-26
  -15.5600004      -8.37173151E-26
  -15.5500002      -1.71235436E-25
  -15.5400000      -2.59271413E-25
  -15.5299997      -2.56413124E-25
  -15.5200005       1.88032335E-27
  -15.5100002       7.06322832E-25
  -15.5000000       1.91755697E-24
  -15.4899998       3.28645606E-24
  -15.4799995       3.74353154E-24
  -15.4700003       1.42340119E-24
  -15.4600000      -5.74704181E-24
  -15.4499998      -1.83910835E-23
  -15.4399996      -3.29925044E-23
  -15.4300003      -3.92243604E-23
  -15.4200001      -1.97502040E-23
  -15.4099998       4.40176307E-23
  -15.3999996       1.57443889E-22
  -15.3900003       2.90747018E-22
  -15.3800001       3.58789061E-22
  -15.3699999       2.21496567E-22
  -15.3599997      -2.70425583E-22
  -15.3500004      -1.16733865E-21
  -15.3400002      -2.26264755E-21
  -15.3299999      -2.95067179E-21
  -15.3199997      -2.22725913E-21
  -15.3100004       1.00899758E-21
  -15.3000002       7.25099982E-21
  -15.2900000       1.53557534E-20
  -15.2799997       2.15972754E-20
  -15.2700005       1.95566289E-20
  -15.2600002       1.78094975E-21
  -15.2500000      -3.61575994E-20
  -15.2399998      -8.95961973E-20
  -15.2299995      -1.38834782E-19
  -15.2200003      -1.47369671E-19
  -15.2100000      -6.94132230E-20
  -15.1999998       1.29523340E-19
  -15.1899996       4.40151696E-19
  -15.1800003       7.74769312E-19
  -15.1700001       9.50116505E-19
  -15.1599998       7.13622621E-19
  -15.1499996      -1.65394156E-19
  -15.1400003      -1.73900517E-18
  -15.1300001      -3.69643400E-18
  -15.1199999      -5.23768034E-18
  -15.1099997      -5.12567223E-18
  -15.1000004      -2.03092589E-18
  -15.0900002       4.79438433E-18
  -15.0799999       1.46331526E-17
  -15.0699997       2.45398051E-17
  -15.0600004       2.92076813E-17
  -15.0500002       2.20148942E-17
  -15.0400000      -2.43830345E-18
  -15.0299997      -4.45586877E-17
  -15.0200005      -9.58519688E-17
  -15.0100002      -1.36820716E-16
  -15.0000000      -1.39029420E-16
  -14.9899998      -7.31811320E-17
  -14.9799995       7.67584102E-17
  -14.9700003       2.96379713E-16
  -14.9600000       5.27091980E-16
  -14.9499998       6.64877612E-16
  -14.9399996       5.80305025E-16
  -14.9300003       1.63823186E-16
  -14.9200001      -6.09278793E-16
  -14.9099998      -1.61274237E-15
  -14.8999996      -2.53244661E-15
  -14.8900003      -2.89388108E-15
  -14.8800001      -2.18023274E-15
  -14.8699999      -4.11100724E-17
  -14.8599997       3.44945337E-15
  -14.8500004       7.57321994E-15
  -14.8400002       1.09063496E-14
  -14.8299999       1.15335496E-14
  -14.8199997       7.59837258E-15
  -14.8100004      -1.86370859E-15
  -14.8000002      -1.60143810E-14
  -14.7900000      -3.15717572E-14
  -14.7799997      -4.28560013E-14
  -14.7700005      -4.28636686E-14
  -14.7600002      -2.54569823E-14
  -14.7500000       1.16666388E-14
  -14.7399998       6.40497583E-14
  -14.7299995       1.18809991E-13
  -14.7200003       1.55531160E-13
  -14.7100000       1.50600141E-13
  -14.6999998       8.49225882E-14
  -14.6899996      -4.64241648E-14
  -14.6800003      -2.25475590E-13
  -14.6700001      -4.07426588E-13
  -14.6599998      -5.25144598E-13
  -14.6499996      -5.04243132E-13
  -14.6400003      -2.87692071E-13
  -14.6300001       1.35125336E-13
  -14.6199999       7.03857328E-13
  -14.6099997       1.27818318E-12
  -14.6000004       1.65425985E-12
  -14.5900002       1.61120889E-12
  -14.5799999       9.83112463E-13
  -14.5699997      -2.59093663E-13
  -14.5600004      -1.94118311E-12
  -14.5500002      -3.66437696E-12
  -14.5400000      -4.85435650E-12
  -14.5299997      -4.89039408E-12
  -14.5200005      -3.30006552E-12
  -14.5100002       2.31587448E-14
  -14.5000000       4.64560291E-12
  -14.4899998       9.53737523E-12
  -14.4799995       1.31959972E-11
  -14.4700003       1.39716069E-11
  -14.4600000       1.05555798E-11
  -14.4499998       2.52698166E-12
  -14.4399996      -9.20313305E-12
  -14.4300003      -2.22285853E-11
  -14.4200001      -3.29112605E-11
  -14.4099998      -3.71238526E-11
  -14.3999996      -3.13875002E-11
  -14.3900003      -1.41670868E-11
  -14.3800001       1.30356993E-11
  -14.3699999       4.51955313E-11
  -14.3599997       7.42161679E-11
  -14.3500004       9.04599312E-11
  -14.3400002       8.51967177E-11
  -14.3299999       5.34875824E-11
  -14.3199997      -3.24982597E-12
  -14.3100004      -7.58557939E-11
  -14.3000002      -1.47959311E-10
  -14.2900000      -1.98780506E-10
  -14.2799997      -2.07972362E-10
  -14.2700005      -1.61604632E-10
  -14.2600002      -5.78284469E-11
  -14.2500000       8.95074709E-11
  -14.2399998       2.50838295E-10
  -14.2299995       3.85335819E-10
  -14.2200003       4.49615456E-10
  -14.2100000       4.09205225E-10
  -14.1999998       2.50153481E-10
  -14.1899996      -1.24676328E-11
  -14.1800003      -3.32232769E-10
  -14.1700001      -6.37184472E-10
  -14.1599998      -8.43898562E-10
  -14.1499996      -8.77590944E-10
  -14.1400003      -6.93929747E-10
  -14.1300001      -2.96890318E-10
  -14.1199999       2.53007587E-10
  -14.1099997       8.44131376E-10
  -14.1000004       1.33386469E-09
  -14.0900002       1.58058744E-09
  -14.0799999       1.48090307E-09
  -14.0699997       1.00293218E-09
  -14.0600004       2.06037840E-10
  -14.0500002      -7.60500662E-10
  -14.0400000      -1.68278114E-09
  -14.0299997      -2.32833108E-09
  -14.0200005      -2.50355492E-09
  -14.0100002      -2.10871698E-09
  -14.0000000      -1.17530841E-09
  -13.9899998       1.26610916E-10
  -13.9799995       1.51690438E-09
  -13.9700003       2.66637068E-09
  -13.9600000       3.27752669E-09
  -13.9499998       3.16534865E-09
  -13.9399996       2.31577690E-09
  -13.9300003       9.03384645E-10
  -13.9200001      -7.41000983E-10
  -13.9099998      -2.20881713E-09
  -13.8999996      -3.12088289E-09
  -13.8900003      -3.23540950E-09
  -13.8800001      -2.52584398E-09
  -13.8699999      -1.20283394E-09
  -13.8599997       3.31919742E-10
  -13.8500004       1.59338331E-09
  -13.8400002       2.15693152E-09
  -13.8299999       1.79875981E-09
  -13.8199997       5.89891302E-10
  -13.8100004      -1.09064802E-09
  -13.8000002      -2.63789124E-09
  -13.7900000      -3.38576989E-09
  -13.7799997      -2.81571277E-09
  -13.7700005      -7.51630647E-10
  -13.7600002       2.51975618E-09
  -13.7500000       6.25038732E-09
  -13.7399998       9.37170253E-09
  -13.7299995       1.07539586E-08
  -13.7200003       9.52589385E-09
  -13.7100000       5.37154854E-09
  -13.6999998      -1.28317723E-09
  -13.6899996      -9.26146893E-09
  -13.6800003      -1.68298442E-08
  -13.6700001      -2.20681304E-08
  -13.6599998      -2.33362023E-08
  -13.6499996      -1.97237799E-08
  -13.6400003      -1.13625100E-08
  -13.6300001       4.94890739E-10
  -13.6199999       1.36701548E-08
  -13.6099997       2.55019046E-08
  -13.6000004       3.34397470E-08
  -13.5900002       3.56479291E-08
  -13.5799999       3.14642854E-08
  -13.5699997       2.15890168E-08
  -13.5600004       7.94186139E-09
  -13.5500002      -6.78872425E-09
  -13.5400000      -1.97973549E-08
  -13.5299997      -2.88478574E-08
  -13.5200005      -3.28094245E-08
  -13.5100002      -3.18902025E-08
  -13.5000000      -2.74915486E-08
  -13.4899998      -2.17084839E-08
  -13.4799995      -1.66042415E-08
  -13.4700003      -1.34620715E-08
  -13.4600000      -1.22417578E-08
  -13.4499998      -1.14316610E-08
  -13.4399996      -8.39302672E-09
  -13.4300003      -1.62353658E-10
  -13.4200001       1.54595714E-08
  -13.4099998       3.88102208E-08
  -13.3999996       6.75830805E-08
  -13.3900003       9.66487477E-08
  -13.3800001       1.18650924E-07
  -13.3699999       1.25370704E-07
  -13.3599997       1.09650202E-07
  -13.3500004       6.74889620E-08
  -13.3400002      -1.81633306E-10
  -13.3299999      -8.65397638E-08
  -13.3199997      -1.79105371E-07
  -13.3100004      -2.61309481E-07
  -13.3000002      -3.15255619E-07
  -13.2900000      -3.25230076E-07
  -13.2799997      -2.81287555E-07
  -13.2700005      -1.82135622E-07
  -13.2600002      -3.66063411E-08
  -13.2500000       1.36764072E-07
  -13.2399998       3.12157482E-07
  -13.2299995       4.60581958E-07
  -13.2200003       5.54955932E-07
  -13.2100000       5.75191223E-07
  -13.1999998       5.12235374E-07
  -13.1899996       3.70197199E-07
  -13.1800003       1.66053852E-07
  -13.1700001      -7.30577980E-08
  -13.1599998      -3.14438864E-07
  -13.1499996      -5.25366204E-07
  -13.1400003      -6.78415802E-07
  -13.1300001      -7.55475810E-07
  -13.1199999      -7.49677667E-07
  -13.1099997      -6.64989670E-07
  -13.1000004      -5.13793964E-07
  -13.0900002      -3.13264536E-07
  -13.0799999      -8.16383618E-08
  -13.0699997       1.64550698E-07
  -13.0600004       4.11532881E-07
  -13.0500002       6.47473257E-07
  -13.0400000       8.60202931E-07
  -13.0299997       1.03450645E-06
  -13.0200005       1.15023931E-06
  -13.0100002       1.18246749E-06
  -13.0000000       1.10435758E-06
  -12.9899998       8.92786773E-07
  -12.9799995       5.35780430E-07
  -12.9700003       4.01245686E-08
  -12.9600000      -5.62917535E-07
  -12.9499998      -1.21578773E-06
  -12.9399996      -1.83812210E-06
  -12.9300003      -2.33590868E-06
  -12.9200001      -2.61539526E-06
  -12.9099998      -2.59960052E-06
  -12.8999996      -2.24439691E-06
  -12.8900003      -1.55085581E-06
  -12.8800001      -5.70962982E-07
  -12.8699999       5.95078973E-07
  -12.8599997       1.81017413E-06
  -12.8500004       2.91877132E-06
  -12.8400002       3.76940989E-06
  -12.8299999       4.23744450E-06
  -12.8199997       4.24389646E-06
  -12.8100004       3.76710045E-06
  -12.8000002       2.84525072E-06
  -12.7900000       1.56977853E-06
  -12.7799997       7.12635639E-08
  -12.7700005      -1.49901211E-06
  -12.7600002      -2.98817486E-06
  -12.7500000      -4.25809139E-06
  -12.7399998      -5.19655032E-06
  -12.7299995      -5.72248064E-06
  -12.7200003      -5.78606159E-06
  -12.7100000      -5.36587368E-06
  -12.6999998      -4.46579270E-06
  -12.6899996      -3.11401413E-06
  -12.6800003      -1.36543747E-06
  -12.6700001       6.93037066E-07
  -12.6599998       2.93644575E-06
  -12.6499996       5.19832884E-06
  -12.6400003       7.27361430E-06
  -12.6300001       8.93072138E-06
  -12.6199999       9.93389949E-06
  -12.6099997       1.00743009E-05
  -12.6000004       9.20559160E-06
  -12.5900002       7.27790530E-06
  -12.5799999       4.36300252E-06
  -12.5699997       6.64143613E-07
  -12.5600004      -3.49358356E-06
  -12.5500002      -7.69339840E-06
  -12.5400000      -1.14744025E-05
  -12.5299997      -1.43899470E-05
  -12.5200005      -1.60676664E-05
  -12.5100002      -1.62612123E-05
  -12.5000000      -1.48849595E-05
  -12.4899998      -1.20258173E-05
  -12.4799995      -7.93045365E-06
  -12.4700003      -2.97069346E-06
  -12.4600000       2.40637223E-06
  -12.4499998       7.73454849E-06
  -12.4399996       1.25815168E-05
  -12.4300003       1.65905822E-05
  -12.4200001       1.95062385E-05
  -12.4099998       2.11823644E-05
  -12.3999996       2.15756663E-05
  -12.3900003       2.07296780E-05
  -12.3800001       1.87557907E-05
  -12.3699999       1.58170405E-05
  -12.3599997       1.21182211E-05
  -12.3500004       7.90260856E-06
  -12.3400002       3.45248418E-06
  -12.3299999      -9.11644236E-07
  -12.3199997      -4.83892427E-06
  -12.3100004      -7.96770746E-06
  -12.3000002      -9.95843220E-06
  -12.2900000      -1.05375811E-05
  -12.2799997      -9.54645020E-06
  -12.2700005      -6.98547592E-06
  -12.2600002      -3.04377181E-06
  -12.2500000       1.89525758E-06
  -12.2399998       7.27775250E-06
  -12.2299995       1.24330300E-05
  -12.2200003       1.66514255E-05
  -12.2100000       1.92754815E-05
  -12.1999998       1.97902536E-05
  -12.1899996       1.78975370E-05
  -12.1800003       1.35611590E-05
  -12.1700001       7.01513864E-06
  -12.1599998      -1.26694113E-06
  -12.1499996      -1.06359803E-05
  -12.1400003      -2.03535656E-05
  -12.1300001      -2.96852941E-05
  -12.1199999      -3.79853482E-05
  -12.1099997      -4.47589409E-05
  -12.1000004      -4.96941175E-05
  -12.0900002      -5.26610165E-05
  -12.0799999      -5.36832813E-05
  -12.0699997      -5.28917844E-05
  -12.0600004      -5.04735435E-05
  -12.0500002      -4.66286037E-05
  -12.0400000      -4.15445829E-05
  -12.0299997      -3.53930118E-05
  -12.0200005      -2.83456175E-05
  -12.0100002      -2.06027125E-05
  -12.0000000      -1.24225853E-05
  -11.9899998      -4.13973703E-06
  -11.9799995       3.83743281E-06
  -11.9700003       1.10539331E-05
  -11.9600000       1.70581698E-05
  -11.9499998       2.14660413E-05
  -11.9399996       2.40258287E-05
  -11.9300003       2.46690797E-05
  -11.9200001       2.35346997E-05
  -11.9099998       2.09587452E-05
  -11.8999996       1.74298002E-05
  -11.8900003       1.35176051E-05
  -11.8800001       9.78873959E-06
  -11.8699999       6.72649003E-06
  -11.8599997       4.67094651E-06
  -11.8500004       3.79099106E-06
  -11.8400002       4.09227232E-06
  -11.8299999       5.45682133E-06
  -11.8199997       7.70267616E-06
  -11.8100004       1.06474126E-05
  -11.8000002       1.41588598E-05
  -11.7900000       1.81802370E-05
  -11.7799997       2.27235978E-05
  -11.7700005       2.78340503E-05
  -11.7600002       3.35349359E-05
  -11.7500000       3.97693475E-05
  -11.7399998       4.63546639E-05
  -11.7299995       5.29638055E-05
  -11.7200003       5.91404023E-05
  -11.7100000       6.43468520E-05
  -11.6999998       6.80360608E-05
  -11.6899996       6.97318683E-05
  -11.6800003       6.91011446E-05
  -11.6700001       6.60022415E-05
  -11.6599998       6.05007044E-05
  -11.6499996       5.28502533E-05
  -11.6400003       4.34457543E-05
  -11.6300001       3.27601228E-05
  -11.6199999       2.12807299E-05
  -11.6099997       9.45893134E-06
  -11.6000004      -2.31771060E-06
  -11.5900002      -1.37281313E-05
  -11.5799999      -2.44999410E-05
  -11.5699997      -3.43813335E-05
  -11.5600004      -4.31152475E-05
  -11.5500002      -5.04275013E-05
  -11.5400000      -5.60359767E-05
  -11.5299997      -5.96815953E-05
  -11.5200005      -6.11750293E-05
  -11.5100002      -6.04479392E-05
  -11.5000000      -5.75951053E-05
  -11.4899998      -5.28952260E-05
  -11.4799995      -4.68023172E-05
  -11.4700003      -3.99064083E-05
  -11.4600000      -3.28692004E-05
  -11.4499998      -2.63457987E-05
  -11.4399996      -2.09071222E-05
  -11.4300003      -1.69767773E-05
  -11.4200001      -1.47934352E-05
  -11.4099998      -1.44036221E-05
  -11.3999996      -1.56838414E-05
  -11.3900003      -1.83850043E-05
  -11.3800001      -2.21884075E-05
  -11.3699999      -2.67612941E-05
  -11.3599997      -3.18012935E-05
  -11.3500004      -3.70625858E-05
  -11.3400002      -4.23610836E-05
  -11.3299999      -4.75604684E-05
  -11.3199997      -5.25449868E-05
  -11.3100004      -5.71867895E-05
  -11.3000002      -6.13168449E-05
  -11.2900000      -6.47068518E-05
  -11.2799997      -6.70680311E-05
  -11.2700005      -6.80687517E-05
  -11.2600002      -6.73701797E-05
  -11.2500000      -6.46750341E-05
  -11.2399998      -5.97818325E-05
  -11.2299995      -5.26353761E-05
  -11.2200003      -4.33633650E-05
  -11.2100000      -3.22908199E-05
  -11.1999998      -1.99271417E-05
  -11.1899996      -6.92506819E-06
  -11.1800003       5.98356746E-06
  -11.1700001       1.80656698E-05
  -11.1599998       2.86652048E-05
  -11.1499996       3.72683135E-05
  -11.1400003       4.35435104E-05
  -11.1300001       4.73506334E-05
  -11.1199999       4.87188991E-05
  -11.1099997       4.78013899E-05
  -11.1000004       4.48188548E-05
  -11.0900002       4.00078679E-05
  -11.0799999       3.35867953E-05
  -11.0699997       2.57479460E-05
  -11.0600004       1.66764039E-05
  -11.0500002       6.58839099E-06
  -11.0400000      -4.22436824E-06
  -11.0299997      -1.53601959E-05
  -11.0200005      -2.62971025E-05
  -11.0100002      -3.64147854E-05
  -11.0000000      -4.50486550E-05
  -10.9899998      -5.15671018E-05
  -10.9799995      -5.54562976E-05
  -10.9700003      -5.63942303E-05
  -10.9600000      -5.42974267E-05
  -10.9499998      -4.93302286E-05
  -10.9399996      -4.18745331E-05
  -10.9300003      -3.24676075E-05
  -10.9200001      -2.17218039E-05
  -10.9099998      -1.02436597E-05
  -10.8999996       1.43147361E-06
  -10.8900003       1.28781894E-05
  -10.8800001       2.37892982E-05
  -10.8699999       3.39575381E-05
  -10.8599997       4.32404850E-05
  -10.8500004       5.15215470E-05
  -10.8400002       5.86789138E-05
  -10.8299999       6.45712862E-05
  -10.8199997       6.90427842E-05
  -10.8100004       7.19446543E-05
  -10.8000002       7.31663968E-05
  -10.7900000       7.26668586E-05
  -10.7799997       7.04966369E-05
  -10.7700005       6.68054636E-05
  -10.7600002       6.18327540E-05
  -10.7500000       5.58831634E-05
  -10.7399998       4.92928048E-05
  -10.7299995       4.23932943E-05
  -10.7200003       3.54806907E-05
  -10.7100000       2.87947605E-05
  -10.6999998       2.25114145E-05
  -10.6899996       1.67478920E-05
  -10.6800003       1.15778448E-05
  -10.6700001       7.05168759E-06
  -10.6599998       3.21702100E-06
  -10.6499996       1.34549822E-07
  -10.6400003      -2.11343809E-06
  -10.6300001      -3.42325620E-06
  -10.6199999      -3.67775533E-06
  -10.6099997      -2.75983643E-06
  -10.6000004      -5.68471023E-07
  -10.5900002       2.96567691E-06
  -10.5799999       7.86688997E-06
  -10.5699997       1.41046476E-05
  -10.5600004       2.15872496E-05
  -10.5500002       3.01581822E-05
  -10.5400000       3.95949392E-05
  -10.5299997       4.96099274E-05
  -10.5200005       5.98547449E-05
  -10.5100002       6.99292432E-05
  -10.5000000       7.93969448E-05
  -10.4899998       8.78077190E-05
  -10.4799995       9.47266744E-05
  -10.4700003       9.97662864E-05
  -10.4600000       1.02617036E-04
  -10.4499998       1.03070990E-04
  -10.4399996       1.01033620E-04
  -10.4300003       9.65214713E-05
  -10.4200001       8.96467172E-05
  -10.4099998       8.05931413E-05
  -10.3999996       6.95903800E-05
  -10.3900003       5.68939504E-05
  -10.3800001       4.27763516E-05
  -10.3699999       2.75309449E-05
  -10.3599997       1.14853428E-05
  -10.3500004      -4.98289637E-06
  -10.3400002      -2.14375104E-05
  -10.3299999      -3.73898911E-05
  -10.3199997      -5.23246817E-05
  -10.3100004      -6.57431956E-05
  -10.3000002      -7.72164494E-05
  -10.2900000      -8.64365938E-05
  -10.2799997      -9.32531766E-05
  -10.2700005      -9.76846131E-05
  -10.2600002      -9.99005497E-05
  -10.2500000      -1.00178309E-04
  -10.2399998      -9.88431129E-05
  -10.2299995      -9.62060149E-05
  -10.2200003      -9.25129134E-05
  -10.2100000      -8.79151485E-05
  -10.1999998      -8.24653616E-05
  -10.1899996      -7.61367482E-05
  -10.1800003      -6.88576547E-05
  -10.1700001      -6.05524838E-05
  -10.1599998      -5.11795042E-05
  -10.1499996      -4.07604566E-05
  -10.1400003      -2.93994744E-05
  -10.1300001      -1.72925666E-05
  -10.1199999      -4.72915463E-06
  -10.1099997       7.91349248E-06
  -10.1000004       2.01841394E-05
  -10.0900002       3.15829493E-05
  -10.0799999       4.16000912E-05
  -10.0699997       4.97675464E-05
  -10.0600004       5.57187013E-05
  -10.0500002       5.92450269E-05
  -10.0400000       6.03365406E-05
  -10.0299997       5.91924982E-05
  -10.0200005       5.61945162E-05
  -10.0100002       5.18420202E-05
  -10.0000000       4.66607416E-05
  -9.98999977       4.11028996E-05
  -9.97999954       3.54620097E-05
  -9.97000027       2.98232881E-05
  -9.96000004       2.40625923E-05
  -9.94999981       1.78952196E-05
  -9.93999958       1.09638877E-05
  -9.93000031       2.94537972E-06
  -9.92000008      -6.34803973E-06
  -9.90999985      -1.68939223E-05
  -9.89999962      -2.84250000E-05
  -9.89000034      -4.04379571E-05
  -9.88000011      -5.22382143E-05
  -9.86999989      -6.30070499E-05
  -9.85999966      -7.18759984E-05
  -9.85000038      -7.79957118E-05
  -9.84000015      -8.05921445E-05
  -9.82999992      -7.90097474E-05
  -9.81999969      -7.27450024E-05
  -9.81000042      -6.14748933E-05
  -9.80000019      -4.50835396E-05
  -9.78999996      -2.36862925E-05
  -9.77999973       2.35353309E-06
  -9.77000046       3.24208449E-05
  -9.76000023       6.56645425E-05
  -9.75000000       1.01035788E-04
  -9.73999977       1.37347306E-04
  -9.72999954       1.73349326E-04
  -9.72000027       2.07813500E-04
  -9.71000004       2.39615663E-04
  -9.69999981       2.67809548E-04
  -9.68999958       2.91683275E-04
  -9.68000031       3.10795178E-04
  -9.67000008       3.24984023E-04
  -9.65999985       3.34354467E-04
  -9.64999962       3.39236343E-04
  -9.64000034       3.40122700E-04
  -9.63000011       3.37592268E-04
  -9.61999989       3.32225929E-04
  -9.60999966       3.24529246E-04
  -9.60000038       3.14872857E-04
  -9.59000015       3.03459237E-04
  -9.57999992       2.90321332E-04
  -9.56999969       2.75350059E-04
  -9.56000042       2.58344488E-04
  -9.55000019       2.39072047E-04
  -9.53999996       2.17328590E-04
  -9.52999973       1.92988693E-04
  -9.52000046       1.66041544E-04
  -9.51000023       1.36611023E-04
  -9.50000000       1.04962528E-04
  -9.48999977       7.14969865E-05
  -9.47999954       3.67322864E-05
  -9.47000027       1.27085946E-06
  -9.46000004      -3.42482672E-05
  -9.44999981      -6.92101385E-05
  -9.43999958      -1.03089376E-04
  -9.43000031      -1.35505572E-04
  -9.42000008      -1.66251528E-04
  -9.40999985      -1.95278873E-04
  -9.39999962      -2.22635281E-04
  -9.39000034      -2.48362689E-04
  -9.38000011      -2.72380275E-04
  -9.36999989      -2.94386060E-04
  -9.35999966      -3.13813129E-04
  -9.35000038      -3.29861825E-04
  -9.34000015      -3.41611594E-04
  -9.32999992      -3.48187168E-04
  -9.31999969      -3.48936563E-04
  -9.31000042      -3.43569438E-04
  -9.30000019      -3.32211523E-04
  -9.28999996      -3.15357844E-04
  -9.27999973      -2.93737627E-04
  -9.27000046      -2.68132892E-04
  -9.26000023      -2.39210800E-04
  -9.25000000      -2.07423902E-04
  -9.23999977      -1.73009932E-04
  -9.22999954      -1.36087314E-04
  -9.22000027      -9.68051900E-05
  -9.21000004      -5.54870894E-05
  -9.19999981      -1.27048033E-05
  -9.18999958       3.07549490E-05
  -9.18000031       7.40298128E-05
  -9.17000008       1.16383591E-04
  -9.15999985       1.57398288E-04
  -9.14999962       1.97081783E-04
  -9.14000034       2.35840882E-04
  -9.13000011       2.74314516E-04
  -9.11999989       3.13113356E-04
  -9.10999966       3.52546922E-04
  -9.10000038       3.92431131E-04
  -9.09000015       4.32044704E-04
  -9.07999992       4.70253784E-04
  -9.06999969       5.05768054E-04
  -9.06000042       5.37443091E-04
  -9.05000019       5.64527465E-04
  -9.03999996       5.86772105E-04
  -9.02999973       6.04365719E-04
  -9.02000046       6.17725716E-04
  -9.01000023       6.27223810E-04
  -9.00000000       6.32953190E-04
  -8.98999977       6.34625729E-04
  -8.97999954       6.31645264E-04
  -8.97000027       6.23331463E-04
  -8.96000004       6.09214068E-04
  -8.94999981       5.89285977E-04
  -8.93999958       5.64113550E-04
  -8.93000031       5.34752442E-04
  -8.92000008       5.02486655E-04
  -8.90999985       4.68474085E-04
  -8.89999962       4.33419598E-04
  -8.89000034       3.97391705E-04
  -8.88000011       3.59851460E-04
  -8.86999989       3.19890707E-04
  -8.85999966       2.76602834E-04
  -8.85000038       2.29462108E-04
  -8.84000015       1.78586517E-04
  -8.82999992       1.24796410E-04
  -8.81999969       6.94543560E-05
  -8.81000042       1.41466353E-05
  -8.80000019      -3.96825999E-05
  -8.78999996      -9.10175513E-05
  -8.77999973      -1.39386684E-04
  -8.77000046      -1.84780147E-04
  -8.76000023      -2.27412442E-04
  -8.75000000      -2.67429015E-04
  -8.73999977      -3.04669695E-04
  -8.72999954      -3.38575541E-04
  -8.72000027      -3.68268491E-04
  -8.71000004      -3.92766058E-04
  -8.69999981      -4.11243236E-04
  -8.68999958      -4.23241581E-04
  -8.68000031      -4.28748783E-04
  -8.67000008      -4.28126805E-04
  -8.65999985      -4.21928213E-04
  -8.64999962      -4.10683075E-04
  -8.64000034      -3.94748728E-04
  -8.63000011      -3.74286057E-04
  -8.61999989      -3.49370879E-04
  -8.60999966      -3.20190593E-04
  -8.60000038      -2.87238247E-04
  -8.59000015      -2.51412188E-04
  -8.57999992      -2.13965599E-04
  -8.56999969      -1.76307367E-04
  -8.56000042      -1.39719254E-04
  -8.55000019      -1.05088344E-04
  -8.53999996      -7.27552251E-05
  -8.52999973      -4.25370454E-05
  -8.52000046      -1.39194435E-05
  -8.51000023       1.36520348E-05
  -8.50000000       4.04900529E-05
  -8.48999977       6.64984618E-05
  -8.47999954       9.11832249E-05
  -8.47000027       1.13834183E-04
  -8.46000004       1.33803420E-04
  -8.44999981       1.50767097E-04
  -8.43999958       1.64860830E-04
  -8.43000031       1.76627829E-04
  -8.42000008       1.86790741E-04
  -8.40999985       1.95931279E-04
  -8.39999962       2.04202181E-04
  -8.39000034       2.11189414E-04
  -8.38000011       2.15991036E-04
  -8.36999989       2.17497771E-04
  -8.35999966       2.14784392E-04
  -8.35000038       2.07472141E-04
  -8.34000015       1.95928384E-04
  -8.32999992       1.81225842E-04
  -8.31999969       1.64865327E-04
  -8.31000042       1.48356252E-04
  -8.30000019       1.32798785E-04
  -8.28999996       1.18615048E-04
  -8.27999973       1.05522478E-04
  -8.27000046       9.27563233E-05
  -8.26000023       7.94586304E-05
  -8.25000000       6.50908914E-05
  -8.23999977       4.97204674E-05
  -8.22999954       3.40793194E-05
  -8.22000027       1.93776123E-05
  -8.21000004       6.94451455E-06
  -8.19999981      -2.16854869E-06
  -8.18999958      -7.47541299E-06
  -8.18000031      -9.13286021E-06
  -8.17000008      -7.78519552E-06
  -8.15999985      -4.24210339E-06
  -8.14999962       8.79416859E-07
  -8.14000034       7.41260692E-06
  -8.13000011       1.56964688E-05
  -8.11999989       2.64109076E-05
  -8.10999966       4.02565165E-05
  -8.10000038       5.76061611E-05
  -8.09000015       7.82647403E-05
  -8.07999992       1.01434067E-04
  -8.06999969       1.25901468E-04
  -8.06000042       1.50386026E-04
  -8.05000019       1.73915789E-04
  -8.03999996       1.96100882E-04
  -8.02999973       2.17204244E-04
  -8.02000046       2.37990287E-04
  -8.01000023       2.59413762E-04
  -8.00000000       2.82268855E-04
  -7.98999977       3.06928618E-04
  -7.98000002       3.33265518E-04
  -7.96999979       3.60769656E-04
  -7.96000004       3.88803455E-04
  -7.94999981       4.16879833E-04
  -7.94000006       4.44839767E-04
  -7.92999983       4.72855667E-04
  -7.92000008       5.01254166E-04
  -7.90999985       5.30230172E-04
  -7.90000010       5.59574692E-04
  -7.88999987       5.88532304E-04
  -7.88000011       6.15862547E-04
  -7.86999989       6.40094106E-04
  -7.86000013       6.59890356E-04
  -7.84999990       6.74391806E-04
  -7.84000015       6.83409744E-04
  -7.82999992       6.87397900E-04
  -7.82000017       6.87214546E-04
  -7.80999994       6.83761958E-04
  -7.80000019       6.77645789E-04
  -7.78999996       6.68982218E-04
  -7.78000021       6.57428114E-04
  -7.76999998       6.42419327E-04
  -7.76000023       6.23521279E-04
  -7.75000000       6.00748463E-04
  -7.73999977       5.74718521E-04
  -7.73000002       5.46571973E-04
  -7.71999979       5.17674314E-04
  -7.71000004       4.89211001E-04
  -7.69999981       4.61829535E-04
  -7.69000006       4.35467693E-04
  -7.67999983       4.09445376E-04
  -7.67000008       3.82792583E-04
  -7.65999985       3.54696880E-04
  -7.65000010       3.24902503E-04
  -7.63999987       2.93906196E-04
  -7.63000011       2.62868271E-04
  -7.61999989       2.33262297E-04
  -7.61000013       2.06388620E-04
  -7.59999990       1.82932912E-04
  -7.59000015       1.62739307E-04
  -7.57999992       1.44893085E-04
  -7.57000017       1.28095286E-04
  -7.55999994       1.11198060E-04
  -7.55000019       9.37110017E-05
  -7.53999996       7.60865005E-05
  -7.53000021       5.96745122E-05
  -7.51999998       4.63478427E-05
  -7.51000023       3.79269368E-05
  -7.50000000       3.55997763E-05
  -7.48999977       3.95451934E-05
  -7.48000002       4.88923397E-05
  -7.46999979       6.20319770E-05
  -7.46000004       7.71679261E-05
  -7.44999981       9.29099842E-05
  -7.44000006       1.08695960E-04