  -16.0000000       0.00000000    
  -15.9899998       0.00000000    
  -15.9799995       0.00000000    
  -15.9700003       0.00000000    
  -15.9600000       0.00000000    
  -15.9499998       0.00000000    
  -15.9399996       0.00000000    
  -15.9300003       0.00000000    
  -15.9200001       0.00000000    
  -15.9099998       0.00000000    
  -15.8999996       3.35190593E-42
  -15.8900003       5.04879429E-40
  -15.8800001       1.76467982E-38
  -15.8699999       2.89048368E-37
  -15.8599997       2.95241058E-36
  -15.8500004       2.14495419E-35
  -15.8400002       1.18957365E-34
  -15.8299999       5.23936291E-34
  -15.8199997       1.86671240E-33
  -15.8100004       5.36045628E-33
  -15.8000002       1.18576670E-32
  -15.7900000       1.64665174E-32
  -15.7799997      -8.46207379E-33
  -15.7700005      -1.52881457E-31
  -15.7600002      -6.39415324E-31
  -15.7500000      -1.91219415E-30
  -15.7399998      -4.67949744E-30
  -15.7299995      -9.75661816E-30
  -15.7200003      -1.74497468E-29
  -15.7100000      -2.61586576E-29
  -15.6999998      -2.99633533E-29
  -15.6899996      -1.53659403E-29
  -15.6800003       4.16537360E-29
  -15.6700001       1.75173211E-28
  -15.6599998       4.19193434E-28
  -15.6499996       7.77798941E-28
  -15.6400003       1.16437487E-27
  -15.6300001       1.30776151E-27
  -15.6199999       6.54690177E-28
  -15.6099997      -1.63906981E-27
  -15.6000004      -6.45308866E-27
  -15.5900002      -1.39602958E-26
  -15.5799999      -2.22863282E-26
  -15.5699997      -2.58707365E-26
  -15.5600004      -1.46072896E-26
  -15.5500002       2.42444736E-26
  -15.5400000       9.90317676E-26
  -15.5299997       2.00570732E-25
  -15.5200005       2.86015499E-25
  -15.5100002       2.69578325E-25
  -15.5000000       3.65600730E-26
  -15.4899998      -5.02304766E-25
  -15.4799995      -1.31234003E-24
  -15.4700003      -2.11977535E-24
  -15.4600000      -2.35110310E-24
  -15.4499998      -1.23150516E-24
  -15.4399996       1.86724757E-24
  -15.4300003       6.83716554E-24
  -15.4200001       1.21975456E-23
  -15.4099998       1.48225465E-23
  -15.3999996       1.05515084E-23
  -15.3900003      -3.97568029E-24
  -15.3800001      -2.84874050E-23
  -15.3699999      -5.63550429E-23
  -15.3599997      -7.38517254E-23
  -15.3500004      -6.33161661E-23
  -15.3400002      -1.08724928E-23
  -15.3299999       8.32514827E-23
  -15.3199997       1.96736230E-22
  -15.3100004       2.85805846E-22
  -15.3000002       2.98386322E-22
  -15.2900000       1.96829391E-22
  -15.2799997      -2.15943605E-23
  -15.2700005      -3.22894551E-22
  -15.2600002      -6.62618826E-22
  -15.2500000      -1.02715031E-21
  -15.2399998      -1.44676030E-21
  -15.2299995      -1.92102398E-21
  -15.2200003      -2.22636106E-21
  -15.2100000      -1.67124431E-21
  -15.1999998       9.89792588E-22
  -15.1899996       7.15579731E-21
  -15.1800003       1.72144573E-20
  -15.1700001       2.86880389E-20
  -15.1599998       3.44541792E-20
  -15.1499996       2.26213670E-20
  -15.1400003      -1.99311430E-20
  -15.1300001      -9.90152835E-20
  -15.1199999      -2.00632024E-19
  -15.1099997      -2.79499366E-19
  -15.1000004      -2.57828061E-19
  -15.0900002      -4.53302440E-20
  -15.0799999       4.12695633E-19
  -15.0699997       1.06488109E-18
  -15.0600004       1.68651198E-18
  -15.0500002       1.86175278E-18
  -15.0400000       1.07044709E-18
  -15.0299997      -1.08400820E-18
  -15.0200005      -4.52589018E-18
  -15.0100002      -8.34814662E-18
  -15.0000000      -1.06498941E-17
  -14.9899998      -8.82545796E-18
  -14.9799995      -4.95395522E-19
  -14.9700003       1.49551426E-17
  -14.9600000       3.46400212E-17
  -14.9499998       5.10666502E-17
  -14.9399996       5.27503301E-17
  -14.9300003       2.74777141E-17
  -14.9200001      -3.16362008E-17
  -14.9099998      -1.18568320E-16
  -14.8999996      -2.08263088E-16
  -14.8900003      -2.56223126E-16
  -14.8800001      -2.07963384E-16
  -14.8699999      -2.01158645E-17
  -14.8599997       3.09868290E-16
  -14.8500004       7.14878655E-16
  -14.8400002       1.04530642E-15
  -14.8299999       1.08896218E-15
  -14.8199997       6.34727262E-16
  -14.8100004      -4.23869528E-16
  -14.8000002      -1.97088367E-15
  -14.7900000      -3.58426439E-15
  -14.7799997      -4.54706217E-15
  -14.7700005      -4.00505384E-15
  -14.7600002      -1.28306486E-15
  -14.7500000       3.69528245E-15
  -14.7399998       1.00195493E-14
  -14.7299995       1.56330671E-14
  -14.7200003       1.76040179E-14
  -14.7100000       1.29441254E-14
  -14.6999998      -9.16620079E-17
  -14.6899996      -2.05429681E-14
  -14.6800003      -4.36798831E-14
  -14.6700001      -6.10168925E-14
  -14.6599998      -6.19656846E-14
  -14.6499996      -3.72623922E-14
  -14.6400003       1.63936501E-14
  -14.6300001       9.18557968E-14
  -14.6199999       1.69179585E-13
  -14.6099997       2.17453944E-13
  -14.6000004       2.02099500E-13
  -14.5900002       9.72541207E-14
  -14.5799999      -9.94210953E-14
  -14.5699997      -3.54429295E-13
  -14.5600004      -5.94789734E-13
  -14.5500002      -7.18534498E-13
  -14.5400000      -6.21608505E-13
  -14.5299997      -2.37876640E-13
  -14.5200005       4.17731306E-13
  -14.5100002       1.21849579E-12
  -14.5000000       1.92500725E-12
  -14.4899998       2.22729279E-12
  -14.4799995       1.83208158E-12
  -14.4700003       5.80831986E-13
  -14.4600000      -1.43351466E-12
  -14.4499998      -3.79563872E-12
  -14.4399996      -5.78799985E-12
  -14.4300003      -6.53105521E-12
  -14.4200001      -5.23922485E-12
  -14.4099998      -1.54381304E-12
  -14.3999996       4.20917511E-12
  -14.3900003       1.08039827E-11
  -14.3800001       1.62525722E-11
  -14.3699999       1.82037527E-11
  -14.3599997       1.46329962E-11
  -14.3500004       4.67092207E-12
  -14.3400002      -1.06709658E-11
  -14.3299999      -2.81670937E-11
  -14.3199997      -4.26900355E-11
  -14.3100004      -4.82831899E-11
  -14.3000002      -3.98855671E-11
  -14.2900000      -1.53406506E-11
  -14.2799997       2.28958449E-11
  -14.2700005       6.70219921E-11
  -14.2600002       1.04689306E-10
  -14.2500000       1.21559290E-10
  -14.2399998       1.05326317E-10
  -14.2299995       5.03430110E-11
  -14.2200003      -3.84739705E-11
  -14.2100000      -1.43938944E-10
  -14.1999998      -2.38296244E-10
  -14.1899996      -2.88778723E-10
  -14.1800003      -2.66376921E-10
  -14.1700001      -1.55966323E-10
  -14.1599998       3.50019042E-11
  -14.1499996       2.72352668E-10
  -14.1400003       4.98106278E-10
  -14.1300001       6.41467546E-10
  -14.1199999       6.36661113E-10
  -14.1099997       4.43980047E-10
  -14.1000004       6.85153115E-11
  -14.0900002      -4.29643654E-10
  -14.0799999      -9.38906619E-10
  -14.0699997      -1.31570577E-09
  -14.0600004      -1.41816692E-09
  -14.0500002      -1.14743925E-09
  -14.0400000      -4.86446050E-10
  -14.0299997       4.75741224E-10
  -14.0200005       1.54418245E-09
  -14.0100002       2.44842702E-09
  -14.0000000       2.90094770E-09
  -13.9899998       2.67322453E-09
  -13.9799995       1.67188785E-09
  -13.9700003      -6.31494379E-12
  -13.9600000      -2.06033635E-09
  -13.9499998      -4.02362144E-09
  -13.9399996      -5.35580469E-09
  -13.9300003      -5.57269475E-09
  -13.9200001      -4.38669412E-09
  -13.9099998      -1.82175997E-09
  -13.8999996       1.73269632E-09
  -13.8900003       5.55456880E-09
  -13.8800001       8.71547012E-09
  -13.8699999       1.02840456E-08
  -13.8599997       9.56618251E-09
  -13.8500004       6.32560759E-09
  -13.8400002       9.24070487E-10
  -13.8299999      -5.66863090E-09
  -13.8199997      -1.20186661E-08
  -13.8100004      -1.65139831E-08
  -13.8000002      -1.77410957E-08
  -13.7900000      -1.48707393E-08
  -13.7799997      -7.95563349E-09
  -13.7700005       1.94841121E-09
  -13.7600002       1.28947146E-08
  -13.7500000       2.23967831E-08
  -13.7399998       2.79638499E-08
  -13.7299995       2.77122041E-08
  -13.7200003       2.09095816E-08
  -13.7100000       8.30748981E-09
  -13.6999998      -7.84942689E-09
  -13.6899996      -2.41808955E-08
  -13.6800003      -3.68527644E-08
  -13.6700001      -4.24534221E-08
  -13.6599998      -3.88705601E-08
  -13.6499996      -2.59503299E-08
  -13.6400003      -5.75001335E-09
  -13.6300001       1.77244655E-08
  -13.6199999       3.92876380E-08
  -13.6099997       5.37133893E-08
  -13.6000004       5.69987115E-08
  -13.5900002       4.74502464E-08
  -13.5799999       2.63046083E-08
  -13.5699997      -2.31792407E-09
  -13.5600004      -3.21777947E-08
  -13.5500002      -5.62733007E-08
  -13.5400000      -6.85026578E-08
  -13.5299997      -6.52386092E-08
  -13.5200005      -4.64100722E-08
  -13.5100002      -1.57750613E-08
  -13.5000000       1.97515693E-08
  -13.4899998       5.16208551E-08
  -13.4799995       7.17016846E-08
  -13.4700003       7.43771835E-08
  -13.4600000       5.81497588E-08
  -13.4499998       2.63026472E-08
  -13.4399996      -1.36259066E-08
  -13.4300003      -5.15104901E-08
  -13.4200001      -7.71023210E-08
  -13.4099998      -8.27086808E-08
  -13.3999996      -6.54059562E-08
  -13.3900003      -2.81729289E-08
  -13.3800001       2.04350687E-08
  -13.3699999       6.80992116E-08
  -13.3599997       1.01680250E-07
  -13.3500004       1.10612852E-07
  -13.3400002       8.99027484E-08
  -13.3299999       4.19170085E-08
  -13.3199997      -2.35918076E-08
  -13.3100004      -9.13717386E-08
  -13.3000002      -1.44130397E-07
  -13.2900000      -1.66798912E-07
  -13.2799997      -1.50568539E-07
  -13.2700005      -9.56496820E-08
  -13.2600002      -1.19520118E-08
  -13.2500000       8.26427922E-08
  -13.2399998       1.66155971E-07
  -13.2299995       2.17707253E-07
  -13.2200003       2.22808751E-07
  -13.2100000       1.77420887E-07
  -13.1999998       8.96516426E-08
  -13.1899996      -2.15020037E-08
  -13.1800003      -1.30262777E-07
  -13.1700001      -2.10189242E-07
  -13.1599998      -2.40880581E-07
  -13.1499996      -2.13590411E-07
  -13.1400003      -1.34216890E-07
  -13.1300001      -2.26886758E-08
  -13.1199999       9.13862266E-08
  -13.1099997       1.75984653E-07
  -13.1000004       2.05192663E-07
  -13.0900002       1.66858385E-07
  -13.0799999       6.72655176E-08
  -13.0699997      -6.87060435E-08
  -13.0600004      -2.02441598E-07
  -13.0500002      -2.90722738E-07
  -13.0400000      -2.97178985E-07
  -13.0299997      -2.03294917E-07
  -13.0200005      -1.60190936E-08
  -13.0100002       2.30424163E-07
  -13.0000000       4.79683592E-07
  -12.9899998       6.64887978E-07
  -12.9799995       7.24488643E-07
  -12.9700003       6.18781030E-07
  -12.9600000       3.42985658E-07
  -12.9499998      -6.68110474E-08
  -12.9399996      -5.37142114E-07
  -12.9300003      -9.70229621E-07
  -12.9200001      -1.26441478E-06
  -12.9099998      -1.33767355E-06
  -12.8999996      -1.14877764E-06
  -12.8900003      -7.10744757E-07
  -12.8800001      -9.26621269E-08
  -12.8699999       5.91514151E-07
  -12.8599997       1.20549703E-06
  -12.8500004       1.61998059E-06
  -12.8400002       1.74218394E-06
  -12.8299999       1.53860378E-06
  -12.8199997       1.04517153E-06
  -12.8100004       3.61724318E-07
  -12.8000002      -3.68658618E-07
  -12.7900000      -9.91207571E-07
  -12.7799997      -1.37481709E-06
  -12.7700005      -1.44288629E-06
  -12.7600002      -1.19209494E-06
  -12.7500000      -6.94201333E-07
  -12.7399998      -7.99262949E-08
  -12.7299995       4.91679430E-07
  -12.7200003       8.71360953E-07
  -12.7100000       9.56208964E-07
  -12.6999998       7.15720773E-07
  -12.6899996       2.00810121E-07
  -12.6800003      -4.66770615E-07
  -12.6700001      -1.12238945E-06
  -12.6599998      -1.59737158E-06
  -12.6499996      -1.75942046E-06
  -12.6400003      -1.54480813E-06
  -12.6300001      -9.74402383E-07
  -12.6199999      -1.49465450E-07
  -12.6099997       7.71896850E-07
  -12.6000004       1.61198432E-06
  -12.5900002       2.21535788E-06
  -12.5799999       2.48500578E-06
  -12.5699997       2.40386726E-06
  -12.5600004       2.03634045E-06
  -12.5500002       1.50935455E-06
  -12.5400000       9.77703053E-07
  -12.5299997       5.82271696E-07
  -12.5200005       4.11617947E-07
  -12.5100002       4.76535718E-07
  -12.5000000       7.03983289E-07
  -12.4899998       9.51886761E-07
  -12.4799995       1.04103708E-06
  -12.4700003       7.96035522E-07
  -12.4600000       8.49928057E-08
  -12.4499998      -1.15180126E-06
  -12.4399996      -2.89101467E-06
  -12.4300003      -5.03509500E-06
  -12.4200001      -7.43734972E-06
  -12.4099998      -9.93542380E-06
  -12.3999996      -1.23830750E-05
  -12.3900003      -1.46707698E-05
  -12.3800001      -1.67290091E-05
  -12.3699999      -1.85136269E-05
  -12.3599997      -1.99780388E-05
  -12.3500004      -2.10421822E-05
  -12.3400002      -2.15699401E-05
  -12.3299999      -2.13656876E-05
  -12.3199997      -2.01960920E-05
  -12.3100004      -1.78365171E-05
  -12.3000002      -1.41340697E-05
  -12.2900000      -9.07311005E-06
  -12.2799997      -2.82619885E-06
  -12.2700005       4.22554740E-06
  -12.2600002       1.15132480E-05
  -12.2500000       1.83443099E-05
  -12.2399998       2.40017525E-05
  -12.2299995       2.78618736E-05
  -12.2200003       2.95074224E-05
  -12.2100000       2.88122792E-05
  -12.1999998       2.59778444E-05
  -12.1899996       2.15100936E-05
  -12.1800003       1.61380958E-05
  -12.1700001       1.06869165E-05
  -12.1599998       5.92811739E-06
  -12.1499996       2.43670365E-06
  -12.1400003       4.83510632E-07
  -12.1300001      -1.39399496E-08
  -12.1199999       5.30128659E-07
  -12.1099997       1.46051002E-06
  -12.1000004       2.02544402E-06
  -12.0900002       1.54767145E-06
  -12.0799999      -4.11633465E-07
  -12.0699997      -3.93015944E-06
  -12.0600004      -8.67077142E-06
  -12.0500002      -1.39125023E-05
  -12.0400000      -1.86659654E-05
  -12.0299997      -2.18559144E-05
  -12.0200005      -2.25390922E-05
  -12.0100002      -2.01158891E-05
  -12.0000000      -1.44922869E-05
  -11.9899998      -6.15520730E-06
  -11.9799995       3.86141664E-06
  -11.9700003       1.41221044E-05
  -11.9600000       2.30266760E-05
  -11.9499998       2.90979860E-05
  -11.9399996       3.12663797E-05
  -11.9300003       2.90930329E-05
  -11.9200001       2.28825647E-05
  -11.9099998       1.36548088E-05
  -11.8999996       2.97294105E-06
  -11.8900003      -7.34450850E-06
  -11.8800001      -1.55737471E-05
  -11.8699999      -2.04271983E-05
  -11.8599997      -2.13133844E-05
  -11.8500004      -1.84560195E-05
  -11.8400002      -1.28410466E-05
  -11.8299999      -5.99709028E-06
  -11.8199997       3.47567976E-07
  -11.8100004       4.65844914E-06
  -11.8000002       5.95104120E-06
  -11.7900000       4.02678688E-06
  -11.7799997      -4.69520387E-07
  -11.7700005      -6.19000548E-06
  -11.7600002      -1.13951046E-05
  -11.7500000      -1.43682582E-05
  -11.7399998      -1.38391333E-05
  -11.7299995      -9.31535033E-06
  -11.7200003      -1.24115093E-06
  -11.7100000       9.05987417E-06
  -11.6999998       1.96505025E-05
  -11.6899996       2.83966219E-05
  -11.6800003       3.34399592E-05
  -11.6700001       3.36166304E-05
  -11.6599998       2.87223138E-05
  -11.6499996       1.95604043E-05
  -11.6400003       7.76117577E-06
  -11.6300001      -4.58503519E-06
  -11.6199999      -1.53924593E-05
  -11.6099997      -2.30308597E-05
  -11.6000004      -2.66553616E-05
  -11.5900002      -2.63386119E-05
  -11.5799999      -2.29787274E-05
  -11.5699997      -1.80127008E-05
  -11.5600004      -1.30132294E-05
  -11.5500002      -9.27486417E-06
  -11.5400000      -7.49563378E-06
  -11.5299997      -7.63317621E-06
  -11.5200005      -8.96714118E-06
  -11.5100002      -1.03446619E-05
  -11.5000000      -1.05376157E-05
  -11.4899998      -8.61212811E-06
  -11.4799995      -4.20920560E-06
  -11.4700003       2.33871310E-06
  -11.4600000       1.00849884E-05
  -11.4499998       1.77161292E-05
  -11.4399996       2.38995563E-05
  -11.4300003       2.76351457E-05
  -11.4200001       2.85137976E-05
  -11.4099998       2.68123695E-05
  -11.3999996       2.33996998E-05
  -11.3900003       1.94802906E-05
  -11.3800001       1.62464767E-05
  -11.3699999       1.45347076E-05
  -11.3599997       1.45800668E-05
  -11.3500004       1.59361571E-05
  -11.3400002       1.75825608E-05
  -11.3299999       1.81916585E-05
  -11.3199997       1.64843459E-05
  -11.3100004       1.15815110E-05
  -11.3000002       3.26070312E-06
  -11.2900000      -7.94605057E-06
  -11.2799997      -2.08344372E-05
  -11.2700005      -3.37643505E-05
  -11.2600002      -4.49869040E-05
  -11.2500000      -5.29787467E-05
  -11.2399998      -5.67044372E-05
  -11.2299995      -5.57524691E-05
  -11.2200003      -5.03285664E-05
  -11.2100000      -4.11288383E-05
  -11.1999998      -2.91448705E-05
  -11.1899996      -1.54639383E-05
  -11.1800003      -1.11873806E-06
  -11.1700001       1.29839091E-05
  -11.1599998       2.60583001E-05
  -11.1499996       3.73902076E-05
  -11.1400003       4.62888202E-05
  -11.1300001       5.20836184E-05
  -11.1199999       5.41893060E-05
  -11.1099997       5.22315422E-05
  -11.1000004       4.61961026E-05
  -11.0900002       3.65454980E-05
  -11.0799999       2.42470469E-05
  -11.0699997       1.06771377E-05
  -11.0600004      -2.59757121E-06
  -11.0500002      -1.41209011E-05
  -11.0400000      -2.28561421E-05
  -11.0299997      -2.84169801E-05
  -11.0200005      -3.11468430E-05
  -11.0100002      -3.20096442E-05
  -11.0000000      -3.23061467E-05
  -10.9899998      -3.32814234E-05
  -10.9799995      -3.57252029E-05
  -10.9700003      -3.96762371E-05
  -10.9600000      -4.43199569E-05
  -10.9499998      -4.81202223E-05
  -10.9399996      -4.91636602E-05
  -10.9300003      -4.56359194E-05
  -10.9200001      -3.63105682E-05
  -10.9099998      -2.09239588E-05
  -10.8999996      -3.37042422E-07
  -10.8900003       2.35603984E-05
  -10.8800001       4.81804600E-05
  -10.8699999       7.07196086E-05
  -10.8599997       8.86723356E-05
  -10.8500004       1.00251491E-04
  -10.8400002       1.04620776E-04
  -10.8299999       1.01899554E-04
  -10.8199997       9.29634989E-05
  -10.8100004       7.91176863E-05
  -10.8000002       6.17472688E-05
  -10.7900000       4.20466604E-05
  -10.7799997       2.08947713E-05
  -10.7700005      -1.10840472E-06
  -10.7600002      -2.34819654E-05
  -10.7500000      -4.56579146E-05
  -10.7399998      -6.68169960E-05
  -10.7299995      -8.58370040E-05
  -10.7200003      -1.01382793E-04
  -10.7100000      -1.12116672E-04
  -10.6999998      -1.16964882E-04
  -10.6899996      -1.15354807E-04
  -10.6800003      -1.07345615E-04
  -10.6700001      -9.36098440E-05
  -10.6599998      -7.52732376E-05
  -10.6499996      -5.36688094E-05
  -10.6400003      -3.00910415E-05
  -10.6300001      -5.63666117E-06
  -10.6199999       1.88125778E-05
  -10.6099997       4.24629252E-05
  -10.6000004       6.43934254E-05
  -10.5900002       8.33516897E-05
  -10.5799999       9.76708980E-05
  -10.5699997       1.05390151E-04
  -10.5600004       1.04598083E-04
  -10.5500002       9.39410456E-05
  -10.5400000       7.31656910E-05
  -10.5299997       4.35275542E-05
  -10.5200005       7.90747436E-06
  -10.5100002      -2.94600359E-05
  -10.5000000      -6.36418918E-05
  -10.4899998      -8.99285806E-05
  -10.4799995      -1.04816456E-04
  -10.4700003      -1.06803382E-04
  -10.4600000      -9.67779270E-05
  -10.4499998      -7.78734320E-05
  -10.4399996      -5.47921918E-05
  -10.4300003      -3.27442940E-05
  -10.4200001      -1.62529741E-05
  -10.4099998      -8.11962673E-06
  -10.3999996      -8.80497100E-06
  -10.3900003      -1.63759305E-05
  -10.3800001      -2.70210348E-05
  -10.3699999      -3.59915903E-05
  -10.3599997      -3.87233522E-05
  -10.3500004      -3.18616076E-05
  -10.3400002      -1.39583544E-05
  -10.3299999       1.42845483E-05
  -10.3199997       5.02221337E-05
  -10.3100004       8.98060534E-05
  -10.3000002       1.28278174E-04
  -10.2900000       1.60842872E-04
  -10.2799997       1.83203520E-04
  -10.2700005       1.91937914E-04
  -10.2600002       1.84764678E-04
  -10.2500000       1.60786687E-04
  -10.2399998       1.20770404E-04
  -10.2299995       6.74431940E-05
  -10.2200003       5.69594522E-06
  -10.2100000      -5.74894038E-05
  -10.1999998      -1.13568050E-04
  -10.1899996      -1.53510904E-04
  -10.1800003      -1.69368781E-04
  -10.1700001      -1.56067559E-04
  -10.1599998      -1.13022652E-04
  -10.1499996      -4.51006708E-05
  -10.1400003       3.74691081E-05
  -10.1300001       1.20418539E-04
  -10.1199999       1.87880083E-04
  -10.1099997       2.25504176E-04
  -10.1000004       2.23579467E-04
  -10.0900002       1.79402094E-04
  -10.0799999       9.82613274E-05
  -10.0699997      -7.28942086E-06
  -10.0600004      -1.19794669E-04
  -10.0500002      -2.20395639E-04
  -10.0400000      -2.92666489E-04
  -10.0299997      -3.25886562E-04
  -10.0200005      -3.16977908E-04
  -10.0100002      -2.70672346E-04
  -10.0000000      -1.97920876E-04
  -9.98999977      -1.13000373E-04
  -9.97999954      -3.00877437E-05
  -9.97000027       3.98235461E-05
  -9.96000004       9.09189766E-05
  -9.94999981       1.23048303E-04
  -9.93999958       1.40699602E-04
  -9.93000031       1.50862717E-04
  -9.92000008       1.60454540E-04
  -9.90999985       1.74053319E-04
  -9.89999962       1.92554071E-04
  -9.89000034       2.13062143E-04
  -9.88000011       2.29976300E-04
  -9.86999989       2.36881155E-04
  -9.85999966       2.28661534E-04
  -9.85000038       2.03217933E-04
  -9.84000015       1.62301760E-04
  -9.82999992       1.11253321E-04
  -9.81999969       5.77362407E-05
  -9.81000042       9.83126483E-06
  -9.80000019      -2.59864282E-05
  -9.78999996      -4.64478944E-05
  -9.77999973      -5.22566006E-05
  -9.77000046      -4.78343682E-05
  -9.76000023      -4.01252728E-05
  -9.75000000      -3.67697430E-05
  -9.73999977      -4.41091579E-05
  -9.72999954      -6.55121548E-05
  -9.72000027      -1.00426412E-04
  -9.71000004      -1.44378922E-04
  -9.69999981      -1.89920596E-04
  -9.68999958      -2.28289922E-04
  -9.68000031      -2.51406542E-04
  -9.67000008      -2.53733422E-04
  -9.65999985      -2.33581479E-04
  -9.64999962      -1.93562679E-04
  -9.64000034      -1.40096294E-04
  -9.63000011      -8.20915520E-05
  -9.61999989      -2.91177948E-05
  -9.60999966       1.05137597E-05
  -9.60000038       3.13219643E-05
  -9.59000015       3.15407124E-05
  -9.57999992       1.31519246E-05
  -9.56999969      -1.88859594E-05
  -9.56000042      -5.79718617E-05
  -9.55000019      -9.73895367E-05
  -9.53999996      -1.31634457E-04
  -9.52999973      -1.57226546E-04
  -9.52000046      -1.72858010E-04
  -9.51000023      -1.78923045E-04
  -9.50000000      -1.76650457E-04
  -9.48999977      -1.67162711E-04
  -9.47999954      -1.50786160E-04
  -9.47000027      -1.26839936E-04
  -9.46000004      -9.39669262E-05
  -9.44999981      -5.08910525E-05
  -9.43999958       2.65409790E-06
  -9.43000031       6.51379596E-05
  -9.42000008       1.32859888E-04
  -9.40999985       2.00141105E-04
  -9.39999962       2.60068307E-04
  -9.39000034       3.05619935E-04
  -9.38000011       3.30905488E-04
  -9.36999989       3.32229392E-04
  -9.35999966       3.08753282E-04
  -9.35000038       2.62646528E-04
  -9.34000015       1.98747322E-04
  -9.32999992       1.23858292E-04
  -9.31999969       4.58526156E-05
  -9.31000042      -2.72459238E-05
  -9.30000019      -8.80972366E-05
  -9.28999996      -1.30747649E-04
  -9.27999973      -1.51200511E-04
  -9.27000046      -1.47861734E-04
  -9.26000023      -1.21837002E-04
  -9.25000000      -7.70114493E-05
  -9.23999977      -1.98105263E-05
  -9.22999954       4.14457500E-05
  -9.22000027       9.76129522E-05
  -9.21000004       1.40117714E-04
  -9.19999981       1.62451892E-04
  -9.18999958       1.61446107E-04
  -9.18000031       1.37989977E-04
  -9.17000008       9.69533285E-05
  -9.15999985       4.62415155E-05
  -9.14999962      -4.85715191E-06
  -9.14000034      -4.76651039E-05
  -9.13000011      -7.59618924E-05
  -9.11999989      -8.72046512E-05
  -9.10999966      -8.27956683E-05
  -9.10000038      -6.73269969E-05
  -9.09000015      -4.70223094E-05
  -9.07999992      -2.78327443E-05
  -9.06999969      -1.37497073E-05
  -9.06000042      -5.83407473E-06
  -9.05000019      -2.24273322E-06
  -9.03999996       7.77630646E-07
  -9.02999973       7.26736425E-06
  -9.02000046       1.98450925E-05
  -9.01000023       3.84917366E-05
  -9.00000000       6.02526161E-05
  -8.98999977       7.99862974E-05
  -8.97999954       9.19412050E-05
  -8.97000027       9.16554709E-05
  -8.96000004       7.75475200E-05
  -8.94999981       5.16428554E-05
  -8.93999958       1.91472845E-05
  -8.93000031      -1.30508251E-05
  -8.92000008      -3.85073581E-05
  -8.90999985      -5.33083585E-05
  -8.89999962      -5.74280639E-05
  -8.89000034      -5.48792741E-05
  -8.88000011      -5.25473915E-05
  -8.86999989      -5.80186061E-05
  -8.85999966      -7.70461702E-05
  -8.85000038      -1.11435642E-04
  -8.84000015      -1.58021852E-04
  -8.82999992      -2.09087739E-04
  -8.81999969      -2.54139042E-04
  -8.81000042      -2.82535417E-04
  -8.80000019      -2.86220689E-04
  -8.78999996      -2.61771493E-04
  -8.77999973      -2.11202685E-04
  -8.77000046      -1.41352473E-04
  -8.76000023      -6.20962091E-05
  -8.75000000       1.60321451E-05
  -8.73999977       8.41005167E-05
  -8.72999954       1.36308779E-04
  -8.72000027       1.70460626E-04
  -8.71000004       1.87416023E-04
  -8.69999981       1.89881059E-04
  -8.68999958       1.81058684E-04
  -8.68000031       1.63651493E-04
  -8.67000008       1.39502023E-04
  -8.65999985       1.09866342E-04
  -8.64999962       7.60543553E-05
  -8.64000034       4.00374774E-05
  -8.63000011       4.66374877E-06
  -8.61999989      -2.66858988E-05
  -8.60999966      -5.09037163E-05
  -8.60000038      -6.61016966E-05
  -8.59000015      -7.22828627E-05
  -8.57999992      -7.14014022E-05
  -8.56999969      -6.67024797E-05
  -8.56000042      -6.15212630E-05
  -8.55000019      -5.79589359E-05
  -8.53999996      -5.59423825E-05
  -8.52999973      -5.30714315E-05
  -8.52000046      -4.53921457E-05
  -8.51000023      -2.88987703E-05
  -8.50000000      -1.28151260E-06
  -8.48999977       3.66889690E-05
  -8.47999954       8.06631579E-05
  -8.47000027       1.23348611E-04
  -8.46000004       1.56156690E-04
  -8.44999981       1.71396779E-04
  -8.43999958       1.64365163E-04
  -8.43000031       1.34701826E-04
  -8.42000008       8.66192131E-05
  -8.40999985       2.79618307E-05
  -8.39999962      -3.15905017E-05
  -8.39000034      -8.26281757E-05
  -8.38000011      -1.17837983E-04
  -8.36999989      -1.33113397E-04
  -8.35999966      -1.27788182E-04
  -8.35000038      -1.04124651E-04
  -8.34000015      -6.63893152E-05
  -8.32999992      -1.98943471E-05
  -8.31999969       2.97257739E-05
  -8.31000042       7.69322869E-05
  -8.30000019       1.16517622E-04
  -8.28999996       1.43877551E-04
  -8.27999973       1.55496353E-04
  -8.27000046       1.49659580E-04
  -8.26000023       1.27201783E-04
  -8.25000000       9.19485901E-05
  -8.23999977       5.05038661E-05
  -8.22999954       1.11935196E-05
  -8.22000027      -1.77371603E-05
  -8.21000004      -3.02670178E-05
  -8.19999981      -2.44681069E-05
  -8.18999958      -3.47006676E-06
  -8.18000031       2.49015011E-05
  -8.17000008       4.98524714E-05
  -8.15999985       6.03216431E-05
  -8.14999962       4.79307855E-05
  -8.14000034       9.34089803E-06
  -8.13000011      -5.26772092E-05
  -8.11999989      -1.29776192E-04
  -8.10999966      -2.10008759E-04
  -8.10000038      -2.80661014E-04
  -8.09000015      -3.31122836E-04
  -8.07999992      -3.55005846E-04
  -8.06999969      -3.50994756E-04
  -8.06000042      -3.22336185E-04
  -8.05000019      -2.75283091E-04
  -8.03999996      -2.17091700E-04
  -8.02999973      -1.54224181E-04
  -8.02000046      -9.12485120E-05
  -8.01000023      -3.06234906E-05
  -8.00000000       2.67683081E-05
  -7.98999977       8.07039178E-05
  -7.98000002       1.30748536E-04
  -7.96999979       1.75754409E-04
  -7.96000004       2.13845546E-04
  -7.94999981       2.42787995E-04
  -7.94000006       2.60505913E-04
  -7.92999983       2.65493960E-04
  -7.92000008       2.56981002E-04
  -7.90999985       2.34857216E-04
  -7.90000010       1.99508373E-04
  -7.88999987       1.51742133E-04
  -7.88000011       9.29262897E-05
  -7.86999989       2.53166236E-05
  -7.86000013      -4.75932538E-05
  -7.84999990      -1.20943645E-04
  -7.84000015      -1.88804173E-04
  -7.82999992      -2.44943978E-04
  -7.82000017      -2.83926551E-04
  -7.80999994      -3.02213943E-04
  -7.80000019      -2.98908097E-04
  -7.78999996      -2.75850529E-04
  -7.78000021      -2.37015251E-04
  -7.76999998      -1.87386744E-04
  -7.76000023      -1.31710040E-04
  -7.75000000      -7.35543872E-05
  -7.73999977      -1.50121905E-05
  -7.73000002       4.28969615E-05
  -7.71999979       9.93325302E-05
  -7.71000004       1.52674300E-04
  -7.69999981       1.99964605E-04
  -7.69000006       2.37065775E-04
  -7.67999983       2.59558117E-04
  -7.67000008       2.64086499E-04
  -7.65999985       2.49647885E-04
  -7.65000010       2.18290443E-04
  -7.63999987       1.74882764E-04
  -7.63000011       1.25949591E-04
  -7.61999989       7.79296970E-05
  -7.61000013       3.54508775E-05
  -7.59999990       2.40008745E-07
  -7.59000015      -2.89280360E-05
  -7.57999992      -5.52114216E-05
  -7.57000017      -8.19780616E-05
  -7.55999994      -1.11012421E-04
  -7.55000019      -1.41322831E-04
  -7.53999996      -1.69005027E-04
  -7.53000021      -1.88230333E-04
  -7.51999998      -1.93013795E-04
  -7.51000023      -1.79133087E-04
  -7.50000000      -1.45522601E-04
  -7.48999977      -9.46739747E-05
  -7.48000002      -3.19513092E-05
  -7.46999979       3.58682628E-05
  -7.46000004       1.02246850E-04
  -7.44999981       1.62115670E-04
  -7.44000006       2.12279032E-04