  -16.0000000       0.00000000    
  -15.9899998       0.00000000    
  -15.9799995       0.00000000    
  -15.9700003       0.00000000    
  -15.9600000       0.00000000    
  -15.9499998       0.00000000    
  -15.9399996       0.00000000    
  -15.9300003       0.00000000    
  -15.9200001       0.00000000    
  -15.9099998       0.00000000    
  -15.8999996       0.00000000    
  -15.8900003      -3.26677704E-40
  -15.8800001      -1.88024392E-38
  -15.8699999      -3.90878508E-37
  -15.8599997      -4.85869755E-36
  -15.8500004      -4.31020431E-35
  -15.8400002      -2.98020006E-34
  -15.8299999      -1.69149431E-33
  -15.8199997      -8.15044583E-33
  -15.8100004      -3.41258294E-32
  -15.8000002      -1.26260001E-31
  -15.7900000      -4.17947346E-31
  -15.7799997      -1.24931925E-30
  -15.7700005      -3.39532986E-30
  -15.7600002      -8.42971562E-30
  -15.7500000      -1.91732435E-29
  -15.7399998      -3.99826337E-29
  -15.7299995      -7.63113569E-29
  -15.7200003      -1.32593897E-28
  -15.7100000      -2.07334159E-28
  -15.6999998      -2.84802981E-28
  -15.6899996      -3.24555090E-28
  -15.6800003      -2.53371612E-28
  -15.6700001       3.13900912E-29
  -15.6599998       6.34873754E-28
  -15.6499996       1.60395981E-27
  -15.6400003       2.83387014E-27
  -15.6300001       3.96678668E-27
  -15.6199999       4.33866295E-27
  -15.6099997       3.05630484E-27
  -15.6000004      -7.16626399E-28
  -15.5900002      -7.24521055E-27
  -15.5799999      -1.55890224E-26
  -15.5699997      -2.31311412E-26
  -15.5600004      -2.56987803E-26
  -15.5500002      -1.86938187E-26
  -15.5400000       6.47633136E-28
  -15.5299997       3.03892609E-26
  -15.5200005       6.17870620E-26
  -15.5100002       7.99315593E-26
  -15.5000000       6.88956479E-26
  -15.4899998       2.14388050E-26
  -15.4799995      -4.99359461E-26
  -15.4700003      -1.07567138E-25
  -15.4600000      -9.78131131E-26
  -15.4499998       1.92990892E-26
  -15.4399996       2.24502739E-25
  -15.4300003       3.98948111E-25
  -15.4200001       3.25945838E-25
  -15.4099998      -2.26521310E-25
  -15.3999996      -1.33022449E-24
  -15.3900003      -2.67616467E-24
  -15.3800001      -3.43654829E-24
  -15.3699999      -2.39172411E-24
  -15.3599997       1.52849068E-24
  -15.3500004       8.31441171E-24
  -15.3400002       1.58930750E-23
  -15.3299999       1.97619344E-23
  -15.3199997       1.40403578E-23
  -15.3100004      -5.60279228E-24
  -15.3000002      -3.76506996E-23
  -15.2900000      -7.09765356E-23
  -15.2799997      -8.47139488E-23
  -15.2700005      -5.48026846E-23
  -15.2600002       3.20114675E-23
  -15.2500000       1.60578936E-22
  -15.2399998       2.75619140E-22
  -15.2299995       2.88737859E-22
  -15.2200003       1.14135072E-22
  -15.2100000      -2.69216770E-22
  -15.1999998      -7.51300221E-22
  -15.1899996      -1.06350375E-21
  -15.1800003      -8.39607456E-22
  -15.1700001       2.06350905E-22
  -15.1599998       2.01403757E-21
  -15.1499996       3.93283709E-21
  -15.1400003       4.68076709E-21
  -15.1300001       2.69292506E-21
  -15.1199999      -3.06399755E-21
  -15.1099997      -1.19747957E-20
  -15.1000004      -2.08331334E-20
  -15.0900002      -2.37944901E-20
  -15.0799999      -1.39259620E-20
  -15.0699997       1.33999277E-20
  -15.0600004       5.59341598E-20
  -15.0500002       1.00620608E-19
  -15.0400000       1.23011102E-19
  -15.0299997       9.26908868E-20
  -15.0200005      -1.41508405E-20
  -15.0100002      -1.96985722E-19
  -15.0000000      -4.14038561E-19
  -14.9899998      -5.75562093E-19
  -14.9799995      -5.57280264E-19
  -14.9700003      -2.40021499E-19
  -14.9600000       4.27625312E-19
  -14.9499998       1.35969871E-18
  -14.9399996       2.28499070E-18
  -14.9300003       2.75612899E-18
  -14.9200001       2.24528168E-18
  -14.9099998       3.34763613E-19
  -14.8999996      -3.02541599E-18
  -14.8900003      -7.26499580E-18
  -14.8800001      -1.10561689E-17
  -14.8699999      -1.24171597E-17
  -14.8599997      -9.15690675E-18
  -14.8500004       3.17176771E-19
  -14.8400002       1.59387100E-17
  -14.8299999       3.49483015E-17
  -14.8199997       5.13298657E-17
  -14.8100004       5.62552101E-17
  -14.8000002       4.00125957E-17
  -14.7900000      -4.40852359E-18
  -14.7799997      -7.64935470E-17
  -14.7700005      -1.63385826E-16
  -14.7600002      -2.37190428E-16
  -14.7500000      -2.57055785E-16
  -14.7399998      -1.78406156E-16
  -14.7299995       2.98885138E-17
  -14.7200003       3.62703240E-16
  -14.7100000       7.56694925E-16
  -14.6999998       1.07974699E-15
  -14.6899996       1.14430287E-15
  -14.6800003       7.54429376E-16
  -14.6700001      -2.12561952E-16
  -14.6599998      -1.70450505E-15
  -14.6499996      -3.40594786E-15
  -14.6400003      -4.71124723E-15
  -14.6300001      -4.80993673E-15
  -14.6199999      -2.91571250E-15
  -14.6099997       1.37529786E-15
  -14.6000004       7.67806229E-15
  -14.5900002       1.45148176E-14
  -14.5799999       1.93077654E-14
  -14.5699997       1.88434507E-14
  -14.5600004       1.02769872E-14
  -14.5500002      -7.45273204E-15
  -14.5400000      -3.21752512E-14
  -14.5299997      -5.76076323E-14
  -14.5200005      -7.37210247E-14
  -14.5100002      -6.88678444E-14
  -14.5000000      -3.37088688E-14
  -14.4899998       3.37536565E-14
  -14.4799995       1.23546355E-13
  -14.4700003       2.11600702E-13
  -14.4600000       2.62253842E-13
  -14.4499998       2.36645745E-13
  -14.4399996       1.06512564E-13
  -14.4300003      -1.29533442E-13
  -14.4200001      -4.32510419E-13
  -14.4099998      -7.18974630E-13
  -14.3999996      -8.72274800E-13
  -14.3900003      -7.71781022E-13
  -14.3800001      -3.36905010E-13
  -14.3699999       4.24378740E-13
  -14.3599997       1.37899447E-12
  -14.3500004       2.26319571E-12
  -14.3400002       2.72327148E-12
  -14.3299999       2.40684534E-12
  -14.3199997       1.09200940E-12
  -14.3100004      -1.17765801E-12
  -14.3000002      -3.99909272E-12
  -14.2900000      -6.60721651E-12
  -14.2799997      -8.00083350E-12
  -14.2700005      -7.20184936E-12
  -14.2600002      -3.60690752E-12
  -14.2500000       2.65762629E-12
  -14.2399998       1.05004070E-11
  -14.2299995       1.78755274E-11
  -14.2200003       2.21243406E-11
  -14.2100000       2.06501847E-11
  -14.1999998       1.18139153E-11
  -14.1899996      -4.17583546E-12
  -14.1800003      -2.46786914E-11
  -14.1700001      -4.46439066E-11
  -14.1599998      -5.74328883E-11
  -14.1499996      -5.64369176E-11
  -14.1400003      -3.72205392E-11
  -14.1300001       3.36439129E-13
  -14.1199999       5.05897581E-11
  -14.1099997       1.02055767E-10
  -14.1000004       1.39159684E-10
  -14.0900002       1.45810780E-10
  -14.0799999       1.10232164E-10
  -14.0699997       2.99116634E-11
  -14.0600004      -8.48240367E-11
  -14.0500002      -2.10111317E-10
  -14.0400000      -3.11762838E-10
  -14.0299997      -3.52520679E-10
  -14.0200005      -3.02286640E-10
  -14.0100002      -1.49081150E-10
  -14.0000000       9.23356808E-11
  -13.9899998       3.77363280E-10
  -13.9799995       6.36357578E-10
  -13.9700003       7.87994503E-10
  -13.9600000       7.59535934E-10
  -13.9499998       5.09904785E-10
  -13.9399996       4.96486012E-11
  -13.9300003      -5.48700196E-10
  -13.9200001      -1.15519405E-09
  -13.9099998      -1.60433888E-09
  -13.8999996      -1.73230008E-09
  -13.8900003      -1.42270140E-09
  -13.8800001      -6.50279774E-10
  -13.8699999       4.90230745E-10
  -13.8599997       1.78140869E-09
  -13.8500004       2.91341662E-09
  -13.8400002       3.54643470E-09
  -13.8299999       3.39542949E-09
  -13.8199997       2.31914110E-09
  -13.8100004       3.90049715E-10
  -13.8000002      -2.07775663E-09
  -13.7900000      -4.55941374E-09
  -13.7799997      -6.41299636E-09
  -13.7700005      -7.02416569E-09
  -13.7600002      -5.97357808E-09
  -13.7500000      -3.18694027E-09
  -13.7399998       9.75813430E-10
  -13.7299995       5.72812509E-09
  -13.7200003       9.97815608E-09
  -13.7100000       1.25536799E-08
  -13.6999998       1.24905775E-08
  -13.6899996       9.32047417E-09
  -13.6800003       3.28125149E-09
  -13.6700001      -4.61913929E-09
  -13.6599998      -1.27284432E-08
  -13.6499996      -1.90653111E-08
  -13.6400003      -2.17730722E-08
  -13.6300001      -1.96155643E-08
  -13.6199999      -1.23910491E-08
  -13.6099997      -1.14182785E-09
  -13.6000004       1.19279093E-08
  -13.5900002       2.38490987E-08
  -13.5799999       3.15419086E-08
  -13.5699997       3.25913447E-08
  -13.5600004       2.59557975E-08
  -13.5500002       1.24104602E-08
  -13.5400000      -5.42924239E-09
  -13.5299997      -2.35673259E-08
  -13.5200005      -3.75105422E-08
  -13.5100002      -4.33923724E-08
  -13.5000000      -3.90639947E-08
  -13.4899998      -2.48509995E-08
  -13.4799995      -3.72642628E-09
  -13.4700003       1.92208240E-08
  -13.4600000       3.79634670E-08
  -13.4499998       4.71126391E-08
  -13.4399996       4.35026379E-08
  -13.4300003       2.73377481E-08
  -13.4200001       2.51825427E-09
  -13.4099998      -2.40572096E-08
  -13.3999996      -4.41534986E-08
  -13.3900003      -5.04826971E-08
  -13.3800001      -3.90407457E-08
  -13.3699999      -1.08292211E-08
  -13.3599997       2.76302732E-08
  -13.3500004       6.53280665E-08
  -13.3400002       8.92968188E-08
  -13.3299999       8.81599931E-08
  -13.3199997       5.58537820E-08
  -13.3100004      -5.50771784E-09
  -13.3000002      -8.45829433E-08
  -13.2900000      -1.62180712E-07
  -13.2799997      -2.15108230E-07
  -13.2700005      -2.21861669E-07
  -13.2600002      -1.68926150E-07
  -13.2500000      -5.60844953E-08
  -13.2399998       1.00862756E-07
  -13.2299995       2.71134297E-07
  -13.2200003       4.14126845E-07
  -13.2100000       4.88037699E-07
  -13.1999998       4.60289755E-07
  -13.1899996       3.17374457E-07
  -13.1800003       7.15156006E-08
  -13.1700001      -2.38019879E-07
  -13.1599998      -5.50100879E-07
  -13.1499996      -7.93065624E-07
  -13.1400003      -9.00286977E-07
  -13.1300001      -8.26730684E-07
  -13.1199999      -5.62591026E-07
  -13.1099997      -1.40304223E-07
  -13.1000004       3.67597067E-07
  -13.0900002       8.60389548E-07
  -13.0799999       1.22911354E-06
  -13.0699997       1.38070550E-06
  -13.0600004       1.26099349E-06
  -13.0500002       8.70942756E-07
  -13.0400000       2.71593620E-07
  -13.0299997      -4.24591690E-07
  -13.0200005      -1.07518190E-06
  -13.0100002      -1.53807150E-06
  -13.0000000      -1.70415501E-06
  -12.9899998      -1.52476935E-06
  -12.9799995      -1.02690376E-06
  -12.9700003      -3.11561053E-07
  -12.9600000       4.65638294E-07
  -12.9499998       1.12826842E-06
  -12.9399996       1.52021767E-06
  -12.9300003       1.54466818E-06
  -12.9200001       1.19128913E-06
  -12.9099998       5.44126749E-07
  -12.8999996      -2.33186825E-07
  -12.8900003      -9.33018043E-07
  -12.8800001      -1.35301332E-06
  -12.8699999      -1.34811080E-06
  -12.8599997      -8.72809949E-07
  -12.8500004      -2.60750688E-09
  -12.8400002       1.07235053E-06
  -12.8299999       2.08225742E-06
  -12.8199997       2.73540149E-06
  -12.8100004       2.78698758E-06
  -12.8000002       2.10383041E-06
  -12.7900000       7.09502615E-07
  -12.7799997      -1.20215429E-06
  -12.7700005      -3.29094860E-06
  -12.7600002      -5.12944689E-06
  -12.7500000      -6.28698353E-06
  -12.7399998      -6.42202713E-06
  -12.7299995      -5.36335529E-06
  -12.7200003      -3.16164346E-06
  -12.7100000      -9.82813759E-08
  -12.6999998       3.35336745E-06
  -12.6899996       6.60910973E-06
  -12.6800003       9.08293350E-06
  -12.6700001       1.03025504E-05
  -12.6599998       1.00075249E-05
  -12.6499996       8.20843525E-06
  -12.6400003       5.19265768E-06
  -12.6300001       1.47302580E-06
  -12.6199999      -2.31232639E-06
  -12.6099997      -5.52963047E-06
  -12.6000004      -7.68191330E-06
  -12.5900002      -8.51539789E-06
  -12.5799999      -8.07516426E-06
  -12.5699997      -6.69520068E-06
  -12.5600004      -4.92167010E-06
  -12.5500002      -3.38308291E-06
  -12.5400000      -2.63386869E-06
  -12.5299997      -3.00551415E-06
  -12.5200005      -4.49995468E-06
  -12.5100002      -6.75259753E-06
  -12.5000000      -9.07835147E-06
  -12.4899998      -1.05960371E-05
  -12.4799995      -1.04084365E-05
  -12.4700003      -7.80112987E-06
  -12.4600000      -2.41676980E-06
  -12.4499998       5.63552203E-06
  -12.4399996       1.57633622E-05
  -12.4300003       2.69749944E-05
  -12.4200001       3.80493038E-05
  -12.4099998       4.77570284E-05
  -12.3999996       5.50851728E-05
  -12.3900003       5.94141638E-05
  -12.3800001       6.06070462E-05
  -12.3699999       5.89896335E-05
  -12.3599997       5.52263155E-05
  -12.3500004       5.01217473E-05
  -12.3400002       4.43978461E-05
  -12.3299999       3.85031126E-05
  -12.3199997       3.25049477E-05
  -12.3100004       2.60960751E-05
  -12.3000002       1.87179576E-05
  -12.2900000       9.77353375E-06
  -12.2799997      -1.12333282E-06
  -12.2700005      -1.39272370E-05
  -12.2600002      -2.80317508E-05
  -12.2500000      -4.22741650E-05
  -12.2399998      -5.50860896E-05
  -12.2299995      -6.47655106E-05
  -12.2200003      -6.98137810E-05
  -12.2100000      -6.92615722E-05
  -12.1999998      -6.29058850E-05
  -12.1899996      -5.13978594E-05
  -12.1800003      -3.61541170E-05
  -12.1700001      -1.91054150E-05
  -12.1599998      -2.33563242E-06
  -12.1499996       1.23086356E-05
  -12.1400003       2.35489515E-05
  -12.1300001       3.08706549E-05
  -12.1199999       3.45392909E-05
  -12.1099997       3.54371077E-05
  -12.1000004       3.47627501E-05
  -12.0900002       3.36710364E-05
  -12.0799999       3.29445174E-05
  -12.0699997       3.27805974E-05
  -12.0600004       3.27491653E-05
  -12.0500002       3.19324936E-05
  -12.0400000       2.92129171E-05
  -12.0299997       2.36357700E-05
  -12.0200005       1.47546370E-05
  -12.0100002       2.86886416E-06
  -12.0000000      -1.09117136E-05
  -11.9899998      -2.47985645E-05
  -11.9799995      -3.66293571E-05
  -11.9700003      -4.42809833E-05
  -11.9600000      -4.61000272E-05
  -11.9499998      -4.12558074E-05
  -11.9399996      -2.99393269E-05
  -11.9300003      -1.33669037E-05
  -11.9200001       6.40912458E-06
  -11.9099998       2.68390140E-05
  -11.8999996       4.52906679E-05
  -11.8900003       5.94571866E-05
  -11.8800001       6.76813361E-05
  -11.8699999       6.91456007E-05
  -11.8599997       6.39094578E-05
  -11.8500004       5.28085948E-05
  -11.8400002       3.72559698E-05
  -11.8299999       1.89968086E-05
  -11.8199997      -1.31759393E-07
  -11.8100004      -1.83991233E-05
  -11.8000002      -3.43191823E-05
  -11.7900000      -4.67284335E-05
  -11.7799997      -5.48180542E-05
  -11.7700005      -5.81388704E-05
  -11.7600002      -5.65951996E-05
  -11.7500000      -5.04350464E-05
  -11.7399998      -4.02344849E-05
  -11.7299995      -2.68675649E-05
  -11.7200003      -1.14517734E-05
  -11.7100000       4.73599448E-06
  -11.6999998       2.03693598E-05
  -11.6899996       3.41955092E-05
  -11.6800003       4.51525339E-05
  -11.6700001       5.24617681E-05
  -11.6599998       5.56812956E-05
  -11.6499996       5.47165437E-05
  -11.6400003       4.97943402E-05
  -11.6300001       4.14143033E-05
  -11.6199999       3.02933950E-05
  -11.6099997       1.73149565E-05
  -11.6000004       3.48492313E-06
  -11.5900002      -1.01117948E-05
  -11.5799999      -2.23675961E-05
  -11.5699997      -3.22332344E-05
  -11.5600004      -3.88271073E-05
  -11.5500002      -4.15622308E-05
  -11.5400000      -4.02653168E-05
  -11.5299997      -3.52526658E-05
  -11.5200005      -2.73278729E-05
  -11.5100002      -1.76793128E-05
  -11.5000000      -7.67911297E-06
  -11.4899998       1.38568919E-06
  -11.4799995       8.59351621E-06
  -11.4700003       1.36100698E-05
  -11.4600000       1.67860180E-05
  -11.4499998       1.90889732E-05
  -11.4399996       2.18674468E-05
  -11.4300003       2.64893788E-05
  -11.4200001       3.39363432E-05
  -11.4099998       4.44547622E-05
  -11.3999996       5.73601319E-05
  -11.3900003       7.10586610E-05
  -11.3800001       8.32992373E-05
  -11.3699999       9.16105346E-05
  -11.3599997       9.38280427E-05
  -11.3500004       8.85885893E-05
  -11.3400002       7.56729569E-05
  -11.3299999       5.61118577E-05
  -11.3199997       3.20269610E-05
  -11.3100004       6.24369795E-06
  -11.3000002      -1.82323001E-05
  -11.2900000      -3.87518521E-05
  -11.2799997      -5.34496576E-05
  -11.2700005      -6.14727760E-05
  -11.2600002      -6.29748611E-05
  -11.2500000      -5.89021183E-05
  -11.2399998      -5.06475735E-05
  -11.2299995      -3.96771648E-05
  -11.2200003      -2.72275738E-05
  -11.2100000      -1.41445144E-05
  -11.1999998      -8.81932635E-07
  -11.1899996       1.23675200E-05
  -11.1800003       2.54771894E-05
  -11.1700001       3.82056314E-05
  -11.1599998       5.00961942E-05
  -11.1499996       6.04885499E-05
  -11.1400003       6.86310814E-05
  -11.1300001       7.38466479E-05
  -11.1199999       7.56863374E-05
  -11.1099997       7.40127216E-05
  -11.1000004       6.89827721E-05
  -11.0900002       6.09413801E-05
  -11.0799999       5.02744006E-05
  -11.0699997       3.72907562E-05
  -11.0600004       2.21982809E-05
  -11.0500002       5.20602043E-06
  -11.0400000      -1.32634723E-05
  -11.0299997      -3.23194654E-05
  -11.0200005      -5.04084201E-05
  -11.0100002      -6.52858798E-05
  -11.0000000      -7.42287739E-05
  -10.9899998      -7.44981953E-05
  -10.9799995      -6.39837381E-05
  -10.9700003      -4.18890268E-05
  -10.9600000      -9.27690508E-06
  -10.9499998       3.07018890E-05
  -10.9399996       7.30167085E-05
  -10.9300003       1.11425550E-04
  -10.9200001       1.39513810E-04
  -10.9099998       1.51910106E-04
  -10.8999996       1.45423241E-04
  -10.8900003       1.19839933E-04
  -10.8800001       7.81836425E-05
  -10.8699999       2.63451493E-05
  -10.8599997      -2.78662319E-05
  -10.8500004      -7.60725161E-05
  -10.8400002      -1.10808534E-04
  -10.8299999      -1.26836137E-04
  -10.8199997      -1.22030273E-04
  -10.8100004      -9.76721130E-05
  -10.8000002      -5.81133172E-05
  -10.7900000      -9.90670742E-06
  -10.7799997       3.93990376E-05
  -10.7700005       8.25509196E-05
  -10.7600002       1.13725204E-04
  -10.7500000       1.29316104E-04
  -10.7399998       1.28281754E-04
  -10.7299995       1.12047572E-04
  -10.7200003       8.40490975E-05
  -10.7100000       4.90477760E-05
  -10.6999998       1.23658601E-05
  -10.6899996      -2.08332094E-05
  -10.6800003      -4.61339732E-05
  -10.6700001      -6.02898617E-05
  -10.6599998      -6.14775563E-05
  -10.6499996      -4.94092674E-05
  -10.6400003      -2.53316866E-05
  -10.6300001       8.07020024E-06
  -10.6199999       4.68632934E-05
  -10.6099997       8.61639928E-05
  -10.6000004       1.20560981E-04
  -10.5900002       1.44670295E-04
  -10.5799999       1.53804547E-04
  -10.5699997       1.44702368E-04
  -10.5600004       1.16224917E-04
  -10.5500002       6.98952717E-05
  -10.5400000       1.01430287E-05
  -10.5299997      -5.58685897E-05
  -10.5200005      -1.18908669E-04
  -10.5100002      -1.68832703E-04
  -10.5000000      -1.96118446E-04
  -10.4899998      -1.93571745E-04
  -10.4799995      -1.57906063E-04
  -10.4700003      -9.08625079E-05
  -10.4600000       4.31110095E-07
  -10.4499998       1.04056453E-04
  -10.4399996       2.04878437E-04
  -10.4300003       2.86911469E-04
  -10.4200001       3.36096418E-04
  -10.4099998       3.42971034E-04
  -10.3999996       3.04681977E-04
  -10.3900003       2.25878670E-04
  -10.3800001       1.18232543E-04
  -10.3699999      -1.39326630E-06
  -10.3599997      -1.13808477E-04
  -10.3500004      -2.00845287E-04
  -10.3400002      -2.48529948E-04
  -10.3299999      -2.49448931E-04
  -10.3199997      -2.03861127E-04
  -10.3100004      -1.19384793E-04
  -10.3000002      -9.39552956E-06
  -10.2900000       1.09469482E-04
  -10.2799997       2.20155096E-04
  -10.2700005       3.07821378E-04
  -10.2600002       3.61823768E-04
  -10.2500000       3.76798329E-04
  -10.2399998       3.52831325E-04
  -10.2299995       2.94872589E-04
  -10.2200003       2.11649574E-04
  -10.2100000       1.14343835E-04
  -10.1999998       1.52258363E-05
  -10.1899996      -7.36496295E-05
  -10.1800003      -1.41659417E-04
  -10.1700001      -1.80735165E-04
  -10.1599998      -1.86355654E-04
  -10.1499996      -1.58302631E-04
  -10.1400003      -1.01012527E-04
  -10.1300001      -2.33420997E-05
  -10.1199999       6.23730884E-05
  -10.1099997       1.41956145E-04
  -10.1000004       2.01538074E-04
  -10.0900002       2.29873593E-04
  -10.0799999       2.20385264E-04
  -10.0699997       1.72508357E-04
  -10.0600004       9.20320381E-05
  -10.0500002      -9.66100288E-06
  -10.0400000      -1.17321368E-04
  -10.0299997      -2.14191314E-04
  -10.0200005      -2.84550188E-04
  -10.0100002      -3.16003192E-04
  -10.0000000      -3.01170017E-04
  -9.98999977      -2.38590495E-04
  -9.97999954      -1.32828951E-04
  -9.97000027       6.11787436E-06
  -9.96000004       1.63949298E-04
  -9.94999981       3.23571410E-04
  -9.93999958       4.66873811E-04
  -9.93000031       5.76685474E-04
  -9.92000008       6.38811151E-04
  -9.90999985       6.43989770E-04
  -9.89999962       5.89528645E-04
  -9.89000034       4.80298128E-04
  -9.88000011       3.28767957E-04
  -9.86999989       1.53863250E-04
  -9.85999966      -2.13794247E-05
  -9.85000038      -1.73112392E-04
  -9.84000015      -2.80426990E-04
  -9.82999992      -3.28869297E-04
  -9.81999969      -3.13006080E-04
  -9.81000042      -2.37470493E-04
  -9.80000019      -1.16213203E-04
  -9.78999996       2.99356616E-05
  -9.77999973       1.76920177E-04
  -9.77000046       3.01594002E-04
  -9.76000023       3.85516614E-04
  -9.75000000       4.17695235E-04
  -9.73999977       3.95821873E-04
  -9.72999954       3.25903908E-04
  -9.72000027       2.20527349E-04
  -9.71000004       9.62424674E-05
  -9.69999981      -2.93305238E-05
  -9.68999958      -1.40119577E-04
  -9.68000031      -2.23545561E-04
  -9.67000008      -2.71612633E-04
  -9.65999985      -2.81172688E-04
  -9.64999962      -2.53542297E-04
  -9.64000034      -1.93717293E-04
  -9.63000011      -1.09417218E-04
  -9.61999989      -1.01242385E-05
  -9.60999966       9.38041630E-05
  -9.60000038       1.91939500E-04
  -9.59000015       2.74531543E-04
  -9.57999992       3.33229225E-04
  -9.56999969       3.61771701E-04
  -9.56000042       3.56607663E-04
  -9.55000019       3.17368715E-04
  -9.53999996       2.47106043E-04
  -9.52999973       1.52207227E-04
  -9.52000046       4.19394382E-05
  -9.51000023      -7.23881240E-05
  -9.50000000      -1.78591348E-04
  -9.48999977      -2.64995324E-04
  -9.47999954      -3.21867439E-04
  -9.47000027      -3.42695188E-04
  -9.46000004      -3.25097091E-04
  -9.44999981      -2.71188648E-04
  -9.43999958      -1.87301266E-04
  -9.43000031      -8.30625140E-05
  -9.42000008       3.00299253E-05
  -9.40999985       1.40299613E-04
  -9.39999962       2.37542496E-04
  -9.39000034       3.14335397E-04
  -9.38000011       3.66772845E-04
  -9.36999989       3.94531613E-04
  -9.35999966       4.00314369E-04
  -9.35000038       3.88855871E-04
  -9.34000015       3.65754415E-04
  -9.32999992       3.36395926E-04
  -9.31999969       3.05174151E-04
  -9.31000042       2.75102590E-04
  -9.30000019       2.47797841E-04
  -9.28999996       2.23729614E-04
  -9.27999973       2.02596973E-04
  -9.27000046       1.83709082E-04
  -9.26000023       1.66300088E-04
  -9.25000000       1.49763975E-04
  -9.23999977       1.33829017E-04
  -9.22999954       1.18690004E-04
  -9.22000027       1.05086801E-04
  -9.21000004       9.42820261E-05
  -9.19999981       8.78777282E-05
  -9.18999958       8.74387406E-05
  -9.18000031       9.39588281E-05
  -9.17000008       1.07293607E-04
  -9.15999985       1.25750230E-04
  -9.14999962       1.46034290E-04
  -9.14000034       1.63686273E-04
  -9.13000011       1.74001412E-04
  -9.11999989       1.73258377E-04
  -9.10999966       1.59939242E-04
  -9.10000038       1.35564449E-04
  -9.09000015       1.04825565E-04
  -9.07999992       7.48698003E-05
  -9.06999969       5.38308304E-05
  -9.06000042       4.89338745E-05
  -9.05000019       6.46557091E-05
  -9.03999996       1.01435297E-04
  -9.02999973       1.55297326E-04
  -9.02000046       2.18507383E-04
  -9.01000023       2.81096989E-04
  -9.00000000       3.32867960E-04
  -8.98999977       3.65374784E-04
  -8.97999954       3.73424205E-04
  -8.97000027       3.55796423E-04
  -8.96000004       3.15126963E-04
  -8.94999981       2.57107458E-04
  -8.93999958       1.89302868E-04
  -8.93000031       1.19907498E-04
  -8.92000008       5.66832423E-05
  -8.90999985       6.18823196E-06
  -8.89999962      -2.67241594E-05
  -8.89000034      -3.92255170E-05
  -8.88000011      -3.07322043E-05
  -8.86999989      -3.03382990E-06
  -8.85999966       3.97466174E-05
  -8.85000038       9.14847042E-05
  -8.84000015       1.44772464E-04
  -8.82999992       1.92010804E-04
  -8.81999969       2.26718985E-04
  -8.81000042       2.44776980E-04
  -8.80000019       2.45269708E-04
  -8.78999996       2.30668637E-04
  -8.77999973       2.06255223E-04
  -8.77000046       1.78909919E-04
  -8.76000023       1.55584319E-04
  -8.75000000       1.41870216E-04
  -8.73999977       1.41040349E-04
  -8.72999954       1.53771616E-04
  -8.72000027       1.78531351E-04
  -8.71000004       2.12396117E-04
  -8.69999981       2.51956226E-04
  -8.68999958       2.93980789E-04
  -8.68000031       3.35662713E-04
  -8.67000008       3.74471856E-04
  -8.65999985       4.07827145E-04
  -8.64999962       4.32880770E-04
  -8.64000034       4.46650578E-04
  -8.63000011       4.46566206E-04
  -8.61999989       4.31276101E-04
  -8.60999966       4.01396828E-04
  -8.60000038       3.59846395E-04
  -8.59000015       3.11520474E-04
  -8.57999992       2.62308662E-04
  -8.56999969       2.17718334E-04
  -8.56000042       1.81564625E-04
  -8.55000019       1.55212154E-04
  -8.53999996       1.37687675E-04
  -8.52999973       1.26674422E-04
  -8.52000046       1.20053606E-04
  -8.51000023       1.17412928E-04
  -8.50000000       1.20897806E-04
  -8.48999977       1.34972332E-04
  -8.47999954       1.65033140E-04
  -8.47000027       2.15249267E-04
  -8.46000004       2.86332390E-04
  -8.44999981       3.74041701E-04
  -8.43999958       4.69048187E-04
  -8.43000031       5.58369036E-04
  -8.42000008       6.28069392E-04
  -8.40999985       6.66496577E-04
  -8.39999962       6.67106360E-04
  -8.39000034       6.30046183E-04
  -8.38000011       5.62042289E-04
  -8.36999989       4.74668195E-04
  -8.35999966       3.81566002E-04
  -8.35000038       2.95486068E-04
  -8.34000015       2.26001343E-04
  -8.32999992       1.78455186E-04
  -8.31999969       1.54233465E-04
  -8.31000042       1.51982866E-04
  -8.30000019       1.69106133E-04
  -8.28999996       2.02849958E-04
  -8.27999973       2.50561134E-04
  -8.27000046       3.09111376E-04
  -8.26000023       3.73908464E-04
  -8.25000000       4.38150862E-04
  -8.23999977       4.92941355E-04
  -8.22999954       5.28557983E-04
  -8.22000027       5.36700187E-04
  -8.21000004       5.13071660E-04
  -8.19999981       4.59407689E-04
  -8.18999958       3.84118059E-04
  -8.18000031       3.01103195E-04
  -8.17000008       2.26874952E-04
  -8.15999985       1.76699701E-04
  -8.14999962       1.60851443E-04
  -8.14000034       1.82088610E-04
  -8.13000011       2.35124768E-04
  -8.11999989       3.08255519E-04
  -8.10999966       3.86634609E-04
  -8.10000038       4.56186186E-04
  -8.09000015       5.06965967E-04
  -8.07999992       5.35001862E-04
  -8.06999969       5.42175665E-04
  -8.06000042       5.34363673E-04
  -8.05000019       5.18616172E-04
  -8.03999996       5.00428898E-04
  -8.02999973       4.82063915E-04
  -8.02000046       4.62447031E-04
  -8.01000023       4.38575866E-04
  -8.00000000       4.07818356E-04
  -7.98999977       3.70167429E-04
  -7.98000002       3.29542760E-04
  -7.96999979       2.93584977E-04
  -7.96000004       2.71933153E-04
  -7.94999981       2.73521000E-04
  -7.94000006       3.03780573E-04
  -7.92999983       3.62681225E-04
  -7.92000008       4.44253703E-04
  -7.90999985       5.37756423E-04
  -7.90000010       6.30112889E-04
  -7.88999987       7.08859588E-04
  -7.88000011       7.64726370E-04
  -7.86999989       7.93149520E-04
  -7.86000013       7.94408552E-04
  -7.84999990       7.72545522E-04
  -7.84000015       7.33592722E-04
  -7.82999992       6.83785416E-04
  -7.82000017       6.28340815E-04
  -7.80999994       5.71087934E-04
  -7.80000019       5.14868880E-04
  -7.78999996       4.62338357E-04
  -7.78000021       4.16670227E-04
  -7.76999998       3.81770340E-04
  -7.76000023       3.61843180E-04
  -7.75000000       3.60459846E-04
  -7.73999977       3.79500765E-04
  -7.73000002       4.18408483E-04
  -7.71999979       4.74066415E-04
  -7.71000004       5.41373040E-04
  -7.69999981       6.14304387E-04
  -7.69000006       6.87072170E-04
  -7.67999983       7.54969078E-04
  -7.67000008       8.14640603E-04
  -7.65999985       8.63783062E-04
  -7.65000010       9.00528976E-04
  -7.63999987       9.22925363E-04
  -7.63000011       9.28872963E-04
  -7.61999989       9.16688761E-04
  -7.61000013       8.86149355E-04
  -7.59999990       8.39597895E-04
  -7.59000015       7.82576448E-04
  -7.57999992       7.23537174E-04
  -7.57000017       6.72482420E-04
  -7.55999994       6.38781872E-04
  -7.55000019       6.28768001E-04
  -7.53999996       6.43878302E-04
  -7.53000021       6.80011581E-04
  -7.51999998       7.28416548E-04
  -7.51000023       7.77936133E-04
  -7.50000000       8.17969616E-04
  -7.48999977       8.41247616E-04
  -7.48000002       8.45554518E-04
  -7.46999979       8.33870668E-04
  -7.46000004       8.12934653E-04
  -7.44999981       7.90762308E-04
  -7.44000006       7.74002983E-04