  -16.0000000       0.00000000    
  -15.9899998       0.00000000    
  -15.9799995       0.00000000    
  -15.9700003       0.00000000    
  -15.9600000       0.00000000    
  -15.9499998       0.00000000    
  -15.9399996       0.00000000    
  -15.9300003       0.00000000    
  -15.9200001       0.00000000    
  -15.9099998       0.00000000    
  -15.8999996      -2.55006501E-38
  -15.8900003      -1.70371311E-36
  -15.8800001      -2.74653825E-35
  -15.8699999      -2.44393518E-34
  -15.8599997      -1.48796490E-33
  -15.8500004      -6.81430475E-33
  -15.8400002      -2.45826784E-32
  -15.8299999      -7.08570186E-32
  -15.8199997      -1.58814341E-31
  -15.8100004      -2.37858508E-31
  -15.8000002       1.08637838E-33
  -15.7900000       1.59802589E-30
  -15.7799997       7.24555082E-30
  -15.7700005       2.26922335E-29
  -15.7600002       5.80662221E-29
  -15.7500000       1.26992534E-28
  -15.7399998       2.38126119E-28
  -15.7299995       3.68350087E-28
  -15.7200003       4.01019131E-28
  -15.7100000       1.42023807E-29
  -15.6999998      -1.46608258E-27
  -15.6899996      -5.13621365E-27
  -15.6800003      -1.21954306E-26
  -15.6700001      -2.26387626E-26
  -15.6599998      -3.22171441E-26
  -15.6499996      -2.74823516E-26
  -15.6400003       1.90636974E-26
  -15.6300001       1.47102344E-25
  -15.6199999       3.87197165E-25
  -15.6099997       7.04538824E-25
  -15.6000004       9.03196531E-25
  -15.5900002       5.25086526E-25
  -15.5799999      -1.14876854E-24
  -15.5699997      -4.80080197E-24
  -15.5600004      -1.02658319E-23
  -15.5500002      -1.51650305E-23
  -15.5400000      -1.34685741E-23
  -15.5299997       4.63533800E-24
  -15.5200005       4.92582798E-23
  -15.5100002       1.21335403E-22
  -15.5000000       1.96941738E-22
  -15.4899998       2.10841833E-22
  -15.4799995       5.35630875E-23
  -15.4700003      -3.95371381E-22
  -15.4600000      -1.17590388E-21
  -15.4499998      -2.09638162E-21
  -15.4399996      -2.57199331E-21
  -15.4300003      -1.57617630E-21
  -15.4200001       2.10490243E-21
  -15.4099998       9.13110461E-21
  -15.3999996       1.83603642E-20
  -15.3900003       2.54529581E-20
  -15.3800001       2.22358185E-20
  -15.3699999      -1.77558640E-21
  -15.3599997      -5.43104172E-20
  -15.3500004      -1.31402448E-19
  -15.3400002      -2.06721379E-19
  -15.3299999      -2.24925556E-19
  -15.3199997      -1.08135021E-19
  -15.3100004       2.14913698E-19
  -15.3000002       7.53158029E-19
  -15.2900000       1.38116984E-18
  -15.2799997       1.78226920E-18
  -15.2700005       1.45944459E-18
  -15.2600002      -1.26195773E-19
  -15.2500000      -3.25455990E-18
  -15.2399998      -7.51869375E-18
  -15.2299995      -1.14178139E-17
  -15.2200003      -1.22413963E-17
  -15.2100000      -6.57957078E-18
  -15.1999998       8.28622471E-18
  -15.1899996       3.21619370E-17
  -15.1800003       5.94707391E-17
  -15.1700001       7.77530453E-17
  -15.1599998       6.88132941E-17
  -15.1499996       1.40606741E-17
  -15.1400003      -9.55168681E-17
  -15.1300001      -2.46533439E-16
  -15.1199999      -3.92299498E-16
  -15.1099997      -4.51232556E-16
  -15.1000004      -3.22621588E-16
  -15.0900002       7.54125874E-17
  -15.0799999       7.49029647E-16
  -15.0699997       1.56838579E-15
  -15.0600004       2.23243982E-15
  -15.0500002       2.29476663E-15
  -15.0400000       1.28060169E-15
  -15.0299997      -1.09946952E-15
  -15.0200005      -4.67803210E-15
  -15.0100002      -8.59493903E-15
  -15.0000000      -1.12349688E-14
  -14.9899998      -1.04835836E-14
  -14.9799995      -4.38667183E-15
  -14.9700003       7.83634056E-15
  -14.9600000       2.46740443E-14
  -14.9499998       4.15497071E-14
  -14.9399996       5.09595858E-14
  -14.9300003       4.40145763E-14
  -14.9200001       1.35343591E-14
  -14.9099998      -4.17653176E-14
  -14.8999996      -1.13202491E-13
  -14.8900003      -1.80024032E-13
  -14.8800001      -2.11293859E-13
  -14.8699999      -1.73196811E-13
  -14.8599997      -4.16328281E-14
  -14.8500004       1.82343778E-13
  -14.8400002       4.59184882E-13
  -14.8299999       7.06264095E-13
  -14.8199997       8.08503113E-13
  -14.8100004       6.47684217E-13
  -14.8000002       1.48034322E-13
  -14.7900000      -6.72123923E-13
  -14.7799997      -1.66027120E-12
  -14.7700005      -2.52261428E-12
  -14.7600002      -2.86859794E-12
  -14.7500000      -2.31397692E-12
  -14.7399998      -6.29800899E-13
  -14.7299995       2.09880832E-12
  -14.7200003       5.36006612E-12
  -14.7100000       8.21208986E-12
  -14.6999998       9.43756965E-12
  -14.6899996       7.86701607E-12
  -14.6800003       2.82274074E-12
  -14.6700001      -5.42864885E-12
  -14.6599998      -1.53760667E-11
  -14.6499996      -2.42856429E-11
  -14.6400003      -2.86641301E-11
  -14.6300001      -2.51716686E-11
  -14.6199999      -1.18344657E-11
  -14.6099997       1.07538240E-11
  -14.6000004       3.86632115E-11
  -14.5900002       6.47131584E-11
  -14.5799999       7.96886446E-11
  -14.5699997       7.46694442E-11
  -14.5600004       4.40702648E-11
  -14.5500002      -1.13862019E-11
  -14.5400000      -8.27728164E-11
  -14.5299997      -1.53112537E-10
  -14.5200005      -2.00184092E-10
  -14.5100002      -2.01890477E-10
  -14.5000000      -1.43236437E-10
  -14.4899998      -2.31577639E-11
  -14.4799995       1.41014256E-10
  -14.4700003       3.13534587E-10
  -14.4600000       4.45910198E-10
  -14.4499998       4.88020180E-10
  -14.4399996       4.02686107E-10
  -14.4300003       1.80099241E-10
  -14.4200001      -1.52332910E-10
  -14.4099998      -5.28815103E-10
  -14.3999996      -8.55058468E-10
  -14.3900003      -1.02880082E-09
  -14.3800001      -9.67195768E-10
  -14.3699999      -6.34446606E-10
  -14.3599997      -6.16280568E-11
  -14.3500004       6.48626430E-10
  -14.3400002       1.33679889E-09
  -14.3299999       1.81980775E-09
  -14.3199997       1.93665795E-09
  -14.3100004       1.59543512E-09
  -14.3000002       8.08520806E-10
  -14.2900000      -2.95662550E-10
  -14.2799997      -1.49093371E-09
  -14.2700005      -2.50042187E-09
  -14.2600002      -3.06269854E-09
  -14.2500000      -3.00058955E-09
  -14.2399998      -2.27370078E-09
  -14.2299995      -9.98479854E-10
  -14.2200003       5.72428382E-10
  -14.2100000       2.10855244E-09
  -14.1999998       3.28334049E-09
  -14.1899996       3.85691212E-09
  -14.1800003       3.73565578E-09
  -14.1700001       2.99012148E-09
  -14.1599998       1.82461102E-09
  -14.1499996       5.06921671E-10
  -14.1400003      -7.19703797E-10
  -14.1300001      -1.71286252E-09
  -14.1199999      -2.46765053E-09
  -14.1099997      -3.09717807E-09
  -14.1000004      -3.75877374E-09
  -14.0900002      -4.54773685E-09
  -14.0799999      -5.39577050E-09
  -14.0699997      -6.01595573E-09
  -14.0600004      -5.92735683E-09
  -14.0500002      -4.57092675E-09
  -14.0400000      -1.49943580E-09
  -14.0299997       3.40428885E-09
  -14.0200005       9.74556880E-09
  -14.0100002       1.65397420E-08
  -14.0000000       2.22877770E-08
  -13.9899998       2.52212455E-08
  -13.9799995       2.36879423E-08
  -13.9700003       1.66061387E-08
  -13.9600000       3.88480537E-09
  -13.9499998      -1.33015821E-08
  -13.9399996      -3.24775016E-08
  -13.9300003      -5.01219475E-08
  -13.9200001      -6.22081657E-08
  -13.9099998      -6.49568648E-08
  -13.8999996      -5.56769564E-08
  -13.8900003      -3.35327535E-08
  -13.8800001      -7.03320596E-11
  -13.8699999       4.06391329E-08
  -13.8599997       8.23264301E-08
  -13.8500004       1.17332270E-07
  -13.8400002       1.37818347E-07
  -13.8299999       1.37217953E-07
  -13.8199997       1.11692671E-07
  -13.8100004       6.13238811E-08
  -13.8000002      -9.22842780E-09
  -13.7900000      -9.08125131E-08
  -13.7799997      -1.70726139E-07
  -13.7700005      -2.34476673E-07
  -13.7600002      -2.68159454E-07
  -13.7500000      -2.61099302E-07
  -13.7399998      -2.08288569E-07
  -13.7299995      -1.12120020E-07
  -13.7200003       1.70226730E-08
  -13.7100000       1.61588886E-07
  -13.6999998       2.99122917E-07
  -13.6899996       4.05699780E-07
  -13.6800003       4.60002468E-07
  -13.6700001       4.47322009E-07
  -13.6599998       3.62710097E-07
  -13.6499996       2.12620918E-07
  -13.6400003       1.46364805E-08
  -13.6300001      -2.04772434E-07
  -13.6199999      -4.14110161E-07
  -13.6099997      -5.81679501E-07
  -13.6000004      -6.80508037E-07
  -13.5900002      -6.92510127E-07
  -13.5799999      -6.11191922E-07
  -13.5699997      -4.42520133E-07
  -13.5600004      -2.03947906E-07
  -13.5500002       7.80640335E-08
  -13.5400000       3.71466456E-07
  -13.5299997       6.42349107E-07
  -13.5200005       8.58440615E-07
  -13.5100002       9.92056471E-07
  -13.5000000       1.02241438E-06
  -13.4899998       9.37426876E-07
  -13.4799995       7.35147751E-07
  -13.4700003       4.24966998E-07
  -13.4600000       2.84477562E-08
  -13.4499998      -4.20540886E-07
  -13.4399996      -8.76917056E-07
  -13.4300003      -1.28723889E-06
  -13.4200001      -1.59463832E-06
  -13.4099998      -1.74573347E-06
  -13.3999996      -1.69884947E-06
  -13.3900003      -1.43233217E-06
  -13.3800001      -9.51347147E-07
  -13.3699999      -2.91501891E-07
  -13.3599997       4.82033897E-07
  -13.3500004       1.28050692E-06
  -13.3400002       2.00226714E-06
  -13.3299999       2.54673228E-06
  -13.3199997       2.82936435E-06
  -13.3100004       2.79498386E-06
  -13.3000002       2.42691362E-06
  -13.2900000       1.75019113E-06
  -13.2799997       8.28276768E-07
  -13.2700005      -2.45960251E-07
  -13.2600002      -1.36300287E-06
  -13.2500000      -2.41050134E-06
  -13.2399998      -3.28541842E-06
  -13.2299995      -3.90247533E-06
  -13.2200003      -4.19810112E-06
  -13.2100000      -4.13055341E-06
  -13.1999998      -3.67811367E-06
  -13.1899996      -2.83788154E-06
  -13.1800003      -1.62742549E-06
  -13.1700001      -9.03743569E-08
  -13.1599998       1.69480018E-06
  -13.1499996       3.60555805E-06
  -13.1400003       5.46991487E-06
  -13.1300001       7.06970513E-06
  -13.1199999       8.15635940E-06
  -13.1099997       8.48066156E-06
  -13.1000004       7.83448922E-06
  -13.0900002       6.09867993E-06
  -13.0799999       3.28794908E-06
  -13.0699997      -4.17869956E-07
  -13.0600004      -4.66635311E-06
  -13.0500002      -8.95569610E-06
  -13.0400000      -1.26901541E-05
  -13.0299997      -1.52626490E-05
  -13.0200005      -1.61529370E-05
  -13.0100002      -1.50248452E-05
  -13.0000000      -1.18040198E-05
  -12.9899998      -6.71935823E-06
  -12.9799995      -2.96608988E-07
  -12.9700003       6.69907877E-06
  -12.9600000       1.33652575E-05
  -12.9499998       1.87934984E-05
  -12.9399996       2.22079816E-05
  -12.9300003       2.30870228E-05
  -12.9200001       2.12455361E-05
  -12.9099998       1.68634197E-05
  -12.8999996       1.04549017E-05
  -12.8900003       2.78527386E-06
  -12.8800001      -5.24857751E-06
  -12.8699999      -1.27507165E-05
  -12.8599997      -1.89469883E-05
  -12.8500004      -2.32729944E-05
  -12.8400002      -2.54162442E-05
  -12.8299999      -2.53104354E-05
  -12.8199997      -2.30907190E-05
  -12.8100004      -1.90272858E-05
  -12.8000002      -1.34583224E-05
  -12.7900000      -6.74155172E-06
  -12.7799997       7.63609762E-07
  -12.7700005       8.68186453E-06
  -12.7600002       1.65857637E-05
  -12.7500000       2.39562378E-05
  -12.7399998       3.01627042E-05
  -12.7299995       3.44827677E-05
  -12.7200003       3.61723032E-05
  -12.7100000       3.45829794E-05
  -12.6999998       2.93089979E-05
  -12.6899996       2.03324926E-05
  -12.6800003       8.13069255E-06
  -12.6700001      -6.28954740E-06
  -12.6599998      -2.14527136E-05
  -12.6499996      -3.55752745E-05
  -12.6400003      -4.68080507E-05
  -12.6300001      -5.35219842E-05
  -12.6199999      -5.45852818E-05
  -12.6099997      -4.95768472E-05
  -12.6000004      -3.88898043E-05
  -12.5900002      -2.36989581E-05
  -12.5799999      -5.79289508E-06
  -12.5699997       1.27006042E-05
  -12.5600004       2.96441594E-05
  -12.5500002       4.32116904E-05
  -12.5400000       5.21386974E-05
  -12.5299997       5.58555366E-05
  -12.5200005       5.44836657E-05
  -12.5100002       4.87055077E-05
  -12.5000000       3.95468960E-05
  -12.4899998       2.81295997E-05
  -12.4799995       1.54559530E-05
  -12.4700003       2.27664100E-06
  -12.4600000      -1.09313241E-05
  -12.4499998      -2.38804478E-05
  -12.4399996      -3.63166546E-05
  -12.4300003      -4.78469628E-05
  -12.4200001      -5.78134641E-05
  -12.4099998      -6.52656381E-05
  -12.3999996      -6.90573579E-05
  -12.3900003      -6.80600788E-05
  -12.3800001      -6.14484379E-05
  -12.3699999      -4.89882805E-05
  -12.3599997      -3.12475204E-05
  -12.3500004      -9.66116841E-06
  -12.3400002       1.35880564E-05
  -12.3299999       3.58692560E-05
  -12.3199997       5.45331604E-05
  -12.3100004       6.73853792E-05
  -12.3000002       7.30983957E-05
  -12.2900000       7.14638882E-05
  -12.2799997       6.34185635E-05
  -12.2700005       5.08265548E-05
  -12.2600002       3.60586419E-05
  -12.2500000       2.14595948E-05
  -12.2399998       8.82665699E-06
  -12.2299995      -9.74495379E-07
  -12.2200003      -8.15713156E-06
  -12.2100000      -1.38780924E-05
  -12.1999998      -1.98408143E-05
  -12.1899996      -2.77239251E-05
  -12.1800003      -3.85712119E-05
  -12.1700001      -5.22973860E-05
  -12.1599998      -6.74465919E-05
  -12.1499996      -8.12891740E-05
  -12.1400003      -9.02672400E-05
  -12.1300001      -9.07174617E-05
  -12.1199999      -7.97287867E-05
  -12.1099997      -5.59506407E-05
  -12.1000004      -2.01644289E-05
  -12.0900002       2.45297524E-05
  -12.0799999       7.29849053E-05
  -12.0699997       1.18717137E-04
  -12.0600004       1.54939247E-04
  -12.0500002       1.75729612E-04
  -12.0400000       1.77111797E-04
  -12.0299997       1.57829549E-04
  -12.0200005       1.19657183E-04
  -12.0100002       6.71743546E-05
  -12.0000000       7.03993965E-06
  -11.9899998      -5.31004880E-05
  -11.9799995      -1.05865911E-04
  -11.9700003      -1.45311802E-04
  -11.9600000      -1.67802544E-04
  -11.9499998      -1.72427492E-04
  -11.9399996      -1.60898242E-04
  -11.9300003      -1.36971110E-04
  -11.9200001      -1.05533611E-04
  -11.9099998      -7.15579954E-05
  -11.8999996      -3.91446665E-05
  -11.8900003      -1.08508148E-05
  -11.8800001       1.25689203E-05
  -11.8699999       3.19767169E-05
  -11.8599997       4.92862746E-05
  -11.8500004       6.66651467E-05
  -11.8400002       8.56996994E-05
  -11.8299999       1.06722080E-04
  -11.8199997       1.28459214E-04
  -11.8100004       1.48090432E-04
  -11.8000002       1.61709409E-04
  -11.7900000       1.65097226E-04
  -11.7799997       1.54645721E-04
  -11.7700005       1.28237240E-04
  -11.7600002       8.58953354E-05
  -11.7500000       3.00667089E-05
  -11.7399998      -3.45313638E-05
  -11.7299995      -1.01478130E-04
  -11.7200003      -1.63531775E-04
  -11.7100000      -2.13669555E-04
  -11.6999998      -2.46102165E-04
  -11.6899996      -2.57088948E-04
  -11.6800003      -2.45422794E-04
  -11.6700001      -2.12517625E-04
  -11.6599998      -1.62104945E-04
  -11.6499996      -9.96142771E-05
  -11.6400003      -3.13605415E-05
  -11.6300001       3.63146319E-05
  -11.6199999       9.78061580E-05
  -11.6099997       1.48802836E-04
  -11.6000004       1.86576406E-04
  -11.5900002       2.09994541E-04
  -11.5799999       2.19300069E-04
  -11.5699997       2.15735417E-04
  -11.5600004       2.01108181E-04
  -11.5500002       1.77390073E-04
  -11.5400000       1.46421371E-04
  -11.5299997       1.09760091E-04
  -11.5200005       6.86799540E-05
  -11.5100002       2.42897258E-05
  -11.5000000      -2.22760009E-05
  -11.4899998      -6.96539209E-05
  -11.4799995      -1.16093543E-04
  -11.4700003      -1.59387084E-04
  -11.4600000      -1.96912733E-04
  -11.4499998      -2.25795375E-04
  -11.4399996      -2.43169401E-04
  -11.4300003      -2.46512238E-04
  -11.4200001      -2.34006322E-04
  -11.4099998      -2.04880969E-04
  -11.3999996      -1.59684831E-04
  -11.3900003      -1.00442849E-04
  -11.3800001      -3.06614020E-05
  -11.3699999       4.48406900E-05
  -11.3599997       1.20277909E-04
  -11.3500004       1.89399623E-04
  -11.3400002       2.46102223E-04
  -11.3299999       2.85085087E-04
  -11.3199997       3.02467786E-04
  -11.3100004       2.96284328E-04
  -11.3000002       2.66777177E-04
  -11.2900000       2.16439701E-04
  -11.2799997       1.49787520E-04
  -11.2700005       7.28794330E-05
  -11.2600002      -7.35335561E-06
  -11.2500000      -8.38809137E-05
  -11.2399998      -1.50345935E-04
  -11.2299995      -2.01728049E-04
  -11.2200003      -2.34813240E-04
  -11.2100000      -2.48411729E-04
  -11.1999998      -2.43307106E-04
  -11.1899996      -2.21960203E-04
  -11.1800003      -1.88027290E-04
  -11.1700001      -1.45776808E-04
  -11.1599998      -9.94991133E-05
  -11.1499996      -5.29985446E-05
  -11.1400003      -9.23728749E-06
  -11.1300001       2.98295745E-05
  -11.1199999       6.32234733E-05
  -11.1099997       9.07464200E-05
  -11.1000004       1.12677299E-04
  -11.0900002       1.29434178E-04
  -11.0799999       1.41278098E-04
  -11.0699997       1.48121733E-04
  -11.0600004       1.49481973E-04
  -11.0500002       1.44583901E-04
  -11.0400000       1.32591653E-04
  -11.0299997       1.12914015E-04
  -11.0200005       8.55166872E-05
  -11.0100002       5.11700746E-05
  -11.0000000       1.15732973E-05
  -10.9899998      -3.06817383E-05
  -10.9799995      -7.23123230E-05
  -10.9700003      -1.09688030E-04
  -10.9600000      -1.39263968E-04
  -10.9499998      -1.58037277E-04
  -10.9399996      -1.63955672E-04
  -10.9300003      -1.56215392E-04
  -10.9200001      -1.35403403E-04
  -10.9099998      -1.03463739E-04
  -10.8999996      -6.34935277E-05
  -10.8900003      -1.93978012E-05
  -10.8800001       2.45493920E-05
  -10.8699999       6.41802108E-05
  -10.8599997       9.58849632E-05
  -10.8500004       1.16986899E-04
  -10.8400002       1.25998034E-04
  -10.8299999       1.22730664E-04
  -10.8199997       1.08257591E-04
  -10.8100004       8.47320698E-05
  -10.8000002       5.50948535E-05
  -10.7900000       2.27072178E-05
  -10.7799997      -9.04409626E-06
  -10.7700005      -3.71229362E-05
  -10.7600002      -5.91577118E-05
  -10.7500000      -7.36589282E-05
  -10.7399998      -8.01181886E-05
  -10.7299995      -7.89807455E-05
  -10.7200003      -7.14987909E-05
  -10.7100000      -5.94873600E-05
  -10.6999998      -4.50170883E-05
  -10.6899996      -3.00875763E-05
  -10.6800003      -1.63295772E-05
  -10.6700001      -4.78260426E-06
  -10.6599998       4.21420418E-06
  -10.6499996       1.09959856E-05
  -10.6400003       1.64105968E-05
  -10.6300001       2.15460677E-05
  -10.6199999       2.73949991E-05
  -10.6099997       3.45210537E-05
  -10.6000004       4.27990781E-05
  -10.5900002       5.12929691E-05
  -10.5799999       5.83136643E-05
  -10.5699997       6.16666221E-05
  -10.5600004       5.90592244E-05
  -10.5500002       4.86018362E-05
  -10.5400000       2.93096255E-05
  -10.5299997       1.50201174E-06
  -10.5200005      -3.29929862E-05
  -10.5100002      -7.08927691E-05
  -10.5000000      -1.07791129E-04
  -10.4899998      -1.38733449E-04
  -10.4799995      -1.58954761E-04
  -10.4700003      -1.64663230E-04
  -10.4600000      -1.53734596E-04
  -10.4499998      -1.26190760E-04
  -10.4399996      -8.43652306E-05
  -10.4300003      -3.27070011E-05
  -10.4200001       2.27656983E-05
  -10.4099998       7.52904816E-05
  -10.3999996       1.18342527E-04
  -10.3900003       1.46618899E-04
  -10.3800001       1.56864407E-04
  -10.3699999       1.48398060E-04
  -10.3599997       1.23244536E-04
  -10.3500004       8.58384010E-05
  -10.3400002       4.23396268E-05
  -10.3299999      -3.33932320E-07
  -10.3199997      -3.56011806E-05
  -10.3100004      -5.82590583E-05
  -10.3000002      -6.52965973E-05
  -10.2900000      -5.63447211E-05
  -10.2799997      -3.36864978E-05
  -10.2700005      -1.82751614E-06
  -10.2600002       3.32983764E-05
  -10.2500000       6.53504831E-05
  -10.2399998       8.86544294E-05
  -10.2299995       9.91441266E-05
  -10.2200003       9.50141985E-05
  -10.2100000       7.69754261E-05
  -10.1999998       4.80754134E-05
  -10.1899996       1.31209781E-05
  -10.1800003      -2.21926330E-05
  -10.1700001      -5.22914634E-05
  -10.1599998      -7.26940489E-05
  -10.1499996      -8.07743345E-05
  -10.1400003      -7.61839110E-05
  -10.1300001      -6.08616829E-05
  -10.1199999      -3.86337269E-05
  -10.1099997      -1.44800215E-05
  -10.1000004       6.39397695E-06
  -10.0900002       1.95075954E-05
  -10.0799999       2.19011654E-05
  -10.0699997       1.26341447E-05
  -10.0600004      -7.09845199E-06
  -10.0500002      -3.42380954E-05
  -10.0400000      -6.44532629E-05
  -10.0299997      -9.29181042E-05
  -10.0200005      -1.15118921E-04
  -10.0100002      -1.27533829E-04
  -10.0000000      -1.28070969E-04
  -9.98999977      -1.16213101E-04
  -9.97999954      -9.28858499E-05
  -9.97000027      -6.01249012E-05
  -9.96000004      -2.06504246E-05
  -9.94999981       2.25415952E-05
  -9.93999958       6.64894978E-05
  -9.93000031       1.08442320E-04
  -9.92000008       1.45916827E-04
  -9.90999985       1.76686677E-04
  -9.89999962       1.98770111E-04
  -9.89000034       2.10470753E-04
  -9.88000011       2.10495680E-04
  -9.86999989       1.98135676E-04
  -9.85999966       1.73460197E-04
  -9.85000038       1.37464362E-04
  -9.84000015       9.21117171E-05
  -9.82999992       4.02436635E-05
  -9.81999969      -1.46390394E-05
  -9.81000042      -6.86845597E-05
  -9.80000019      -1.18032724E-04
  -9.78999996      -1.59138814E-04
  -9.77999973      -1.89044440E-04
  -9.77000046      -2.05588774E-04
  -9.76000023      -2.07576071E-04
  -9.75000000      -1.94922060E-04
  -9.73999977      -1.68787636E-04
  -9.72999954      -1.31678433E-04
  -9.72000027      -8.74540856E-05
  -9.71000004      -4.11693436E-05
  -9.69999981       1.32430966E-06
  -9.68999958       3.40465958E-05
  -9.68000031       5.17836779E-05
  -9.67000008       5.10830068E-05
  -9.65999985       3.11469448E-05
  -9.64999962      -5.60859780E-06
  -9.64000034      -5.35378094E-05
  -9.63000011      -1.04407140E-04
  -9.61999989      -1.48671010E-04
  -9.60999966      -1.77196038E-04
  -9.60000038      -1.83111420E-04
  -9.59000015      -1.63388686E-04
  -9.57999992      -1.19770302E-04
  -9.56999969      -5.87793584E-05
  -9.56000042       9.26907251E-06
  -9.55000019       7.21108954E-05
  -9.53999996       1.17882693E-04
  -9.52999973       1.37498733E-04
  -9.52000046       1.26551109E-04
  -9.51000023       8.63200985E-05
  -9.50000000       2.36707710E-05
  -9.48999977      -5.01488576E-05
  -9.47999954      -1.21557692E-04
  -9.47000027      -1.77116453E-04
  -9.46000004      -2.05930846E-04
  -9.44999981      -2.01524395E-04
  -9.43999958      -1.62856843E-04
  -9.43000031      -9.43551931E-05
  -9.42000008      -5.02601597E-06
  -9.40999985       9.31203758E-05
  -9.39999962       1.87006619E-04
  -9.39000034       2.64441158E-04
  -9.38000011       3.15790676E-04
  -9.36999989       3.35165299E-04
  -9.35999966       3.21013038E-04
  -9.35000038       2.76110339E-04
  -9.34000015       2.07006029E-04
  -9.32999992       1.23020407E-04
  -9.31999969       3.49326838E-05
  -9.31000042      -4.64868790E-05
  -9.30000019      -1.11923167E-04
  -9.28999996      -1.54752212E-04
  -9.27999973      -1.71885666E-04
  -9.27000046      -1.64081561E-04
  -9.26000023      -1.35653157E-04
  -9.25000000      -9.36114593E-05
  -9.23999977      -4.63882425E-05
  -9.22999954      -2.37725158E-06
  -9.22000027       3.14259887E-05
  -9.21000004       5.04285854E-05
  -9.19999981       5.29181671E-05
  -9.18999958       3.99721030E-05
  -9.18000031       1.48904683E-05
  -9.17000008      -1.76536396E-05
  -9.15999985      -5.25142204E-05
  -9.14999962      -8.48230193E-05
  -9.14000034      -1.10478963E-04
  -9.13000011      -1.26374332E-04
  -9.11999989      -1.30446118E-04
  -9.10999966      -1.21679645E-04
  -9.10000038      -1.00165940E-04
  -9.09000015      -6.72381284E-05
  -9.07999992      -2.56189815E-05
  -9.06999969       2.05558026E-05
  -9.06000042       6.59820143E-05
  -9.05000019       1.04780069E-04
  -9.03999996       1.31401044E-04
  -9.02999973       1.41679731E-04
  -9.02000046       1.33774563E-04
  -9.01000023       1.08717955E-04
  -9.00000000       7.03768237E-05
  -8.98999977       2.47756743E-05
  -8.97999954      -2.10840517E-05
  -8.97000027      -6.06224276E-05
  -8.96000004      -8.89425355E-05
  -8.94999981      -1.03639170E-04
  -8.93999958      -1.04975406E-04
  -8.93000031      -9.54369825E-05
  -8.92000008      -7.88531397E-05
  -8.90999985      -5.93801706E-05
  -8.89999962      -4.06475810E-05
  -8.89000034      -2.52692516E-05
  -8.88000011      -1.47634346E-05
  -8.86999989      -9.76870433E-06
  -8.85999966      -1.03473003E-05
  -8.85000038      -1.61686876E-05
  -8.84000015      -2.64615373E-05
  -8.82999992      -3.97701660E-05
  -8.81999969      -5.36881089E-05
  -8.81000042      -6.48046989E-05
  -8.80000019      -6.90561210E-05
  -8.78999996      -6.25277098E-05
  -8.77999973      -4.25593753E-05
  -8.77000046      -8.83567463E-06
  -8.76000023       3.59308324E-05
  -8.75000000       8.60479558E-05
  -8.73999977       1.33751295E-04
  -8.72999954       1.70826141E-04
  -8.72000027       1.90544917E-04
  -8.71000004       1.89375103E-04
  -8.69999981       1.67935665E-04
  -8.68999958       1.30877554E-04
  -8.68000031       8.56794504E-05
  -8.67000008       4.06849540E-05
  -8.65999985       2.95069549E-06
  -8.64999962      -2.34581657E-05
  -8.64000034      -3.82242433E-05
  -8.63000011      -4.43838944E-05
  -8.61999989      -4.69459701E-05
  -8.60999966      -5.09983656E-05
  -8.60000038      -5.99322339E-05
  -8.59000015      -7.43600904E-05
  -8.57999992      -9.20606908E-05
  -8.56999969      -1.08932327E-04
  -8.56000042      -1.20596182E-04
  -8.55000019      -1.24076818E-04
  -8.53999996      -1.18968950E-04
  -8.52999973      -1.07682499E-04
  -8.52000046      -9.46775472E-05
  -8.51000023      -8.49482531E-05
  -8.50000000      -8.22719012E-05
  -8.48999977      -8.78203791E-05
  -8.47999954      -9.96115195E-05
  -8.47000027      -1.12999485E-04
  -8.46000004      -1.22061130E-04
  -8.44999981      -1.21443176E-04
  -8.43999958      -1.08088614E-04
  -8.43000031      -8.23030277E-05
  -8.42000008      -4.78343754E-05
  -8.40999985      -1.09488237E-05
  -8.39999962       2.12113064E-05
  -8.39000034       4.24987993E-05
  -8.38000011       4.93293628E-05
  -8.36999989       4.15309842E-05
  -8.35999966       2.22912786E-05
  -8.35000038      -2.71646718E-06
  -8.34000015      -2.67347295E-05
  -8.32999992      -4.34527901E-05
  -8.31999969      -4.82928081E-05
  -8.31000042      -3.91997455E-05
  -8.30000019      -1.68538318E-05
  -8.28999996       1.56226106E-05
  -8.27999973       5.33004786E-05
  -8.27000046       9.02431566E-05
  -8.26000023       1.20335782E-04
  -8.25000000       1.38076372E-04
  -8.23999977       1.39307624E-04
  -8.22999954       1.21871228E-04
  -8.22000027       8.61282824E-05
  -8.21000004       3.52343523E-05
  -8.19999981      -2.49728928E-05
  -8.18999958      -8.65883776E-05
  -8.18000031      -1.40775359E-04
  -8.17000008      -1.79294075E-04
  -8.15999985      -1.96143737E-04
  -8.14999962      -1.88937454E-04
  -8.14000034      -1.59629766E-04
  -8.13000011      -1.14332761E-04
  -8.11999989      -6.21723011E-05
  -8.10999966      -1.33924896E-05
  -8.10000038       2.28624976E-05
  -8.09000015       4.05443971E-05
  -8.07999992       3.79635640E-05
  -8.06999969       1.79883973E-05
  -8.06000042      -1.28671172E-05
  -8.05000019      -4.62159296E-05
  -8.03999996      -7.39463794E-05
  -8.02999973      -9.01690000E-05
  -8.02000046      -9.24569686E-05
  -8.01000023      -8.20908317E-05
  -8.00000000      -6.33107120E-05
  -7.98999977      -4.18602613E-05
  -7.98000002      -2.32919665E-05
  -7.96999979      -1.15395051E-05
  -7.96000004      -8.14509349E-06
  -7.94999981      -1.22999763E-05
  -7.94000006      -2.15912605E-05
  -7.92999983      -3.31325027E-05
  -7.92000008      -4.46557715E-05
  -7.90999985      -5.51857665E-05
  -7.90000010      -6.50844740E-05
  -7.88999987      -7.54869689E-05
  -7.88000011      -8.73666213E-05
  -7.86999989      -1.00599049E-04
  -7.86000013      -1.13397196E-04
  -7.84999990      -1.22364523E-04
  -7.84000015      -1.23203034E-04
  -7.82999992      -1.11888410E-04
  -7.82000017      -8.59595748E-05
  -7.80999994      -4.55194167E-05
  -7.80000019       6.37624635E-06
  -7.78999996       6.40823127E-05
  -7.78000021       1.20394361E-04
  -7.76999998       1.67961727E-04
  -7.76000023       2.00695184E-04
  -7.75000000       2.14798187E-04
  -7.73999977       2.09182865E-04
  -7.73000002       1.85231082E-04
  -7.71999979       1.46059916E-04
  -7.71000004       9.55861033E-05
  -7.69999981       3.77136057E-05
  -7.69000006      -2.41146063E-05
  -7.67999983      -8.69203868E-05
  -7.67000008      -1.47851009E-04
  -7.65999985      -2.03733784E-04
  -7.65000010      -2.50805635E-04
  -7.63999987      -2.84835696E-04
  -7.63000011      -3.01708409E-04
  -7.61999989      -2.98350962E-04
  -7.61000013      -2.73734768E-04
  -7.59999990      -2.29612138E-04
  -7.59000015      -1.70694242E-04
  -7.57999992      -1.04123719E-04
  -7.57000017      -3.83000188E-05
  -7.55999994       1.86840753E-05
  -7.55000019       6.06050271E-05
  -7.53999996       8.42617228E-05
  -7.53000021       8.99129736E-05
  -7.51999998       8.08868499E-05
  -7.51000023       6.24773093E-05
  -7.50000000       4.04395541E-05
  -7.48999977       1.95020693E-05
  -7.48000002       2.29843567E-06
  -7.46999979      -1.10073279E-05
  -7.46000004      -2.23328643E-05
  -7.44999981      -3.46780507E-05
  -7.44000006      -5.08359662E-05