  -16.0000000       0.00000000    
  -15.9899998       0.00000000    
  -15.9799995       0.00000000    
  -15.9700003       0.00000000    
  -15.9600000       0.00000000    
  -15.9499998       0.00000000    
  -15.9399996       0.00000000    
  -15.9300003       0.00000000    
  -15.9200001       0.00000000    
  -15.9099998       0.00000000    
  -15.8999996       0.00000000    
  -15.8900003       2.36833453E-41
  -15.8800001       2.46105285E-39
  -15.8699999       5.95492656E-38
  -15.8599997       8.12894181E-37
  -15.8500004       7.79270318E-36
  -15.8400002       5.78652247E-35
  -15.8299999       3.51455936E-34
  -15.8199997       1.80668302E-33
  -15.8100004       8.04514432E-33
  -15.8000002       3.15549615E-32
  -15.7900000       1.10375546E-31
  -15.7799997       3.47560366E-31
  -15.7700005       9.92241082E-31
  -15.7600002       2.58146214E-30
  -15.7500000       6.14062939E-30
  -15.7399998       1.33734273E-29
  -15.7299995       2.66366854E-29
  -15.7200003       4.82963617E-29
  -15.7100000       7.88719349E-29
  -15.6999998       1.13387488E-28
  -15.6899996       1.35877210E-28
  -15.6800003       1.13414006E-28
  -15.6700001      -6.45450745E-30
  -15.6599998      -2.87752350E-28
  -15.6499996      -7.78099579E-28
  -15.6400003      -1.45282140E-27
  -15.6300001      -2.13349223E-27
  -15.6199999      -2.40644080E-27
  -15.6099997      -1.60248879E-27
  -15.6000004       1.06438175E-27
  -15.5900002       6.09456255E-27
  -15.5799999       1.30009562E-26
  -15.5699997       1.94636067E-26
  -15.5600004       2.08106684E-26
  -15.5500002       1.06246021E-26
  -15.5400000      -1.66441516E-26
  -15.5299997      -6.07117213E-26
  -15.5200005      -1.09259873E-25
  -15.5100002      -1.33870004E-25
  -15.5000000      -9.35584535E-26
  -15.4899998       4.85776509E-26
  -15.4799995       2.94384327E-25
  -15.4700003       5.73911494E-25
  -15.4600000       7.24676322E-25
  -15.4499998       5.18353105E-25
  -15.4399996      -2.38635083E-25
  -15.4300003      -1.53402454E-24
  -15.4200001      -2.96703879E-24
  -15.4099998      -3.67583189E-24
  -15.3999996      -2.52622351E-24
  -15.3900003       1.34227710E-24
  -15.3800001       7.68952265E-24
  -15.3699999       1.44062678E-23
  -15.3599997       1.73825311E-23
  -15.3500004       1.16159997E-23
  -15.3400002      -6.21143555E-24
  -15.3299999      -3.42807143E-23
  -15.3199997      -6.29270431E-23
  -15.3100004      -7.49807494E-23
  -15.3000002      -5.10902231E-23
  -15.2900000       1.99491611E-23
  -15.2799997       1.29034180E-22
  -15.2700005       2.39130625E-22
  -15.2600002       2.89623327E-22
  -15.2500000       2.16987615E-22
  -15.2399998      -1.15530644E-23
  -15.2299995      -3.64560014E-22
  -15.2200003      -7.32897472E-22
  -15.2100000      -9.53123102E-22
  -15.1999998      -8.68969490E-22
  -15.1899996      -4.07825235E-22
  -15.1800003       3.70817233E-22
  -15.1700001       1.29578469E-21
  -15.1599998       2.17817779E-21
  -15.1499996       2.92086683E-21
  -15.1400003       3.53118436E-21
  -15.1300001       3.93266503E-21
  -15.1199999       3.58719353E-21
  -15.1099997       1.15322225E-21
  -15.1000004      -5.37899720E-21
  -15.0900002      -1.76006941E-20
  -15.0799999      -3.45146668E-20
  -15.0699997      -4.99366383E-20
  -15.0600004      -5.11369679E-20
  -15.0500002      -2.10684501E-20
  -15.0400000       5.39266991E-20
  -15.0299997       1.71251034E-19
  -15.0200005       2.98232706E-19
  -15.0100002       3.65813440E-19
  -15.0000000       2.80276580E-19
  -14.9899998      -3.96152079E-20
  -14.9799995      -6.03025006E-19
  -14.9700003      -1.28420111E-18
  -14.9600000      -1.79197389E-18
  -14.9499998      -1.71366976E-18
  -14.9399996      -6.61325213E-19
  -14.9300003       1.49250659E-18
  -14.9200001       4.36276810E-18
  -14.9099998       6.91573161E-18
  -14.8999996       7.60179066E-18
  -14.8900003       4.85790931E-18
  -14.8800001      -2.06207235E-18
  -14.8699999      -1.21791104E-17
  -14.8599997      -2.22495240E-17
  -14.8500004      -2.71110944E-17
  -14.8400002      -2.12591853E-17
  -14.8299999      -1.53512893E-18
  -14.8199997       2.98599099E-17
  -14.8100004       6.34440582E-17
  -14.8000002       8.32764942E-17
  -14.7900000       7.16508876E-17
  -14.7799997       1.73722454E-17
  -14.7700005      -7.47309839E-17
  -14.7600002      -1.77374562E-16
  -14.7500000      -2.42567128E-16
  -14.7399998      -2.15187317E-16
  -14.7299995      -5.78843126E-17
  -14.7200003       2.19360649E-16
  -14.7100000       5.37735584E-16
  -14.6999998       7.51697536E-16
  -14.6899996       6.86608136E-16
  -14.6800003       2.12278871E-16
  -14.6700001      -6.65091805E-16
  -14.6599998      -1.72870139E-15
  -14.6499996      -2.54121849E-15
  -14.6400003      -2.53875341E-15
  -14.6300001      -1.23847398E-15
  -14.6199999       1.48021390E-15
  -14.6099997       5.11695865E-15
  -14.6000004       8.44880721E-15
  -14.5900002       9.71472336E-15
  -14.5799999       7.14722335E-15
  -14.5699997      -2.17365277E-16
  -14.5600004      -1.16789614E-14
  -14.5500002      -2.43263983E-14
  -14.5400000      -3.31989990E-14
  -14.5299997      -3.24275993E-14
  -14.5200005      -1.73240616E-14
  -14.5100002       1.30360005E-14
  -14.5000000       5.36094674E-14
  -14.4899998       9.26620434E-14
  -14.4799995       1.13489682E-13
  -14.4700003       9.89539532E-14
  -14.4600000       3.82024395E-14
  -14.4499998      -6.62058773E-14
  -14.4399996      -1.93447797E-13
  -14.4300003      -3.04714966E-13
  -14.4200001      -3.50601872E-13
  -14.4099998      -2.85581888E-13
  -14.3999996      -8.68045463E-14
  -14.3900003       2.28254508E-13
  -14.3800001       5.92358790E-13
  -14.3699999       8.93861645E-13
  -14.3599997       1.00028297E-12
  -14.3500004       7.98064089E-13
  -14.3400002       2.39863088E-13
  -14.3299999      -6.14892956E-13
  -14.3199997      -1.58282588E-12
  -14.3100004      -2.37659588E-12
  -14.3000002      -2.66729629E-12
  -14.2900000      -2.18147332E-12
  -14.2799997      -8.10764270E-13
  -14.2700005       1.29873521E-12
  -14.2600002       3.71316693E-12
  -14.2500000       5.76124044E-12
  -14.2399998       6.67618955E-12
  -14.2299995       5.80994107E-12
  -14.2200003       2.87171589E-12
  -14.2100000      -1.87708724E-12
  -14.1999998      -7.54398193E-12
  -14.1899996      -1.26973996E-11
  -14.1800003      -1.56462603E-11
  -14.1700001      -1.48715259E-11
  -14.1599998      -9.52046428E-12
  -14.1499996       1.65231408E-13
  -14.1400003       1.26274277E-11
  -14.1300001       2.50892328E-11
  -14.1199999       3.40220664E-11
  -14.1099997       3.59403896E-11
  -14.1000004       2.83828430E-11
  -14.0900002       1.08558570E-11
  -14.0799999      -1.45252421E-11
  -14.0699997      -4.29426703E-11
  -14.0600004      -6.74872797E-11
  -14.0500002      -8.04829189E-11
  -14.0400000      -7.53483109E-11
  -14.0299997      -4.86377293E-11
  -14.0200005      -1.76717083E-12
  -14.0100002       5.81082300E-11
  -14.0000000       1.18513283E-10
  -13.9899998       1.63590488E-10
  -13.9799995       1.77435247E-10
  -13.9700003       1.48304480E-10
  -13.9600000       7.28027430E-11
  -13.9499998      -4.10816797E-11
  -13.9399996      -1.73206338E-10
  -13.9300003      -2.93563340E-10
  -13.9200001      -3.67792546E-10
  -13.9099998      -3.65241337E-10
  -13.8999996      -2.68015554E-10
  -13.8900003      -7.87976073E-11
  -13.8800001       1.75003678E-10
  -13.8699999       4.42781561E-10
  -13.8599997       6.58846921E-10
  -13.8500004       7.56416652E-10
  -13.8400002       6.84962476E-10
  -13.8299999       4.26916641E-10
  -13.8199997       9.05428770E-12
  -13.8100004      -4.95621377E-10
  -13.8000002      -9.77870895E-10
  -13.7900000      -1.31364608E-09
  -13.7799997      -1.39328182E-09
  -13.7700005      -1.15200072E-09
  -13.7600002      -5.93822547E-10
  -13.7500000       1.98509625E-10
  -13.7399998       1.07232034E-09
  -13.7299995       1.83288273E-09
  -13.7200003       2.28568786E-09
  -13.7100000       2.28396213E-09
  -13.6999998       1.76982218E-09
  -13.6899996       7.97875543E-10
  -13.6800003      -4.66415684E-10
  -13.6700001      -1.77538095E-09
  -13.6599998      -2.84969670E-09
  -13.6499996      -3.43975692E-09
  -13.6400003      -3.38338846E-09
  -13.6300001      -2.64575450E-09
  -13.6199999      -1.33139610E-09
  -13.6099997       3.34763717E-10
  -13.6000004       2.05283257E-09
  -13.5900002       3.50863893E-09
  -13.5799999       4.43513226E-09
  -13.5699997       4.66054084E-09
  -13.5600004       4.13371914E-09
  -13.5500002       2.92381808E-09
  -13.5400000       1.19833043E-09
  -13.5299997      -8.11468615E-10
  -13.5200005      -2.84708479E-09
  -13.5100002      -4.65286609E-09
  -13.5000000      -5.99584160E-09
  -13.4899998      -6.67715794E-09
  -13.4799995      -6.54102594E-09
  -13.4700003      -5.48808599E-09
  -13.4600000      -3.49741680E-09
  -13.4499998      -6.55895560E-10
  -13.4399996       2.81277646E-09
  -13.4300003       6.53188703E-09
  -13.4200001       9.98199923E-09
  -13.4099998       1.25477397E-08
  -13.3999996       1.36032394E-08
  -13.3900003       1.26280462E-08
  -13.3800001       9.33514066E-09
  -13.3699999       3.78551368E-09
  -13.3599997      -3.53856144E-09
  -13.3500004      -1.17258745E-08
  -13.3400002      -1.95097165E-08
  -13.3299999      -2.54250399E-08
  -13.3199997      -2.80370287E-08
  -13.3100004      -2.62137032E-08
  -13.3000002      -1.94018437E-08
  -13.2900000      -7.85587950E-09
  -13.2799997       7.23444060E-09
  -13.2700005       2.37670914E-08
  -13.2600002       3.89355925E-08
  -13.2500000       4.96278538E-08
  -13.2399998       5.29835233E-08
  -13.2299995       4.70322199E-08
  -13.2200003       3.12932009E-08
  -13.2100000       7.19049087E-09
  -13.1999998      -2.18601173E-08
  -13.1899996      -5.07954603E-08
  -13.1800003      -7.37040793E-08
  -13.1700001      -8.49936441E-08
  -13.1599998      -8.07236020E-08
  -13.1499996      -5.98068937E-08
  -13.1400003      -2.47485517E-08
  -13.1300001       1.83643660E-08
  -13.1199999       6.07706667E-08
  -13.1099997       9.27803043E-08
  -13.1000004       1.06056902E-07
  -13.0900002       9.59300337E-08
  -13.0799999       6.31205452E-08
  -13.0699997       1.43046721E-08
  -13.0600004      -3.88435417E-08
  -13.0500002      -8.21341573E-08
  -13.0400000      -1.02441554E-07
  -13.0299997      -9.15680189E-08
  -13.0200005      -4.93464931E-08
  -13.0100002       1.50338781E-08
  -13.0000000       8.41711056E-08
  -12.9899998       1.36170854E-07
  -12.9799995       1.50331346E-07
  -12.9700003       1.13505529E-07
  -12.9600000       2.54289549E-08
  -12.9499998      -9.87060034E-08
  -12.9399996      -2.29663613E-07
  -12.9300003      -3.29876286E-07
  -12.9200001      -3.62592715E-07
  -12.9099998      -3.02475058E-07
  -12.8999996      -1.44909350E-07
  -12.8900003       8.88046117E-08
  -12.8800001       3.52528332E-07
  -12.8699999       5.83365193E-07
  -12.8599997       7.15656711E-07
  -12.8500004       6.97995802E-07
  -12.8400002       5.09090569E-07
  -12.8299999       1.68013557E-07
  -12.8199997      -2.64729238E-07
  -12.8100004      -6.96869961E-07
  -12.8000002      -1.02364629E-06
  -12.7900000      -1.15277965E-06
  -12.7799997      -1.02926379E-06
  -12.7700005      -6.53412997E-07
  -12.7600002      -8.66906760E-08
  -12.7500000       5.57484157E-07
  -12.7399998       1.13702060E-06
  -12.7299995       1.51373888E-06
  -12.7200003       1.58752994E-06
  -12.7100000       1.32327079E-06
  -12.6999998       7.62890807E-07
  -12.6899996       1.83977207E-08
  -12.6800003      -7.53483903E-07
  -12.6700001      -1.38934456E-06
  -12.6599998      -1.76020626E-06
  -12.6499996      -1.80464099E-06
  -12.6400003      -1.54430336E-06
  -12.6300001      -1.07659082E-06
  -12.6199999      -5.45267085E-07
  -12.6099997      -9.62226707E-08
  -12.6000004       1.69665199E-07
  -12.5900002       2.32865460E-07
  -12.5799999       1.69027047E-07
  -12.5699997       1.34118210E-07
  -12.5600004       3.22355447E-07
  -12.5500002       9.06259856E-07
  -12.5400000       1.97400777E-06
  -12.5299997       3.48126719E-06
  -12.5200005       5.23210974E-06
  -12.5100002       6.89679973E-06
  -12.5000000       8.06490971E-06
  -12.4899998       8.32274782E-06
  -12.4799995       7.33714342E-06
  -12.4700003       4.92525442E-06
  -12.4600000       1.09309076E-06
  -12.4499998      -3.96669384E-06
  -12.4399996      -9.91656088E-06
  -12.4300003      -1.63436271E-05
  -12.4200001      -2.28377430E-05
  -12.4099998      -2.90566331E-05
  -12.3999996      -3.47605201E-05
  -12.3900003      -3.98076518E-05
  -12.3800001      -4.41140219E-05
  -12.3699999      -4.75915876E-05
  -12.3599997      -5.00867864E-05
  -12.3500004      -5.13420309E-05
  -12.3400002      -5.09974125E-05
  -12.3299999      -4.86386452E-05
  -12.3199997      -4.38839052E-05
  -12.3100004      -3.64900588E-05
  -12.3000002      -2.64515511E-05
  -12.2900000      -1.40653401E-05
  -12.2799997       5.75191166E-08
  -12.2700005       1.50399192E-05
  -12.2600002       2.98379437E-05
  -12.2500000       4.33700261E-05
  -12.2399998       5.46480223E-05
  -12.2299995       6.28830094E-05
  -12.2200003       6.75472766E-05
  -12.2100000       6.83871112E-05
  -12.1999998       6.53952739E-05
  -12.1899996       5.87626382E-05
  -12.1800003       4.88320438E-05
  -12.1700001       3.60728882E-05
  -12.1599998       2.10838916E-05
  -12.1499996       4.61691161E-06
  -12.1400003      -1.23976915E-05
  -12.1300001      -2.88499341E-05
  -12.1199999      -4.34962130E-05
  -12.1099997      -5.50633449E-05
  -12.1000004      -6.24035238E-05
  -12.0900002      -6.46742992E-05
  -12.0799999      -6.15040335E-05
  -12.0699997      -5.30997931E-05
  -12.0600004      -4.02634396E-05
  -12.0500002      -2.43014347E-05
  -12.0400000      -6.83947883E-06
  -12.0299997       1.04218716E-05
  -12.0200005       2.59579647E-05
  -12.0100002       3.86212450E-05
  -12.0000000       4.77488393E-05
  -11.9899998       5.31567712E-05
  -11.9799995       5.50312761E-05
  -11.9700003       5.37554297E-05
  -11.9600000       4.97265391E-05
  -11.9499998       4.32211527E-05
  -11.9399996       3.43493593E-05
  -11.9300003       2.31121558E-05
  -11.9200001       9.54322968E-06
  -11.9099998      -6.11136693E-06
  -11.8999996      -2.32368238E-05
  -11.8900003      -4.07745065E-05
  -11.8800001      -5.72656536E-05
  -11.8699999      -7.10185923E-05
  -11.8599997      -8.03690054E-05
  -11.8500004      -8.39744753E-05
  -11.8400002      -8.10724741E-05
  -11.8299999      -7.16378490E-05
  -11.8199997      -5.64010188E-05
  -11.8100004      -3.67240536E-05
  -11.8000002      -1.43685738E-05
  -11.7900000       8.78362789E-06
  -11.7799997       3.09868665E-05
  -11.7700005       5.08052581E-05
  -11.7600002       6.71723465E-05
  -11.7500000       7.93423533E-05
  -11.7399998       8.67734125E-05
  -11.7299995       8.90050796E-05
  -11.7200003       8.55944527E-05
  -11.7100000       7.61554984E-05
  -11.6999998       6.05102141E-05
  -11.6899996       3.89178349E-05
  -11.6800003       1.23123582E-05
  -11.6700001      -1.75395598E-05
  -11.6599998      -4.80409508E-05
  -11.6499996      -7.59749310E-05
  -11.6400003      -9.79192555E-05
  -11.6300001      -1.10803485E-04
  -11.6199999      -1.12498783E-04
  -11.6099997      -1.02306200E-04
  -11.6000004      -8.12170038E-05
  -11.5900002      -5.18612324E-05
  -11.5799999      -1.81274845E-05
  -11.5699997       1.54849804E-05
  -11.5600004       4.46526792E-05
  -11.5500002       6.59831858E-05
  -11.5400000       7.75692606E-05
  -11.5299997       7.92144929E-05
  -11.5200005       7.22805780E-05
  -11.5100002       5.91997268E-05
  -11.5000000       4.27822379E-05
  -11.4899998       2.55042251E-05
  -11.4799995       8.96846541E-06
  -11.4700003      -6.31335251E-06
  -11.4600000      -2.07566627E-05
  -11.4499998      -3.52074967E-05
  -11.4399996      -5.02642215E-05
  -11.4300003      -6.56331540E-05
  -11.4200001      -7.97404427E-05
  -11.4099998      -8.97647478E-05
  -11.3999996      -9.21445389E-05
  -11.3900003      -8.34766397E-05
  -11.3800001      -6.15965473E-05
  -11.3699999      -2.65517738E-05
  -11.3599997       1.88259946E-05
  -11.3500004       6.89681547E-05
  -11.3400002       1.16310883E-04
  -11.3299999       1.52629262E-04
  -11.3199997       1.70696963E-04
  -11.3100004       1.65896854E-04
  -11.3000002       1.37389841E-04
  -11.2900000       8.85322588E-05
  -11.2799997       2.63987040E-05
  -11.2700005      -3.95207462E-05
  -11.2600002      -9.91760535E-05
  -11.2500000      -1.43950267E-04
  -11.2399998      -1.68332481E-04
  -11.2299995      -1.70884305E-04
  -11.2200003      -1.54282243E-04
  -11.2100000      -1.24443453E-04
  -11.1999998      -8.89645380E-05
  -11.1899996      -5.52684796E-05
  -11.1800003      -2.89176096E-05
  -11.1700001      -1.24978587E-05
  -11.1599998      -5.32496961E-06
  -11.1499996      -4.00838735E-06
  -11.1400003      -3.68978385E-06
  -11.1300001       3.92653988E-07
  -11.1199999       1.14349259E-05
  -11.1099997       3.00752108E-05
  -11.1000004       5.41261325E-05
  -11.0900002       7.90843405E-05
  -11.0799999       9.92693094E-05
  -11.0699997       1.09287095E-04
  -11.0600004       1.05441002E-04
  -11.0500002       8.67354975E-05
  -11.0400000       5.52304664E-05
  -11.0299997       1.56695642E-05
  -11.0200005      -2.55162358E-05
  -11.0100002      -6.15837562E-05
  -11.0000000      -8.69056821E-05
  -10.9899998      -9.81267876E-05
  -10.9799995      -9.47986773E-05
  -10.9700003      -7.93711151E-05
  -10.9600000      -5.65648079E-05
  -10.9499998      -3.22830419E-05
  -10.9399996      -1.23100908E-05
  -10.9300003      -1.07675294E-06
  -10.9200001      -7.46011096E-07
  -10.9099998      -1.07947071E-05
  -10.8999996      -2.81595603E-05
  -10.8900003      -4.79009577E-05
  -10.8800001      -6.42382511E-05
  -10.8699999      -7.17437069E-05
  -10.8599997      -6.64597246E-05
  -10.8500004      -4.67271784E-05
  -10.8400002      -1.35763057E-05
  -10.8299999       2.93800003E-05
  -10.8199997       7.65133664E-05
  -10.8100004       1.21086618E-04
  -10.8000002       1.56323600E-04
  -10.7900000       1.76450398E-04
  -10.7799997       1.77540627E-04
  -10.7700005       1.58052804E-04
  -10.7600002       1.19017583E-04
  -10.7500000       6.38968340E-05
  -10.7399998      -1.82105100E-06
  -10.7299995      -7.12120600E-05
  -10.7200003      -1.36628893E-04
  -10.7100000      -1.90494087E-04
  -10.6999998      -2.26149627E-04
  -10.6899996      -2.38731722E-04
  -10.6800003      -2.26002609E-04
  -10.6700001      -1.89015977E-04
  -10.6599998      -1.32442219E-04
  -10.6499996      -6.43665335E-05
  -10.6400003       4.57630767E-06
  -10.6300001       6.27438567E-05
  -10.6199999       9.95393420E-05
  -10.6099997       1.07622283E-04
  -10.6000004       8.47835909E-05
  -10.5900002       3.49635229E-05
  -10.5799999      -3.19900246E-05
  -10.5699997      -1.01963524E-04
  -10.5600004      -1.59407515E-04
  -10.5500002      -1.90787876E-04
  -10.5400000      -1.87847108E-04
  -10.5299997      -1.49815736E-04
  -10.5200005      -8.39083077E-05
  -10.5100002      -3.84558371E-06
  -10.5000000       7.33313791E-05
  -10.4899998       1.31392197E-04
  -10.4799995       1.58913623E-04
  -10.4700003       1.52037406E-04
  -10.4600000       1.15184826E-04
  -10.4499998       5.94821577E-05
  -10.4399996      -6.82811503E-07
  -10.4300003      -5.19776477E-05
  -10.4200001      -8.60177024E-05
  -10.4099998      -1.01619371E-04
  -10.3999996      -1.04664956E-04
  -10.3900003      -1.05554653E-04
  -10.3800001      -1.14991992E-04
  -10.3699999      -1.39425014E-04
  -10.3599997      -1.77653012E-04
  -10.3500004      -2.19826601E-04
  -10.3400002      -2.49378907E-04
  -10.3299999      -2.47524062E-04
  -10.3199997      -1.99117654E-04
  -10.3100004      -9.81605554E-05
  -10.3000002       4.87822981E-05
  -10.2900000       2.22452596E-04
  -10.2799997       3.94347968E-04
  -10.2700005       5.32993232E-04
  -10.2600002       6.11417927E-04
  -10.2500000       6.13816315E-04
  -10.2399998       5.39542176E-04
  -10.2299995       4.03311336E-04
  -10.2200003       2.31536949E-04
  -10.2100000       5.57999083E-05
  -10.1999998      -9.47605949E-05
  -10.1899996      -2.00091818E-04
  -10.1800003      -2.53190170E-04
  -10.1700001      -2.60469940E-04
  -10.1599998      -2.38655513E-04
  -10.1499996      -2.09259044E-04
  -10.1400003      -1.92291714E-04
  -10.1300001      -2.00936483E-04
  -10.1199999      -2.38495952E-04
  -10.1099997      -2.98181025E-04
  -10.1000004      -3.65478918E-04
  -10.0900002      -4.22183337E-04
  -10.0799999      -4.50862368E-04
  -10.0699997      -4.38627729E-04
  -10.0600004      -3.79464560E-04
  -10.0500002      -2.74912047E-04
  -10.0400000      -1.33352718E-04
  -10.0299997       3.15698417E-05
  -10.0200005       2.02874697E-04
  -10.0100002       3.62163410E-04
  -10.0000000       4.91440413E-04
  -9.98999977       5.74912934E-04
  -9.97999954       6.00862608E-04
  -9.97000027       5.63523849E-04
  -9.96000004       4.64666518E-04
  -9.94999981       3.14394565E-04
  -9.93999958       1.30659493E-04
  -9.93000031      -6.27926056E-05
  -9.92000008      -2.39912493E-04
  -9.90999985      -3.76681477E-04
  -9.89999962      -4.55339352E-04
  -9.89000034      -4.67471022E-04
  -9.88000011      -4.15158051E-04
  -9.86999989      -3.09912488E-04
  -9.85999966      -1.69737716E-04
  -9.85000038      -1.51837776E-05
  -9.84000015       1.34490983E-04
  -9.82999992       2.64068454E-04
  -9.81999969       3.63494561E-04
  -9.81000042       4.27448482E-04
  -9.80000019       4.53959830E-04
  -9.78999996       4.42938326E-04
  -9.77999973       3.95376672E-04
  -9.77000046       3.13563447E-04
  -9.76000023       2.02081428E-04
  -9.75000000       6.89032604E-05
  -9.73999977      -7.42601696E-05
  -9.72999954      -2.12965373E-04
  -9.72000027      -3.32446623E-04
  -9.71000004      -4.20820928E-04
  -9.69999981      -4.71990003E-04
  -9.68999958      -4.87061479E-04
  -9.68000031      -4.73521097E-04
  -9.67000008      -4.42178687E-04
  -9.65999985      -4.02807869E-04
  -9.64999962      -3.60046193E-04
  -9.64000034      -3.11235344E-04
  -9.63000011      -2.47339165E-04
  -9.61999989      -1.57020666E-04
  -9.60999966      -3.27270172E-05
  -9.60000038       1.23317892E-04
  -9.59000015       2.95592326E-04
  -9.57999992       4.56027192E-04
  -9.56999969       5.69515221E-04
  -9.56000042       6.03015244E-04
  -9.55000019       5.35668863E-04
  -9.53999996       3.66685534E-04
  -9.52999973       1.18158896E-04
  -9.52000046      -1.68601531E-04
  -9.51000023      -4.42613295E-04
  -9.50000000      -6.56057207E-04
  -9.48999977      -7.76590314E-04
  -9.47999954      -7.95288535E-04
  -9.47000027      -7.27628532E-04
  -9.46000004      -6.07100432E-04
  -9.44999981      -4.73451859E-04
  -9.43999958      -3.59386060E-04
  -9.43000031      -2.80135864E-04
  -9.42000008      -2.29449899E-04
  -9.40999985      -1.83419324E-04
  -9.39999962      -1.10914589E-04
  -9.39000034       1.29102827E-05
  -9.38000011       1.94749984E-04
  -9.36999989       4.17202042E-04
  -9.35999966       6.41124905E-04
  -9.35000038       8.15906329E-04
  -9.34000015       8.94527300E-04
  -9.32999992       8.48570082E-04
  -9.31999969       6.78183686E-04
  -9.31000042       4.13569185E-04
  -9.30000019       1.07282518E-04
  -9.28999996      -1.80323143E-04
  -9.27999973      -3.97910830E-04
  -9.27000046      -5.16855041E-04
  -9.26000023      -5.37469808E-04
  -9.25000000      -4.85905097E-04
  -9.23999977      -4.02960170E-04
  -9.22999954      -3.28750757E-04
  -9.22000027      -2.88517680E-04
  -9.21000004      -2.84417474E-04
  -9.19999981      -2.96039652E-04
  -9.18999958      -2.89368967E-04
  -9.18000031      -2.30982245E-04
  -9.17000008      -1.02445629E-04
  -9.15999985       9.02225875E-05
  -9.14999962       3.15490674E-04
  -9.14000034       5.24260045E-04
  -9.13000011       6.64342486E-04
  -9.11999989       6.96734118E-04
  -9.10999966       6.08288043E-04
  -9.10000038       4.16542141E-04
  -9.09000015       1.65038960E-04
  -9.07999992      -8.93930119E-05
  -9.06999969      -2.93291960E-04
  -9.06000042      -4.11788962E-04
  -9.05000019      -4.37572337E-04
  -9.03999996      -3.90868838E-04
  -9.02999973      -3.10699164E-04
  -9.02000046      -2.40507681E-04
  -9.01000023      -2.13033680E-04
  -9.00000000      -2.39419562E-04
  -8.98999977      -3.06032685E-04
  -8.97999954      -3.79853154E-04
  -8.97000027      -4.20440658E-04
  -8.96000004      -3.94382543E-04
  -8.94999981      -2.87413714E-04
  -8.93999958      -1.10282956E-04
  -8.93000031       1.03425460E-04
  -8.92000008       3.06659436E-04
  -8.90999985       4.52327513E-04
  -8.89999962       5.06487908E-04
  -8.89000034       4.57257032E-04
  -8.88000011       3.16944410E-04
  -8.86999989       1.17183939E-04
  -8.85999966      -1.00960671E-04
  -8.85000038      -2.98507832E-04
  -8.84000015      -4.48043691E-04
  -8.82999992      -5.38503868E-04
  -8.81999969      -5.74339239E-04
  -8.81000042      -5.70080359E-04
  -8.80000019      -5.42741618E-04
  -8.78999996      -5.04987023E-04
  -8.77999973      -4.61411895E-04
  -8.77000046      -4.08945343E-04
  -8.76000023      -3.40774684E-04
  -8.75000000      -2.51911086E-04
  -8.73999977      -1.43996964E-04
  -8.72999954      -2.73475725E-05
  -8.72000027       8.06598255E-05
  -8.71000004       1.60321302E-04
  -8.69999981       1.95754008E-04
  -8.68999958       1.80214556E-04
  -8.68000031       1.18646996E-04
  -8.67000008       2.65238050E-05
  -8.65999985      -7.46270671E-05
  -8.64999962      -1.63446559E-04
  -8.64000034      -2.24570627E-04
  -8.63000011      -2.52103986E-04
  -8.61999989      -2.49684439E-04
  -8.60999966      -2.27342534E-04
  -8.60000038      -1.96519628E-04
  -8.59000015      -1.65238045E-04
  -8.57999992      -1.35294002E-04
  -8.56999969      -1.02513048E-04
  -8.56000042      -5.98825791E-05
  -8.55000019      -2.21964137E-06
  -8.53999996       6.96171410E-05
  -8.52999973       1.46844395E-04
  -8.52000046       2.14210770E-04
  -8.51000023       2.54509534E-04
  -8.50000000       2.54611456E-04
  -8.48999977       2.10759958E-04
  -8.47999954       1.30981047E-04
  -8.47000027       3.34098440E-05
  -8.46000004      -5.91924509E-05
  -8.44999981      -1.26984043E-04
  -8.43999958      -1.59988616E-04
  -8.43000031      -1.61803473E-04
  -8.42000008      -1.48447798E-04
  -8.40999985      -1.42427380E-04
  -8.39999962      -1.63885197E-04
  -8.39000034      -2.21938550E-04
  -8.38000011      -3.09477648E-04
  -8.36999989      -4.03677026E-04
  -8.35999966      -4.72541753E-04
  -8.35000038      -4.85620345E-04
  -8.34000015      -4.25343867E-04
  -8.32999992      -2.94938800E-04
  -8.31999969      -1.19783122E-04
  -8.31000042       5.88139083E-05
  -8.30000019       1.95801418E-04
  -8.28999996       2.56707252E-04
  -8.27999973       2.29243902E-04
  -8.27000046       1.28002968E-04
  -8.26000023      -9.78257322E-06
  -8.25000000      -1.36406452E-04
  -8.23999977      -2.09945807E-04
  -8.22999954      -2.09120670E-04
  -8.22000027      -1.41474229E-04
  -8.21000004      -4.16682815E-05
  -8.19999981       3.99973469E-05
  -8.18999958       5.52898382E-05
  -8.18000031      -2.39477449E-05
  -8.17000008      -1.93808068E-04
  -8.15999985      -4.16880881E-04
  -8.14999962      -6.32434967E-04
  -8.14000034      -7.75296940E-04
  -8.13000011      -7.97355722E-04
  -8.11999989      -6.84452476E-04
  -8.10999966      -4.62706637E-04
  -8.10000038      -1.91726649E-04
  -8.09000015       5.34549326E-05
  -8.07999992       2.05981036E-04
  -8.06999969       2.28518213E-04
  -8.06000042       1.25144856E-04
  -8.05000019      -6.03669614E-05
  -8.03999996      -2.59470398E-04
  -8.02999973      -4.02059377E-04
  -8.02000046      -4.40182630E-04
  -8.01000023      -3.64197331E-04
  -8.00000000      -2.05808479E-04
  -7.98999977      -2.68878266E-05
  -7.98000002       1.02158097E-04
  -7.96999979       1.27079402E-04
  -7.96000004       2.90400531E-05
  -7.94999981      -1.68233339E-04
  -7.94000006      -4.05948900E-04
  -7.92999983      -6.09893352E-04
  -7.92000008      -7.15525646E-04
  -7.90999985      -6.89916604E-04
  -7.90000010      -5.42994414E-04
  -7.88999987      -3.24218097E-04
  -7.88000011      -1.05801912E-04
  -7.86999989       4.17691626E-05
  -7.86000013       7.35593276E-05
  -7.84999990      -1.47889104E-05
  -7.84000015      -1.85902391E-04
  -7.82999992      -3.73719638E-04
  -7.82000017      -5.06202981E-04
  -7.80999994      -5.29936398E-04
  -7.80000019      -4.28259489E-04
  -7.78999996      -2.26870587E-04
  -7.78000021       1.48431154E-05
  -7.76999998       2.23636875E-04
  -7.76000023       3.36573605E-04
  -7.75000000       3.21358035E-04
  -7.73999977       1.86132966E-04
  -7.73000002      -2.42820734E-05
  -7.71999979      -2.44107330E-04
  -7.71000004      -4.08710650E-04
  -7.69999981      -4.75565583E-04
  -7.69000006      -4.37135343E-04
  -7.67999983      -3.21681757E-04
  -7.67000008      -1.82165779E-04
  -7.65999985      -7.73661450E-05
  -7.65000010      -5.17766421E-05
  -7.63999987      -1.20992750E-04
  -7.63000011      -2.67201714E-04
  -7.61999989      -4.45852231E-04
  -7.61000013      -6.00844214E-04
  -7.59999990      -6.82901707E-04
  -7.59000015      -6.65012747E-04
  -7.57999992      -5.50091791E-04
  -7.57000017      -3.68815323E-04
  -7.55999994      -1.68888539E-04
  -7.55000019       3.05747363E-07
  -7.53999996       1.02486505E-04
  -7.53000021       1.24023776E-04
  -7.51999998       7.56096852E-05
  -7.51000023      -1.38711694E-05
  -7.50000000      -1.08691420E-04
  -7.48999977      -1.78784176E-04
  -7.48000002      -2.09265665E-04
  -7.46999979      -2.04109267E-04
  -7.46000004      -1.83194046E-04
  -7.44999981      -1.74123663E-04
  -7.44000006      -2.01782343E-04