  -16.0000000       0.00000000    
  -15.9899998       0.00000000    
  -15.9799995       0.00000000    
  -15.9700003       0.00000000    
  -15.9600000       0.00000000    
  -15.9499998       0.00000000    
  -15.9399996       0.00000000    
  -15.9300003       0.00000000    
  -15.9200001       0.00000000    
  -15.9099998       0.00000000    
  -15.8999996      -1.28474967E-39
  -15.8900003      -4.99365712E-38
  -15.8800001      -9.22254383E-37
  -15.8699999      -1.03152679E-35
  -15.8599997      -7.95765709E-35
  -15.8500004      -4.56613112E-34
  -15.8400002      -2.03120410E-33
  -15.8299999      -7.09784134E-33
  -15.8199997      -1.89573135E-32
  -15.8100004      -3.31952170E-32
  -15.8000002       1.22500718E-33
  -15.7900000       3.00884753E-31
  -15.7799997       1.53258997E-30
  -15.7700005       5.36093734E-30
  -15.7600002       1.52614977E-29
  -15.7500000       3.72649870E-29
  -15.7399998       7.95700665E-29
  -15.7299995       1.48839393E-28
  -15.7200003       2.39912443E-28
  -15.7100000       3.15916428E-28
  -15.6999998       2.79726880E-28
  -15.6899996      -5.15433742E-29
  -15.6800003      -9.38292943E-28
  -15.6700001      -2.62263356E-27
  -15.6599998      -5.08056390E-27
  -15.6499996      -7.59163374E-27
  -15.6400003      -8.21641620E-27
  -15.6300001      -3.50482619E-27
  -15.6199999       1.09411811E-26
  -15.6099997       3.82358015E-26
  -15.6000004       7.57518907E-26
  -15.5900002       1.09009287E-25
  -15.5799999       1.06707957E-25
  -15.5699997       2.26065888E-26
  -15.5600004      -1.88057439E-25
  -15.5500002      -5.31689982E-25
  -15.5400000      -9.22012343E-25
  -15.5299997      -1.12906644E-24
  -15.5200005      -7.75575896E-25
  -15.5100002       5.58462245E-25
  -15.5000000       3.07255702E-24
  -15.4899998       6.33549142E-24
  -15.4799995       8.86566219E-24
  -15.4700003       8.00691137E-24
  -15.4600000       5.33069404E-25
  -15.4499998      -1.56385711E-23
  -15.4399996      -3.86449010E-23
  -15.4300003      -5.96422326E-23
  -15.4200001      -6.15255087E-23
  -15.4099998      -2.22861552E-23
  -15.3999996       7.43749105E-23
  -15.3900003       2.21081790E-22
  -15.3800001       3.66711345E-22
  -15.3699999       4.06687609E-22
  -15.3599997       2.01850358E-22
  -15.3500004      -3.57549022E-22
  -15.3400002      -1.24183862E-21
  -15.3299999      -2.15784643E-21
  -15.3199997      -2.48631166E-21
  -15.3100004      -1.38977591E-21
  -15.3000002       1.81183533E-21
  -15.2900000       6.99514494E-21
  -15.2799997       1.25056590E-20
  -15.2700005       1.47850634E-20
  -15.2600002       8.97123499E-21
  -15.2500000      -8.99071413E-21
  -15.2399998      -3.87238400E-20
  -15.2299995      -7.13315259E-20
  -15.2200003      -8.72221954E-20
  -15.2100000      -5.91595309E-20
  -15.1999998       3.66020409E-20
  -15.1899996       2.01045550E-19
  -15.1800003       3.90336760E-19
  -15.1700001       5.03052164E-19
  -15.1599998       3.93490800E-19
  -15.1499996      -7.42076846E-20
  -15.1400003      -9.29853682E-19
  -15.1300001      -1.98346227E-18
  -15.1199999      -2.75076865E-18
  -15.1099997      -2.49839275E-18
  -15.1000004      -4.82076363E-19
  -15.0900002       3.60671385E-18
  -15.0799999       9.08531179E-18
  -15.0699997       1.38616718E-17
  -15.0600004       1.45147698E-17
  -15.0500002       7.22515547E-18
  -15.0400000      -1.03176579E-17
  -15.0299997      -3.63757538E-17
  -15.0200005      -6.29652397E-17
  -15.0100002      -7.55156673E-17
  -15.0000000      -5.59816516E-17
  -14.9899998       9.75926960E-18
  -14.9799995       1.21165919E-16
  -14.9700003       2.52419736E-16
  -14.9600000       3.47815207E-16
  -14.9499998       3.29923489E-16
  -14.9399996       1.25154650E-16
  -14.9300003      -2.94733584E-16
  -14.9200001      -8.66043914E-16
  -14.9099998      -1.40230667E-15
  -14.8999996      -1.60574926E-15
  -14.8900003      -1.14331766E-15
  -14.8800001       2.08959468E-16
  -14.8699999       2.38161355E-15
  -14.8599997       4.85383760E-15
  -14.8500004       6.61713235E-15
  -14.8400002       6.35470206E-15
  -14.8299999       2.88311846E-15
  -14.8199997      -4.19633378E-15
  -14.8100004      -1.38218049E-14
  -14.8000002      -2.30774753E-14
  -14.7900000      -2.74359782E-14
  -14.7799997      -2.18963167E-14
  -14.7700005      -3.00815048E-15
  -14.7600002       2.86423175E-14
  -14.7500000       6.63601796E-14
  -14.7399998       9.68565302E-14
  -14.7299995       1.02449170E-13
  -14.7200003       6.64393603E-14
  -14.7100000      -1.89975192E-14
  -14.6999998      -1.44533785E-13
  -14.6899996      -2.78435776E-13
  -14.6800003      -3.68202322E-13
  -14.6700001      -3.51965771E-13
  -14.6599998      -1.79793111E-13
  -14.6499996       1.59127445E-13
  -14.6400003       6.11913027E-13
  -14.6300001       1.05159804E-12
  -14.6199999       1.29220929E-12
  -14.6099997       1.13544937E-12
  -14.6000004       4.45056887E-13
  -14.5900002      -7.68235248E-13
  -14.5799999      -2.28044168E-12
  -14.5699997      -3.64199296E-12
  -14.5600004      -4.24899265E-12
  -14.5500002      -3.50785503E-12
  -14.5400000      -1.07067447E-12
  -14.5299997       2.91896867E-12
  -14.5200005       7.66026045E-12
  -14.5100002       1.17078907E-11
  -14.5000000       1.32350216E-11
  -14.4899998       1.05530619E-11
  -14.4799995       2.80037430E-12
  -14.4700003      -9.38734940E-12
  -14.4600000      -2.34814928E-11
  -14.4499998      -3.51970258E-11
  -14.4399996      -3.93246095E-11
  -14.4300003      -3.12315000E-11
  -14.4200001      -8.75107799E-12
  -14.4099998       2.60665777E-11
  -14.3999996       6.60207930E-11
  -14.3900003       9.92834079E-11
  -14.3800001       1.11741234E-10
  -14.3699999       9.10128084E-11
  -14.3599997       3.13577532E-11
  -14.3500004      -6.18925952E-11
  -14.3400002      -1.70074302E-10
  -14.3299999      -2.62638772E-10
  -14.3199997      -3.03118419E-10
  -14.3100004      -2.59166993E-10
  -14.3000002      -1.14712670E-10
  -14.2900000       1.19099022E-10
  -14.2799997       3.98192007E-10
  -14.2700005       6.48680831E-10
  -14.2600002       7.80701059E-10
  -14.2500000       7.11928072E-10
  -14.2399998       3.96305405E-10
  -14.2299995      -1.49573909E-10
  -14.2200003      -8.31569147E-10
  -14.2100000      -1.48284485E-09
  -14.1999998      -1.89298666E-09
  -14.1899996      -1.85960392E-09
  -14.1800003      -1.25307986E-09
  -14.1700001      -7.83195175E-11
  -14.1599998       1.48639090E-09
  -14.1499996       3.09191428E-09
  -14.1400003       4.27323776E-09
  -14.1300001       4.55505766E-09
  -14.1199999       3.59029495E-09
  -14.1099997       1.29913136E-09
  -14.1000004      -2.03275397E-09
  -14.0900002      -5.73687231E-09
  -14.0799999      -8.85222740E-09
  -14.0699997      -1.03250368E-08
  -14.0600004      -9.28799704E-09
  -14.0500002      -5.35829514E-09
  -14.0400000       1.12716170E-09
  -14.0299997       9.02284025E-09
  -14.0200005       1.64938072E-08
  -14.0100002       2.13599627E-08
  -14.0000000       2.16218243E-08
  -13.9899998       1.60622413E-08
  -13.9799995       4.77229412E-09
  -13.9700003      -1.05639799E-08
  -13.9600000      -2.67610076E-08
  -13.9499998      -3.96588860E-08
  -13.9399996      -4.50374458E-08
  -13.9300003      -3.97495192E-08
  -13.9200001      -2.28089512E-08
  -13.9099998       3.87487287E-09
  -13.8999996       3.53913521E-08
  -13.8900003       6.45110845E-08
  -13.8800001       8.31322069E-08
  -13.8699999       8.42529388E-08
  -13.8599997       6.40426023E-08
  -13.8500004       2.34735378E-08
  -13.8400002      -3.10075308E-08
  -13.8299999      -8.81288358E-08
  -13.8199997      -1.33835272E-07
  -13.8100004      -1.54433323E-07
  -13.8000002      -1.40203326E-07
  -13.7900000      -8.86071305E-08
  -13.7799997      -6.17625240E-09
  -13.7700005       9.16384550E-08
  -13.7600002       1.82954281E-07
  -13.7500000       2.44010408E-07
  -13.7399998       2.54928750E-07
  -13.7299995       2.05369929E-07
  -13.7200003       9.85974609E-08
  -13.7100000      -4.73431783E-08
  -13.6999998      -2.02061173E-07
  -13.6899996      -3.28762781E-07
  -13.6800003      -3.92658706E-07
  -13.6700001      -3.70006831E-07
  -13.6599998      -2.55543767E-07
  -13.6499996      -6.61748558E-08
  -13.6400003       1.60515214E-07
  -13.6300001       3.73211009E-07
  -13.6199999       5.18169259E-07
  -13.6099997       5.52502229E-07
  -13.6000004       4.56259926E-07
  -13.5900002       2.40052913E-07
  -13.5799999      -5.42732543E-08
  -13.5699997      -3.60892329E-07
  -13.5600004      -6.04213540E-07
  -13.5500002      -7.17171758E-07
  -13.5400000      -6.59313059E-07
  -13.5299997      -4.29965326E-07
  -13.5200005      -7.25313782E-08
  -13.5100002       3.32188392E-07
  -13.5000000       6.83110784E-07
  -13.4899998       8.83107305E-07
  -13.4799995       8.64825722E-07
  -13.4700003       6.11528378E-07
  -13.4600000       1.66954436E-07
  -13.4499998      -3.69584143E-07
  -13.4399996      -8.63231833E-07
  -13.4300003      -1.17519494E-06
  -13.4200001      -1.19896094E-06
  -13.4099998      -8.92191622E-07
  -13.3999996      -2.95478571E-07
  -13.3900003       4.68420126E-07
  -13.3800001       1.21688845E-06
  -13.3699999       1.74797322E-06
  -13.3599997       1.89069704E-06
  -13.3500004       1.55327484E-06
  -13.3400002       7.56559643E-07
  -13.3299999      -3.57562470E-07
  -13.3199997      -1.54781412E-06
  -13.3100004      -2.52304108E-06
  -13.3000002      -3.01007867E-06
  -13.2900000      -2.82473093E-06
  -13.2799997      -1.92820107E-06
  -13.2700005      -4.53127114E-07
  -13.2600002       1.31057516E-06
  -13.2500000       2.97070483E-06
  -13.2399998       4.11897963E-06
  -13.2299995       4.42997361E-06
  -13.2200003       3.74923593E-06
  -13.2100000       2.14745933E-06
  -13.1999998      -7.61441115E-08
  -13.1899996      -2.44691591E-06
  -13.1800003      -4.41622115E-06
  -13.1700001      -5.49030528E-06
  -13.1599998      -5.35664321E-06
  -13.1499996      -3.97576150E-06
  -13.1400003      -1.61230605E-06
  -13.1300001       1.20787752E-06
  -13.1199999       3.81028917E-06
  -13.1099997       5.53150221E-06
  -13.1000004       5.88953935E-06
  -13.0900002       4.72229931E-06
  -13.0799999       2.25565191E-06
  -13.0699997      -9.22760137E-07
  -13.0600004      -3.98607790E-06
  -13.0500002      -6.06471531E-06
  -13.0400000      -6.47322759E-06
  -13.0299997      -4.91196306E-06
  -13.0200005      -1.58888963E-06
  -13.0100002       2.77809113E-06
  -13.0000000       7.09148753E-06
  -12.9899998       1.01179367E-05
  -12.9799995       1.07952319E-05
  -12.9700003       8.53141046E-06
  -12.9600000       3.41925283E-06
  -12.9499998      -3.69712689E-06
  -12.9399996      -1.13365859E-05
  -12.9300003      -1.76675294E-05
  -12.9200001      -2.09147183E-05
  -12.9099998      -1.97994486E-05
  -12.8999996      -1.39094527E-05
  -12.8900003      -3.90184186E-06
  -12.8800001       8.52659014E-06
  -12.8699999       2.09175523E-05
  -12.8599997       3.05358881E-05
  -12.8500004       3.49657130E-05
  -12.8400002       3.26886002E-05
  -12.8299999       2.35076659E-05
  -12.8199997       8.70665917E-06
  -12.8100004      -9.11354164E-06
  -12.8000002      -2.65077524E-05
  -12.7900000      -3.98825359E-05
  -12.7799997      -4.62717398E-05
  -12.7700005      -4.40199474E-05
  -12.7600002      -3.32128548E-05
  -12.7500000      -1.57423347E-05
  -12.7399998       5.02809235E-06
  -12.7299995       2.49412406E-05
  -12.7200003       3.99294695E-05
  -12.7100000       4.69105253E-05
  -12.6999998       4.44916186E-05
  -12.6899996       3.33125972E-05
  -12.6800003       1.59359734E-05
  -12.6700001      -3.70659518E-06
  -12.6599998      -2.11973766E-05
  -12.6499996      -3.26492700E-05
  -12.6400003      -3.56212367E-05
  -12.6300001      -2.97124734E-05
  -12.6199999      -1.66836362E-05
  -12.6099997      -6.04006232E-08
  -12.6000004       1.57027662E-05
  -12.5900002       2.63119691E-05
  -12.5799999       2.87209386E-05
  -12.5699997       2.19502963E-05
  -12.5600004       7.42693692E-06
  -12.5500002      -1.12613989E-05
  -12.5400000      -2.91640881E-05
  -12.5299997      -4.11500878E-05
  -12.5200005      -4.32053457E-05
  -12.5100002      -3.35345067E-05
  -12.5000000      -1.31878915E-05
  -12.4899998       1.39649283E-05
  -12.4799995       4.19459429E-05
  -12.4700003       6.39327918E-05
  -12.4600000       7.38069430E-05
  -12.4499998       6.76366035E-05
  -12.4399996       4.47438943E-05
  -12.4300003       8.08793720E-06
  -12.4200001      -3.61565690E-05
  -12.4099998      -7.97632965E-05
  -12.3999996      -1.14124850E-04
  -12.3900003      -1.32069283E-04
  -12.3800001      -1.29417342E-04
  -12.3699999      -1.05923828E-04
  -12.3599997      -6.53796815E-05
  -12.3500004      -1.48387517E-05
  -12.3400002       3.68658330E-05
  -12.3299999       8.09860721E-05
  -12.3199997       1.10682995E-04
  -12.3100004       1.22395621E-04
  -12.3000002       1.16444098E-04
  -12.2900000       9.67350570E-05
  -12.2799997       6.96485949E-05
  -12.2700005       4.23814563E-05
  -12.2600002       2.11516326E-05
  -12.2500000       9.70435394E-06
  -12.2399998       8.48709533E-06
  -12.2299995       1.46985376E-05
  -12.2200003       2.32005805E-05
  -12.2100000       2.80655222E-05
  -12.1999998       2.43655577E-05
  -12.1899996       9.74064278E-06
  -12.1800003      -1.46763969E-05
  -12.1700001      -4.42491910E-05
  -12.1599998      -7.17906223E-05
  -12.1499996      -8.92851749E-05
  -12.1400003      -8.99825027E-05
  -12.1300001      -7.03498154E-05
  -12.1199999      -3.13788514E-05
  -12.1099997       2.11243441E-05
  -12.1000004       7.74086875E-05
  -12.0900002       1.25673323E-04
  -12.0799999       1.54600464E-04
  -12.0699997       1.55964502E-04
  -12.0600004       1.26709594E-04
  -12.0500002       6.99844313E-05
  -12.0400000      -5.15636793E-06
  -12.0299997      -8.53771126E-05
  -12.0200005      -1.55699541E-04
  -12.0100002      -2.02599520E-04
  -12.0000000      -2.16886008E-04
  -11.9899998      -1.95717992E-04
  -11.9799995      -1.43296144E-04
  -11.9700003      -7.00550299E-05
  -11.9600000       9.48434626E-06
  -11.9499998       7.97415778E-05
  -11.9399996       1.27324951E-04
  -11.9300003       1.43791505E-04
  -11.9200001       1.27319610E-04
  -11.9099998       8.29393975E-05
  -11.8999996       2.12875439E-05
  -11.8900003      -4.38191491E-05
  -11.8800001      -9.84408907E-05
  -11.8699999      -1.31521985E-04
  -11.8599997      -1.37191353E-04
  -11.8500004      -1.15869581E-04
  -11.8400002      -7.39695170E-05
  -11.8299999      -2.22913222E-05
  -11.8199997       2.65034832E-05
  -11.8100004       6.07640286E-05
  -11.8000002       7.24341080E-05
  -11.7900000       5.87949871E-05
  -11.7799997       2.30119604E-05
  -11.7700005      -2.66033421E-05
  -11.7600002      -7.84265430E-05
  -11.7500000      -1.20036260E-04
  -11.7399998      -1.40868651E-04
  -11.7299995      -1.34456859E-04
  -11.7200003      -9.98052783E-05
  -11.7100000      -4.16401381E-05
  -11.6999998       3.04869791E-05
  -11.6899996       1.04037732E-04
  -11.6800003       1.65885212E-04
  -11.6700001       2.04795666E-04
  -11.6599998       2.13520310E-04
  -11.6499996       1.90115898E-04
  -11.6400003       1.38272124E-04
  -11.6300001       6.66150663E-05
  -11.6199999      -1.28564816E-05
  -11.6099997      -8.68969510E-05
  -11.6000004      -1.43310230E-04
  -11.5900002      -1.73010718E-04
  -11.5799999      -1.71500898E-04
  -11.5699997      -1.39530603E-04
  -11.5600004      -8.28504781E-05
  -11.5500002      -1.11274430E-05
  -11.5400000       6.37728153E-05
  -11.5299997       1.29833148E-04
  -11.5200005       1.76912465E-04
  -11.5100002       1.98415946E-04
  -11.5000000       1.92335719E-04
  -11.4899998       1.61496966E-04
  -11.4799995       1.12976923E-04
  -11.4700003       5.68008400E-05
  -11.4600000       4.13770931E-06
  -11.4499998      -3.46969937E-05
  -11.4399996      -5.20906760E-05
  -11.4300003      -4.45152727E-05
  -11.4200001      -1.31966617E-05
  -11.4099998       3.60544800E-05
  -11.3999996       9.38342855E-05
  -11.3900003       1.48799329E-04
  -11.3800001       1.89701401E-04
  -11.3699999       2.07447767E-04
  -11.3599997       1.96817346E-04
  -11.3500004       1.57514805E-04
  -11.3400002       9.43565028E-05
  -11.3299999       1.65343936E-05
  -11.3199997      -6.39284044E-05
  -11.3100004      -1.34264803E-04
  -11.3000002      -1.83221957E-04
  -11.2900000      -2.03078191E-04
  -11.2799997      -1.91042709E-04
  -11.2700005      -1.49770101E-04
  -11.2600002      -8.68833085E-05
  -11.2500000      -1.35832215E-05
  -11.2399998       5.74018704E-05
  -11.2299995       1.14145922E-04
  -11.2200003       1.47693485E-04
  -11.2100000       1.53653324E-04
  -11.1999998       1.32909408E-04
  -11.1899996       9.13106705E-05
  -11.1800003       3.83986808E-05
  -11.1700001      -1.45770573E-05
  -11.1599998      -5.69621006E-05
  -11.1499996      -8.08559635E-05
  -11.1400003      -8.26868636E-05
  -11.1300001      -6.38742204E-05
  -11.1199999      -3.04321165E-05
  -11.1099997       8.41704605E-06
  -11.1000004       4.23406964E-05
  -11.0900002       6.22705193E-05
  -11.0799999       6.25447210E-05
  -11.0699997       4.23408928E-05
  -11.0600004       6.05559353E-06
  -11.0500002      -3.74995543E-05
  -11.0400000      -7.69630133E-05
  -11.0299997      -1.00986821E-04
  -11.0200005      -1.00959056E-04
  -11.0100002      -7.32762419E-05
  -11.0000000      -2.06169971E-05
  -10.9899998       4.81457901E-05
  -10.9799995       1.19475269E-04
  -10.9700003       1.77903188E-04
  -10.9600000       2.09432110E-04
  -10.9499998       2.04879805E-04
  -10.9399996       1.62395270E-04
  -10.9300003       8.85054396E-05
  -10.9200001      -2.65889003E-06
  -10.9099998      -9.19165832E-05
  -10.8999996      -1.58913623E-04
  -10.8900003      -1.86531775E-04
  -10.8800001      -1.64860481E-04
  -10.8699999      -9.38055891E-05
  -10.8599997       1.63285367E-05
  -10.8500004       1.46511535E-04
  -10.8400002       2.72631121E-04
  -10.8299999       3.70357913E-04
  -10.8199997       4.20174969E-04
  -10.8100004       4.11452842E-04
  -10.8000002       3.44655244E-04
  -10.7900000       2.31186859E-04
  -10.7799997       9.09418304E-05
  -10.7700005      -5.18561974E-05
  -10.7600002      -1.73550332E-04
  -10.7500000      -2.55572959E-04
  -10.7399998      -2.87622650E-04
  -10.7299995      -2.68894451E-04
  -10.7200003      -2.07261139E-04
  -10.7100000      -1.16793322E-04
  -10.6999998      -1.43594907E-05
  -10.6899996       8.38203559E-05
  -10.6800003       1.64902129E-04
  -10.6700001       2.20954811E-04
  -10.6599998       2.49215023E-04
  -10.6499996       2.51309364E-04
  -10.6400003       2.31904865E-04
  -10.6300001       1.97277783E-04
  -10.6199999       1.54158217E-04
  -10.6099997       1.08985303E-04
  -10.6000004       6.74899857E-05
  -10.5900002       3.43980319E-05
  -10.5799999       1.30582803E-05
  -10.5699997       4.93551852E-06
  -10.5600004       9.09757091E-06
  -10.5500002       2.19777776E-05
  -10.5400000       3.77246906E-05
  -10.5299997       4.93217594E-05
  -10.5200005       5.03970914E-05
  -10.5100002       3.73334587E-05
  -10.5000000       1.10506980E-05
  -10.4899998      -2.22241852E-05
  -10.4799995      -5.17020708E-05
  -10.4700003      -6.43953608E-05
  -10.4600000      -4.86911704E-05
  -10.4499998       1.74387117E-06
  -10.4399996       8.48656637E-05
  -10.4300003       1.89038590E-04
  -10.4200001       2.94374418E-04
  -10.4099998       3.76625510E-04
  -10.3999996       4.12882917E-04
  -10.3900003       3.87714332E-04
  -10.3800001       2.98094907E-04
  -10.3699999       1.55649977E-04
  -10.3599997      -1.46691573E-05
  -10.3500004      -1.79457158E-04
  -10.3400002      -3.04290676E-04
  -10.3299999      -3.61985381E-04
  -10.3199997      -3.39595135E-04
  -10.3100004      -2.42277747E-04
  -10.3000002      -9.28669760E-05
  -10.2900000       7.29561361E-05
  -10.2799997       2.14870670E-04
  -10.2700005       2.97575112E-04
  -10.2600002       2.99531472E-04
  -10.2500000       2.18581132E-04
  -10.2399998       7.29423773E-05
  -10.2299995      -1.02782091E-04
  -10.2200003      -2.65720242E-04
  -10.2100000      -3.75055009E-04
  -10.1999998      -4.02058475E-04
  -10.1899996      -3.37363832E-04
  -10.1800003      -1.93647604E-04
  -10.1700001      -3.00048623E-06
  -10.1599998       1.90437160E-04
  -10.1499996       3.40832426E-04
  -10.1400003       4.11522575E-04
  -10.1300001       3.83765320E-04
  -10.1199999       2.61274341E-04
  -10.1099997       6.94726768E-05
  -10.1000004      -1.50307445E-04
  -10.0900002      -3.50224611E-04
  -10.0799999      -4.86626494E-04
  -10.0699997      -5.29488083E-04
  -10.0600004      -4.68419748E-04
  -10.0500002      -3.13997502E-04
  -10.0400000      -9.43671257E-05
  -10.0299997       1.51768822E-04
  -10.0200005       3.83861014E-04
  -10.0100002       5.67736861E-04
  -10.0000000       6.81472127E-04
  -9.98999977       7.17830553E-04
  -9.97999954       6.83188438E-04
  -9.97000027       5.93771867E-04
  -9.96000004       4.70617204E-04
  -9.94999981       3.34766053E-04
  -9.93999958       2.03859716E-04
  -9.93000031       9.06492496E-05
  -9.92000008       3.22984283E-06
  -9.90999985      -5.37197920E-05
  -9.89999962      -7.76025190E-05
  -9.89000034      -6.72043607E-05
  -9.88000011      -2.29213401E-05
  -9.86999989       5.23182389E-05
  -9.85999966       1.52049208E-04
  -9.85000038       2.65899027E-04
  -9.84000015       3.80355457E-04
  -9.82999992       4.80734394E-04
  -9.81999969       5.53917489E-04
  -9.81000042       5.91076969E-04
  -9.80000019       5.89537434E-04
  -9.78999996       5.53168415E-04
  -9.77999973       4.91174636E-04
  -9.77000046       4.15675808E-04
  -9.76000023       3.38849961E-04
  -9.75000000       2.70516699E-04
  -9.73999977       2.16823755E-04
  -9.72999954       1.80258998E-04
  -9.72000027       1.60712749E-04
  -9.71000004       1.56954324E-04
  -9.69999981       1.67797247E-04
  -9.68999958       1.92436826E-04
  -9.68000031       2.29862737E-04
  -9.67000008       2.77702464E-04
  -9.65999985       3.31149204E-04
  -9.64999962       3.82646482E-04
  -9.64000034       4.22722194E-04
  -9.63000011       4.41897282E-04
  -9.61999989       4.33122099E-04
  -9.60999966       3.93914524E-04
  -9.60000038       3.27406859E-04
  -9.59000015       2.41858477E-04
  -9.57999992       1.48728694E-04
  -9.56999969       5.99266205E-05
  -9.56000042      -1.48448371E-05
  -9.55000019      -6.97809592E-05
  -9.53999996      -1.03215454E-04
  -9.52999973      -1.16495517E-04
  -9.52000046      -1.12117930E-04
  -9.51000023      -9.20382299E-05
  -9.50000000      -5.69728800E-05
  -9.48999977      -7.06743594E-06
  -9.47999954       5.63294125E-05
  -9.47000027       1.28609521E-04
  -9.46000004       2.00646595E-04
  -9.44999981       2.59232067E-04
  -9.43999958       2.89515505E-04
  -9.43000031       2.78973952E-04
  -9.42000008       2.21737020E-04
  -9.40999985       1.21769684E-04
  -9.39999962      -6.38295069E-06
  -9.39000034      -1.39886746E-04
  -9.38000011      -2.52567930E-04
  -9.36999989      -3.21224390E-04
  -9.35999966      -3.31466639E-04
  -9.35000038      -2.81310524E-04
  -9.34000015      -1.81392155E-04
  -9.32999992      -5.17118606E-05
  -9.31999969       8.41032816E-05
  -9.31000042       2.05264470E-04
  -9.30000019       2.99063395E-04
  -9.28999996       3.63375584E-04
  -9.27999973       4.05815401E-04
  -9.27000046       4.39998024E-04
  -9.26000023       4.80232702E-04
  -9.25000000       5.36373584E-04
  -9.23999977       6.10381772E-04
  -9.22999954       6.95510244E-04
  -9.22000027       7.78156740E-04
  -9.21000004       8.41637608E-04
  -9.19999981       8.70674034E-04
  -9.18999958       8.55344639E-04
  -9.18000031       7.93596846E-04
  -9.17000008       6.91940601E-04
  -9.15999985       5.64458314E-04
  -9.14999962       4.30585642E-04
  -9.14000034       3.12192540E-04
  -9.13000011       2.30391830E-04
  -9.11999989       2.02352850E-04
  -9.10999966       2.38338194E-04
  -9.10000038       3.39260703E-04
  -9.09000015       4.95227810E-04
  -9.07999992       6.85661682E-04
  -9.06999969       8.81504209E-04
  -9.06000042       1.04964466E-03
  -9.05000019       1.15908810E-03
  -9.03999996       1.18769810E-03
  -9.02999973       1.12785818E-03
  -9.02000046       9.89349559E-04
  -9.01000023       7.98261201E-04
  -9.00000000       5.91747055E-04
  -8.98999977       4.09662025E-04
  -8.97999954       2.85139482E-04
  -8.97000027       2.36659442E-04
  -8.96000004       2.63871654E-04
  -8.94999981       3.48423695E-04
  -8.93999958       4.59589472E-04
  -8.93000031       5.63056848E-04
  -8.92000008       6.30286115E-04
  -8.90999985       6.45716733E-04
  -8.89999962       6.09824259E-04
  -8.89000034       5.37368353E-04
  -8.88000011       4.51680913E-04
  -8.86999989       3.77006276E-04
  -8.85999966       3.31359188E-04
  -8.85000038       3.21984990E-04
  -8.84000015       3.44475207E-04
  -8.82999992       3.85308696E-04
  -8.81999969       4.26524261E-04
  -8.81000042       4.50743129E-04
  -8.80000019       4.44974197E-04
  -8.78999996       4.02389647E-04
  -8.77999973       3.22203821E-04
  -8.77000046       2.08510086E-04
  -8.76000023       6.91370951E-05
  -8.75000000      -8.47756455E-05
  -8.73999977      -2.38514564E-04
  -8.72999954      -3.73592367E-04
  -8.72000027      -4.68700513E-04
  -8.71000004      -5.02625597E-04
  -8.69999981      -4.59108007E-04
  -8.68999958      -3.32547934E-04
  -8.68000031      -1.32618414E-04
  -8.67000008       1.14335460E-04
  -8.65999985       3.68545909E-04
  -8.64999962       5.84736234E-04
  -8.64000034       7.23017496E-04
  -8.63000011       7.59733026E-04
  -8.61999989       6.94777933E-04
  -8.60999966       5.52679761E-04
  -8.60000038       3.76520999E-04
  -8.59000015       2.16091430E-04
  -8.57999992       1.13676542E-04
  -8.56999969       9.18891237E-05
  -8.56000042       1.47506624E-04
  -8.55000019       2.53449689E-04
  -8.53999996       3.68399051E-04
  -8.52999973       4.50973515E-04
  -8.52000046       4.73787397E-04
  -8.51000023       4.32660658E-04
  -8.50000000       3.47837136E-04
  -8.48999977       2.56770843E-04
  -8.47999954       2.00941096E-04
  -8.47000027       2.11248291E-04
  -8.46000004       2.97075050E-04
  -8.44999981       4.42848279E-04
  -8.43999958       6.13334414E-04
  -8.43000031       7.65832548E-04
  -8.42000008       8.64986621E-04
  -8.40999985       8.94983823E-04
  -8.39999962       8.64800008E-04
  -8.39000034       8.04601703E-04
  -8.38000011       7.54541717E-04
  -8.36999989       7.49907456E-04
  -8.35999966       8.07908829E-04
  -8.35000038       9.20848979E-04
  -8.34000015       1.05818943E-03
  -8.32999992       1.17687776E-03
  -8.31999969       1.23637624E-03
  -8.31000042       1.21314253E-03
  -8.30000019       1.10947993E-03
  -8.28999996       9.53625306E-04
  -8.27999973       7.91001949E-04
  -8.27000046       6.69632456E-04
  -8.26000023       6.24706096E-04
  -8.25000000       6.67537504E-04
  -8.23999977       7.82557589E-04
  -8.22999954       9.33150586E-04
  -8.22000027       1.07409642E-03
  -8.21000004       1.16618932E-03
  -8.19999981       1.18802534E-03
  -8.18999958       1.14115316E-03
  -8.18000031       1.04727747E-03
  -8.17000008       9.39053018E-04
  -8.15999985       8.48173513E-04
  -8.14999962       7.95185799E-04
  -8.14000034       7.84521049E-04
  -8.13000011       8.06057767E-04
  -8.11999989       8.41973873E-04
  -8.10999966       8.75680358E-04
  -8.10000038       8.99001956E-04
  -8.09000015       9.14675475E-04
  -8.07999992       9.33289353E-04
  -8.06999969       9.66156367E-04
  -8.06000042       1.01735222E-03
  -8.05000019       1.07856735E-03
  -8.03999996       1.12934562E-03
  -8.02999973       1.14312069E-03
  -8.02000046       1.09706516E-03
  -8.01000023       9.82074882E-04
  -8.00000000       8.08923214E-04
  -7.98999977       6.07871043E-04
  -7.98000002       4.21366160E-04
  -7.96999979       2.92047596E-04
  -7.96000004       2.50072102E-04
  -7.94999981       3.04130954E-04
  -7.94000006       4.39257972E-04
  -7.92999983       6.22104853E-04
  -7.92000008       8.11689824E-04
  -7.90999985       9.71712987E-04
  -7.90000010       1.08010357E-03
  -7.88999987       1.13266532E-03
  -7.88000011       1.14004756E-03
  -7.86999989       1.11986906E-03
  -7.86000013       1.08763017E-03
  -7.84999990       1.05037249E-03
  -7.84000015       1.00574410E-03
  -7.82999992       9.46719723E-04
  -7.82000017       8.69693526E-04
  -7.80999994       7.82027491E-04
  -7.80000019       7.05128827E-04
  -7.78999996       6.70789042E-04
  -7.78000021       7.11269735E-04
  -7.76999998       8.46390962E-04
  -7.76000023       1.07253517E-03
  -7.75000000       1.35830324E-03
  -7.73999977       1.64947694E-03
  -7.73000002       1.88267382E-03
  -7.71999979       2.00377568E-03
  -7.71000004       1.98514550E-03
  -7.69999981       1.83566357E-03
  -7.69000006       1.59977737E-03
  -7.67999983       1.34540652E-03
  -7.67000008       1.14435039E-03
  -7.65999985       1.05147902E-03
  -7.65000010       1.08945300E-03
  -7.63999987       1.24384335E-03
  -7.63000011       1.46994845E-03
  -7.61999989       1.70861359E-03
  -7.61000013       1.90539204E-03
  -7.59999990       2.02647946E-03
  -7.59000015       2.06630048E-03
  -7.57999992       2.04483257E-03
  -7.57000017       1.99652556E-03
  -7.55999994       1.95557973E-03
  -7.55000019       1.94336171E-03
  -7.53999996       1.96252298E-03
  -7.53000021       1.99949648E-03
  -7.51999998       2.03363970E-03
  -7.51000023       2.04870873E-03
  -7.50000000       2.04158877E-03
  -7.48999977       2.02449411E-03
  -7.48000002       2.01969943E-03
  -7.46999979       2.04904494E-03
  -7.46000004       2.12272978E-03
  -7.44999981       2.23231828E-03
  -7.44000006       2.35127099E-03