  -16.0000000       0.00000000    
  -15.9899998       0.00000000    
  -15.9799995       0.00000000    
  -15.9700003       0.00000000    
  -15.9600000       0.00000000    
  -15.9499998       0.00000000    
  -15.9399996       0.00000000    
  -15.9300003       0.00000000    
  -15.9200001       0.00000000    
  -15.9099998       0.00000000    
  -15.8999996       0.00000000    
  -15.8900003      -1.32647484E-37
  -15.8800001      -2.08016851E-36
  -15.8699999      -1.66643902E-35
  -15.8599997      -9.63530105E-35
  -15.8500004      -4.92011380E-34
  -15.8400002      -2.46542491E-33
  -15.8299999      -1.19597007E-32
  -15.8199997      -5.29043517E-32
  -15.8100004      -2.05424244E-31
  -15.8000002      -6.91792672E-31
  -15.7900000      -2.01965145E-30
  -15.7799997      -5.11591091E-30
  -15.7700005      -1.11947168E-29
  -15.7600002      -2.07935103E-29
  -15.7500000      -3.11286402E-29
  -15.7399998      -3.10831702E-29
  -15.7299995       5.55189292E-30
  -15.7200003       1.24804184E-28
  -15.7100000       3.86546610E-28
  -15.6999998       8.34824957E-28
  -15.6899996       1.43342921E-27
  -15.6800003       1.97233523E-27
  -15.6700001       1.98790040E-27
  -15.6599998       7.88688920E-28
  -15.6499996      -2.29843831E-27
  -15.6400003      -7.41962431E-27
  -15.6300001      -1.36099044E-26
  -15.6199999      -1.86682500E-26
  -15.6099997      -2.02262734E-26
  -15.6000004      -1.82731709E-26
  -15.5900002      -1.77321618E-26
  -15.5799999      -2.70053281E-26
  -15.5699997      -4.65839159E-26
  -15.5600004      -4.48489981E-26
  -15.5500002       6.93434805E-26
  -15.5400000       4.45295760E-25
  -15.5299997       1.20675100E-24
  -15.5200005       2.23860167E-24
  -15.5100002       2.86854931E-24
  -15.5000000       1.62732795E-24
  -15.4899998      -3.52229747E-24
  -15.4799995      -1.39905476E-23
  -15.4700003      -2.81471503E-23
  -15.4600000      -3.82799961E-23
  -15.4499998      -2.89530443E-23
  -15.4399996       1.97547715E-23
  -15.4300003       1.20497027E-22
  -15.4200001       2.57692913E-22
  -15.4099998       3.63855062E-22
  -15.3999996       3.10097309E-22
  -15.3900003      -6.38570723E-23
  -15.3800001      -8.57627665E-22
  -15.3699999      -1.95790177E-21
  -15.3599997      -2.87787485E-21
  -15.3500004      -2.70446237E-21
  -15.3400002      -3.12362337E-22
  -15.3299999       5.02888896E-21
  -15.3199997       1.26903772E-20
  -15.3100004       1.96967084E-20
  -15.3000002       2.04051612E-20
  -15.2900000       7.74602137E-21
  -15.2799997      -2.33095312E-20
  -15.2700005      -7.02965937E-20
  -15.2600002      -1.17648399E-19
  -15.2500000      -1.34557341E-19
  -15.2399998      -8.09115957E-20
  -15.2299995       7.52839629E-20
  -15.2200003       3.30056748E-19
  -15.2100000       6.13849078E-19
  -15.1999998       7.77305964E-19
  -15.1899996       6.14403289E-19
  -15.1800003      -6.01339238E-20
  -15.1700001      -1.28161534E-18
  -15.1599998      -2.79022372E-18
  -15.1499996      -3.94368780E-18
  -15.1400003      -3.78485133E-18
  -15.1300001      -1.34504138E-18
  -15.1199999       3.81124915E-18
  -15.1099997       1.09292380E-17
  -15.1000004       1.75820730E-17
  -15.0900002       1.97628817E-17
  -15.0799999       1.29156469E-17
  -15.0699997      -5.98920412E-18
  -15.0600004      -3.57249546E-17
  -15.0500002      -6.84377806E-17
  -15.0400000      -8.91454068E-17
  -15.0299997      -7.86382543E-17
  -15.0200005      -2.05444119E-17
  -15.0100002       8.83500627E-17
  -15.0000000       2.27699423E-16
  -14.9899998       3.48354608E-16
  -14.9799995       3.78201746E-16
  -14.9700003       2.43125852E-16
  -14.9600000      -9.79013452E-17
  -14.9499998      -6.12181469E-16
  -14.9399996      -1.16350966E-15
  -14.9300003      -1.51409183E-15
  -14.9200001      -1.37592646E-15
  -14.9099998      -5.16083199E-16
  -14.8999996       1.10260492E-15
  -14.8900003       3.19086756E-15
  -14.8800001       5.07828990E-15
  -14.8699999       5.80160945E-15
  -14.8599997       4.37402520E-15
  -14.8500004       2.11825602E-16
  -14.8400002      -6.38837755E-15
  -14.8299999      -1.39064751E-14
  -14.8199997      -1.96098935E-14
  -14.8100004      -2.00953095E-14
  -14.8000002      -1.23951837E-14
  -14.7900000       4.54315735E-15
  -14.7799997       2.84508541E-14
  -14.7700005       5.30310659E-14
  -14.7600002       6.85835056E-14
  -14.7500000       6.43303160E-14
  -14.7399998       3.22804900E-14
  -14.7299995      -2.82355468E-14
  -14.7200003      -1.06892210E-13
  -14.7100000      -1.81415999E-13
  -14.6999998      -2.20936076E-13
  -14.6899996      -1.94188442E-13
  -14.6800003      -8.14432140E-14
  -14.6700001       1.12907425E-13
  -14.6599998       3.51683309E-13
  -14.6499996       5.65107097E-13
  -14.6400003       6.63376689E-13
  -14.6300001       5.61837469E-13
  -14.6199999       2.14306654E-13
  -14.6099997      -3.54650039E-13
  -14.6000004      -1.03078277E-12
  -14.5900002      -1.61652788E-12
  -14.5799999      -1.86979121E-12
  -14.5699997      -1.57307034E-12
  -14.5600004      -6.19180326E-13
  -14.5500002       9.10904056E-13
  -14.5400000       2.70824660E-12
  -14.5299997       4.26121725E-12
  -14.5200005       4.95920752E-12
  -14.5100002       4.26539099E-12
  -14.5000000       1.92231018E-12
  -14.4899998      -1.86868077E-12
  -14.4799995      -6.36283040E-12
  -14.4700003      -1.03403406E-11
  -14.4600000      -1.23524099E-11
  -14.4499998      -1.11182686E-11
  -14.4399996      -5.98903479E-12
  -14.4300003       2.65212331E-12
  -14.4200001       1.32007062E-11
  -14.4099998       2.29733454E-11
  -14.3999996       2.87305093E-11
  -14.3900003       2.75206663E-11
  -14.3800001       1.76704380E-11
  -14.3699999      -3.47083581E-13
  -14.3599997      -2.34653460E-11
  -14.3500004      -4.62457260E-11
  -14.3400002      -6.18723892E-11
  -14.3299999      -6.38173472E-11
  -14.3199997      -4.78449849E-11
  -14.3100004      -1.38435045E-11
  -14.3000002       3.31005709E-11
  -14.2900000       8.28829019E-11
  -14.2799997       1.22062652E-10
  -14.2700005       1.36909109E-10
  -14.2600002       1.17250890E-10
  -14.2500000       6.02061387E-11
  -14.2399998      -2.72988455E-11
  -14.2299995      -1.28211497E-10
  -14.2200003      -2.17815127E-10
  -14.2100000      -2.68889161E-10
  -14.1999998      -2.58708777E-10
  -14.1899996      -1.76322720E-10
  -14.1800003      -2.81408577E-11
  -14.1700001       1.60081851E-10
  -14.1599998       3.46174533E-10
  -14.1499996       4.79610240E-10
  -14.1400003       5.13537435E-10
  -14.1300001       4.18287016E-10
  -14.1199999       1.92940081E-10
  -14.1099997      -1.28611760E-10
  -14.1000004      -4.79882578E-10
  -14.0900002      -7.73325959E-10
  -14.0799999      -9.19864185E-10
  -14.0699997      -8.52629689E-10
  -14.0600004      -5.49237156E-10
  -14.0500002      -4.62101572E-11
  -14.0400000       5.59872315E-10
  -14.0299997       1.12731557E-09
  -14.0200005       1.49923174E-09
  -14.0100002       1.54301649E-09
  -14.0000000       1.19030885E-09
  -13.9899998       4.66604866E-10
  -13.9799995      -4.99398300E-10
  -13.9700003      -1.49280233E-09
  -13.9600000      -2.25572916E-09
  -13.9499998      -2.54939425E-09
  -13.9399996      -2.22123608E-09
  -13.9300003      -1.25964073E-09
  -13.9200001       1.80635396E-10
  -13.9099998       1.79388471E-09
  -13.8999996       3.18185966E-09
  -13.8900003       3.94590138E-09
  -13.8800001       3.79288245E-09
  -13.8699999       2.62839572E-09
  -13.8599997       6.10236695E-10
  -13.8500004      -1.85774474E-09
  -13.8400002      -4.19796198E-09
  -13.8299999      -5.78710813E-09
  -13.8199997      -6.11303408E-09
  -13.8100004      -4.92251662E-09
  -13.8000002      -2.31969155E-09
  -13.7900000       1.21674026E-09
  -13.7799997       4.91154362E-09
  -13.7700005       7.85661136E-09
  -13.7600002       9.22703691E-09
  -13.7500000       8.49913029E-09
  -13.7399998       5.61431168E-09
  -13.7299995       1.04139253E-09
  -13.7200003      -4.28831326E-09
  -13.7100000      -9.16810272E-09
  -13.6999998      -1.23884609E-08
  -13.6899996      -1.30333921E-08
  -13.6800003      -1.07278577E-08
  -13.6700001      -5.77062975E-09
  -13.6599998       8.88905394E-10
  -13.6499996       7.83494869E-09
  -13.6400003       1.34953009E-08
  -13.6300001       1.65082046E-08
  -13.6199999       1.60586886E-08
  -13.6099997       1.20997443E-08
  -13.6000004       5.39755618E-09
  -13.5900002      -2.61905586E-09
  -13.5799999      -1.01772351E-08
  -13.5699997      -1.55754076E-08
  -13.5600004      -1.75963830E-08
  -13.5500002      -1.58147859E-08
  -13.5400000      -1.07170921E-08
  -13.5299997      -3.59565488E-09
  -13.5200005       3.76618114E-09
  -13.5100002       9.54643653E-09
  -13.5000000       1.23633468E-08
  -13.4899998       1.16562449E-08
  -13.4799995       7.86169618E-09
  -13.4700003       2.32488651E-09
  -13.4600000      -3.04780245E-09
  -13.4499998      -6.31928998E-09
  -13.4399996      -6.10392803E-09
  -13.4300003      -2.04400985E-09
  -13.4200001       4.96300467E-09
  -13.4099998       1.28765896E-08
  -13.3999996       1.89714786E-08
  -13.3900003       2.05548609E-08
  -13.3800001       1.57741908E-08
  -13.3699999       4.30258273E-09
  -13.3599997      -1.23037065E-08
  -13.3500004      -3.07171533E-08
  -13.3400002      -4.64519765E-08
  -13.3299999      -5.48789778E-08
  -13.3199997      -5.24225143E-08
  -13.3100004      -3.76449059E-08
  -13.3000002      -1.19183703E-08
  -13.2900000       2.05413357E-08
  -13.2799997       5.33624807E-08
  -13.2700005       7.93289132E-08
  -13.2600002       9.20443597E-08
  -13.2500000       8.75583552E-08
  -13.2399998       6.55333992E-08
  -13.2299995       2.96124973E-08
  -13.2200003      -1.31769511E-08
  -13.2100000      -5.39112932E-08
  -13.1999998      -8.38389056E-08
  -13.1899996      -9.65398925E-08
  -13.1800003      -8.96238745E-08
  -13.1700001      -6.54893313E-08
  -13.1599998      -3.08769188E-08
  -13.1499996       4.75240869E-09
  -13.1400003       3.16695932E-08
  -13.1300001       4.25660716E-08
  -13.1199999       3.47717162E-08
  -13.1099997       1.13608962E-08
  -13.1000004      -1.92530596E-08
  -13.0900002      -4.52669227E-08
  -13.0799999      -5.46024062E-08
  -13.0699997      -3.84626979E-08
  -13.0600004       5.58226843E-09
  -13.0500002       7.18617983E-08
  -13.0400000       1.46838829E-07
  -13.0299997       2.11481677E-07
  -13.0200005       2.45411286E-07
  -13.0100002       2.31969963E-07
  -13.0000000       1.63040028E-07
  -12.9899998       4.23807229E-08
  -12.9799995      -1.13503418E-07
  -12.9700003      -2.77443064E-07
  -12.9600000      -4.16447193E-07
  -12.9499998      -4.98440784E-07
  -12.9399996      -4.99505575E-07
  -12.9300003      -4.09989923E-07
  -12.9200001      -2.37989667E-07
  -12.9099998      -9.19035159E-09
  -12.8999996       2.37173253E-07
  -12.8900003       4.55615350E-07
  -12.8800001       6.03540627E-07
  -12.8699999       6.50317929E-07
  -12.8599997       5.84266729E-07
  -12.8500004       4.15906555E-07
  -12.8400002       1.76571106E-07
  -12.8299999      -8.75112391E-08
  -12.8199997      -3.24544828E-07
  -12.8100004      -4.87963746E-07
  -12.8000002      -5.46356205E-07
  -12.7900000      -4.90288073E-07
  -12.7799997      -3.34424243E-07
  -12.7700005      -1.14376199E-07
  -12.7600002       1.21121118E-07
  -12.7500000       3.20995468E-07
  -12.7399998       4.43156893E-07
  -12.7299995       4.63733187E-07
  -12.7200003       3.82026400E-07
  -12.7100000       2.19962971E-07
  -12.6999998       1.60948588E-08
  -12.6899996      -1.84460418E-07
  -12.6800003      -3.41709153E-07
  -12.6700001      -4.31171912E-07
  -12.6599998      -4.50247853E-07
  -12.6499996      -4.18711750E-07
  -12.6400003      -3.72893624E-07
  -12.6300001      -3.54681674E-07
  -12.6199999      -3.97886566E-07
  -12.6099997      -5.15374438E-07
  -12.6000004      -6.90441254E-07
  -12.5900002      -8.75129217E-07
  -12.5799999      -9.96677386E-07
  -12.5699997      -9.71400027E-07
  -12.5600004      -7.23431413E-07
  -12.5500002      -2.04408423E-07
  -12.5400000       5.90334480E-07
  -12.5299997       1.61297953E-06
  -12.5200005       2.76427613E-06
  -12.5100002       3.90475998E-06
  -12.5000000       4.87418174E-06
  -12.4899998       5.51530047E-06
  -12.4799995       5.69713802E-06
  -12.4700003       5.33290995E-06
  -12.4600000       4.38899815E-06
  -12.4499998       2.88349065E-06
  -12.4399996       8.75199703E-07
  -12.4300003      -1.55367900E-06
  -12.4200001      -4.31665194E-06
  -12.4099998      -7.33887509E-06
  -12.3999996      -1.05659310E-05
  -12.3900003      -1.39634021E-05
  -12.3800001      -1.75075820E-05
  -12.3699999      -2.11700972E-05
  -12.3599997      -2.49008299E-05
  -12.3500004      -2.86140839E-05
  -12.3400002      -3.21823318E-05
  -12.3299999      -3.54399563E-05
  -12.3199997      -3.81969221E-05
  -12.3100004      -4.02600672E-05
  -12.3000002      -4.14573697E-05
  -12.2900000      -4.16600124E-05
  -12.2799997      -4.07973494E-05
  -12.2700005      -3.88614244E-05
  -12.2600002      -3.59002770E-05
  -12.2500000      -3.20016406E-05
  -12.2399998      -2.72712368E-05
  -12.2299995      -2.18107543E-05
  -12.2200003      -1.57009690E-05
  -12.2100000      -8.99401311E-06
  -12.1999998      -1.71670774E-06
  -12.1899996       6.11588121E-06
  -12.1800003       1.44799860E-05
  -12.1700001       2.33207629E-05
  -12.1599998       3.25338115E-05
  -12.1499996       4.19553362E-05
  -12.1400003       5.13641426E-05
  -12.1300001       6.04957822E-05
  -12.1199999       6.90666639E-05
  -12.1099997       7.68034952E-05
  -12.1000004       8.34724706E-05
  -12.0900002       8.89022122E-05
  -12.0799999       9.29963426E-05
  -12.0699997       9.57335506E-05
  -12.0600004       9.71557092E-05
  -12.0500002       9.73470742E-05
  -12.0400000       9.64098654E-05
  -12.0299997       9.44411659E-05
  -12.0200005       9.15165292E-05
  -12.0100002       8.76828635E-05
  -12.0000000       8.29616329E-05
  -11.9899998       7.73603897E-05
  -11.9799995       7.08888838E-05
  -11.9700003       6.35751712E-05
  -11.9600000       5.54770850E-05
  -11.9499998       4.66859346E-05
  -11.9399996       3.73213661E-05
  -11.9300003       2.75185921E-05
  -11.9200001       1.74110810E-05
  -11.9099998       7.11331359E-06
  -11.8999996      -3.29202840E-06
  -11.8900003      -1.37589223E-05
  -11.8800001      -2.42731967E-05
  -11.8699999      -3.48387875E-05
  -11.8599997      -4.54578949E-05
  -11.8500004      -5.61093730E-05
  -11.8400002      -6.67303539E-05
  -11.8299999      -7.72055428E-05
  -11.8199997      -8.73671015E-05
  -11.8100004      -9.70055335E-05
  -11.8000002      -1.05890169E-04
  -11.7900000      -1.13795119E-04
  -11.7799997      -1.20526100E-04
  -11.7700005      -1.25942548E-04
  -11.7600002      -1.29971420E-04
  -11.7500000      -1.32609945E-04
  -11.7399998      -1.33917405E-04
  -11.7299995      -1.33998488E-04
  -11.7200003      -1.32981470E-04
  -11.7100000      -1.30996283E-04
  -11.6999998      -1.28156491E-04
  -11.6899996      -1.24547470E-04
  -11.6800003      -1.20222932E-04
  -11.6700001      -1.15207578E-04
  -11.6599998      -1.09504377E-04
  -11.6499996      -1.03102990E-04
  -11.6400003      -9.59866011E-05
  -11.6300001      -8.81353626E-05
  -11.6199999      -7.95265805E-05
  -11.6099997      -7.01325916E-05
  -11.6000004      -5.99191699E-05
  -11.5900002      -4.88469414E-05
  -11.5799999      -3.68777037E-05
  -11.5699997      -2.39862820E-05
  -11.5600004      -1.01766318E-05
  -11.5500002       4.50068455E-06
  -11.5400000       1.99335573E-05
  -11.5299997       3.59396545E-05
  -11.5200005       5.22671435E-05
  -11.5100002       6.86058993E-05
  -11.5000000       8.46082185E-05
  -11.4899998       9.99162294E-05
  -11.4799995       1.14191716E-04
  -11.4700003       1.27143401E-04
  -11.4600000       1.38547854E-04
  -11.4499998       1.48260908E-04
  -11.4399996       1.56218754E-04
  -11.4300003       1.62430340E-04
  -11.4200001       1.66963306E-04
  -11.4099998       1.69927414E-04
  -11.3999996       1.71459120E-04
  -11.3900003       1.71709791E-04
  -11.3800001       1.70838888E-04
  -11.3699999       1.69011590E-04
  -11.3599997       1.66398662E-04
  -11.3500004       1.63175937E-04
  -11.3400002       1.59520394E-04
  -11.3299999       1.55601185E-04
  -11.3199997       1.51565779E-04
  -11.3100004       1.47522820E-04
  -11.3000002       1.43525875E-04
  -11.2900000       1.39562369E-04
  -11.2799997       1.35551905E-04
  -11.2700005       1.31356879E-04
  -11.2600002       1.26804443E-04
  -11.2500000       1.21717385E-04
  -11.2399998       1.15947660E-04
  -11.2299995       1.09405395E-04
  -11.2200003       1.02076585E-04
  -11.2100000       9.40250175E-05
  -11.1999998       8.53774254E-05
  -11.1899996       7.62955024E-05
  -11.1800003       6.69415094E-05
  -11.1700001       5.74470796E-05
  -11.1599998       4.78933543E-05
  -11.1499996       3.83087099E-05
  -11.1400003       2.86852555E-05
  -11.1300001       1.90102819E-05
  -11.1199999       9.30412443E-06
  -11.1099997      -3.46138421E-07
  -11.1000004      -9.76751653E-06
  -11.0900002      -1.87034893E-05
  -11.0799999      -2.68395088E-05
  -11.0699997      -3.38471036E-05
  -11.0600004      -3.94369526E-05
  -11.0500002      -4.34083850E-05
  -11.0400000      -4.56834459E-05
  -11.0299997      -4.63167344E-05
  -11.0200005      -4.54783076E-05
  -11.0100002      -4.34134963E-05
  -11.0000000      -4.03893100E-05
  -10.9899998      -3.66400200E-05
  -10.9799995      -3.23253844E-05
  -10.9700003      -2.75110815E-05
  -10.9600000      -2.21759219E-05
  -10.9499998      -1.62435372E-05
  -10.9399996      -9.63056209E-06
  -10.9300003      -2.29912416E-06
  -10.9200001       5.69919848E-06
  -10.9099998       1.41987093E-05
  -10.8999996       2.29203524E-05
  -10.8900003       3.14979188E-05
  -10.8800001       3.95242569E-05
  -10.8699999       4.66072670E-05
  -10.8599997       5.24241877E-05
  -10.8500004       5.67629540E-05
  -10.8400002       5.95431266E-05
  -10.8299999       6.08134287E-05
  -10.8199997       6.07276670E-05
  -10.8100004       5.95053789E-05
  -10.8000002       5.73858706E-05
  -10.7900000       5.45844050E-05
  -10.7799997       5.12586994E-05
  -10.7700005       4.74900116E-05
  -10.7600002       4.32808483E-05
  -10.7500000       3.85676831E-05
  -10.7399998       3.32450873E-05
  -10.7299995       2.71968165E-05
  -10.7200003       2.03289055E-05
  -10.7100000       1.26006007E-05
  -10.6999998       4.04974207E-06
  -10.6899996      -5.19060768E-06
  -10.6800003      -1.48862327E-05
  -10.6700001      -2.47085045E-05
  -10.6599998      -3.42545900E-05
  -10.6499996      -4.30803775E-05
  -10.6400003      -5.07438963E-05
  -10.6300001      -5.68538817E-05
  -10.6199999      -6.11168798E-05
  -10.6099997      -6.33748496E-05
  -10.6000004      -6.36258192E-05
  -10.5900002      -6.20225255E-05
  -10.5799999      -5.88479634E-05
  -10.5699997      -5.44711293E-05
  -10.5600004      -4.92909785E-05
  -10.5500002      -4.36792761E-05
  -10.5400000      -3.79335179E-05
  -10.5299997      -3.22486558E-05
  -10.5200005      -2.67124615E-05
  -10.5100002      -2.13230996E-05
  -10.5000000      -1.60227828E-05
  -10.4899998      -1.07373553E-05
  -10.4799995      -5.41073678E-06
  -10.4700003      -2.57428212E-08
  -10.4600000       5.39392704E-06
  -10.4499998       1.07990199E-05
  -10.4399996       1.61415919E-05
  -10.4300003       2.14035117E-05
  -10.4200001       2.66170591E-05
  -10.4099998       3.18692000E-05
  -10.3999996       3.72871436E-05
  -10.3900003       4.30072796E-05
  -10.3800001       4.91357205E-05
  -10.3699999       5.57108688E-05
  -10.3599997       6.26795954E-05
  -10.3500004       6.98952135E-05
  -10.3400002       7.71395571E-05
  -10.3299999       8.41660003E-05
  -10.3199997       9.07531503E-05
  -10.3100004       9.67563174E-05
  -10.3000002       1.02141901E-04
  -10.2900000       1.06995096E-04
  -10.2799997       1.11495967E-04
  -10.2700005       1.15867631E-04
  -10.2600002       1.20307370E-04
  -10.2500000       1.24916944E-04
  -10.2399998       1.29648819E-04
  -10.2299995       1.34282964E-04
  -10.2200003       1.38441101E-04
  -10.2100000       1.41636774E-04
  -10.1999998       1.43351819E-04
  -10.1899996       1.43122539E-04
  -10.1800003       1.40618009E-04
  -10.1700001       1.35695460E-04
  -10.1599998       1.28422907E-04
  -10.1499996       1.19067881E-04
  -10.1400003       1.08059030E-04
  -10.1300001       9.59307072E-05
  -10.1199999       8.32635487E-05
  -10.1099997       7.06308565E-05
  -10.1000004       5.85564267E-05
  -10.0900002       4.74847693E-05
  -10.0799999       3.77609977E-05
  -10.0699997       2.96174276E-05
  -10.0600004       2.31645809E-05
  -10.0500002       1.83888005E-05
  -10.0400000       1.51593167E-05
  -10.0299997       1.32497189E-05
  -10.0200005       1.23757845E-05
  -10.0100002       1.22459569E-05
  -10.0000000       1.26169743E-05
  -9.98999977       1.33416961E-05
  -9.97999954       1.43962970E-05
  -9.97000027       1.58774656E-05
  -9.96000004       1.79679719E-05
  -9.94999981       2.08771271E-05
  -9.93999958       2.47719763E-05
  -9.93000031       2.97165898E-05
  -9.92000008       3.56369710E-05
  -9.90999985       4.23214697E-05
  -9.89999962       4.94560336E-05
  -9.89000034       5.66851559E-05
  -9.88000011       6.36811383E-05
  -9.86999989       7.02043690E-05
  -9.85999966       7.61399642E-05
  -9.85000038       8.15052408E-05
  -9.84000015       8.64299218E-05
  -9.82999992       9.11195821E-05
  -9.81999969       9.58143792E-05
  -9.81000042       1.00753816E-04
  -9.80000019       1.06153697E-04
  -9.78999996       1.12195012E-04
  -9.77999973       1.19019736E-04
  -9.77000046       1.26727929E-04
  -9.76000023       1.35371418E-04
  -9.75000000       1.44943333E-04
  -9.73999977       1.55366419E-04
  -9.72999954       1.66484519E-04
  -9.72000027       1.78061760E-04
  -9.71000004       1.89790633E-04
  -9.69999981       2.01307397E-04
  -9.68999958       2.12211831E-04
  -9.68000031       2.22087372E-04
  -9.67000008       2.30523015E-04
  -9.65999985       2.37138127E-04
  -9.64999962       2.41614864E-04
  -9.64000034       2.43740578E-04
  -9.63000011       2.43455652E-04
  -9.61999989       2.40896567E-04
  -9.60999966       2.36418389E-04
  -9.60000038       2.30579011E-04
  -9.59000015       2.24076051E-04
  -9.57999992       2.17639288E-04
  -9.56999969       2.11898034E-04
  -9.56000042       2.07255580E-04
  -9.55000019       2.03806936E-04
  -9.53999996       2.01329211E-04
  -9.52999973       1.99355491E-04
  -9.52000046       1.97315472E-04
  -9.51000023       1.94706372E-04
  -9.50000000       1.91242172E-04
  -9.48999977       1.86933394E-04
  -9.47999954       1.82070478E-04
  -9.47000027       1.77113805E-04
  -9.46000004       1.72524873E-04
  -9.44999981       1.68595943E-04
  -9.43999958       1.65336707E-04
  -9.43000031       1.62460419E-04
  -9.42000008       1.59476433E-04
  -9.40999985       1.55859772E-04
  -9.39999962       1.51240325E-04
  -9.39000034       1.45543861E-04
  -9.38000011       1.39033247E-04
  -9.36999989       1.32232919E-04
  -9.35999966       1.25760518E-04
  -9.35000038       1.20123666E-04
  -9.34000015       1.15555558E-04
  -9.32999992       1.11948277E-04
  -9.31999969       1.08911328E-04
  -9.31000042       1.05934800E-04
  -9.30000019       1.02601836E-04
  -9.28999996       9.87718377E-05
  -9.27999973       9.46684377E-05
  -9.27000046       9.08369766E-05
  -9.26000023       8.79847576E-05
  -9.25000000       8.67584458E-05
  -9.23999977       8.75365222E-05
  -9.22999954       9.03098335E-05
  -9.22000027       9.46915243E-05
  -9.21000004       1.00049925E-04
  -9.19999981       1.05717445E-04
  -9.18999958       1.11199057E-04
  -9.18000031       1.16307870E-04
  -9.17000008       1.21183497E-04
  -9.15999985       1.26194194E-04
  -9.14999962       1.31765133E-04
  -9.14000034       1.38201372E-04
  -9.13000011       1.45573533E-04
  -9.11999989       1.53705958E-04
  -9.10999966       1.62265613E-04
  -9.10000038       1.70911357E-04
  -9.09000015       1.79438051E-04
  -9.07999992       1.87857251E-04
  -9.06999969       1.96380381E-04
  -9.06000042       2.05314442E-04
  -9.05000019       2.14913147E-04
  -9.03999996       2.25249751E-04
  -9.02999973       2.36164575E-04
  -9.02000046       2.47311720E-04
  -9.01000023       2.58287997E-04
  -9.00000000       2.68788746E-04
  -8.98999977       2.78726686E-04
  -8.97999954       2.88259063E-04
  -8.97000027       2.97705294E-04
  -8.96000004       3.07386043E-04
  -8.94999981       3.17443162E-04
  -8.93999958       3.27715883E-04
  -8.93000031       3.37726553E-04
  -8.92000008       3.46787449E-04
  -8.90999985       3.54193675E-04
  -8.89999962       3.59430007E-04
  -8.89000034       3.62313731E-04
  -8.88000011       3.63014464E-04
  -8.86999989       3.61945684E-04
  -8.85999966       3.59570200E-04
  -8.85000038       3.56197968E-04
  -8.84000015       3.51860333E-04
  -8.82999992       3.46316403E-04
  -8.81999969       3.39193590E-04
  -8.81000042       3.30208248E-04
  -8.80000019       3.19375977E-04
  -8.78999996       3.07123410E-04
  -8.77999973       2.94240774E-04
  -8.77000046       2.81684392E-04
  -8.76000023       2.70292570E-04
  -8.75000000       2.60521105E-04
  -8.73999977       2.52299738E-04
  -8.72999954       2.45075760E-04
  -8.72000027       2.38036781E-04
  -8.71000004       2.30438236E-04
  -8.69999981       2.21920418E-04
  -8.68999958       2.12694737E-04
  -8.68000031       2.03530290E-04
  -8.67000008       1.95537621E-04
  -8.65999985       1.89831102E-04
  -8.64999962       1.87191661E-04
  -8.64000034       1.87856363E-04
  -8.63000011       1.91515675E-04
  -8.61999989       1.97517467E-04
  -8.60999966       2.05201562E-04
  -8.60000038       2.14232350E-04
  -8.59000015       2.24799121E-04
  -8.57999992       2.37599961E-04
  -8.56999969       2.53605715E-04
  -8.56000042       2.73688580E-04
  -8.55000019       2.98253231E-04
  -8.53999996       3.27011105E-04
  -8.52999973       3.58992052E-04
  -8.52000046       3.92795890E-04
  -8.51000023       4.27003310E-04
  -8.50000000       4.60597599E-04
  -8.48999977       4.93246305E-04
  -8.47999954       5.25339448E-04
  -8.47000027       5.57764317E-04
  -8.46000004       5.91499207E-04
  -8.44999981       6.27167406E-04
  -8.43999958       6.64710940E-04
  -8.43000031       7.03300175E-04
  -8.42000008       7.41509721E-04
  -8.40999985       7.77695503E-04
  -8.39999962       8.10439407E-04
  -8.39000034       8.38906039E-04
  -8.38000011       8.62994581E-04
  -8.36999989       8.83235771E-04
  -8.35999966       9.00491432E-04
  -8.35000038       9.15567973E-04
  -8.34000015       9.28885187E-04
  -8.32999992       9.40314087E-04
  -8.31999969       9.49231267E-04
  -8.31000042       9.54753836E-04
  -8.30000019       9.56059783E-04
  -8.28999996       9.52667440E-04
  -8.27999973       9.44581407E-04
  -8.27000046       9.32259427E-04
  -8.26000023       9.16432182E-04
  -8.25000000       8.97850317E-04
  -8.23999977       8.77065933E-04
  -8.22999954       8.54320941E-04
  -8.22000027       8.29575059E-04
  -8.21000004       8.02646100E-04
  -8.19999981       7.73393258E-04
  -8.18999958       7.41867523E-04
  -8.18000031       7.08371343E-04
  -8.17000008       6.73416420E-04
  -8.15999985       6.37609395E-04
  -8.14999962       6.01525186E-04
  -8.14000034       5.65623632E-04
  -8.13000011       5.30244026E-04
  -8.11999989       4.95663320E-04
  -8.10999966       4.62182303E-04
  -8.10000038       4.30179934E-04
  -8.09000015       4.00102901E-04
  -8.07999992       3.72379407E-04
  -8.06999969       3.47299152E-04
  -8.06000042       3.24911933E-04
  -8.05000019       3.05012276E-04
  -8.03999996       2.87228322E-04
  -8.02999973       2.71205528E-04
  -8.02000046       2.56817206E-04
  -8.01000023       2.44322146E-04
  -8.00000000       2.34395382E-04
  -7.98999977       2.28005825E-04
  -7.98000002       2.26168573E-04
  -7.96999979       2.29653364E-04
  -7.96000004       2.38754350E-04
  -7.94999981       2.53205828E-04
  -7.94000006       2.72276957E-04
  -7.92999983       2.95015954E-04
  -7.92000008       3.20550724E-04
  -7.90999985       3.48331989E-04
  -7.90000010       3.78224562E-04
  -7.88999987       4.10412089E-04
  -7.88000011       4.45148034E-04
  -7.86999989       4.82455245E-04
  -7.86000013       5.21897979E-04
  -7.84999990       5.62522793E-04
  -7.84000015       6.03012333E-04
  -7.82999992       6.42003899E-04
  -7.82000017       6.78470416E-04
  -7.80999994       7.12022593E-04
  -7.80000019       7.43017357E-04
  -7.78999996       7.72432191E-04
  -7.78000021       8.01530550E-04
  -7.76999998       8.31438694E-04
  -7.76000023       8.62770306E-04
  -7.75000000       8.95426609E-04
  -7.73999977       9.28634254E-04
  -7.73000002       9.61200276E-04
  -7.71999979       9.91887995E-04
  -7.71000004       1.01978739E-03
  -7.69999981       1.04454311E-03
  -7.69000006       1.06638484E-03
  -7.67999983       1.08595891E-03
  -7.67000008       1.10404170E-03
  -7.65999985       1.12124020E-03
  -7.65000010       1.13779458E-03
  -7.63999987       1.15353789E-03
  -7.63000011       1.16801448E-03
  -7.61999989       1.18069944E-03
  -7.61000013       1.19121815E-03
  -7.59999990       1.19950029E-03
  -7.59000015       1.20579742E-03
  -7.57999992       1.21059525E-03
  -7.57000017       1.21444778E-03
  -7.55999994       1.21782254E-03
  -7.55000019       1.22100103E-03
  -7.53999996       1.22407661E-03
  -7.53000021       1.22702250E-03
  -7.51999998       1.22979656E-03
  -7.51000023       1.23243139E-03
  -7.50000000       1.23506971E-03
  -7.48999977       1.23794214E-03
  -7.48000002       1.24131539E-03
  -7.46999979       1.24544126E-03
  -7.46000004       1.25054433E-03
  -7.44999981       1.25684531E-03
  -7.44000006       1.26460078E-03