  -16.0000000       0.00000000    
  -15.9899998       0.00000000    
  -15.9799995       0.00000000    
  -15.9700003       0.00000000    
  -15.9600000       0.00000000    
  -15.9499998       0.00000000    
  -15.9399996       0.00000000    
  -15.9300003       0.00000000    
  -15.9200001       0.00000000    
  -15.9099998       0.00000000    
  -15.8999996       0.00000000    
  -15.8900003      -7.99310033E-39
  -15.8800001      -2.82040530E-37
  -15.8699999      -4.30361224E-36
  -15.8599997      -4.11251778E-35
  -15.8500004      -2.85672081E-34
  -15.8400002      -1.56006872E-33
  -15.8299999      -7.01639574E-33
  -15.8199997      -2.67489705E-32
  -15.8100004      -8.79562473E-32
  -15.8000002      -2.51541944E-31
  -15.7900000      -6.25040251E-31
  -15.7799997      -1.32970529E-30
  -15.7700005      -2.31507594E-30
  -15.7600002      -2.82551471E-30
  -15.7500000      -2.74424963E-31
  -15.7399998       1.15694200E-29
  -15.7299995       4.45937613E-29
  -15.7200003       1.16855462E-28
  -15.7100000       2.48237901E-28
  -15.6999998       4.46704091E-28
  -15.6899996       6.81707941E-28
  -15.6800003       8.47021775E-28
  -15.6700001       7.26781924E-28
  -15.6599998      -5.95105356E-30
  -15.6499996      -1.71623334E-27
  -15.6400003      -4.61994964E-27
  -15.6300001      -8.47191237E-27
  -15.6199999      -1.21855128E-26
  -15.6099997      -1.35414769E-26
  -15.6000004      -9.26008148E-27
  -15.5900002       4.20349233E-27
  -15.5799999       2.88158070E-26
  -15.5699997       6.20449949E-26
  -15.5600004       9.35563211E-26
  -15.5500002       1.03420774E-25
  -15.5400000       6.51028601E-26
  -15.5299997      -4.30010267E-26
  -15.5200005      -2.15883891E-25
  -15.5100002      -3.95320953E-25
  -15.5000000      -4.55115254E-25
  -15.4899998      -2.26848515E-25
  -15.4799995       4.04182376E-25
  -15.4700003       1.32888224E-24
  -15.4600000       2.02992725E-24
  -15.4499998       1.53426514E-24
  -15.4399996      -1.27687767E-24
  -15.4300003      -6.82480172E-24
  -15.4200001      -1.35412187E-23
  -15.4099998      -1.67151153E-23
  -15.3999996      -8.66038717E-24
  -15.3900003       1.83395283E-23
  -15.3800001       6.54997836E-23
  -15.3699999       1.18664522E-22
  -15.3599997       1.41682587E-22
  -15.3500004       7.98894900E-23
  -15.3400002      -1.17900929E-22
  -15.3299999      -4.55966046E-22
  -15.3199997      -8.37285656E-22
  -15.3100004      -1.02776929E-21
  -15.3000002      -6.84704558E-22
  -15.2900000       5.06844722E-22
  -15.2799997       2.58146388E-21
  -15.2700005       4.99148206E-21
  -15.2600002       6.42035539E-21
  -15.2500000       4.94846948E-21
  -15.2399998      -1.21702118E-21
  -15.2299995      -1.24288879E-20
  -15.2200003      -2.60568711E-20
  -15.2100000      -3.55285608E-20
  -15.1999998      -3.10832341E-20
  -15.1899996      -3.21488774E-21
  -15.1800003       5.11236425E-20
  -15.1700001       1.21167730E-19
  -15.1599998       1.77471678E-19
  -15.1499996       1.74518385E-19
  -15.1400003       6.51621932E-20
  -15.1300001      -1.72514010E-19
  -15.1199999      -5.02326985E-19
  -15.1099997      -8.05897359E-19
  -15.1000004      -8.88006098E-19
  -15.0900002      -5.30212329E-19
  -15.0799999       4.02492903E-19
  -15.0699997       1.82393511E-18
  -15.0600004       3.31286332E-18
  -15.0500002       4.10300361E-18
  -15.0400000       3.25509509E-18
  -15.0299997       4.27852580E-20
  -15.0200005      -5.50991748E-18
  -15.0100002      -1.21244892E-17
  -15.0000000      -1.70856223E-17
  -14.9899998      -1.66875003E-17
  -14.9799995      -7.48482649E-18
  -14.9700003       1.17781668E-17
  -14.9600000       3.81125783E-17
  -14.9499998       6.30596111E-17
  -14.9399996       7.34186983E-17
  -14.9300003       5.47601937E-17
  -14.9200001      -2.31868362E-18
  -14.9099998      -9.45942573E-17
  -14.8999996      -2.00131333E-16
  -14.8900003      -2.77484605E-16
  -14.8800001      -2.73592595E-16
  -14.8699999      -1.41603130E-16
  -14.8599997       1.34051262E-16
  -14.8500004       5.12800523E-16
  -14.8400002       8.84690709E-16
  -14.8299999       1.08094131E-15
  -14.8199997       9.16266138E-16
  -14.8100004       2.60996024E-16
  -14.8000002      -8.73009912E-16
  -14.7900000      -2.26272485E-15
  -14.7799997      -3.45860641E-15
  -14.7700005      -3.85713647E-15
  -14.7600002      -2.87408380E-15
  -14.7500000      -1.95444740E-16
  -14.7399998       3.95994510E-15
  -14.7299995       8.66768561E-15
  -14.7200003       1.23267544E-14
  -14.7100000       1.29716997E-14
  -14.6999998       8.87366200E-15
  -14.6899996      -6.75385744E-16
  -14.6800003      -1.46181082E-14
  -14.6700001      -2.97306227E-14
  -14.6599998      -4.08661447E-14
  -14.6499996      -4.20276674E-14
  -14.6400003      -2.82199428E-14
  -14.6300001       2.27765275E-15
  -14.6199999       4.58747284E-14
  -14.6099997       9.27033583E-14
  -14.6000004       1.27498882E-13
  -14.5900002       1.32751571E-13
  -14.5799999       9.39170074E-14
  -14.5699997       5.67629516E-15
  -14.5600004      -1.22503475E-13
  -14.5500002      -2.63671002E-13
  -14.5400000      -3.75547954E-13
  -14.5299997      -4.08641355E-13
  -14.5200005      -3.19840915E-13
  -14.5100002      -8.90663818E-14
  -14.5000000       2.65326335E-13
  -14.4899998       6.77790885E-13
  -14.4799995       1.03869420E-12
  -14.4700003       1.21256163E-12
  -14.4600000       1.07116497E-12
  -14.4499998       5.36444858E-13
  -14.4399996      -3.76512271E-13
  -14.4300003      -1.52963167E-12
  -14.4200001      -2.65891692E-12
  -14.4099998      -3.40884872E-12
  -14.3999996      -3.40693944E-12
  -14.3900003      -2.37022077E-12
  -14.3800001      -2.23079002E-13
  -14.3699999       2.80469506E-12
  -14.3599997       6.13578632E-12
  -14.3500004       8.89140758E-12
  -14.3400002       1.00430116E-11
  -14.3299999       8.66221591E-12
  -14.3199997       4.22994365E-12
  -14.3100004      -3.06524337E-12
  -14.3000002      -1.21308397E-11
  -14.2900000      -2.09693877E-11
  -14.2799997      -2.69410900E-11
  -14.2700005      -2.73049465E-11
  -14.2600002      -1.99769281E-11
  -14.2500000      -4.35911767E-12
  -14.2399998       1.79767191E-11
  -14.2299995       4.29990175E-11
  -14.2200003       6.45363207E-11
  -14.2100000       7.53191884E-11
  -14.1999998       6.86832258E-11
  -14.1899996       4.06612730E-11
  -14.1800003      -8.00865017E-12
  -14.1700001      -7.05617509E-11
  -14.1599998      -1.34168038E-10
  -14.1499996      -1.81594587E-10
  -14.1400003      -1.94629882E-10
  -14.1300001      -1.58847310E-10
  -14.1199999      -6.87754992E-11
  -14.1099997       6.78558182E-11
  -14.1000004       2.28260480E-10
  -14.0900002       3.76356502E-10
  -14.0799999       4.68709072E-10
  -14.0699997       4.64214944E-10
  -14.0600004       3.35916239E-10
  -14.0500002       8.22912571E-11
  -14.0400000      -2.65222566E-10
  -14.0299997      -6.41557529E-10
  -14.0200005      -9.56229207E-10
  -14.0100002      -1.11056653E-09
  -14.0000000      -1.02166209E-09
  -13.9899998      -6.48328113E-10
  -13.9799995      -1.26014633E-11
  -13.9700003       7.90066568E-10
  -13.9600000       1.59743341E-09
  -13.9499998       2.20622409E-09
  -13.9399996       2.41476927E-09
  -13.9300003       2.07524375E-09
  -13.9200001       1.14399612E-09
  -13.9099998      -2.83631091E-10
  -13.8999996      -1.96652317E-09
  -13.8900003      -3.54691898E-09
  -13.8800001      -4.61558747E-09
  -13.8699999      -4.80376317E-09
  -13.8599997      -3.88366894E-09
  -13.8500004      -1.85356375E-09
  -13.8400002       1.01750930E-09
  -13.8299999       4.20444612E-09
  -13.8199997       7.00770730E-09
  -13.8100004       8.69342109E-09
  -13.8000002       8.66696581E-09
  -13.7900000       6.64200872E-09
  -13.7799997       2.76162337E-09
  -13.7700005      -2.36699371E-09
  -13.7600002      -7.74687070E-09
  -13.7500000      -1.21731247E-08
  -13.7399998      -1.44931320E-08
  -13.7299995      -1.38913787E-08
  -13.7200003      -1.01311581E-08
  -13.7100000      -3.68643738E-09
  -13.6999998       4.28398872E-09
  -13.6899996       1.21342758E-08
  -13.6800003       1.80732656E-08
  -13.6700001       2.05816715E-08
  -13.6599998       1.88080893E-08
  -13.6499996       1.28406734E-08
  -13.6400003       3.77108433E-09
  -13.6300001      -6.48872733E-09
  -13.6199999      -1.56161946E-08
  -13.6099997      -2.14317115E-08
  -13.6000004      -2.24659225E-08
  -13.5900002      -1.83919937E-08
  -13.5799999      -1.01930695E-08
  -13.5699997       8.34740436E-12
  -13.5600004       9.44904865E-09
  -13.5500002       1.54510822E-08
  -13.5400000       1.61990990E-08
  -13.5299997       1.13571490E-08
  -13.5200005       2.33048580E-09
  -13.5100002      -7.94871280E-09
  -13.5000000      -1.57153881E-08
  -13.4899998      -1.74151200E-08
  -13.4799995      -1.08493765E-08
  -13.4700003       3.89031030E-09
  -13.4600000       2.40001619E-08
  -13.4499998       4.42581829E-08
  -13.4399996       5.80711053E-08
  -13.4300003       5.91083484E-08
  -13.4200001       4.31697345E-08
  -13.4099998       9.81377823E-09
  -13.3999996      -3.67360897E-08
  -13.3900003      -8.77711130E-08
  -13.3800001      -1.31493195E-07
  -13.3699999      -1.55456192E-07
  -13.3599997      -1.49582263E-07
  -13.3500004      -1.09066775E-07
  -13.3400002      -3.64181574E-08
  -13.3299999       5.80003565E-08
  -13.3199997       1.57260814E-07
  -13.3100004       2.40904228E-07
  -13.3000002       2.89181799E-07
  -13.2900000       2.87606042E-07
  -13.2799997       2.30742287E-07
  -13.2700005       1.24255635E-07
  -13.2600002      -1.54296309E-08
  -13.2500000      -1.63963890E-07
  -13.2399998      -2.93894374E-07
  -13.2299995      -3.80440156E-07
  -13.2200003      -4.06878655E-07
  -13.2100000      -3.68221635E-07
  -13.1999998      -2.72219864E-07
  -13.1899996      -1.37375906E-07
  -13.1800003       1.15959455E-08
  -13.1700001       1.49730425E-07
  -13.1599998       2.57634980E-07
  -13.1499996       3.25590491E-07
  -13.1400003       3.54754633E-07
  -13.1300001       3.55060479E-07
  -13.1199999       3.40344769E-07
  -13.1099997       3.22101954E-07
  -13.1000004       3.03796753E-07
  -13.0900002       2.77692351E-07
  -13.0799999       2.25608119E-07
  -13.0699997       1.24002696E-07
  -13.0600004      -4.74834820E-08
  -13.0500002      -2.96070368E-07
  -13.0400000      -6.07273648E-07
  -13.0299997      -9.40626990E-07
  -13.0200005      -1.23189022E-06
  -13.0100002      -1.40255031E-06
  -13.0000000      -1.37561653E-06
  -12.9899998      -1.09489804E-06
  -12.9799995      -5.43604358E-07
  -12.9700003       2.42393639E-07
  -12.9600000       1.17073398E-06
  -12.9499998       2.10062240E-06
  -12.9399996       2.86282784E-06
  -12.9300003       3.28894680E-06
  -12.9200001       3.24486291E-06
  -12.9099998       2.66181110E-06
  -12.8999996       1.55825444E-06
  -12.8900003       4.70667203E-08
  -12.8800001      -1.67487156E-06
  -12.8699999      -3.35410596E-06
  -12.8599997      -4.72090505E-06
  -12.8500004      -5.53530163E-06
  -12.8400002      -5.63013782E-06
  -12.8299999      -4.94256483E-06
  -12.8199997      -3.52747452E-06
  -12.8100004      -1.54988697E-06
  -12.8000002       7.42333611E-07
  -12.7900000       3.05988965E-06
  -12.7799997       5.11898861E-06
  -12.7700005       6.68405255E-06
  -12.7600002       7.59752629E-06
  -12.7500000       7.79130914E-06
  -12.7399998       7.27890119E-06
  -12.7299995       6.13226666E-06
  -12.7200003       4.45139312E-06
  -12.7100000       2.33649575E-06
  -12.6999998      -1.27884931E-07
  -12.6899996      -2.87104399E-06
  -12.6800003      -5.81604991E-06
  -12.6700001      -8.84705787E-06
  -12.6599998      -1.17747722E-05
  -12.6499996      -1.43135276E-05
  -12.6400003      -1.60826930E-05
  -12.6300001      -1.66405534E-05
  -12.6199999      -1.55512880E-05
  -12.6099997      -1.24766511E-05
  -12.6000004      -7.27570978E-06
  -12.5900002      -9.06676547E-08
  -12.5799999       8.60387445E-06
  -12.5699997       1.80061234E-05
  -12.5600004       2.70550790E-05
  -12.5500002       3.45569351E-05
  -12.5400000       3.93524060E-05
  -12.5299997       4.04971433E-05
  -12.5200005       3.74221599E-05
  -12.5100002       3.00429547E-05
  -12.5000000       1.87946898E-05
  -12.4899998       4.58473096E-06
  -12.4799995      -1.13297911E-05
  -12.4700003      -2.75164948E-05
  -12.4600000      -4.25612052E-05
  -12.4499998      -5.52439924E-05
  -12.4399996      -6.46666012E-05
  -12.4300003      -7.03121113E-05
  -12.4200001      -7.20339522E-05
  -12.4099998      -6.99880839E-05
  -12.3999996      -6.45344844E-05
  -12.3900003      -5.61400811E-05
  -12.3800001      -4.53114517E-05
  -12.3699999      -3.25750952E-05
  -12.3599997      -1.85059998E-05
  -12.3500004      -3.78835693E-06
  -12.3400002       1.07214892E-05
  -12.3299999       2.39652582E-05
  -12.3199997       3.47169444E-05
  -12.3100004       4.16975236E-05
  -12.3000002       4.37652088E-05
  -12.2900000       4.01531834E-05
  -12.2799997       3.07071932E-05
  -12.2700005       1.60656145E-05
  -12.2600002      -2.27261353E-06
  -12.2500000      -2.20300262E-05
  -12.2399998      -4.03928752E-05
  -12.2299995      -5.43904025E-05
  -12.2200003      -6.13559969E-05
  -12.2100000      -5.93920231E-05
  -12.1999998      -4.77516478E-05
  -12.1899996      -2.70598302E-05
  -12.1800003       6.78472645E-07
  -12.1700001       3.22973683E-05
  -12.1599998       6.38882848E-05
  -12.1499996       9.13511321E-05
  -12.1400003       1.10985726E-04
  -12.1300001       1.20022560E-04
  -12.1199999       1.17003110E-04
  -12.1099997       1.01948957E-04
  -12.1000004       7.62996133E-05
  -12.0900002       4.26422157E-05
  -12.0799999       4.29448619E-06
  -12.0699997      -3.51742092E-05
  -12.0600004      -7.23932390E-05
  -12.0500002      -1.04536128E-04
  -12.0400000      -1.29513937E-04
  -12.0299997      -1.46007718E-04
  -12.0200005      -1.53369023E-04
  -12.0100002      -1.51445885E-04
  -12.0000000      -1.40405071E-04
  -11.9899998      -1.20615456E-04
  -11.9799995      -9.26344001E-05
  -11.9700003      -5.73044017E-05
  -11.9600000      -1.59293140E-05
  -11.9499998       2.95321079E-05
  -11.9399996       7.63343487E-05
  -11.9300003       1.20950761E-04
  -11.9200001       1.59268486E-04
  -11.9099998       1.86984107E-04
  -11.8999996       2.00162656E-04
  -11.8900003       1.95876768E-04
  -11.8800001       1.72810614E-04
  -11.8699999       1.31702982E-04
  -11.8599997       7.55207438E-05
  -11.8500004       9.29519047E-06
  -11.8400002      -6.03867738E-05
  -11.8299999      -1.26178420E-04
  -11.8199997      -1.80939314E-04
  -11.8100004      -2.18715490E-04
  -11.8000002      -2.35567422E-04
  -11.7900000      -2.30101374E-04
  -11.7799997      -2.03610660E-04
  -11.7700005      -1.59803909E-04
  -11.7600002      -1.04173647E-04
  -11.7500000      -4.31242734E-05
  -11.7399998       1.69784998E-05
  -11.7299995       7.06651263E-05
  -11.7200003       1.13979637E-04
  -11.7100000       1.44764505E-04
  -11.6999998       1.62592463E-04
  -11.6899996       1.68399274E-04
  -11.6800003       1.63931472E-04
  -11.6700001       1.51156215E-04
  -11.6599998       1.31778623E-04
  -11.6499996       1.06977197E-04
  -11.6400003       7.74067812E-05
  -11.6300001       4.34473368E-05
  -11.6199999       5.61096749E-06
  -11.6099997      -3.50242444E-05
  -11.6000004      -7.64958750E-05
  -11.5900002      -1.15871837E-04
  -11.5799999      -1.49459796E-04
  -11.5699997      -1.73299486E-04
  -11.5600004      -1.83851545E-04
  -11.5500002      -1.78739763E-04
  -11.5400000      -1.57377639E-04
  -11.5299997      -1.21324316E-04
  -11.5200005      -7.42645207E-05
  -11.5100002      -2.15844539E-05
  -11.5000000       3.03977413E-05
  -11.4899998       7.54119828E-05
  -11.4799995       1.08241722E-04
  -11.4700003       1.25559542E-04
  -11.4600000       1.26428218E-04
  -11.4499998       1.12369074E-04
  -11.4399996       8.69865544E-05
  -11.4300003       5.52278216E-05
  -11.4200001       2.24285068E-05
  -11.4099998      -6.66384904E-06
  -11.3999996      -2.86969280E-05
  -11.3900003      -4.21995210E-05
  -11.3800001      -4.76642526E-05
  -11.3699999      -4.72302891E-05
  -11.3599997      -4.40507683E-05
  -11.3500004      -4.14910137E-05
  -11.3400002      -4.23322053E-05
  -11.3299999      -4.81463139E-05
  -11.3199997      -5.89648589E-05
  -11.3100004      -7.32969347E-05
  -11.3000002      -8.84760157E-05
  -11.2900000      -1.01246980E-04
  -11.2799997      -1.08458844E-04
  -11.2700005      -1.07713560E-04
  -11.2600002      -9.78392127E-05
  -11.2500000      -7.91011698E-05
  -11.2399998      -5.31259539E-05
  -11.2299995      -2.25751992E-05
  -11.2200003       9.34293985E-06
  -11.2100000       3.94112649E-05
  -11.1999998       6.48775167E-05
  -11.1899996       8.37794360E-05
  -11.1800003       9.50794638E-05
  -11.1700001       9.86164960E-05
  -11.1599998       9.49232781E-05
  -11.1499996       8.49812932E-05
  -11.1400003       6.99870798E-05
  -11.1300001       5.11848593E-05
  -11.1199999       2.97892602E-05
  -11.1099997       6.98768145E-06
  -11.1000004      -1.60144937E-05
  -11.0900002      -3.79538687E-05
  -11.0799999      -5.75162594E-05
  -11.0699997      -7.34129644E-05
  -11.0600004      -8.45205941E-05
  -11.0500002      -9.00539235E-05
  -11.0400000      -8.97259233E-05
  -11.0299997      -8.38485576E-05
  -11.0200005      -7.33407214E-05
  -11.0100002      -5.96328246E-05
  -11.0000000      -4.44826146E-05
  -10.9899998      -2.97370934E-05
  -10.9799995      -1.70855765E-05
  -10.9700003      -7.84748408E-06
  -10.9600000      -2.82693463E-06
  -10.9499998      -2.24938253E-06
  -10.9399996      -5.77864330E-06
  -10.9300003      -1.25998658E-05
  -10.9200001      -2.15475047E-05
  -10.9099998      -3.12566735E-05
  -10.8999996      -4.03191480E-05
  -10.8900003      -4.74290973E-05
  -10.8800001      -5.15071079E-05
  -10.8699999      -5.17927947E-05
  -10.8599997      -4.78984766E-05
  -10.8500004      -3.98194679E-05
  -10.8400002      -2.79022188E-05
  -10.8299999      -1.27791336E-05
  -10.8199997       4.71423937E-06
  -10.8100004       2.36195829E-05
  -10.8000002       4.29153806E-05
  -10.7900000       6.15449972E-05
  -10.7799997       7.84148870E-05
  -10.7700005       9.23780171E-05
  -10.7600002       1.02226157E-04
  -10.7500000       1.06716230E-04
  -10.7399998       1.04646999E-04
  -10.7299995       9.49875757E-05
  -10.7200003       7.70404731E-05
  -10.7100000       5.06080105E-05
  -10.6999998       1.61258540E-05
  -10.6899996      -2.52667614E-05
  -10.6800003      -7.17348594E-05
  -10.6700001      -1.20829784E-04
  -10.6599998      -1.69625622E-04
  -10.6499996      -2.14883883E-04
  -10.6400003      -2.53225240E-04
  -10.6300001      -2.81301851E-04
  -10.6199999      -2.95979611E-04
  -10.6099997      -2.94551894E-04
  -10.6000004      -2.75003433E-04
  -10.5900002      -2.36326508E-04
  -10.5799999      -1.78862800E-04
  -10.5699997      -1.04613158E-04
  -10.5600004      -1.74338838E-05
  -10.5500002       7.69657563E-05
  -10.5400000       1.71290812E-04
  -10.5299997       2.57216831E-04
  -10.5200005       3.26203794E-04
  -10.5100002       3.70480499E-04
  -10.5000000       3.84069659E-04
  -10.4899998       3.63702507E-04
  -10.4799995       3.09479685E-04
  -10.4700003       2.25164418E-04
  -10.4600000       1.18041906E-04
  -10.4499998      -1.66820678E-06
  -10.4399996      -1.21804966E-04
  -10.4300003      -2.29577447E-04
  -10.4200001      -3.13066092E-04
  -10.4099998      -3.62753315E-04
  -10.3999996      -3.72898532E-04
  -10.3900003      -3.42562969E-04
  -10.3800001      -2.76098872E-04
  -10.3699999      -1.82959106E-04
  -10.3599997      -7.67566817E-05
  -10.3500004       2.63872771E-05
  -10.3400002       1.10042594E-04
  -10.3299999       1.59927367E-04
  -10.3199997       1.66243422E-04
  -10.3100004       1.25479230E-04
  -10.3000002       4.13171765E-05
  -10.2900000      -7.55891742E-05
  -10.2799997      -2.09012214E-04
  -10.2700005      -3.39546736E-04
  -10.2600002      -4.47630242E-04
  -10.2500000      -5.16673434E-04
  -10.2399998      -5.35744475E-04
  -10.2299995      -5.01317496E-04
  -10.2200003      -4.17760340E-04
  -10.2100000      -2.96470331E-04
  -10.1999998      -1.53817877E-04
  -10.1899996      -8.28096563E-06
  -10.1800003       1.22697675E-04
  -10.1700001       2.25553231E-04
  -10.1599998       2.92626588E-04
  -10.1499996       3.23024142E-04
  -10.1400003       3.22180276E-04
  -10.1300001       3.00240179E-04
  -10.1199999       2.69603974E-04
  -10.1099997       2.42128692E-04
  -10.1000004       2.26544842E-04
  -10.0900002       2.26597360E-04
  -10.0799999       2.40272595E-04
  -10.0699997       2.60253815E-04
  -10.0600004       2.75499391E-04
  -10.0500002       2.73610611E-04
  -10.0400000       2.43499118E-04
  -10.0299997       1.77810565E-04
  -10.0200005       7.46233782E-05
  -10.0100002      -6.18945051E-05
  -10.0000000      -2.21959475E-04
  -9.98999977      -3.91628448E-04
  -9.97999954      -5.54897124E-04
  -9.97000027      -6.95997209E-04
  -9.96000004      -8.01457383E-04
  -9.94999981      -8.61596083E-04
  -9.93999958      -8.71287368E-04
  -9.93000031      -8.30017671E-04
  -9.92000008      -7.41402619E-04
  -9.90999985      -6.12399192E-04
  -9.89999962      -4.52441367E-04
  -9.89000034      -2.72649457E-04
  -9.88000011      -8.51565419E-05
  -9.86999989       9.74983923E-05
  -9.85999966       2.63005961E-04
  -9.85000038       4.00031568E-04
  -9.84000015       4.99083952E-04
  -9.82999992       5.53430582E-04
  -9.81999969       5.59908163E-04
  -9.81000042       5.19446505E-04
  -9.80000019       4.37152747E-04
  -9.78999996       3.21885251E-04
  -9.77999973       1.85349621E-04
  -9.77000046       4.08489250E-05
  -9.76000023      -9.81217236E-05
  -9.75000000      -2.19238675E-04
  -9.73999977      -3.12511052E-04
  -9.72999954      -3.71142291E-04
  -9.72000027      -3.92055139E-04
  -9.71000004      -3.76079232E-04
  -9.69999981      -3.27807444E-04
  -9.68999958      -2.55116232E-04
  -9.68000031      -1.68335522E-04
  -9.67000008      -7.90742633E-05
  -9.65999985       1.23759105E-06
  -9.64999962       6.29415517E-05
  -9.64000034       9.96392118E-05
  -9.63000011       1.09283072E-04
  -9.61999989       9.45894935E-05
  -9.60999966       6.25919129E-05
  -9.60000038       2.33241990E-05
  -9.59000015      -1.21710018E-05
  -9.57999992      -3.41311206E-05
  -9.56999969      -3.61781422E-05
  -9.56000042      -1.67680082E-05
  -9.55000019       2.03536201E-05
  -9.53999996       6.68074354E-05
  -9.52999973       1.11213856E-04
  -9.52000046       1.41450524E-04
  -9.51000023       1.47052924E-04
  -9.50000000       1.21267607E-04
  -9.48999977       6.23709057E-05
  -9.47999954      -2.59532590E-05
  -9.47000027      -1.35178212E-04
  -9.46000004      -2.53265724E-04
  -9.44999981      -3.66473309E-04
  -9.43999958      -4.61308577E-04
  -9.43000031      -5.26329968E-04
  -9.42000008      -5.53562713E-04
  -9.40999985      -5.39385772E-04
  -9.39999962      -4.84827993E-04
  -9.39000034      -3.95284238E-04
  -9.38000011      -2.79724220E-04
  -9.36999989      -1.49521977E-04
  -9.35999966      -1.70801450E-05
  -9.35000038       1.05547610E-04
  -9.34000015       2.07833233E-04
  -9.32999992       2.81591085E-04
  -9.31999969       3.21360421E-04
  -9.31000042       3.24387453E-04
  -9.30000019       2.90343072E-04
  -9.28999996       2.20972550E-04
  -9.27999973       1.19862561E-04
  -9.27000046      -7.57250200E-06
  -9.26000023      -1.53919376E-04
  -9.25000000      -3.09581897E-04
  -9.23999977      -4.62843134E-04
  -9.22999954      -6.00422267E-04
  -9.22000027      -7.08654814E-04
  -9.21000004      -7.75224820E-04
  -9.19999981      -7.91156024E-04
  -9.18999958      -7.52609281E-04
  -9.18000031      -6.61994331E-04
  -9.17000008      -5.28024102E-04
  -9.15999985      -3.64587555E-04
  -9.14999962      -1.88630103E-04
  -9.14000034      -1.75049718E-05
  -9.13000011       1.33589099E-04
  -9.11999989       2.53497885E-04
  -9.10999966       3.35946446E-04
  -9.10000038       3.79251200E-04
  -9.09000015       3.85166582E-04
  -9.07999992       3.57352634E-04
  -9.06999969       3.00012005E-04
  -9.06000042       2.17122753E-04
  -9.05000019       1.12435009E-04
  -9.03999996      -9.90114586E-06
  -9.02999973      -1.44447200E-04
  -9.02000046      -2.83791451E-04
  -9.01000023      -4.18455078E-04
  -9.00000000      -5.37561486E-04
  -8.98999977      -6.30168768E-04
  -8.97999954      -6.86936022E-04
  -8.97000027      -7.01681653E-04
  -8.96000004      -6.72434398E-04
  -8.94999981      -6.01743639E-04
  -8.93999958      -4.96241904E-04
  -8.93000031      -3.65653163E-04
  -8.92000008      -2.21544702E-04
  -8.90999985      -7.61082410E-05
  -8.89999962       5.88538751E-05
  -8.89000034       1.72707078E-04
  -8.88000011       2.56609957E-04
  -8.86999989       3.04098503E-04
  -8.85999966       3.11681157E-04
  -8.85000038       2.79379048E-04
  -8.84000015       2.11036968E-04
  -8.82999992       1.14190538E-04
  -8.81999969      -6.61329466E-07
  -8.81000042      -1.21374360E-04
  -8.80000019      -2.35867905E-04
  -8.78999996      -3.33870645E-04
  -8.77999973      -4.08296910E-04
  -8.77000046      -4.55931266E-04
  -8.76000023      -4.77294467E-04
  -8.75000000      -4.75802575E-04
  -8.73999977      -4.56529873E-04
  -8.72999954      -4.24968079E-04
  -8.72000027      -3.86116590E-04
  -8.71000004      -3.44063505E-04
  -8.69999981      -3.02006141E-04
  -8.68999958      -2.62491318E-04
  -8.68000031      -2.27609155E-04
  -8.67000008      -1.98957277E-04
  -8.65999985      -1.77367634E-04
  -8.64999962      -1.62572542E-04
  -8.64000034      -1.53085857E-04
  -8.63000011      -1.46534017E-04
  -8.61999989      -1.40491946E-04
  -8.60999966      -1.33628258E-04
  -8.60000038      -1.26751722E-04
  -8.59000015      -1.23281308E-04
  -8.57999992      -1.28789499E-04
  -8.56999969      -1.49570638E-04
  -8.56000042      -1.90563747E-04
  -8.55000019      -2.53265549E-04
  -8.53999996      -3.34374403E-04
  -8.52999973      -4.25742212E-04
  -8.52000046      -5.15810738E-04
  -8.51000023      -5.92201017E-04
  -8.50000000      -6.44692103E-04
  -8.48999977      -6.67637680E-04
  -8.47999954      -6.61014812E-04
  -8.47000027      -6.29746180E-04
  -8.46000004      -5.81539120E-04
  -8.44999981      -5.24028670E-04
  -8.43999958      -4.62281605E-04
  -8.43000031      -3.97609198E-04
  -8.42000008      -3.28161084E-04
  -8.40999985      -2.51097750E-04
  -8.39999962      -1.65505859E-04
  -8.39000034      -7.48732855E-05
  -8.38000011       1.19712049E-05
  -8.36999989       8.20388523E-05
  -8.35999966       1.21299199E-04
  -8.35000038       1.18803364E-04
  -8.34000015       7.04286649E-05
  -8.32999992      -1.91104227E-05
  -8.31999969      -1.36812916E-04
  -8.31000042      -2.64481496E-04
  -8.30000019      -3.83446546E-04
  -8.28999996      -4.79420763E-04
  -8.27999973      -5.45898278E-04
  -8.27000046      -5.84981579E-04
  -8.26000023      -6.05393376E-04
  -8.25000000      -6.18400692E-04
  -8.23999977      -6.33105519E-04
  -8.22999954      -6.52767834E-04
  -8.22000027      -6.73454662E-04
  -8.21000004      -6.85475068E-04
  -8.19999981      -6.77065982E-04
  -8.18999958      -6.38993923E-04
  -8.18000031      -5.68424701E-04
  -8.17000008      -4.70686879E-04
  -8.15999985      -3.58324818E-04
  -8.14999962      -2.47805758E-04
  -8.14000034      -1.55065558E-04
  -8.13000011      -9.14506745E-05
  -8.11999989      -6.14088931E-05
  -8.10999966      -6.25880566E-05
  -8.10000038      -8.80877269E-05
  -8.09000015      -1.29823791E-04
  -8.07999992      -1.81601674E-04
  -8.06999969      -2.40687470E-04
  -8.06000042      -3.07329639E-04
  -8.05000019      -3.82557220E-04
  -8.03999996      -4.65317891E-04
  -8.02999973      -5.50325611E-04
  -8.02000046      -6.27740228E-04
  -8.01000023      -6.85084728E-04
  -8.00000000      -7.10892898E-04
  -7.98999977      -6.98825170E-04
  -7.98000002      -6.50693779E-04
  -7.96999979      -5.77130064E-04
  -7.96000004      -4.95417218E-04
  -7.94999981      -4.25016013E-04
  -7.94000006      -3.82163184E-04
  -7.92999983      -3.75301956E-04
  -7.92000008      -4.02861420E-04
  -7.90999985      -4.54121386E-04
  -7.90000010      -5.12852333E-04
  -7.88999987      -5.62486763E-04
  -7.88000011      -5.91091346E-04
  -7.86999989      -5.94531186E-04
  -7.86000013      -5.76902996E-04
  -7.84999990      -5.48292417E-04
  -7.84000015      -5.20826725E-04
  -7.82999992      -5.04524563E-04
  -7.82000017      -5.04399941E-04
  -7.80999994      -5.19709662E-04
  -7.80000019      -5.45374234E-04
  -7.78999996      -5.74782316E-04
  -7.78000021      -6.02724205E-04
  -7.76999998      -6.27246103E-04
  -7.76000023      -6.49737660E-04
  -7.75000000      -6.73338189E-04
  -7.73999977      -7.00455857E-04
  -7.73000002      -7.30558007E-04
  -7.71999979      -7.59272312E-04
  -7.71000004      -7.79291906E-04
  -7.69999981      -7.82822375E-04
  -7.69000006      -7.64655764E-04
  -7.67999983      -7.24662445E-04
  -7.67000008      -6.68680819E-04
  -7.65999985      -6.07374008E-04
  -7.65000010      -5.53391175E-04
  -7.63999987      -5.17816690E-04
  -7.63000011      -5.07154095E-04
  -7.61999989      -5.21885522E-04
  -7.61000013      -5.57046675E-04
  -7.59999990      -6.04503439E-04
  -7.59000015      -6.55996904E-04
  -7.57999992      -7.05781393E-04
  -7.57000017      -7.51900137E-04
  -7.55999994      -7.95719563E-04
  -7.55000019      -8.40053195E-04
  -7.53999996      -8.86757043E-04
  -7.53000021      -9.34856595E-04
  -7.51999998      -9.80012468E-04
  -7.51000023      -1.01555395E-03
  -7.50000000      -1.03465270E-03
  -7.48999977      -1.03273662E-03
  -7.48000002      -1.00915262E-03
  -7.46999979      -9.67407366E-04
  -7.46000004      -9.13913886E-04
  -7.44999981      -8.55789054E-04
  -7.44000006      -7.98644731E-04