  -16.0000000       0.00000000    
  -15.9899998       0.00000000    
  -15.9799995       0.00000000    
  -15.9700003       0.00000000    
  -15.9600000       0.00000000    
  -15.9499998       0.00000000    
  -15.9399996       0.00000000    
  -15.9300003       0.00000000    
  -15.9200001       0.00000000    
  -15.9099998       0.00000000    
  -15.8999996      -6.50230513E-41
  -15.8900003      -5.52553004E-40
  -15.8800001      -2.72073167E-39
  -15.8699999      -3.26521572E-38
  -15.8599997      -4.34080517E-37
  -15.8500004      -3.85749298E-36
  -15.8400002      -2.47452696E-35
  -15.8299999      -1.24447245E-34
  -15.8199997      -5.17001931E-34
  -15.8100004      -1.83162903E-33
  -15.8000002      -5.63411761E-33
  -15.7900000      -1.51512450E-32
  -15.7799997      -3.54518193E-32
  -15.7700005      -7.05508728E-32
  -15.7600002      -1.11688350E-31
  -15.7500000      -1.07610195E-31
  -15.7399998       9.09943183E-32
  -15.7299995       8.04511625E-31
  -15.7200003       2.56339075E-30
  -15.7100000       5.99146273E-30
  -15.6999998       1.13509571E-29
  -15.6899996       1.76089610E-29
  -15.6800003       2.11670670E-29
  -15.6700001       1.49971112E-29
  -15.6599998      -1.03221389E-29
  -15.6499996      -6.18793347E-29
  -15.6400003      -1.35404683E-28
  -15.6300001      -2.04828211E-28
  -15.6199999      -2.18616256E-28
  -15.6099997      -1.15029524E-28
  -15.6000004       1.34956520E-28
  -15.5900002       4.65191719E-28
  -15.5799999       6.70690129E-28
  -15.5699997       4.50651959E-28
  -15.5600004      -3.95879282E-28
  -15.5500002      -1.62611773E-27
  -15.5400000      -2.21840244E-27
  -15.5299997      -3.88406986E-28
  -15.5200005       5.61911362E-27
  -15.5100002       1.57550083E-26
  -15.5000000       2.58483264E-26
  -15.4899998       2.61660817E-26
  -15.4799995       3.07831051E-27
  -15.4700003      -5.41562256E-26
  -15.4600000      -1.41535649E-25
  -15.4499998      -2.27475906E-25
  -15.4399996      -2.47711495E-25
  -15.4300003      -1.18892395E-25
  -15.4200001       2.22088504E-25
  -15.4099998       7.58226034E-25
  -15.3999996       1.33538019E-24
  -15.3900003       1.64715133E-24
  -15.3800001       1.30090233E-24
  -15.3699999      -2.18997402E-26
  -15.3599997      -2.34921160E-24
  -15.3500004      -5.24023418E-24
  -15.3400002      -7.76325117E-24
  -15.3299999      -8.69989964E-24
  -15.3199997      -6.92129361E-24
  -15.3100004      -1.73258053E-24
  -15.3000002       7.07441072E-24
  -15.2900000       1.95528799E-23
  -15.2799997       3.59723097E-23
  -15.2700005       5.63396254E-23
  -15.2600002       7.79600814E-23
  -15.2500000       9.06198222E-23
  -15.2399998       7.10066449E-23
  -15.2299995      -1.89039819E-23
  -15.2200003      -2.21991315E-22
  -15.2100000      -5.57351257E-22
  -15.1999998      -9.71835640E-22
  -15.1899996      -1.28485322E-21
  -15.1800003      -1.15946478E-21
  -15.1700001      -1.50509372E-22
  -15.1599998       2.11837158E-21
  -15.1499996       5.62952750E-21
  -15.1400003       9.55634653E-21
  -15.1300001       1.19333356E-20
  -15.1199999       9.70435774E-21
  -15.1099997      -5.08957809E-22
  -15.1000004      -2.06909973E-20
  -15.0900002      -4.88985396E-20
  -15.0799999      -7.66484813E-20
  -15.0699997      -8.76894943E-20
  -15.0600004      -6.01367155E-20
  -15.0500002       2.62252573E-20
  -15.0400000       1.77033259E-19
  -15.0299997       3.67204163E-19
  -15.0200005       5.27823484E-19
  -15.0100002       5.46000571E-19
  -15.0000000       2.88827508E-19
  -14.9899998      -3.41432369E-19
  -14.9799995      -1.32509909E-18
  -14.9700003      -2.43820688E-18
  -14.9600000      -3.20422183E-18
  -14.9499998      -2.94142117E-18
  -14.9399996      -9.56938367E-19
  -14.9300003       3.09988644E-18
  -14.9200001       8.78710325E-18
  -14.9099998       1.44841178E-17
  -14.8999996       1.73203266E-17
  -14.8900003       1.36924712E-17
  -14.8800001       5.42711390E-19
  -14.8699999      -2.26965076E-17
  -14.8599997      -5.19945087E-17
  -14.8500004      -7.73992304E-17
  -14.8400002      -8.37211203E-17
  -14.8299999      -5.42932072E-17
  -14.8199997       2.19194988E-17
  -14.8100004       1.41063544E-16
  -14.8000002       2.76065640E-16
  -14.7900000       3.73898263E-16
  -14.7799997       3.63475523E-16
  -14.7700005       1.77359395E-16
  -14.7600002      -2.14120665E-16
  -14.7500000      -7.64545173E-16
  -14.7399998      -1.32425078E-15
  -14.7299995      -1.64404161E-15
  -14.7200003      -1.42715544E-15
  -14.7100000      -4.35053618E-16
  -14.6999998       1.36887946E-15
  -14.6899996       3.68048479E-15
  -14.6800003       5.78653438E-15
  -14.6700001       6.63900358E-15
  -14.6599998       5.12126623E-15
  -14.6499996       4.97968076E-16
  -14.6400003      -7.04576956E-15
  -14.6300001      -1.59619513E-14
  -14.6199999      -2.32401937E-14
  -14.6099997      -2.48818622E-14
  -14.6000004      -1.70547899E-14
  -14.5900002       2.19971132E-15
  -14.5799999       3.11386828E-14
  -14.5699997       6.30746676E-14
  -14.5600004       8.65412952E-14
  -14.5500002       8.75196996E-14
  -14.5400000       5.38496758E-14
  -14.5299997      -1.88902950E-14
  -14.5200005      -1.21704066E-13
  -14.5100002      -2.29098560E-13
  -14.5000000      -3.01102107E-13
  -14.4899998      -2.92013375E-13
  -14.4799995      -1.65592068E-13
  -14.4700003       8.62909394E-14
  -14.4600000       4.27256321E-13
  -14.4499998       7.69692632E-13
  -14.4399996       9.84684231E-13
  -14.4300003       9.32218604E-13
  -14.4200001       5.09087997E-13
  -14.4099998      -2.95973885E-13
  -14.3999996      -1.35760489E-12
  -14.3900003      -2.40079636E-12
  -14.3800001      -3.03775668E-12
  -14.3699999      -2.86181452E-12
  -14.3599997      -1.58731394E-12
  -14.3500004       7.96903992E-13
  -14.3400002       3.91072764E-12
  -14.3299999       6.95947249E-12
  -14.3199997       8.84913930E-12
  -14.3100004       8.45295015E-12
  -14.3000002       4.99274450E-12
  -14.2900000      -1.55549618E-12
  -14.2799997      -1.01648941E-11
  -14.2700005      -1.87130745E-11
  -14.2600002      -2.42972673E-11
  -14.2500000      -2.39306283E-11
  -14.2399998      -1.55179133E-11
  -14.2299995       1.12219381E-12
  -14.2200003       2.35166556E-11
  -14.2100000       4.64243539E-11
  -14.1999998       6.25992799E-11
  -14.1899996       6.44711437E-11
  -14.1800003       4.64932363E-11
  -14.1700001       7.60692984E-12
  -14.1599998      -4.69409199E-11
  -14.1499996      -1.05220679E-10
  -14.1400003      -1.50255100E-10
  -14.1300001      -1.63766903E-10
  -14.1199999      -1.31493580E-10
  -14.1099997      -4.88633405E-11
  -14.1000004       7.46417997E-11
  -14.0900002       2.14181839E-10
  -14.0799999       3.32602668E-10
  -14.0699997       3.88129306E-10
  -14.0600004       3.45656698E-10
  -14.0500002       1.89192370E-10
  -14.0400000      -6.80068848E-11
  -14.0299997      -3.79285603E-10
  -14.0200005      -6.69264699E-10
  -14.0100002      -8.48262849E-10
  -14.0000000      -8.34705915E-10
  -13.9899998      -5.80947124E-10
  -13.9799995      -9.57719598E-11
  -13.9700003       5.43808443E-10
  -13.9600000       1.19752419E-09
  -13.9499998       1.68617309E-09
  -13.9399996       1.83290383E-09
  -13.9300003       1.51359447E-09
  -13.9200001       7.04059699E-10
  -13.9099998      -4.90034402E-10
  -13.8999996      -1.83287641E-09
  -13.8900003      -2.99445513E-09
  -13.8800001      -3.62055186E-09
  -13.8699999      -3.42453843E-09
  -13.8599997      -2.28006414E-09
  -13.8500004      -2.89147178E-10
  -13.8400002       2.19815322E-09
  -13.8299999       4.62765781E-09
  -13.8199997       6.34916963E-09
  -13.8100004       6.77176626E-09
  -13.8000002       5.53305801E-09
  -13.7900000       2.63905742E-09
  -13.7799997      -1.46873647E-09
  -13.7700005      -5.95056626E-09
  -13.7600002      -9.71878844E-09
  -13.7500000      -1.16810321E-08
  -13.7399998      -1.10269980E-08
  -13.7299995      -7.48938245E-09
  -13.7200003      -1.50445756E-09
  -13.7100000       5.78757797E-09
  -13.6999998       1.27290480E-08
  -13.6899996       1.74984702E-08
  -13.6800003       1.85634406E-08
  -13.6700001       1.51269255E-08
  -13.6599998       7.44607842E-09
  -13.6499996      -3.08181169E-09
  -13.6400003      -1.41249403E-08
  -13.6300001      -2.29027588E-08
  -13.6199999      -2.68625584E-08
  -13.6099997      -2.43919338E-08
  -13.6000004      -1.53789337E-08
  -13.5900002      -1.44498646E-09
  -13.5799999       1.42608680E-08
  -13.5699997       2.77141528E-08
  -13.5600004       3.49995091E-08
  -13.5500002       3.34048309E-08
  -13.5400000       2.23384635E-08
  -13.5299997       3.78884168E-09
  -13.5200005      -1.78693913E-08
  -13.5100002      -3.67670125E-08
  -13.5000000      -4.69861305E-08
  -13.4899998      -4.42406645E-08
  -13.4799995      -2.73566982E-08
  -13.4700003       8.93933316E-10
  -13.4600000       3.39433477E-08
  -13.4499998       6.26764347E-08
  -13.4399996       7.76076305E-08
  -13.4300003       7.15294703E-08
  -13.4200001       4.19728359E-08
  -13.4099998      -7.23534832E-09
  -13.3999996      -6.58986465E-08
  -13.3900003      -1.19130441E-07
  -13.3800001      -1.50620082E-07
  -13.3699999      -1.46861581E-07
  -13.3599997      -1.01360399E-07
  -13.3500004      -1.76814083E-08
  -13.3400002       8.96690224E-08
  -13.3299999       1.97117458E-07
  -13.3199997       2.76607580E-07
  -13.3100004       3.02127091E-07
  -13.3000002       2.56784745E-07
  -13.2900000       1.38689614E-07
  -13.2799997      -3.60652876E-08
  -13.2700005      -2.34519561E-07
  -13.2600002      -4.12390648E-07
  -13.2500000      -5.23296194E-07
  -13.2399998      -5.29864053E-07
  -13.2299995      -4.14218079E-07
  -13.2200003      -1.85143449E-07
  -13.2100000       1.20292540E-07
  -13.1999998       4.41798647E-07
  -13.1899996       7.07219499E-07
  -13.1800003       8.48215848E-07
  -13.1700001       8.16975955E-07
  -13.1599998       6.00021508E-07
  -13.1499996       2.25417494E-07
  -13.1400003      -2.39116787E-07
  -13.1300001      -6.97764563E-07
  -13.1199999      -1.04611422E-06
  -13.1099997      -1.19476897E-06
  -13.1000004      -1.09181985E-06
  -13.0900002      -7.38668007E-07
  -13.0799999      -1.94728145E-07
  -13.0699997       4.31210651E-07
  -13.0600004       1.00217892E-06
  -13.0500002       1.38287498E-06
  -13.0400000       1.47179639E-06
  -13.0299997       1.22813424E-06
  -13.0200005       6.86479325E-07
  -13.0100002      -4.52922357E-08
  -13.0000000      -8.05926391E-07
  -12.9899998      -1.41523230E-06
  -12.9799995      -1.71598015E-06
  -12.9700003      -1.61374624E-06
  -12.9600000      -1.10486451E-06
  -12.9499998      -2.84684546E-07
  -12.9399996       6.67539950E-07
  -12.9300003       1.52544033E-06
  -12.9200001       2.06688310E-06
  -12.9099998       2.12862892E-06
  -12.8999996       1.65129404E-06
  -12.8900003       7.02882744E-07
  -12.8800001      -5.26606186E-07
  -12.8699999      -1.76060007E-06
  -12.8599997      -2.69532325E-06
  -12.8500004      -3.07076061E-06
  -12.8400002      -2.73708861E-06
  -12.8299999      -1.70027511E-06
  -12.8199997      -1.34312131E-07
  -12.8100004       1.64542314E-06
  -12.8000002       3.24428675E-06
  -12.7900000       4.27390205E-06
  -12.7799997       4.44264651E-06
  -12.7700005       3.63022218E-06
  -12.7600002       1.92785387E-06
  -12.7500000      -3.67379187E-07
  -12.7399998      -2.80549580E-06
  -12.7299995      -4.87426723E-06
  -12.7200003      -6.10869620E-06
  -12.7100000      -6.19514003E-06
  -12.6999998      -5.04607578E-06
  -12.6899996      -2.82735505E-06
  -12.6800003       6.98043152E-08
  -12.6700001       3.10720884E-06
  -12.6599998       5.71170085E-06
  -12.6499996       7.39572670E-06
  -12.6400003       7.85886459E-06
  -12.6300001       7.04675995E-06
  -12.6199999       5.15371221E-06
  -12.6099997       2.56855856E-06
  -12.6000004      -2.22741733E-07
  -12.5900002      -2.75365915E-06
  -12.5799999      -4.68363260E-06
  -12.5699997      -5.86766009E-06
  -12.5600004      -6.37107132E-06
  -12.5500002      -6.42548230E-06
  -12.5400000      -6.33724449E-06
  -12.5299997      -6.37259745E-06
  -12.5200005      -6.65086463E-06
  -12.5100002      -7.07629260E-06
  -12.5000000      -7.33038496E-06
  -12.4899998      -6.93172115E-06
  -12.4799995      -5.35273193E-06
  -12.4700003      -2.16710441E-06
  -12.4600000       2.80845120E-06
  -12.4499998       9.41568578E-06
  -12.4399996       1.71289666E-05
  -12.4300003       2.51154142E-05
  -12.4200001       3.23739187E-05
  -12.4099998       3.79259400E-05
  -12.3999996       4.10165703E-05
  -12.3900003       4.12791560E-05
  -12.3800001       3.88227199E-05
  -12.3699999       3.42176136E-05
  -12.3599997       2.83776353E-05
  -12.3500004       2.23614716E-05
  -12.3400002       1.71364227E-05
  -12.3299999       1.33583535E-05
  -12.3199997       1.12202370E-05
  -12.3100004       1.04076898E-05
  -12.3000002       1.01760688E-05
  -12.2900000       9.53550170E-06
  -12.2799997       7.50395020E-06
  -12.2700005       3.37062647E-06
  -12.2600002      -3.09282245E-06
  -12.2500000      -1.15262219E-05
  -12.2399998      -2.10101080E-05
  -12.2299995      -3.02298504E-05
  -12.2200003      -3.77423203E-05
  -12.2100000      -4.22873272E-05
  -12.1999998      -4.30729633E-05
  -12.1899996      -3.99671953E-05
  -12.1800003      -3.35471377E-05
  -12.1700001      -2.49887689E-05
  -12.1599998      -1.58164803E-05
  -12.1499996      -7.56545023E-06
  -12.1400003      -1.43260513E-06
  -12.1300001       2.00225554E-06
  -12.1199999       2.91627930E-06
  -12.1099997       2.20500283E-06
  -12.1000004       1.26601083E-06
  -12.0900002       1.64717630E-06
  -12.0799999       4.63574361E-06
  -12.0699997       1.08825116E-05
  -12.0600004       2.01525181E-05
  -12.0500002       3.12696502E-05
  -12.0400000       4.22819285E-05
  -12.0299997       5.08254016E-05
  -12.0200005       5.46181254E-05
  -12.0100002       5.19822643E-05
  -12.0000000       4.22800586E-05
  -11.9899998       2.61619152E-05
  -11.9799995       5.56036730E-06
  -11.9700003      -1.65844067E-05
  -11.9600000      -3.68245528E-05
  -11.9499998      -5.18366760E-05
  -11.9399996      -5.90605850E-05
  -11.9300003      -5.72127938E-05
  -11.9200001      -4.65647609E-05
  -11.9099998      -2.89219824E-05
  -11.8999996      -7.30104694E-06
  -11.8900003       1.46349530E-05
  -11.8800001       3.32705858E-05
  -11.8699999       4.57210808E-05
  -11.8599997       5.03642368E-05
  -11.8500004       4.71122003E-05
  -11.8400002       3.73685107E-05
  -11.8299999       2.36823780E-05
  -11.8199997       9.17641592E-06
  -11.8100004      -3.12809016E-06
  -11.8000002      -1.09433131E-05
  -11.7900000      -1.31700263E-05
  -11.7799997      -1.00812767E-05
  -11.7700005      -3.20046092E-06
  -11.7600002       5.09302436E-06
  -11.7500000       1.21380826E-05
  -11.7399998       1.56156038E-05
  -11.7299995       1.40823486E-05
  -11.7200003       7.29833346E-06
  -11.7100000      -3.72085901E-06
  -11.6999998      -1.69328796E-05
  -11.6899996      -2.97219631E-05
  -11.6800003      -3.94717499E-05
  -11.6700001      -4.41286538E-05
  -11.6599998      -4.26325169E-05
  -11.6499996      -3.51244889E-05
  -11.6400003      -2.28940880E-05
  -11.6300001      -8.08626010E-06
  -11.6199999       6.75895126E-06
  -11.6099997       1.92281168E-05
  -11.6000004       2.75033181E-05
  -11.5900002       3.06816582E-05
  -11.5799999       2.88869178E-05
  -11.5699997       2.31637059E-05
  -11.5600004       1.51922441E-05
  -11.5500002       6.89775925E-06
  -11.5400000       4.52619098E-08
  -11.5299997      -4.09435006E-06
  -11.5200005      -4.94433471E-06
  -11.5100002      -2.66095594E-06
  -11.5000000       1.97862914E-06
  -11.4899998       7.79798393E-06
  -11.4799995       1.34928623E-05
  -11.4700003       1.78904920E-05
  -11.4600000       2.01466064E-05
  -11.4499998       1.98518883E-05
  -11.4399996       1.70441836E-05
  -11.4300003       1.21441763E-05
  -11.4200001       5.84493364E-06
  -11.4099998      -1.01176227E-06
  -11.3999996      -7.54642633E-06
  -11.3900003      -1.29269811E-05
  -11.3800001      -1.64283192E-05
  -11.3699999      -1.74765119E-05
  -11.3599997      -1.56908754E-05
  -11.3500004      -1.09328257E-05
  -11.3400002      -3.36055609E-06
  -11.3299999       6.52283188E-06
  -11.3199997       1.78488863E-05
  -11.3100004       2.94143611E-05
  -11.3000002       3.97797812E-05
  -11.2900000       4.74389708E-05
  -11.2799997       5.10437640E-05
  -11.2700005       4.96496395E-05
  -11.2600002       4.29351858E-05
  -11.2500000       3.13450837E-05
  -11.2399998       1.61152457E-05
  -11.2299995      -8.41723818E-07
  -11.2200003      -1.71854354E-05
  -11.2100000      -3.04975856E-05
  -11.1999998      -3.86758838E-05
  -11.1899996      -4.03024278E-05
  -11.1800003      -3.49176335E-05
  -11.1700001      -2.31455051E-05
  -11.1599998      -6.64157960E-06
  -11.1499996       1.21338353E-05
  -11.1400003       3.02835779E-05
  -11.1300001       4.49246363E-05
  -11.1199999       5.36498337E-05
  -11.1099997       5.49261167E-05
  -11.1000004       4.83652439E-05
  -11.0900002       3.48222966E-05
  -11.0799999       1.63030127E-05
  -11.0699997      -4.31145099E-06
  -11.0600004      -2.36868673E-05
  -11.0500002      -3.85478816E-05
  -11.0400000      -4.62060962E-05
  -11.0299997      -4.50239968E-05
  -11.0200005      -3.47379719E-05
  -11.0100002      -1.65787133E-05
  -11.0000000       6.84621909E-06
  -10.9899998       3.19071223E-05
  -10.9799995       5.45031035E-05
  -10.9700003       7.07293802E-05
  -10.9600000       7.75520966E-05
  -10.9499998       7.33702327E-05
  -10.9399996       5.83546462E-05
  -10.9300003       3.44886503E-05
  -10.9200001       5.28666851E-06
  -10.9099998      -2.47700918E-05
  -10.8999996      -5.09843703E-05
  -10.8900003      -6.92420726E-05
  -10.8800001      -7.67085439E-05
  -10.8699999      -7.22887999E-05
  -10.8599997      -5.67661446E-05
  -10.8500004      -3.26001900E-05
  -10.8400002      -3.43579200E-06
  -10.8299999       2.65668714E-05
  -10.8199997       5.34385726E-05
  -10.8100004       7.40015748E-05
  -10.8000002       8.62553206E-05
  -10.7900000       8.94945697E-05
  -10.7799997       8.41729998E-05
  -10.7700005       7.15833157E-05
  -10.7600002       5.34618921E-05
  -10.7500000       3.16323421E-05
  -10.7399998       7.77866535E-06
  -10.7299995      -1.66092686E-05
  -10.7200003      -4.01332145E-05
  -10.7100000      -6.12954245E-05
  -10.6999998      -7.83209034E-05
  -10.6899996      -8.90988958E-05
  -10.6800003      -9.13221593E-05
  -10.6700001      -8.28476259E-05
  -10.6599998      -6.22339358E-05
  -10.6499996      -2.93448938E-05
  -10.6400003       1.41379478E-05
  -10.6300001       6.44616375E-05
  -10.6199999       1.15944233E-04
  -10.6099997       1.61578704E-04
  -10.6000004       1.94063337E-04
  -10.5900002       2.07114223E-04
  -10.5799999       1.96823225E-04
  -10.5699997       1.62773256E-04
  -10.5600004       1.08631015E-04
  -10.5500002       4.20118049E-05
  -10.5400000      -2.64581031E-05
  -10.5299997      -8.47902484E-05
  -10.5200005      -1.21738449E-04
  -10.5100002      -1.28977554E-04
  -10.5000000      -1.02920945E-04
  -10.4899998      -4.57780734E-05
  -10.4799995       3.44197979E-05
  -10.4700003       1.24902930E-04
  -10.4600000       2.10208891E-04
  -10.4499998       2.74840131E-04
  -10.4399996       3.06044385E-04
  -10.4300003       2.96186976E-04
  -10.4200001       2.44253781E-04
  -10.4099998       1.56185575E-04
  -10.3999996       4.39703072E-05
  -10.3900003      -7.63419594E-05
  -10.3800001      -1.87335507E-04
  -10.3699999      -2.73143465E-04
  -10.3599997      -3.22059757E-04
  -10.3500004      -3.28398164E-04
  -10.3400002      -2.93298857E-04
  -10.3299999      -2.24378324E-04
  -10.3199997      -1.34321963E-04
  -10.3100004      -3.86918327E-05
  -10.3000002       4.66618549E-05
  -10.2900000       1.08151566E-04
  -10.2799997       1.36559058E-04
  -10.2700005       1.28381071E-04
  -10.2600002       8.62305678E-05
  -10.2500000       1.82655858E-05
  -10.2399998      -6.32298033E-05
  -10.2299995      -1.43859870E-04
  -10.2200003      -2.09390098E-04
  -10.2100000      -2.47913267E-04
  -10.1999998      -2.51575402E-04
  -10.1899996      -2.17613750E-04
  -10.1800003      -1.48584732E-04
  -10.1700001      -5.17997687E-05
  -10.1599998       6.18838021E-05
  -10.1499996       1.79675902E-04
  -10.1400003       2.88589945E-04
  -10.1300001       3.77036835E-04
  -10.1199999       4.36075934E-04
  -10.1099997       4.60212585E-04
  -10.1000004       4.47725848E-04
  -10.0900002       4.00582416E-04
  -10.0799999       3.24030669E-04
  -10.0699997       2.25970318E-04
  -10.0600004       1.16168936E-04
  -10.0500002       5.36785410E-06
  -10.0400000      -9.57008597E-05
  -10.0299997      -1.77357157E-04
  -10.0200005      -2.32016493E-04
  -10.0100002      -2.55130843E-04
  -10.0000000      -2.45885720E-04
  -9.98999977      -2.07499892E-04
  -9.97999954      -1.47003419E-04
  -9.97000027      -7.44408608E-05
  -9.96000004      -1.54883048E-06
  -9.94999981       5.99330560E-05
  -9.93999958       1.00067533E-04
  -9.93000031       1.12343536E-04
  -9.92000008       9.48294328E-05
  -9.90999985       5.06329416E-05
  -9.89999962      -1.24441585E-05
  -9.89000034      -8.30341523E-05
  -9.88000011      -1.47959334E-04
  -9.86999989      -1.94352659E-04
  -9.85999966      -2.11811872E-04
  -9.85000038      -1.94239328E-04
  -9.84000015      -1.41053810E-04
  -9.82999992      -5.75448503E-05
  -9.81999969       4.57355782E-05
  -9.81000042       1.54498950E-04
  -9.80000019       2.52960832E-04
  -9.78999996       3.26453242E-04
  -9.77999973       3.63970874E-04
  -9.77000046       3.60188016E-04
  -9.76000023       3.16545251E-04
  -9.75000000       2.41152768E-04
  -9.73999977       1.47472543E-04
  -9.72999954       5.19828063E-05
  -9.72000027      -2.87541079E-05
  -9.71000004      -8.10597048E-05
  -9.69999981      -9.65586005E-05
  -9.68999958      -7.35685389E-05
  -9.68000031      -1.71947340E-05
  -9.67000008       6.18624545E-05
  -9.65999985       1.49504180E-04
  -9.64999962       2.30947597E-04
  -9.64000034       2.93382996E-04
  -9.63000011       3.28043447E-04
  -9.61999989       3.31319665E-04
  -9.60999966       3.04786488E-04
  -9.60000038       2.54251703E-04
  -9.59000015       1.88134640E-04
  -9.57999992       1.15587871E-04
  -9.56999969       4.47781858E-05
  -9.56000042      -1.83467582E-05
  -9.55000019      -7.06272331E-05
  -9.53999996      -1.11579866E-04
  -9.52999973      -1.42732417E-04
  -9.52000046      -1.66625192E-04
  -9.51000023      -1.85736659E-04
  -9.50000000      -2.01574599E-04
  -9.48999977      -2.14118147E-04
  -9.47999954      -2.21714232E-04
  -9.47000027      -2.21440016E-04
  -9.46000004      -2.09851409E-04
  -9.44999981      -1.83958997E-04
  -9.43999958      -1.42218079E-04
  -9.43000031      -8.53011879E-05
  -9.42000008      -1.64504781E-05
  -9.40999985       5.87158902E-05
  -9.39999962       1.32951929E-04
  -9.39000034       1.98562382E-04
  -9.38000011       2.48770317E-04
  -9.36999989       2.78966618E-04
  -9.35999966       2.87544011E-04
  -9.35000038       2.76107836E-04
  -9.34000015       2.49007659E-04
  -9.32999992       2.12306870E-04
  -9.31999969       1.72451197E-04
  -9.31000042       1.34971240E-04
  -9.30000019       1.03531289E-04
  -9.28999996       7.95272936E-05
  -9.27999973       6.22729640E-05
  -9.27000046       4.96480534E-05
  -9.26000023       3.89682464E-05
  -9.25000000       2.78045536E-05
  -9.23999977       1.45377835E-05
  -9.22999954      -1.44710395E-06
  -9.22000027      -1.98867128E-05
  -9.21000004      -3.99430028E-05
  -9.19999981      -6.05090790E-05
  -9.18999958      -8.03811272E-05
  -9.18000031      -9.82533020E-05
  -9.17000008      -1.12595131E-04
  -9.15999985      -1.21540390E-04
  -9.14999962      -1.22922123E-04
  -9.14000034      -1.14529605E-04
  -9.13000011      -9.45641295E-05
  -9.11999989      -6.21738945E-05
  -9.10999966      -1.78947448E-05
  -9.10000038       3.61611783E-05
  -9.09000015       9.64490609E-05
  -9.07999992       1.58435898E-04
  -9.06999969       2.17215886E-04
  -9.06000042       2.68120581E-04
  -9.05000019       3.07172682E-04
  -9.03999996       3.31318151E-04
  -9.02999973       3.38478276E-04
  -9.02000046       3.27543879E-04
  -9.01000023       2.98448867E-04
  -9.00000000       2.52396712E-04
  -8.98999977       1.92196341E-04
  -8.97999954       1.22543628E-04
  -8.97000027       5.00180140E-05
  -8.96000004      -1.74058641E-05
  -8.94999981      -7.13985719E-05
  -8.93999958      -1.04738385E-04
  -8.93000031      -1.12872134E-04
  -8.92000008      -9.51392285E-05
  -8.90999985      -5.52480233E-05
  -8.89999962      -7.65156699E-07
  -8.89000034       5.83480178E-05
  -8.88000011       1.11826637E-04
  -8.86999989       1.51286469E-04
  -8.85999966       1.71914697E-04
  -8.85000038       1.73213120E-04
  -8.84000015       1.58620445E-04
  -8.82999992       1.34177841E-04
  -8.81999969       1.06686835E-04
  -8.81000042       8.19446650E-05
  -8.80000019       6.35838514E-05
  -8.78999996       5.28123819E-05
  -8.77999973       4.90269413E-05
  -8.77000046       5.09704478E-05
  -8.76000023       5.79275329E-05
  -8.75000000       7.04599370E-05
  -8.73999977       9.03702312E-05
  -8.72999954       1.19879434E-04
  -8.72000027       1.60305135E-04
  -8.71000004       2.10726255E-04
  -8.69999981       2.67149415E-04
  -8.68999958       3.22543317E-04
  -8.68000031       3.67833039E-04
  -8.67000008       3.93642229E-04
  -8.65999985       3.92337330E-04
  -8.64999962       3.59836878E-04
  -8.64000034       2.96723476E-04
  -8.63000011       2.08399550E-04
  -8.61999989       1.04288600E-04
  -8.60999966      -3.68262204E-06
  -8.60000038      -1.02947473E-04
  -8.59000015      -1.82115502E-04
  -8.57999992      -2.32432329E-04
  -8.56999969      -2.48715165E-04
  -8.56000042      -2.29734767E-04
  -8.55000019      -1.78109578E-04
  -8.53999996      -9.98149553E-05
  -8.52999973      -3.40135011E-06
  -8.52000046       1.01006925E-04
  -8.51000023       2.02866780E-04
  -8.50000000       2.92436191E-04
  -8.48999977       3.61925078E-04
  -8.47999954       4.06405219E-04
  -8.47000027       4.24305414E-04
  -8.46000004       4.17374074E-04
  -8.44999981       3.90096830E-04
  -8.43999958       3.48683796E-04
  -8.43000031       2.99851061E-04
  -8.42000008       2.49665958E-04
  -8.40999985       2.02697644E-04
  -8.39999962       1.61616816E-04
  -8.39000034       1.27256426E-04
  -8.38000011       9.90295084E-05
  -8.36999989       7.55333895E-05
  -8.35999966       5.51712401E-05
  -8.35000038       3.66749773E-05
  -8.34000015       1.94847325E-05
  -8.32999992       3.99296368E-06
  -8.31999969      -8.33238937E-06
  -8.31000042      -1.49655634E-05
  -8.30000019      -1.25465567E-05
  -8.28999996       2.60721527E-06
  -8.27999973       3.36656376E-05
  -8.27000046       8.22042275E-05
  -8.26000023       1.47100567E-04
  -8.25000000       2.23752999E-04
  -8.23999977       3.03991314E-04
  -8.22999954       3.76938726E-04
  -8.22000027       4.30841290E-04
  -8.21000004       4.55569389E-04
  -8.19999981       4.45213431E-04
  -8.18999958       4.00053221E-04
  -8.18000031       3.27251211E-04
  -8.17000008       2.39909292E-04
  -8.15999985       1.54569614E-04
  -8.14999962       8.76995400E-05
  -8.14000034       5.20340363E-05
  -8.13000011       5.37326196E-05
  -8.11999989       9.11077223E-05
  -8.10999966       1.55247268E-04
  -8.10000038       2.32317732E-04
  -8.09000015       3.06867674E-04
  -8.07999992       3.65201529E-04
  -8.06999969       3.97937227E-04
  -8.06000042       4.01175785E-04
  -8.05000019       3.76179669E-04
  -8.03999996       3.27922899E-04
  -8.02999973       2.63174326E-04
  -8.02000046       1.88821505E-04
  -8.01000023       1.10934910E-04
  -8.00000000       3.47034293E-05
  -7.98999977      -3.50091941E-05
  -7.98000002      -9.29849921E-05
  -7.96999979      -1.33372901E-04
  -7.96000004      -1.50133870E-04
  -7.94999981      -1.38196294E-04
  -7.94000006      -9.49679452E-05
  -7.92999983      -2.16458520E-05
  -7.92000008       7.62201889E-05
  -7.90999985       1.89225830E-04
  -7.90000010       3.05628026E-04
  -7.88999987       4.13481292E-04
  -7.88000011       5.02780953E-04
  -7.86999989       5.67003328E-04
  -7.86000013       6.03651453E-04
  -7.84999990       6.13761600E-04
  -7.84000015       6.00675878E-04
  -7.82999992       5.68603748E-04
  -7.82000017       5.21510723E-04
  -7.80999994       4.62682685E-04
  -7.80000019       3.95004172E-04
  -7.78999996       3.21682572E-04
  -7.78000021       2.46966723E-04
  -7.76999998       1.76416332E-04
  -7.76000023       1.16470059E-04
  -7.75000000       7.33585694E-05
  -7.73999977       5.16929285E-05
  -7.73000002       5.32146041E-05
  -7.71999979       7.61663396E-05
  -7.71000004       1.15538467E-04
  -7.69999981       1.64146928E-04
  -7.69000006       2.14218599E-04
  -7.67999983       2.59002816E-04
  -7.67000008       2.93947814E-04
  -7.65999985       3.17160331E-04
  -7.65000010       3.29132221E-04
  -7.63999987       3.31963820E-04
  -7.63000011       3.28447350E-04
  -7.61999989       3.21353058E-04
  -7.61000013       3.13106837E-04
  -7.59999990       3.05836787E-04
  -7.59000015       3.01590713E-04
  -7.57999992       3.02459986E-04
  -7.57000017       3.10418895E-04
  -7.55999994       3.26855457E-04
  -7.55000019       3.51962459E-04
  -7.53999996       3.84276849E-04
  -7.53000021       4.20645927E-04
  -7.51999998       4.56753012E-04
  -7.51000023       4.88110556E-04
  -7.50000000       5.11214952E-04
  -7.48999977       5.24451199E-04
  -7.48000002       5.28389704E-04
  -7.46999979       5.25322394E-04
  -7.46000004       5.18171873E-04
  -7.44999981       5.09160571E-04
  -7.44000006       4.98749665E-04