  -16.0000000       0.00000000    
  -15.9899998       0.00000000    
  -15.9799995       0.00000000    
  -15.9700003       0.00000000    
  -15.9600000       0.00000000    
  -15.9499998       0.00000000    
  -15.9399996       0.00000000    
  -15.9300003       0.00000000    
  -15.9200001       0.00000000    
  -15.9099998       0.00000000    
  -15.8999996      -8.15103955E-36
  -15.8900003      -1.35052328E-34
  -15.8800001      -1.13546932E-33
  -15.8699999      -6.47913899E-33
  -15.8599997      -2.83256670E-32
  -15.8500004      -1.01434407E-31
  -15.8400002      -3.09396038E-31
  -15.8299999      -8.18602417E-31
  -15.8199997      -1.87090157E-30
  -15.8100004      -3.55012685E-30
  -15.8000002      -4.84530007E-30
  -15.7900000      -1.11173629E-30
  -15.7799997       2.11839369E-29
  -15.7700005       9.26469202E-29
  -15.7600002       2.68671175E-28
  -15.7500000       6.25267023E-28
  -15.7399998       1.21936171E-27
  -15.7299995       1.98056954E-27
  -15.7200003       2.51637365E-27
  -15.7100000       1.89261983E-27
  -15.6999998      -1.35982499E-27
  -15.6899996      -8.48256431E-27
  -15.6800003      -1.82899789E-26
  -15.6700001      -2.33862807E-26
  -15.6599998      -6.71796104E-27
  -15.6499996       5.55426363E-26
  -15.6400003       1.74098496E-25
  -15.6300001       2.98963122E-25
  -15.6199999       2.48368123E-25
  -15.6099997      -3.41410766E-25
  -15.6000004      -1.93590568E-24
  -15.5900002      -4.72589213E-24
  -15.5799999      -7.82268947E-24
  -15.5699997      -8.14269799E-24
  -15.5600004       3.42521729E-25
  -15.5500002       2.55268873E-23
  -15.5400000       7.22306162E-23
  -15.5299997       1.31945266E-22
  -15.5200005       1.68710047E-22
  -15.5100002       1.08497985E-22
  -15.5000000      -1.52661107E-22
  -15.4899998      -7.01215859E-22
  -15.4799995      -1.50392017E-21
  -15.4700003      -2.26120584E-21
  -15.4600000      -2.27757558E-21
  -15.4499998      -4.78103528E-22
  -15.4399996       4.24971229E-21
  -15.4300003       1.22376896E-20
  -15.4200001       2.17703177E-20
  -15.4099998       2.77702723E-20
  -15.3999996       2.13494492E-20
  -15.3900003      -8.42264380E-21
  -15.3800001      -6.92148418E-20
  -15.3699999      -1.56274503E-19
  -15.3599997      -2.41401495E-19
  -15.3500004      -2.65476716E-19
  -15.3400002      -1.43377581E-19
  -15.3299999       2.08774855E-19
  -15.3199997       8.18328746E-19
  -15.3100004       1.57922500E-18
  -15.3000002       2.18009385E-18
  -15.2900000       2.08697669E-18
  -15.2799997       6.44919326E-19
  -15.2700005      -2.64812195E-18
  -15.2600002      -7.69471116E-18
  -15.2500000      -1.32804782E-17
  -15.2399998      -1.67224040E-17
  -15.2299995      -1.40371210E-17
  -15.2200003      -1.00085111E-18
  -15.2100000       2.47063612E-17
  -15.1999998       6.05211261E-17
  -15.1899996       9.61069721E-17
  -15.1800003       1.12210425E-16
  -15.1700001       8.33476913E-17
  -15.1599998      -1.39446802E-17
  -15.1499996      -1.87122734E-16
  -15.1400003      -4.10628311E-16
  -15.1300001      -6.12302806E-16
  -15.1199999      -6.72901185E-16
  -15.1099997      -4.49106874E-16
  -15.1000004       1.73611182E-16
  -15.0900002       1.20223706E-15
  -15.0799999       2.45131102E-15
  -15.0699997       3.48913052E-15
  -15.0600004       3.66381391E-15
  -15.0500002       2.25385917E-15
  -15.0400000      -1.24084874E-15
  -15.0299997      -6.70763485E-15
  -15.0200005      -1.30442015E-14
  -15.0100002      -1.79820148E-14
  -15.0000000      -1.83259830E-14
  -14.9899998      -1.07763284E-14
  -14.9799995       6.66032721E-15
  -14.9700003       3.29266745E-14
  -14.9600000       6.24050982E-14
  -14.9499998       8.44599998E-14
  -14.9399996       8.48865859E-14
  -14.9300003       4.98017460E-14
  -14.9200001      -2.82308644E-14
  -14.9099998      -1.43139163E-13
  -14.8999996      -2.69802545E-13
  -14.8900003      -3.63260583E-13
  -14.8800001      -3.65727007E-13
  -14.8699999      -2.22908104E-13
  -14.8599997       9.19163969E-14
  -14.8500004       5.51643746E-13
  -14.8400002       1.05642957E-12
  -14.8299999       1.43367382E-12
  -14.8199997       1.46692738E-12
  -14.8100004       9.57333171E-13
  -14.8000002      -1.89891709E-13
  -14.7900000      -1.87508776E-12
  -14.7799997      -3.74310739E-12
  -14.7700005      -5.18966163E-12
  -14.7600002      -5.46549871E-12
  -14.7500000      -3.88581224E-12
  -14.7399998      -1.15663691E-13
  -14.7299995       5.54012045E-12
  -14.7200003       1.19484631E-11
  -14.7100000       1.71767531E-11
  -14.6999998       1.88254533E-11
  -14.6899996       1.46773965E-11
  -14.6800003       3.56638915E-12
  -14.6700001      -1.37532702E-11
  -14.6599998      -3.40463976E-11
  -14.6499996      -5.16727737E-11
  -14.6400003      -5.95328994E-11
  -14.6300001      -5.09032504E-11
  -14.6199999      -2.18762040E-11
  -14.6099997       2.62010726E-11
  -14.6000004       8.51250528E-11
  -14.5900002       1.39932940E-10
  -14.5799999       1.71296574E-10
  -14.5699997       1.60248051E-10
  -14.5600004       9.44977152E-11
  -14.5500002      -2.51876506E-11
  -14.5400000      -1.80626375E-10
  -14.5299997      -3.35996037E-10
  -14.5200005      -4.43195175E-10
  -14.5100002      -4.52893667E-10
  -14.5000000      -3.29557881E-10
  -14.4899998      -6.69121147E-11
  -14.4799995       3.00925784E-10
  -14.4700003       6.97453373E-10
  -14.4600000       1.01427444E-09
  -14.4499998       1.13443532E-09
  -14.4399996       9.65042823E-10
  -14.4300003       4.71720329E-10
  -14.4200001      -2.95125008E-10
  -14.4099998      -1.19237098E-09
  -14.3999996      -2.00171923E-09
  -14.3900003      -2.47385468E-09
  -14.3800001      -2.39257103E-09
  -14.3699999      -1.64458314E-09
  -14.3599997      -2.75712786E-10
  -14.3500004       1.48612667E-09
  -14.3400002       3.25512173E-09
  -14.3299999       4.56184468E-09
  -14.3199997       4.96632468E-09
  -14.3100004       4.18488622E-09
  -14.3000002       2.19688223E-09
  -14.2900000      -7.02936154E-10
  -14.2799997      -3.93091337E-09
  -14.2700005      -6.72544775E-09
  -14.2600002      -8.32428260E-09
  -14.2500000      -8.16774559E-09
  -14.2399998      -6.07379924E-09
  -14.2299995      -2.33120612E-09
  -14.2200003       2.32627473E-09
  -14.2100000       6.87154156E-09
  -14.1999998       1.02320223E-08
  -14.1899996       1.15717818E-08
  -14.1800003       1.05283746E-08
  -14.1700001       7.32982164E-09
  -14.1599998       2.74599343E-09
  -14.1499996      -2.12425166E-09
  -14.1400003      -6.17631279E-09
  -14.1300001      -8.63781224E-09
  -14.1199999      -9.30975652E-09
  -14.1099997      -8.61860361E-09
  -14.1000004      -7.43995177E-09
  -14.0900002      -6.72911638E-09
  -14.0799999      -7.06811809E-09
  -14.0699997      -8.28761682E-09
  -14.0600004      -9.32510158E-09
  -14.0500002      -8.42795789E-09
  -14.0400000      -3.70934528E-09
  -14.0299997       6.05907191E-09
  -14.0200005       2.06439967E-08
  -14.0100002       3.78213585E-08
  -14.0000000       5.33817648E-08
  -13.9899998       6.18169409E-08
  -13.9799995       5.76477923E-08
  -13.9700003       3.71416391E-08
  -13.9600000      -1.34469120E-11
  -13.9499998      -4.95938259E-08
  -13.9399996      -1.02747919E-07
  -13.9300003      -1.47188430E-07
  -13.9200001      -1.69615518E-07
  -13.9099998      -1.58959395E-07
  -13.8999996      -1.09725299E-07
  -13.8900003      -2.45658871E-08
  -13.8800001       8.47364348E-08
  -13.8699999       1.98407321E-07
  -13.8599997       2.91994724E-07
  -13.8500004       3.41360959E-07
  -13.8400002       3.28354758E-07
  -13.8299999       2.45861230E-07
  -13.8199997       1.00923060E-07
  -13.8100004      -8.50458761E-08
  -13.8000002      -2.79323189E-07
  -13.7900000      -4.43821932E-07
  -13.7799997      -5.42789053E-07
  -13.7700005      -5.50615425E-07
  -13.7600002      -4.57969747E-07
  -13.7500000      -2.74750960E-07
  -13.7399998      -2.90258342E-08
  -13.7299995       2.37972444E-07
  -13.7200003       4.79773121E-07
  -13.7100000       6.53796178E-07
  -13.6999998       7.29635246E-07
  -13.6899996       6.94636299E-07
  -13.6800003       5.55568420E-07
  -13.6700001       3.36145547E-07
  -13.6599998       7.11866619E-08
  -13.6499996      -2.00975222E-07
  -13.6400003      -4.45839561E-07
  -13.6300001      -6.38003428E-07
  -13.6199999      -7.63185199E-07
  -13.6099997      -8.16856812E-07
  -13.6000004      -8.00397061E-07
  -13.5900002      -7.16477814E-07
  -13.5799999      -5.65677055E-07
  -13.5699997      -3.45950042E-07
  -13.5600004      -5.56559243E-08
  -13.5500002       3.00443901E-07
  -13.5400000       7.04054230E-07
  -13.5299997       1.11775876E-06
  -13.5200005       1.48375273E-06
  -13.5100002       1.72890304E-06
  -13.5000000       1.77660206E-06
  -13.4899998       1.56390274E-06
  -13.4799995       1.06052073E-06
  -13.4700003       2.85016029E-07
  -13.4600000      -6.86737792E-07
  -13.4499998      -1.72458613E-06
  -13.4399996      -2.66014285E-06
  -13.4300003      -3.31434512E-06
  -13.4200001      -3.53193718E-06
  -13.4099998      -3.21597872E-06
  -13.3999996      -2.35456332E-06
  -13.3900003      -1.03285549E-06
  -13.3800001       5.73756154E-07
  -13.3699999       2.22562176E-06
  -13.3599997       3.65975484E-06
  -13.3500004       4.63781589E-06
  -13.3400002       4.99114276E-06
  -13.3299999       4.65296398E-06
  -13.3199997       3.67046187E-06
  -13.3100004       2.19380354E-06
  -13.3000002       4.44582639E-07
  -13.2900000      -1.32894820E-06
  -13.2799997      -2.89924469E-06
  -13.2700005      -4.09818540E-06
  -13.2600002      -4.83815666E-06
  -13.2500000      -5.11123062E-06
  -13.2399998      -4.96815210E-06
  -13.2299995      -4.48454603E-06
  -13.2200003      -3.72560453E-06
  -13.2100000      -2.72124885E-06
  -13.1999998      -1.46102843E-06
  -13.1899996       8.77207924E-08
  -13.1800003       1.94227414E-06
  -13.1700001       4.05821402E-06
  -13.1599998       6.28972384E-06
  -13.1499996       8.37228617E-06
  -13.1400003       9.93951016E-06
  -13.1300001       1.05777381E-05
  -13.1199999       9.91177421E-06
  -13.1099997       7.70510906E-06
  -13.1000004       3.95113693E-06
  -13.0900002      -1.06959908E-06
  -13.0799999      -6.78635888E-06
  -13.0699997      -1.23988948E-05
  -13.0600004      -1.69971918E-05
  -13.0500002      -1.97208628E-05
  -13.0400000      -1.99273745E-05
  -13.0299997      -1.73333574E-05
  -13.0200005      -1.20963832E-05
  -13.0100002      -4.81575853E-06
  -13.0000000       3.55216093E-06
  -12.9899998       1.18498092E-05
  -12.9799995       1.89147049E-05
  -12.9700003       2.37758741E-05
  -12.9600000       2.58097334E-05
  -12.9499998       2.48240194E-05
  -12.9399996       2.10552407E-05
  -12.9300003       1.50855785E-05
  -12.9200001       7.70391398E-06
  -12.9099998      -2.51959193E-07
  -12.8999996      -8.03220792E-06
  -12.8900003      -1.50591895E-05
  -12.8800001      -2.09437658E-05
  -12.8699999      -2.54390798E-05
  -12.8599997      -2.83565169E-05
  -12.8500004      -2.94807269E-05
  -12.8400002      -2.85221431E-05
  -12.8299999      -2.51351939E-05
  -12.8199997      -1.90104547E-05
  -12.8100004      -1.00247107E-05
  -12.8000002       1.58945545E-06
  -12.7900000       1.51066297E-05
  -12.7799997       2.92565746E-05
  -12.7700005       4.22954326E-05
  -12.7600002       5.22115261E-05
  -12.7500000       5.70439806E-05
  -12.7399998       5.52604652E-05
  -12.7299995       4.61183663E-05
  -12.7200003       2.99274270E-05
  -12.7100000       8.14478062E-06
  -12.6999998      -1.67366670E-05
  -12.6899996      -4.15043469E-05
  -12.6800003      -6.27007103E-05
  -12.6700001      -7.71746054E-05
  -12.6599998      -8.26075557E-05
  -12.6499996      -7.79143520E-05
  -12.6400003      -6.34404641E-05
  -12.6300001      -4.09181193E-05
  -12.6199999      -1.31908409E-05
  -12.6099997       1.62383658E-05
  -12.6000004       4.37470444E-05
  -12.5900002       6.61198937E-05
  -12.5799999       8.09688645E-05
  -12.5699997       8.69815558E-05
  -12.5600004       8.39727509E-05
  -12.5500002       7.27567676E-05
  -12.5400000       5.48927892E-05
  -12.5299997       3.23752865E-05
  -12.5200005       7.34163768E-06
  -12.5100002      -1.81483792E-05
  -12.5000000      -4.22362609E-05
  -12.4899998      -6.32998344E-05
  -12.4799995      -7.99349873E-05
  -12.4700003      -9.09330265E-05
  -12.4600000      -9.52992050E-05
  -12.4499998      -9.23383050E-05
  -12.4399996      -8.18034678E-05
  -12.4300003      -6.40733342E-05
  -12.4200001      -4.02991791E-05
  -12.4099998      -1.24567541E-05
  -12.3999996       1.67504204E-05
  -12.3900003       4.41590819E-05
  -12.3800001       6.65664775E-05
  -12.3699999       8.12405415E-05
  -12.3599997       8.64240938E-05
  -12.3500004       8.17236869E-05
  -12.3400002       6.82851023E-05
  -12.3299999       4.86935205E-05
  -12.3199997       2.65907220E-05
  -12.3100004       6.06297999E-06
  -12.3000002      -9.09287701E-06
  -12.2900000      -1.60833260E-05
  -12.2799997      -1.36653971E-05
  -12.2700005      -2.40769873E-06
  -12.2600002       1.53993533E-05
  -12.2500000       3.61770581E-05
  -12.2399998       5.57555031E-05
  -12.2299995       7.01954923E-05
  -12.2200003       7.65666846E-05
  -12.2100000       7.35189678E-05
  -12.1999998       6.15261160E-05
  -12.1899996       4.27496852E-05
  -12.1800003       2.05528813E-05
  -12.1700001      -1.22954521E-06
  -12.1599998      -1.91059935E-05
  -12.1499996      -3.06494912E-05
  -12.1400003      -3.49696747E-05
  -12.1300001      -3.28357310E-05
  -12.1199999      -2.64298105E-05
  -12.1099997      -1.87939913E-05
  -12.1000004      -1.31021825E-05
  -12.0900002      -1.19259394E-05
  -12.0799999      -1.66608752E-05
  -12.0699997      -2.72392081E-05
  -12.0600004      -4.21842669E-05
  -12.0500002      -5.89809606E-05
  -12.0400000      -7.46628502E-05
  -12.0299997      -8.64687536E-05
  -12.0200005      -9.24113701E-05
  -12.0100002      -9.16288336E-05
  -12.0000000      -8.44497481E-05
  -11.9899998      -7.21770557E-05
  -11.9799995      -5.66673043E-05
  -11.9700003      -3.98301818E-05
  -11.9600000      -2.31875674E-05
  -11.9499998      -7.60810008E-06
  -11.9399996       6.72061287E-06
  -11.9300003       2.00895629E-05
  -11.9200001       3.29091527E-05
  -11.9099998       4.53116809E-05
  -11.8999996       5.68450305E-05
  -11.8900003       6.63619139E-05
  -11.8800001       7.21540055E-05
  -11.8699999       7.23103367E-05
  -11.8599997       6.52140152E-05
  -11.8500004       5.00480091E-05
  -11.8400002       2.71717508E-05
  -11.8299999      -1.74113745E-06
  -11.8199997      -3.38556674E-05
  -11.8100004      -6.55970507E-05
  -11.8000002      -9.32507683E-05
  -11.7900000      -1.13604692E-04
  -11.7799997      -1.24485974E-04
  -11.7700005      -1.25071645E-04
  -11.7600002      -1.15909424E-04
  -11.7500000      -9.86575833E-05
  -11.7399998      -7.56223235E-05
  -11.7299995      -4.92177533E-05
  -11.7200003      -2.14879856E-05
  -11.7100000       6.19257935E-06
  -11.6999998       3.31770243E-05
  -11.6899996       5.93659606E-05
  -11.6800003       8.48584314E-05
  -11.6700001       1.09546534E-04
  -11.6599998       1.32779227E-04
  -11.6499996       1.53199231E-04
  -11.6400003       1.68808343E-04
  -11.6300001       1.77253794E-04
  -11.6199999       1.76270347E-04
  -11.6099997       1.64172307E-04
  -11.6000004       1.40279473E-04
  -11.5900002       1.05180166E-04
  -11.5799999       6.07772563E-05
  -11.5699997       1.01166470E-05
  -11.5600004      -4.29534921E-05
  -11.5500002      -9.42125480E-05
  -11.5400000      -1.39498981E-04
  -11.5299997      -1.75072972E-04
  -11.5200005      -1.97872767E-04
  -11.5100002      -2.05665623E-04
  -11.5000000      -1.97124726E-04
  -11.4899998      -1.71876556E-04
  -11.4799995      -1.30556276E-04
  -11.4700003      -7.48843013E-05
  -11.4600000      -7.74496129E-06
  -11.4499998       6.67804852E-05
  -11.4399996       1.43488462E-04
  -11.4300003       2.16290427E-04
  -11.4200001       2.78640306E-04
  -11.4099998       3.24137218E-04
  -11.3999996       3.47241643E-04
  -11.3900003       3.44006607E-04
  -11.3800001       3.12705815E-04
  -11.3699999       2.54247105E-04
  -11.3599997       1.72288914E-04
  -11.3500004       7.30245301E-05
  -11.3400002      -3.53485630E-05
  -11.3299999      -1.43408179E-04
  -11.3199997      -2.41436574E-04
  -11.3100004      -3.20384977E-04
  -11.3000002      -3.72765906E-04
  -11.2900000      -3.93384515E-04
  -11.2799997      -3.79849080E-04
  -11.2700005      -3.32828582E-04
  -11.2600002      -2.56047846E-04
  -11.2500000      -1.56026435E-04
  -11.2399998      -4.15763643E-05
  -11.2299995       7.69182006E-05
  -11.2200003       1.88405524E-04
  -11.2100000       2.82204215E-04
  -11.1999998       3.49098846E-04
  -11.1899996       3.82390484E-04
  -11.1800003       3.78775818E-04
  -11.1700001       3.38917511E-04
  -11.1599998       2.67581898E-04
  -11.1499996       1.73257664E-04
  -11.1400003       6.72369060E-05
  -11.1300001      -3.77736687E-05
  -11.1199999      -1.29351698E-04
  -11.1099997      -1.97129048E-04
  -11.1000004      -2.34346604E-04
  -11.0900002      -2.38909575E-04
  -11.0799999      -2.13718085E-04
  -11.0699997      -1.66158090E-04
  -11.0600004      -1.06787964E-04
  -11.0500002      -4.74134322E-05
  -11.0400000       1.11873851E-06
  -11.0299997       3.09958850E-05
  -11.0200005       3.89670313E-05
  -11.0100002       2.69886696E-05
  -11.0000000       1.81425969E-06
  -10.9899998      -2.64383543E-05
  -10.9799995      -4.64913828E-05
  -10.9700003      -4.84560733E-05
  -10.9600000      -2.62024714E-05
  -10.9499998       2.09637328E-05
  -10.9399996       8.77102721E-05
  -10.9300003       1.63354925E-04
  -10.9200001       2.33732164E-04
  -10.9099998       2.83917732E-04
  -10.8999996       3.01284541E-04
  -10.8900003       2.78273365E-04
  -10.8800001       2.14296553E-04
  -10.8699999       1.16350282E-04
  -10.8599997      -1.84064777E-06
  -10.8500004      -1.22031510E-04
  -10.8400002      -2.24632386E-04
  -10.8299999      -2.92261364E-04
  -10.8199997      -3.13001219E-04
  -10.8100004      -2.82728230E-04
  -10.8000002      -2.06049401E-04
  -10.7900000      -9.56433796E-05
  -10.7799997       2.99006679E-05
  -10.7700005       1.49364394E-04
  -10.7600002       2.42705340E-04
  -10.7500000       2.94681784E-04
  -10.7399998       2.97618360E-04
  -10.7299995       2.52785423E-04
  -10.7200003       1.70119078E-04
  -10.7100000       6.63174578E-05
  -10.6999998      -3.83417319E-05
  -10.6899996      -1.23869992E-04
  -10.6800003      -1.74388435E-04
  -10.6700001      -1.81163501E-04
  -10.6599998      -1.44262100E-04
  -10.6499996      -7.24904094E-05
  -10.6400003       1.83858556E-05
  -10.6300001       1.08801745E-04
  -10.6199999       1.79315539E-04
  -10.6099997       2.14515021E-04
  -10.6000004       2.06124445E-04
  -10.5900002       1.54685986E-04
  -10.5799999       6.94765331E-05
  -10.5699997      -3.33188109E-05
  -10.5600004      -1.33797206E-04
  -10.5500002      -2.12235158E-04
  -10.5400000      -2.52895377E-04
  -10.5299997      -2.46977084E-04
  -10.5200005      -1.94134729E-04
  -10.5100002      -1.02301870E-04
  -10.5000000       1.40850570E-05
  -10.4899998       1.37037830E-04
  -10.4799995       2.48490367E-04
  -10.4700003       3.33564676E-04
  -10.4600000       3.82979604E-04
  -10.4499998       3.94171482E-04
  -10.4399996       3.70993686E-04
  -10.4300003       3.22174485E-04
  -10.4200001       2.58963613E-04
  -10.4099998       1.92540043E-04
  -10.3999996       1.31759822E-04
  -10.3900003       8.17016407E-05
  -10.3800001       4.32538727E-05
  -10.3699999       1.37363895E-05
  -10.3599997      -1.16802512E-05
  -10.3500004      -3.81565369E-05
  -10.3400002      -6.94255505E-05
  -10.3299999      -1.06509404E-04
  -10.3199997      -1.47194136E-04
  -10.3100004      -1.86363017E-04
  -10.3000002      -2.17095410E-04
  -10.2900000      -2.32276230E-04
  -10.2799997      -2.26360484E-04
  -10.2700005      -1.96912733E-04
  -10.2600002      -1.45592072E-04
  -10.2500000      -7.83637806E-05
  -10.2399998      -4.86613044E-06
  -10.2299995       6.29832430E-05
  -10.2200003       1.12918235E-04
  -10.2100000       1.34469621E-04
  -10.1999998       1.20954370E-04
  -10.1899996       7.09513115E-05
  -10.1800003      -1.10242536E-05
  -10.1700001      -1.14814080E-04
  -10.1599998      -2.25891796E-04
  -10.1499996      -3.27465008E-04
  -10.1400003      -4.03097569E-04
  -10.1300001      -4.39430791E-04
  -10.1199999      -4.28532017E-04
  -10.1099997      -3.69430025E-04
  -10.1000004      -2.68510164E-04
  -10.0900002      -1.38629606E-04
  -10.0799999       2.95686527E-06
  -10.0699997       1.37535186E-04
  -10.0600004       2.48219614E-04
  -10.0500002       3.22971871E-04
  -10.0400000       3.56750301E-04
  -10.0299997       3.52327508E-04
  -10.0200005       3.19564075E-04
  -10.0100002       2.73233687E-04
  -10.0000000       2.29804296E-04
  -9.98999977       2.03819218E-04
  -9.97999954       2.04636046E-04
  -9.97000027       2.34235878E-04
  -9.96000004       2.86612019E-04
  -9.94999981       3.48923582E-04
  -9.93999958       4.04219812E-04
  -9.93000031       4.35190683E-04
  -9.92000008       4.28154541E-04
  -9.90999985       3.76416749E-04
  -9.89999962       2.82242167E-04
  -9.89000034       1.56965456E-04
  -9.88000011       1.91536419E-05
  -9.86999989      -1.08845568E-04
  -9.85999966      -2.05280550E-04
  -9.85000038      -2.53395760E-04
  -9.84000015      -2.44930561E-04
  -9.82999992      -1.81966971E-04
  -9.81999969      -7.67125894E-05
  -9.81000042       5.07703917E-05
  -9.80000019       1.76450558E-04
  -9.78999996       2.77049432E-04
  -9.77999973       3.34642944E-04
  -9.77000046       3.40201077E-04
  -9.76000023       2.95333914E-04
  -9.75000000       2.11873848E-04
  -9.73999977       1.09361841E-04
  -9.72999954       1.09382090E-05
  -9.72000027      -6.15300087E-05
  -9.71000004      -9.20825260E-05
  -9.69999981      -7.40913092E-05
  -9.68999958      -1.17417876E-05
  -9.68000031       8.07758915E-05
  -9.67000008       1.82239033E-04
  -9.65999985       2.68942065E-04
  -9.64999962       3.19887069E-04
  -9.64000034       3.21515632E-04
  -9.63000011       2.70947901E-04
  -9.61999989       1.76985748E-04
  -9.60999966       5.85968191E-05
  -9.60000038      -5.88644434E-05
  -9.59000015      -1.48943698E-04
  -9.57999992      -1.89776809E-04
  -9.56999969      -1.68962695E-04
  -9.56000042      -8.65485636E-05
  -9.55000019       4.45513615E-05
  -9.53999996       2.00836337E-04
  -9.52999973       3.52745759E-04
  -9.52000046       4.70491708E-04
  -9.51000023       5.29974583E-04
  -9.50000000       5.17547072E-04
  -9.48999977       4.32651228E-04
  -9.47999954       2.87822069E-04
  -9.47000027       1.06119769E-04
  -9.46000004      -8.34099628E-05
  -9.44999981      -2.51258636E-04
  -9.43999958      -3.72812559E-04
  -9.43000031      -4.32491215E-04
  -9.42000008      -4.25924576E-04
  -9.40999985      -3.59874888E-04
  -9.39999962      -2.50087411E-04
  -9.39000034      -1.17654119E-04
  -9.38000011       1.52766897E-05
  -9.36999989       1.29559674E-04
  -9.35999966       2.12123778E-04
  -9.35000038       2.57570238E-04
  -9.34000015       2.68148200E-04
  -9.32999992       2.52288242E-04
  -9.31999969       2.22133225E-04
  -9.31000042       1.90648876E-04
  -9.30000019       1.68912869E-04
  -9.28999996       1.64079727E-04
  -9.27999973       1.78336762E-04
  -9.27000046       2.08944039E-04
  -9.26000023       2.49234843E-04
  -9.25000000       2.90285650E-04
  -9.23999977       3.22867971E-04
  -9.22999954       3.39282444E-04
  -9.22000027       3.34742712E-04
  -9.21000004       3.08098854E-04
  -9.19999981       2.61840702E-04
  -9.18999958       2.01465547E-04
  -9.18000031       1.34403090E-04
  -9.17000008       6.87459033E-05
  -9.15999985       1.20304803E-05
  -9.14999962      -2.97367787E-05
  -9.14000034      -5.26935037E-05
  -9.13000011      -5.53445316E-05
  -9.11999989      -3.84337800E-05
  -9.10999966      -4.54790870E-06
  -9.10000038       4.24464342E-05
  -9.09000015       9.80315381E-05
  -9.07999992       1.57642295E-04
  -9.06999969       2.17164823E-04
  -9.06000042       2.73263053E-04
  -9.05000019       3.23485030E-04
  -9.03999996       3.66134860E-04
  -9.02999973       3.99945275E-04
  -9.02000046       4.23648162E-04
  -9.01000023       4.35592752E-04
  -9.00000000       4.33586014E-04
  -8.98999977       4.15100018E-04
  -8.97999954       3.77902354E-04
  -8.97000027       3.21031868E-04
  -8.96000004       2.45894073E-04
  -8.94999981       1.57143280E-04
  -8.93999958       6.29933566E-05
  -8.93000031      -2.53124308E-05
  -8.92000008      -9.49502428E-05
  -8.90999985      -1.33706388E-04
  -8.89999962      -1.32487490E-04
  -8.89000034      -8.75712576E-05
  -8.88000011      -2.01011926E-06
  -8.86999989       1.14244634E-04
  -8.85999966       2.45639472E-04
  -8.85000038       3.73529649E-04
  -8.84000015       4.79392620E-04
  -8.82999992       5.48053707E-04
  -8.81999969       5.70238102E-04
  -8.81000042       5.43946226E-04
  -8.80000019       4.74448927E-04
  -8.78999996       3.73026909E-04
  -8.77999973       2.54835555E-04
  -8.77000046       1.36402741E-04
  -8.76000023       3.32403069E-05
  -8.75000000      -4.20900578E-05
  -8.73999977      -8.13014340E-05
  -8.72999954      -8.10947895E-05
  -8.72000027      -4.33338355E-05
  -8.71000004       2.52582868E-05
  -8.69999981       1.13876013E-04
  -8.68999958       2.08920785E-04
  -8.68000031       2.95812206E-04
  -8.67000008       3.61208135E-04
  -8.65999985       3.95337265E-04
  -8.64999962       3.93978262E-04
  -8.64000034       3.59555386E-04
  -8.63000011       3.00919724E-04
  -8.61999989       2.31668339E-04
  -8.60999966       1.67247199E-04
  -8.60000038       1.21475263E-04
  -8.59000015       1.03371684E-04
  -8.57999992       1.15164054E-04
  -8.56999969       1.52069319E-04
  -8.56000042       2.03938835E-04
  -8.55000019       2.58298678E-04
  -8.53999996       3.03875713E-04
  -8.52999973       3.33537842E-04
  -8.52000046       3.45759123E-04
  -8.51000023       3.44203057E-04
  -8.50000000       3.35643505E-04
  -8.48999977       3.26999492E-04
  -8.47999954       3.22553737E-04
  -8.47000027       3.22352687E-04
  -8.46000004       3.22355656E-04
  -8.44999981       3.16274469E-04
  -8.43999958       2.98428407E-04
  -8.43000031       2.66559975E-04
  -8.42000008       2.23553958E-04
  -8.40999985       1.77376962E-04
  -8.39999962       1.39176816E-04
  -8.39000034       1.20135162E-04
  -8.38000011       1.28113228E-04
  -8.36999989       1.65209742E-04
  -8.35999966       2.27038996E-04
  -8.35000038       3.03939916E-04
  -8.34000015       3.83669656E-04
  -8.32999992       4.54646302E-04
  -8.31999969       5.08661440E-04
  -8.31000042       5.42228925E-04
  -8.30000019       5.56267274E-04
  -8.28999996       5.54434897E-04
  -8.27999973       5.40910463E-04
  -8.27000046       5.18561923E-04
  -8.26000023       4.88233840E-04
  -8.25000000       4.49385057E-04
  -8.23999977       4.01737867E-04
  -8.22999954       3.47163179E-04
  -8.22000027       2.90907657E-04
  -8.21000004       2.41504385E-04
  -8.19999981       2.09209873E-04
  -8.18999958       2.03386924E-04
  -8.18000031       2.29681507E-04
  -8.17000008       2.87957460E-04
  -8.15999985       3.71717702E-04
  -8.14999962       4.69244522E-04
  -8.14000034       5.66116069E-04
  -8.13000011       6.48320303E-04
  -8.11999989       7.05044018E-04
  -8.10999966       7.30398344E-04
  -8.10000038       7.23766163E-04
  -8.09000015       6.88939297E-04
  -8.07999992       6.32580952E-04
  -8.06999969       5.62650734E-04
  -8.06000042       4.87268437E-04
  -8.05000019       4.14156733E-04
  -8.03999996       3.50460963E-04
  -8.02999973       3.02557921E-04
  -8.02000046       2.75522558E-04
  -8.01000023       2.72187637E-04
  -8.00000000       2.92077108E-04
  -7.98999977       3.30745039E-04
  -7.98000002       3.80055339E-04
  -7.96999979       4.29667678E-04
  -7.96000004       4.69520426E-04
  -7.94999981       4.92621504E-04
  -7.94000006       4.97194123E-04
  -7.92999983       4.87311772E-04
  -7.92000008       4.71613195E-04
  -7.90999985       4.60374285E-04
  -7.90000010       4.61868738E-04
  -7.88999987       4.79310460E-04
  -7.88000011       5.09562844E-04
  -7.86999989       5.44219569E-04
  -7.86000013       5.72794233E-04
  -7.84999990       5.86919487E-04
  -7.84000015       5.83990361E-04
  -7.82999992       5.68774645E-04
  -7.82000017       5.52189711E-04
  -7.80999994       5.47475822E-04
  -7.80000019       5.65017865E-04
  -7.78999996       6.07679540E-04
  -7.78000021       6.68465858E-04
  -7.76999998       7.31598702E-04
  -7.76000023       7.76904228E-04
  -7.75000000       7.86198128E-04
  -7.73999977       7.49554485E-04
  -7.73000002       6.69280649E-04
  -7.71999979       5.60138200E-04
  -7.71000004       4.45617596E-04
  -7.69999981       3.51440220E-04
  -7.69000006       2.98433675E-04
  -7.67999983       2.97135761E-04
  -7.67000008       3.45860259E-04
  -7.65999985       4.32701112E-04
  -7.65000010       5.40538691E-04
  -7.63999987       6.53063820E-04
  -7.63000011       7.59537914E-04
  -7.61999989       8.56575323E-04
  -7.61000013       9.46453423E-04
  -7.59999990       1.03286118E-03
  -7.59000015       1.11603306E-03
  -7.57999992       1.18949625E-03
  -7.57000017       1.24004949E-03
  -7.55999994       1.25131221E-03
  -7.55000019       1.20972318E-03
  -7.53999996       1.11079321E-03
  -7.53000021       9.63149476E-04
  -7.51999998       7.88585690E-04
  -7.51000023       6.17715588E-04
  -7.50000000       4.82421485E-04
  -7.48999977       4.07496671E-04
  -7.48000002       4.04236896E-04
  -7.46999979       4.68097889E-04
  -7.46000004       5.81127359E-04
  -7.44999981       7.18207506E-04
  -7.44000006       8.54843121E-04