  -16.0000000       0.00000000    
  -15.9899998       0.00000000    
  -15.9799995       0.00000000    
  -15.9700003       0.00000000    
  -15.9600000       0.00000000    
  -15.9499998       0.00000000    
  -15.9399996       0.00000000    
  -15.9300003       0.00000000    
  -15.9200001       0.00000000    
  -15.9099998       0.00000000    
  -15.8999996       0.00000000    
  -15.8900003       8.50763330E-40
  -15.8800001       2.95734540E-38
  -15.8699999       4.59752888E-37
  -15.8599997       4.51367410E-36
  -15.8500004       3.21651070E-35
  -15.8400002       1.78792863E-34
  -15.8299999       8.07268174E-34
  -15.8199997       3.02489282E-33
  -15.8100004       9.46006850E-33
  -15.8000002       2.43270833E-32
  -15.7900000       4.83768705E-32
  -15.7799997       5.67918584E-32
  -15.7700005      -6.27735848E-32
  -15.7600002      -6.38315203E-31
  -15.7500000      -2.39966226E-30
  -15.7399998      -6.58976265E-30
  -15.7299995      -1.46096456E-29
  -15.7200003      -2.64753617E-29
  -15.7100000      -3.72873549E-29
  -15.6999998      -3.17891619E-29
  -15.6899996       2.01894348E-29
  -15.6800003       1.59827630E-28
  -15.6700001       4.14593735E-28
  -15.6599998       7.41620733E-28
  -15.6499996       9.45030135E-28
  -15.6400003       6.13417884E-28
  -15.6300001      -8.19106479E-28
  -15.6199999      -3.74780112E-27
  -15.6099997      -7.72361155E-27
  -15.6000004      -1.05797533E-26
  -15.5900002      -7.93800299E-27
  -15.5799999       5.85573838E-27
  -15.5699997       3.42282433E-26
  -15.5600004       7.20757372E-26
  -15.5500002       9.87756960E-26
  -15.5400000       7.60423825E-26
  -15.5299997      -4.12371923E-26
  -15.5200005      -2.74675180E-25
  -15.5100002      -5.75537238E-25
  -15.5000000      -7.82401959E-25
  -15.4899998      -6.24687562E-25
  -15.4799995       1.79411967E-25
  -15.4700003       1.70903441E-24
  -15.4600000       3.56434336E-24
  -15.4499998       4.69140116E-24
  -15.4399996       3.55909665E-24
  -15.4300003      -1.09570038E-24
  -15.4200001      -8.99376295E-24
  -15.4099998      -1.70367103E-23
  -15.3999996      -1.91011735E-23
  -15.3900003      -8.17971608E-24
  -15.3800001       1.85249626E-23
  -15.3699999       5.28236377E-23
  -15.3599997       7.11142266E-23
  -15.3500004       3.85990114E-23
  -15.3400002      -7.21720954E-23
  -15.3299999      -2.48668698E-22
  -15.3199997      -4.03747771E-22
  -15.3100004      -3.65467443E-22
  -15.3000002       7.41048803E-23
  -15.2900000       1.02716930E-21
  -15.2799997       2.31131530E-21
  -15.2700005       3.26650978E-21
  -15.2600002       2.74268171E-21
  -15.2500000      -5.59036163E-22
  -15.2399998      -7.28432696E-21
  -15.2299995      -1.62791907E-20
  -15.2200003      -2.35657892E-20
  -15.2100000      -2.22612397E-20
  -15.1999998      -4.38295501E-21
  -15.1899996       3.49059556E-20
  -15.1800003       9.11487507E-20
  -15.1700001       1.44770799E-19
  -15.1599998       1.59527869E-19
  -15.1499996       8.98958176E-20
  -15.1400003      -9.94625298E-20
  -15.1300001      -4.03670214E-19
  -15.1199999      -7.46032643E-19
  -15.1099997      -9.61933297E-19
  -15.1000004      -8.19851069E-19
  -15.0900002      -9.69046094E-20
  -15.0799999       1.29073738E-18
  -15.0699997       3.13206935E-18
  -15.0600004       4.80508267E-18
  -15.0500002       5.29138959E-18
  -15.0400000       3.40939922E-18
  -15.0299997      -1.69746364E-18
  -15.0200005      -9.88607556E-18
  -15.0100002      -1.93620631E-17
  -15.0000000      -2.63910634E-17
  -14.9899998      -2.57608395E-17
  -14.9799995      -1.22733668E-17
  -14.9700003       1.67654935E-17
  -14.9600000       5.85826052E-17
  -14.9499998       1.02576014E-16
  -14.9399996       1.30024600E-16
  -14.9300003       1.17303449E-16
  -14.9200001       4.33393937E-17
  -14.9099998      -9.93957165E-17
  -14.8999996      -2.93025119E-16
  -14.8900003      -4.86166419E-16
  -14.8800001      -5.95313867E-16
  -14.8699999      -5.20732404E-16
  -14.8599997      -1.78704100E-16
  -14.8500004       4.53768149E-16
  -14.8400002       1.29304535E-15
  -14.8299999       2.11983675E-15
  -14.8199997       2.58857017E-15
  -14.8100004       2.29329639E-15
  -14.8000002       8.95880702E-16
  -14.7900000      -1.69929717E-15
  -14.7799997      -5.16707335E-15
  -14.7700005      -8.64799209E-15
  -14.7600002      -1.07806220E-14
  -14.7500000      -9.94888393E-15
  -14.7399998      -4.76830803E-15
  -14.7299995       5.24456416E-15
  -14.7200003       1.89776410E-14
  -14.7100000       3.32588402E-14
  -14.6999998       4.29290934E-14
  -14.6899996       4.17214345E-14
  -14.6800003       2.40502249E-14
  -14.6700001      -1.24805655E-14
  -14.6599998      -6.44238013E-14
  -14.6499996      -1.20631519E-13
  -14.6400003      -1.62334827E-13
  -14.6300001      -1.66168118E-13
  -14.6199999      -1.10543993E-13
  -14.6099997       1.52874522E-14
  -14.6000004       2.01542369E-13
  -14.5900002       4.10926366E-13
  -14.5799999       5.78419474E-13
  -14.5699997       6.21347754E-13
  -14.5600004       4.61127068E-13
  -14.5500002       5.43316951E-14
  -14.5400000      -5.73952290E-13
  -14.5299997      -1.30582914E-12
  -14.5200005      -1.92877073E-12
  -14.5100002      -2.16767836E-12
  -14.5000000      -1.75499600E-12
  -14.4899998      -5.30825438E-13
  -14.4799995       1.44978647E-12
  -14.4700003       3.83828776E-12
  -14.4600000       5.98423958E-12
  -14.4499998       7.03133168E-12
  -14.4399996       6.12901570E-12
  -14.4300003       2.73399749E-12
  -14.4200001      -3.06756552E-12
  -14.4099998      -1.03228242E-11
  -14.3999996      -1.71791401E-11
  -14.3900003      -2.11506212E-11
  -14.3800001      -1.97124227E-11
  -14.3699999      -1.11468985E-11
  -14.3599997       4.55221754E-12
  -14.3500004       2.50067640E-11
  -14.3400002       4.53314747E-11
  -14.3299999       5.88115390E-11
  -14.3199997       5.84482185E-11
  -14.3100004       3.91692651E-11
  -14.3000002       2.02134492E-13
  -14.2900000      -5.31249246E-11
  -14.2799997      -1.08953291E-10
  -14.2700005      -1.50451623E-10
  -14.2600002      -1.59524560E-10
  -14.2500000      -1.22180308E-10
  -14.2399998      -3.43576972E-11
  -14.2299995       9.35235778E-11
  -14.2200003       2.35161418E-10
  -14.2100000       3.51556062E-10
  -14.1999998       3.99183825E-10
  -14.1899996       3.42087275E-10
  -14.1800003       1.65243513E-10
  -14.1700001      -1.14600260E-10
  -14.1599998      -4.44730336E-10
  -14.1499996      -7.42088113E-10
  -14.1400003      -9.09709419E-10
  -14.1300001      -8.61899052E-10
  -14.1199999      -5.52811741E-10
  -14.1099997      -6.71605566E-13
  -14.1000004       7.00788483E-10
  -14.0900002       1.39033141E-09
  -14.0799999       1.86909532E-09
  -14.0699997       1.94880623E-09
  -14.0600004       1.50847357E-09
  -14.0500002       5.44930157E-10
  -14.0400000      -7.98917044E-10
  -14.0299997      -2.24128338E-09
  -14.0200005      -3.40979867E-09
  -14.0100002      -3.92580768E-09
  -14.0000000      -3.50815044E-09
  -13.9899998      -2.07095541E-09
  -13.9799995       2.13283641E-10
  -13.9700003       2.90974911E-09
  -13.9600000       5.38870060E-09
  -13.9499998       6.95866653E-09
  -13.9399996       7.04047354E-09
  -13.9300003       5.34154676E-09
  -13.9200001       1.98302552E-09
  -13.9099998      -2.46253373E-09
  -13.8999996      -7.04728631E-09
  -13.8900003      -1.06353584E-08
  -13.8800001      -1.21680213E-08
  -13.8699999      -1.09479021E-08
  -13.8599997      -6.86996193E-09
  -13.8500004      -5.31369337E-10
  -13.8400002       6.82447032E-09
  -13.8299999       1.35365239E-08
  -13.8199997       1.78898780E-08
  -13.8100004       1.85374258E-08
  -13.8000002       1.48784558E-08
  -13.7900000       7.29297334E-09
  -13.7799997      -2.84336688E-09
  -13.7700005      -1.33906370E-08
  -13.7600002      -2.18894911E-08
  -13.7500000      -2.61294701E-08
  -13.7399998      -2.47110385E-08
  -13.7299995      -1.74611738E-08
  -13.7200003      -5.58621460E-09
  -13.7100000       8.49929371E-09
  -13.6999998       2.16540190E-08
  -13.6899996       3.07098205E-08
  -13.6800003       3.32368231E-08
  -13.6700001       2.81912307E-08
  -13.6599998       1.62770775E-08
  -13.6499996      -9.08300934E-11
  -13.6400003      -1.72468884E-08
  -13.6300001      -3.10797361E-08
  -13.6199999      -3.80128355E-08
  -13.6099997      -3.59329384E-08
  -13.6000004      -2.48313388E-08
  -13.5900002      -6.97257141E-09
  -13.5799999       1.34943612E-08
  -13.5699997       3.14360022E-08
  -13.5600004       4.19667003E-08
  -13.5500002       4.17327009E-08
  -13.5400000       2.99255234E-08
  -13.5299997       8.73743833E-09
  -13.5200005      -1.69162995E-08
  -13.5100002      -4.04146228E-08
  -13.5000000      -5.50036354E-08
  -13.4899998      -5.55769759E-08
  -13.4799995      -4.02218170E-08
  -13.4700003      -1.10991394E-08
  -13.4600000       2.56491290E-08
  -13.4499998       6.10541377E-08
  -13.4399996       8.53547277E-08
  -13.4300003       9.04799720E-08
  -13.4200001       7.23786187E-08
  -13.4099998       3.25660707E-08
  -13.3999996      -2.16066365E-08
  -13.3900003      -7.81758729E-08
  -13.3800001      -1.23126057E-07
  -13.3699999      -1.43764652E-07
  -13.3599997      -1.32118018E-07
  -13.3500004      -8.74659847E-08
  -13.3400002      -1.72676273E-08
  -13.3299999       6.39230464E-08
  -13.3199997       1.37466472E-07
  -13.3100004       1.84975931E-07
  -13.3000002       1.92985610E-07
  -13.2900000       1.56770525E-07
  -13.2799997       8.22539192E-08
  -13.2700005      -1.46589718E-08
  -13.2600002      -1.11371982E-07
  -13.2500000      -1.83886598E-07
  -13.2399998      -2.12887969E-07
  -13.2299995      -1.89116605E-07
  -13.2200003      -1.16566447E-07
  -13.2100000      -1.24849091E-08
  -13.1999998       9.61136024E-08
  -13.1899996       1.78836075E-07
  -13.1800003       2.09810779E-07
  -13.1700001       1.75188617E-07
  -13.1599998       7.82494212E-08
  -13.1499996      -5.94717342E-08
  -13.1400003      -2.01773005E-07
  -13.1300001      -3.05702798E-07
  -13.1199999      -3.32281587E-07
  -13.1099997      -2.57624151E-07
  -13.1000004      -8.16769443E-08
  -13.0900002       1.67953317E-07
  -13.0799999       4.38691018E-07
  -13.0699997       6.62408070E-07
  -13.0600004       7.70143970E-07
  -13.0500002       7.09234541E-07
  -13.0400000       4.58998159E-07
  -13.0299997       4.09831031E-08
  -13.0200005      -4.79425523E-07
  -13.0100002      -1.00159002E-06
  -13.0000000      -1.40771465E-06
  -12.9899998      -1.58743853E-06
  -12.9799995      -1.46401055E-06
  -12.9700003      -1.01617229E-06
  -12.9600000      -2.90180026E-07
  -12.9499998       6.01938495E-07
  -12.9399996       1.49903917E-06
  -12.9300003       2.22025187E-06
  -12.9200001       2.60177035E-06
  -12.9099998       2.53347957E-06
  -12.8999996       1.98719090E-06
  -12.8900003       1.02943966E-06
  -12.8800001      -1.85272427E-07
  -12.8699999      -1.44077694E-06
  -12.8599997      -2.50062271E-06
  -12.8500004      -3.15634907E-06
  -12.8400002      -3.27235648E-06
  -12.8299999      -2.81722714E-06
  -12.8199997      -1.87385706E-06
  -12.8100004      -6.25153803E-07
  -12.8000002       6.82548432E-07
  -12.7900000       1.79107928E-06
  -12.7799997       2.48603305E-06
  -12.7700005       2.64406412E-06
  -12.7600002       2.26100451E-06
  -12.7500000       1.45390993E-06
  -12.7399998       4.35840633E-07
  -12.7299995      -5.31681792E-07
  -12.7200003      -1.19839387E-06
  -12.7100000      -1.38400605E-06
  -12.6999998      -1.02258264E-06
  -12.6899996      -1.82134343E-07
  -12.6800003       9.45755232E-07
  -12.6700001       2.08484676E-06
  -12.6599998       2.93385460E-06
  -12.6499996       3.23404447E-06
  -12.6400003       2.82994961E-06
  -12.6300001       1.70943338E-06
  -12.6199999       1.34793448E-08
  -12.6099997      -1.98748171E-06
  -12.6000004      -3.94654489E-06
  -12.5900002      -5.51178391E-06
  -12.5799999      -6.40081817E-06
  -12.5699997      -6.46185117E-06
  -12.5600004      -5.70688599E-06
  -12.5500002      -4.30850559E-06
  -12.5400000      -2.55950886E-06
  -12.5299997      -8.03155785E-07
  -12.5200005       6.51010907E-07
  -12.5100002       1.60659908E-06
  -12.5000000       2.03581590E-06
  -12.4899998       2.09605696E-06
  -12.4799995       2.10088865E-06
  -12.4700003       2.44896387E-06
  -12.4600000       3.52462712E-06
  -12.4499998       5.59175078E-06
  -12.4399996       8.70565236E-06
  -12.4300003       1.26656660E-05
  -12.4200001       1.70231942E-05
  -12.4099998       2.11481820E-05
  -12.3999996       2.43435588E-05
  -12.3900003       2.59851113E-05
  -12.3800001       2.56567873E-05
  -12.3699999       2.32502971E-05
  -12.3599997       1.90041519E-05
  -12.3500004       1.34697075E-05
  -12.3400002       7.40801352E-06
  -12.3299999       1.63753407E-06
  -12.3199997      -3.13474857E-06
  -12.3100004      -6.46072249E-06
  -12.3000002      -8.24222934E-06
  -12.2900000      -8.74266425E-06
  -12.2799997      -8.51365530E-06
  -12.2700005      -8.25132429E-06
  -12.2600002      -8.61405169E-06
  -12.2500000      -1.00442694E-05
  -12.2399998      -1.26376917E-05
  -12.2299995      -1.60939217E-05
  -12.2200003      -1.97643149E-05
  -12.2100000      -2.27902892E-05
  -12.1999998      -2.43031463E-05
  -12.1899996      -2.36403484E-05
  -12.1800003      -2.05270189E-05
  -12.1700001      -1.51773484E-05
  -12.1599998      -8.28739849E-06
  -12.1499996      -9.15198314E-07
  -12.1400003       5.72962381E-06
  -12.1300001       1.05422441E-05
  -12.1199999       1.27679896E-05
  -12.1099997       1.21797357E-05
  -12.1000004       9.14386783E-06
  -12.0900002       4.55533336E-06
  -12.0799999      -3.48471417E-07
  -12.0699997      -4.25723556E-06
  -12.0600004      -6.08275514E-06
  -12.0500002      -5.21388120E-06
  -12.0400000      -1.67283883E-06
  -12.0299997       3.86523243E-06
  -12.0200005       1.01982287E-05
  -12.0100002       1.58451458E-05
  -12.0000000       1.93652195E-05
  -11.9899998       1.96801211E-05
  -11.9799995       1.63288805E-05
  -11.9700003       9.59808767E-06
  -11.9600000       4.95732252E-07
  -11.9499998      -9.42999031E-06
  -11.9399996      -1.83921493E-05
  -11.9300003      -2.47256121E-05
  -11.9200001      -2.72315374E-05
  -11.9099998      -2.54326897E-05
  -11.8999996      -1.96839046E-05
  -11.8900003      -1.11116760E-05
  -11.8800001      -1.39243150E-06
  -11.8699999       7.58657188E-06
  -11.8599997       1.41143255E-05
  -11.8500004       1.70102667E-05
  -11.8400002       1.58703042E-05
  -11.8299999       1.11509835E-05
  -11.8199997       4.07154448E-06
  -11.8100004      -3.64792595E-06
  -11.8000002      -1.01586811E-05
  -11.7900000      -1.38876349E-05
  -11.7799997      -1.38872165E-05
  -11.7700005      -1.00543002E-05
  -11.7600002      -3.16850196E-06
  -11.7500000       5.26168515E-06
  -11.7399998       1.33150124E-05
  -11.7299995       1.90702831E-05
  -11.7200003       2.10281123E-05
  -11.7100000       1.84505498E-05
  -11.6999998       1.15439898E-05
  -11.6899996       1.44361729E-06
  -11.6800003      -9.99985059E-06
  -11.6700001      -2.05877677E-05
  -11.6599998      -2.82187357E-05
  -11.6499996      -3.13176934E-05
  -11.6400003      -2.91587457E-05
  -11.6300001      -2.20146303E-05
  -11.6199999      -1.11029549E-05
  -11.6099997       1.65711242E-06
  -11.6000004       1.40243583E-05
  -11.5900002       2.38703033E-05
  -11.5799999       2.95787759E-05
  -11.5699997       3.03300621E-05
  -11.5600004       2.62163321E-05
  -11.5500002       1.81726919E-05
  -11.5400000       7.74744603E-06
  -11.5299997      -3.23220661E-06
  -11.5200005      -1.30238477E-05
  -11.5100002      -2.02859937E-05
  -11.5000000      -2.42847364E-05
  -11.4899998      -2.49564673E-05
  -11.4799995      -2.28257395E-05
  -11.4700003      -1.88089343E-05
  -11.4600000      -1.39572894E-05
  -11.4499998      -9.20230741E-06
  -11.4399996      -5.16133150E-06
  -11.4300003      -2.04306002E-06
  -11.4200001       3.33183550E-07
  -11.4099998       2.41823136E-06
  -11.3999996       4.75043134E-06
  -11.3900003       7.75907392E-06
  -11.3800001       1.16039955E-05
  -11.3699999       1.60902018E-05
  -11.3599997       2.06764544E-05
  -11.3500004       2.45734045E-05
  -11.3400002       2.69055963E-05
  -11.3299999       2.68977674E-05
  -11.3199997       2.40420432E-05
  -11.3100004       1.82096464E-05
  -11.3000002       9.68592849E-06
  -11.2900000      -8.72886687E-07
  -11.2799997      -1.25444576E-05
  -11.2700005      -2.42769765E-05
  -11.2600002      -3.50240443E-05
  -11.2500000      -4.38495554E-05
  -11.2399998      -4.99870002E-05
  -11.2299995      -5.28539895E-05
  -11.2200003      -5.20375179E-05
  -11.2100000      -4.72744905E-05
  -11.1999998      -3.84522536E-05
  -11.1899996      -2.56449512E-05
  -11.1800003      -9.18622754E-06
  -11.1700001       1.02391177E-05
  -11.1599998       3.15163052E-05
  -11.1499996       5.30729740E-05
  -11.1400003       7.29366366E-05
  -11.1300001       8.88953073E-05
  -11.1199999       9.87558160E-05
  -11.1099997       1.00667647E-04
  -11.1000004       9.34579439E-05
  -11.0900002       7.69111284E-05
  -11.0799999       5.19288915E-05
  -11.0699997       2.05238921E-05
  -11.0600004      -1.43696043E-05
  -11.0500002      -4.92488216E-05
  -11.0400000      -8.05057498E-05
  -11.0299997      -1.04922357E-04
  -11.0200005      -1.20110832E-04
  -11.0100002      -1.24820901E-04
  -11.0000000      -1.19062468E-04
  -10.9899998      -1.04027677E-04
  -10.9799995      -8.18362823E-05
  -10.9700003      -5.51605881E-05
  -10.9600000      -2.68064214E-05
  -10.9499998       6.71056966E-07
  -10.9399996       2.52519876E-05
  -10.9300003       4.55991940E-05
  -10.9200001       6.10629722E-05
  -10.9099998       7.15681745E-05
  -10.8999996       7.74295258E-05
  -10.8900003       7.91493658E-05
  -10.8800001       7.72465137E-05
  -10.8699999       7.21493416E-05
  -10.8599997       6.41649458E-05
  -10.8500004       5.35159706E-05
  -10.8400002       4.04214079E-05
  -10.8299999       2.51909532E-05
  -10.8199997       8.30381941E-06
  -10.8100004      -9.54943880E-06
  -10.8000002      -2.74725753E-05
  -10.7900000      -4.44164943E-05
  -10.7799997      -5.92704309E-05
  -10.7700005      -7.09771921E-05
  -10.7600002      -7.86555102E-05
  -10.7500000      -8.17121399E-05
  -10.7399998      -7.99268382E-05
  -10.7299995      -7.34953501E-05
  -10.7200003      -6.30192881E-05
  -10.7100000      -4.94379201E-05
  -10.6999998      -3.39063190E-05
  -10.6899996      -1.76353551E-05
  -10.6800003      -1.72001080E-06
  -10.6700001       1.30102690E-05
  -10.6599998       2.60851357E-05
  -10.6499996       3.74052943E-05
  -10.6400003       4.71643034E-05
  -10.6300001       5.56940322E-05
  -10.6199999       6.32695010E-05
  -10.6099997       6.99241791E-05
  -10.6000004       7.53297354E-05
  -10.5900002       7.87828612E-05
  -10.5799999       7.93167710E-05
  -10.5699997       7.59231625E-05
  -10.5600004       6.78383076E-05
  -10.5500002       5.48253338E-05
  -10.5400000       3.73788316E-05
  -10.5299997       1.67909438E-05
  -10.5200005      -4.95235736E-06
  -10.5100002      -2.54372371E-05
  -10.5000000      -4.22038393E-05
  -10.4899998      -5.31688856E-05
  -10.4799995      -5.70022930E-05
  -10.4700003      -5.33793536E-05
  -10.4600000      -4.30561995E-05
  -10.4499998      -2.77535000E-05
  -10.4399996      -9.87326985E-06
  -10.4300003       7.89323258E-06
  -10.4200001       2.29888792E-05
  -10.4099998       3.33650023E-05
  -10.3999996       3.77404831E-05
  -10.3900003       3.57059944E-05
  -10.3800001       2.76672436E-05
  -10.3699999       1.46539405E-05
  -10.3599997      -1.95277175E-06
  -10.3500004      -2.07074427E-05
  -10.3400002      -4.03353952E-05
  -10.3299999      -5.98641054E-05
  -10.3199997      -7.86258533E-05
  -10.3100004      -9.61401383E-05
  -10.3000002      -1.11917157E-04
  -10.2900000      -1.25248407E-04
  -10.2799997      -1.35060196E-04
  -10.2700005      -1.39896118E-04
  -10.2600002      -1.38065385E-04
  -10.2500000      -1.27951585E-04
  -10.2399998      -1.08427666E-04
  -10.2299995      -7.92843202E-05
  -10.2200003      -4.15581890E-05
  -10.2100000       2.34501158E-06
  -10.1999998       4.88000587E-05
  -10.1899996       9.33917399E-05
  -10.1800003       1.31562396E-04
  -10.1700001       1.59355041E-04
  -10.1599998       1.74095665E-04
  -10.1499996       1.74860790E-04
  -10.1400003       1.62618831E-04
  -10.1300001       1.40005359E-04
  -10.1199999       1.10778070E-04
  -10.1099997       7.90717022E-05
  -10.1000004       4.86202553E-05
  -10.0900002       2.21182199E-05
  -10.0799999       8.54419625E-07
  -10.0699997      -1.53178626E-05
  -10.0600004      -2.76942192E-05
  -10.0500002      -3.82094076E-05
  -10.0400000      -4.88437945E-05
  -10.0299997      -6.10924326E-05
  -10.0200005      -7.56127120E-05
  -10.0100002      -9.21099490E-05
  -10.0000000      -1.09454959E-04
  -9.98999977      -1.25972510E-04
  -9.97999954      -1.39808137E-04
  -9.97000027      -1.49278509E-04
  -9.96000004      -1.53133777E-04
  -9.94999981      -1.50697379E-04
  -9.93999958      -1.41887591E-04
  -9.93000031      -1.27151448E-04
  -9.92000008      -1.07352360E-04
  -9.90999985      -8.36466934E-05
  -9.89999962      -5.73685757E-05
  -9.89000034      -2.99261301E-05
  -9.88000011      -2.70292890E-06
  -9.86999989       2.30408968E-05
  -9.85999966       4.62640564E-05
  -9.85000038       6.62210587E-05
  -9.84000015       8.25000097E-05
  -9.82999992       9.50049071E-05
  -9.81999969       1.03881204E-04
  -9.81000042       1.09404289E-04
  -9.80000019       1.11868896E-04
  -9.78999996       1.11523594E-04
  -9.77999973       1.08584027E-04
  -9.77000046       1.03331891E-04
  -9.76000023       9.62716149E-05
  -9.75000000       8.82853346E-05
  -9.73999977       8.07121614E-05
  -9.72999954       7.52875640E-05
  -9.72000027       7.39147945E-05
  -9.71000004       7.82926436E-05
  -9.69999981       8.94777768E-05
  -9.68999958       1.07497035E-04
  -9.68000031       1.31130859E-04
  -9.67000008       1.57957460E-04
  -9.65999985       1.84684861E-04
  -9.64999962       2.07719175E-04
  -9.64000034       2.23847295E-04
  -9.63000011       2.30870224E-04
  -9.61999989       2.28024990E-04
  -9.60999966       2.16081127E-04
  -9.60000038       1.97079396E-04
  -9.59000015       1.73774242E-04
  -9.57999992       1.48921332E-04
  -9.56999969       1.24593716E-04
  -9.56000042       1.01702950E-04
  -9.55000019       7.98472029E-05
  -9.53999996       5.75203267E-05
  -9.52999973       3.26220252E-05
  -9.52000046       3.13260466E-06
  -9.51000023      -3.22217857E-05
  -9.50000000      -7.34777350E-05
  -9.48999977      -1.19229917E-04
  -9.47999954      -1.66749916E-04
  -9.47000027      -2.12386134E-04
  -9.46000004      -2.52141675E-04
  -9.44999981      -2.82299123E-04
  -9.43999958      -2.99968320E-04
  -9.43000031      -3.03467939E-04
  -9.42000008      -2.92500597E-04
  -9.40999985      -2.68127624E-04
  -9.39999962      -2.32582184E-04
  -9.39000034      -1.88973936E-04
  -9.38000011      -1.40936914E-04
  -9.36999989      -9.22623731E-05
  -9.35999966      -4.65479789E-05
  -9.35000038      -6.88955652E-06
  -9.34000015       2.43594004E-05
  -9.32999992       4.57355891E-05
  -9.31999969       5.67027600E-05
  -9.31000042       5.75749727E-05
  -9.30000019       4.93471380E-05
  -9.28999996       3.34786746E-05
  -9.27999973       1.16908059E-05
  -9.27000046      -1.41656428E-05
  -9.26000023      -4.21418154E-05
  -9.25000000      -7.01344834E-05
  -9.23999977      -9.58004457E-05
  -9.22999954      -1.16530173E-04
  -9.22000027      -1.29567969E-04
  -9.21000004      -1.32326328E-04
  -9.19999981      -1.22872749E-04
  -9.18999958      -1.00488236E-04
  -9.18000031      -6.61367449E-05
  -9.17000008      -2.26709835E-05
  -9.15999985       2.53559192E-05
  -9.14999962       7.23050689E-05
  -9.14000034       1.12399459E-04
  -9.13000011       1.40796750E-04
  -9.11999989       1.54517300E-04
  -9.10999966       1.52973385E-04
  -9.10000038       1.37943469E-04
  -9.09000015       1.12989837E-04
  -9.07999992       8.24823219E-05
  -9.06999969       5.05133430E-05
  -9.06000042       2.00246923E-05
  -9.05000019      -7.59966042E-06
  -9.03999996      -3.23723543E-05
  -9.02999973      -5.50599543E-05
  -9.02000046      -7.63098069E-05
  -9.01000023      -9.58792589E-05
  -9.00000000      -1.12268339E-04
  -8.98999977      -1.22917918E-04
  -8.97999954      -1.24934013E-04
  -8.97000027      -1.16103663E-04
  -8.96000004      -9.58470919E-05
  -8.94999981      -6.57513301E-05
  -8.93999958      -2.94576876E-05
  -8.93000031       8.11122754E-06
  -8.92000008       4.19697317E-05
  -8.90999985       6.83527760E-05
  -8.89999962       8.56459592E-05
  -8.89000034       9.46472210E-05
  -8.88000011       9.80634286E-05
  -8.86999989       9.94034781E-05
  -8.85999966       1.01640078E-04
  -8.85000038       1.06099113E-04
  -8.84000015       1.11964910E-04
  -8.82999992       1.16581890E-04
  -8.81999969       1.16456511E-04
  -8.81000042       1.08614615E-04
  -8.80000019       9.18358928E-05
  -8.78999996       6.73194299E-05
  -8.77999973       3.85250642E-05
  -8.77000046       1.02212352E-05
  -8.76000023      -1.29485325E-05
  -8.75000000      -2.78899770E-05
  -8.73999977      -3.39743128E-05
  -8.72999954      -3.31153315E-05
  -8.72000027      -2.89664222E-05
  -8.71000004      -2.55078576E-05
  -8.69999981      -2.55183477E-05
  -8.68999958      -2.94789243E-05
  -8.68000031      -3.53188043E-05
  -8.67000008      -3.91258691E-05
  -8.65999985      -3.66059830E-05
  -8.64999962      -2.48034485E-05
  -8.64000034      -3.48574872E-06
  -8.63000011       2.43090126E-05
  -8.61999989       5.27932971E-05
  -8.60999966       7.48959355E-05
  -8.60000038       8.42300578E-05
  -8.59000015       7.69470935E-05
  -8.57999992       5.28929195E-05
  -8.56999969       1.57088471E-05
  -8.56000042      -2.81367811E-05
  -8.55000019      -7.10580935E-05
  -8.53999996      -1.06249223E-04
  -8.52999973      -1.29182969E-04
  -8.52000046      -1.38288320E-04
  -8.51000023      -1.34685004E-04
  -8.50000000      -1.21179670E-04
  -8.48999977      -1.00967351E-04
  -8.47999954      -7.65482182E-05
  -8.47000027      -4.92478030E-05
  -8.46000004      -1.94667628E-05
  -8.44999981       1.25144079E-05
  -8.43999958       4.55775335E-05
  -8.43000031       7.71253908E-05
  -8.42000008       1.03109734E-04
  -8.40999985       1.18822623E-04
  -8.39999962       1.20239842E-04
  -8.39000034       1.05467872E-04
  -8.38000011       7.57656380E-05
  -8.36999989       3.57239005E-05
  -8.35999966      -7.54747543E-06
  -8.35000038      -4.60428346E-05
  -8.34000015      -7.28335217E-05
  -8.32999992      -8.38004562E-05
  -8.31999969      -7.86040400E-05
  -8.31000042      -6.06095127E-05
  -8.30000019      -3.58166872E-05
  -8.28999996      -1.11504887E-05
  -8.27999973       7.35024560E-06
  -8.27000046       1.59109804E-05
  -8.26000023       1.36098561E-05
  -8.25000000       2.10267854E-06
  -8.23999977      -1.53029505E-05
  -8.22999954      -3.48233407E-05
  -8.22000027      -5.31928235E-05
  -8.21000004      -6.81728925E-05
  -8.19999981      -7.85016455E-05
  -8.18999958      -8.34451785E-05
  -8.18000031      -8.22645015E-05
  -8.17000008      -7.39238749E-05
  -8.15999985      -5.72372010E-05
  -8.14999962      -3.14353601E-05
  -8.14000034       3.07525329E-06
  -8.13000011       4.41138145E-05
  -8.11999989       8.76147169E-05
  -8.10999966       1.28171960E-04
  -8.10000038       1.60160460E-04
  -8.09000015       1.79121766E-04
  -8.07999992       1.82968564E-04
  -8.06999969       1.72585715E-04
  -8.06000042       1.51586719E-04
  -8.05000019       1.25261678E-04
  -8.03999996       9.90305998E-05
  -8.02999973       7.68928585E-05
  -8.02000046       6.03755216E-05
  -8.01000023       4.83226650E-05
  -8.00000000       3.75862655E-05
  -7.98999977       2.43759714E-05
  -7.98000002       5.80360074E-06
  -7.96999979      -1.89033217E-05
  -7.96000004      -4.79255905E-05
  -7.94999981      -7.72655694E-05
  -7.94000006      -1.01898637E-04
  -7.92999983      -1.17266478E-04
  -7.92000008      -1.20612822E-04
  -7.90999985      -1.11731679E-04
  -7.90000010      -9.29122471E-05
  -7.88999987      -6.81446181E-05
  -7.88000011      -4.18941127E-05
  -7.86999989      -1.78784303E-05
  -7.86000013       1.74941908E-06
  -7.84999990       1.65803340E-05
  -7.84000015       2.75013081E-05
  -7.82999992       3.58562866E-05
  -7.82000017       4.25770413E-05
  -7.80999994       4.76303358E-05
  -7.80000019       4.99847629E-05
  -7.78999996       4.80872986E-05
  -7.78000021       4.06389008E-05
  -7.76999998       2.73442547E-05
  -7.76000023       9.32403054E-06
  -7.75000000      -1.09886032E-05
  -7.73999977      -3.04457299E-05
  -7.73000002      -4.60661613E-05
  -7.71999979      -5.58818683E-05
  -7.71000004      -5.94436606E-05
  -7.69999981      -5.78063664E-05
  -7.69000006      -5.30065809E-05
  -7.67999983      -4.72323773E-05
  -7.67000008      -4.19949902E-05
  -7.65999985      -3.76080061E-05
  -7.65000010      -3.31617048E-05
  -7.63999987      -2.69970642E-05
  -7.63000011      -1.74994784E-05
  -7.61999989      -3.91524190E-06
  -7.61000013       1.31146608E-05
  -7.59999990       3.15085672E-05
  -7.59000015       4.82176911E-05
  -7.57999992       6.00699750E-05
  -7.57000017       6.47087945E-05
  -7.55999994       6.13217417E-05
  -7.55000019       5.09280108E-05
  -7.53999996       3.61401289E-05
  -7.53000021       2.04835360E-05
  -7.51999998       7.48845378E-06
  -7.51000023      -1.78867154E-07
  -7.50000000      -1.31379409E-06
  -7.48999977       3.62940773E-06
  -7.48000002       1.27419871E-05
  -7.46999979       2.31585673E-05
  -7.46000004       3.16823171E-05
  -7.44999981       3.53781434E-05
  -7.44000006       3.20270628E-05