  -16.0000000       0.00000000    
  -15.9899998       0.00000000    
  -15.9799995       0.00000000    
  -15.9700003       0.00000000    
  -15.9600000       0.00000000    
  -15.9499998       0.00000000    
  -15.9399996       0.00000000    
  -15.9300003       0.00000000    
  -15.9200001       0.00000000    
  -15.9099998       0.00000000    
  -15.8999996       0.00000000    
  -15.8900003       4.63822197E-38
  -15.8800001       3.75150065E-37
  -15.8699999      -3.97529362E-37
  -15.8599997      -2.02216037E-35
  -15.8500004      -1.31959503E-34
  -15.8400002      -3.97884037E-34
  -15.8299999      -1.89085886E-35
  -15.8199997       5.86821804E-33
  -15.8100004       3.22958492E-32
  -15.8000002       1.04563796E-31
  -15.7900000       2.17285734E-31
  -15.7799997       1.80070077E-31
  -15.7700005      -7.23981516E-31
  -15.7600002      -4.20429905E-30
  -15.7500000      -1.30982962E-29
  -15.7399998      -3.00142580E-29
  -15.7299995      -5.22596998E-29
  -15.7200003      -5.91161368E-29
  -15.7100000       1.54009772E-29
  -15.6999998       3.33669626E-28
  -15.6899996       1.22939254E-27
  -15.6800003       3.25137188E-27
  -15.6700001       6.96520345E-27
  -15.6599998       1.20170718E-26
  -15.6499996       1.46968654E-26
  -15.6400003       3.54194040E-27
  -15.6300001      -4.55150740E-26
  -15.6199999      -1.68147317E-25
  -15.6099997      -3.91147657E-25
  -15.6000004      -6.73692341E-25
  -15.5900002      -8.00639092E-25
  -15.5799999      -2.59401107E-25
  -15.5699997       1.78172025E-24
  -15.5600004       6.16227097E-24
  -15.5500002       1.27959984E-23
  -15.5400000       1.89891142E-23
  -15.5299997       1.74751497E-23
  -15.5200005      -4.26599451E-24
  -15.5100002      -6.05331911E-23
  -15.5000000      -1.56397859E-22
  -15.4899998      -2.67812522E-22
  -15.4799995      -3.17856393E-22
  -15.4700003      -1.65220278E-22
  -15.4600000       3.66678023E-22
  -15.4499998       1.38740716E-21
  -15.4399996       2.75013057E-21
  -15.4300003       3.81652976E-21
  -15.4200001       3.31023464E-21
  -15.4099998      -5.06351766E-22
  -15.3999996      -9.06019649E-21
  -15.3900003      -2.19626566E-20
  -15.3800001      -3.50339779E-20
  -15.3699999      -3.87893133E-20
  -15.3599997      -1.90563430E-20
  -15.3500004       3.82704642E-20
  -15.3400002       1.37086640E-19
  -15.3299999       2.56758646E-19
  -15.3199997       3.39077334E-19
  -15.3100004       2.86815623E-19
  -15.3000002      -1.29428837E-20
  -15.2900000      -6.30709552E-19
  -15.2799997      -1.50469106E-18
  -15.2700005      -2.34568921E-18
  -15.2600002      -2.59253211E-18
  -15.2500000      -1.49485268E-18
  -15.2399998       1.60761322E-18
  -15.2299995       6.79756679E-18
  -15.2200003       1.29891675E-17
  -15.2100000       1.74939104E-17
  -15.1999998       1.61394055E-17
  -15.1899996       4.35529535E-18
  -15.1800003      -2.05673380E-17
  -15.1700001      -5.63359959E-17
  -15.1599998      -9.26697587E-17
  -15.1499996      -1.10254381E-16
  -15.1400003      -8.37879764E-17
  -15.1300001       9.27561958E-18
  -15.1199999       1.74511697E-16
  -15.1099997       3.84165785E-16
  -15.1000004       5.65629385E-16
  -15.0900002       6.04393160E-16
  -15.0799999       3.70692084E-16
  -15.0699997      -2.26430356E-16
  -15.0600004      -1.16518117E-15
  -15.0500002      -2.24003856E-15
  -15.0400000      -3.03093397E-15
  -15.0299997      -2.95542840E-15
  -15.0200005      -1.43508049E-15
  -15.0100002       1.82727241E-15
  -15.0000000       6.51784441E-15
  -14.9899998       1.14510435E-14
  -14.9799995       1.45435388E-14
  -14.9700003       1.31843770E-14
  -14.9600000       5.07942958E-15
  -14.9499998      -1.05205676E-14
  -14.9399996      -3.15275895E-14
  -14.9300003      -5.21974601E-14
  -14.9200001      -6.34269655E-14
  -14.9099998      -5.46883333E-14
  -14.8999996      -1.77034477E-14
  -14.8900003       4.87370662E-14
  -14.8800001       1.34226777E-13
  -14.8699999       2.14543999E-13
  -14.8599997       2.54001383E-13
  -14.8500004       2.13807894E-13
  -14.8400002       6.61720705E-14
  -14.8299999      -1.88633627E-13
  -14.8199997      -5.07655983E-13
  -14.8100004      -8.00221109E-13
  -14.8000002      -9.39271555E-13
  -14.7900000      -7.92651101E-13
  -14.7799997      -2.71714617E-13
  -14.7700005       6.13419146E-13
  -14.7600002       1.71023330E-12
  -14.7500000       2.71395168E-12
  -14.7399998       3.21065787E-12
  -14.7299995       2.78094561E-12
  -14.7200003       1.15205024E-12
  -14.7100000      -1.63703632E-12
  -14.6999998      -5.11292658E-12
  -14.6899996      -8.35065697E-12
  -14.6800003      -1.01121654E-11
  -14.6700001      -9.15416701E-12
  -14.6599998      -4.66329449E-12
  -14.6499996       3.28605329E-12
  -14.6400003       1.34041892E-11
  -14.6300001       2.31539423E-11
  -14.6199999       2.91363461E-11
  -14.6099997       2.79155865E-11
  -14.6000004       1.71595255E-11
  -14.5900002      -3.18054415E-12
  -14.5799999      -3.00369521E-11
  -14.5699997      -5.71393280E-11
  -14.5600004      -7.59560678E-11
  -14.5500002      -7.76917419E-11
  -14.5400000      -5.60250561E-11
  -14.5299997      -9.92642774E-12
  -14.5200005       5.43368510E-11
  -14.5100002       1.22904062E-10
  -14.5000000       1.76339207E-10
  -14.4899998       1.93996250E-10
  -14.4799995       1.60018193E-10
  -14.4700003       6.95346281E-11
  -14.4600000      -6.68295558E-11
  -14.4499998      -2.21987664E-10
  -14.4399996      -3.56184804E-10
  -14.4300003      -4.25585067E-10
  -14.4200001      -3.94200311E-10
  -14.4099998      -2.46325321E-10
  -14.3999996       4.17429546E-12
  -14.3900003       3.11232512E-10
  -14.3800001       6.02856931E-10
  -14.3699999       7.96314015E-10
  -14.3599997       8.19522894E-10
  -14.3500004       6.33530117E-10
  -14.3400002       2.49613497E-10
  -14.3299999      -2.65029609E-10
  -14.3199997      -7.96710198E-10
  -14.3100004      -1.20958699E-09
  -14.3000002      -1.38018175E-09
  -14.2900000      -1.23348520E-09
  -14.2799997      -7.70220165E-10
  -14.2700005      -7.58953941E-11
  -14.2600002       6.93579638E-10
  -14.2500000       1.34855616E-09
  -14.2399998       1.71641346E-09
  -14.2299995       1.69275682E-09
  -14.2200003       1.27735778E-09
  -14.2100000       5.81773629E-10
  -14.1999998      -1.97237726E-10
  -14.1899996      -8.34281366E-10
  -14.1800003      -1.14736687E-09
  -14.1700001      -1.06376363E-09
  -14.1599998      -6.56749377E-10
  -14.1499996      -1.36316583E-10
  -14.1400003       2.10624518E-10
  -14.1300001       1.18975649E-10
  -14.1199999      -5.43492973E-10
  -14.1099997      -1.68846381E-09
  -14.1000004      -2.97773251E-09
  -14.0900002      -3.87513044E-09
  -14.0799999      -3.78108878E-09
  -14.0699997      -2.22516250E-09
  -14.0600004       9.31564603E-10
  -14.0500002       5.34551603E-09
  -14.0400000       1.01497717E-08
  -14.0299997       1.40615315E-08
  -14.0200005       1.56406443E-08
  -14.0100002       1.36591805E-08
  -14.0000000       7.50258611E-09
  -13.9899998      -2.50152521E-09
  -13.9799995      -1.49314872E-08
  -13.9700003      -2.73738152E-08
  -13.9600000      -3.68044617E-08
  -13.9499998      -4.02063769E-08
  -13.9399996      -3.53129295E-08
  -13.9300003      -2.13158291E-08
  -13.9200001       6.42652487E-10
  -13.9099998       2.73507208E-08
  -13.8999996       5.38748282E-08
  -13.8900003       7.43709663E-08
  -13.8800001       8.32463201E-08
  -13.8699999       7.64582353E-08
  -13.8599997       5.26731831E-08
  -13.8500004       1.39992364E-08
  -13.8400002      -3.39383242E-08
  -13.8299999      -8.26914643E-08
  -13.8199997      -1.22407258E-07
  -13.8100004      -1.43751080E-07
  -13.8000002      -1.39972514E-07
  -13.7900000      -1.08670392E-07
  -13.7799997      -5.28244009E-08
  -13.7700005       1.92270502E-08
  -13.7600002       9.49811181E-08
  -13.7500000       1.60000880E-07
  -13.7399998       2.00790566E-07
  -13.7299995       2.07731674E-07
  -13.7200003       1.77417775E-07
  -13.7100000       1.13798464E-07
  -13.6999998       2.77646404E-08
  -13.6899996      -6.48563017E-08
  -13.6800003      -1.46547109E-07
  -13.6700001      -2.01907298E-07
  -13.6599998      -2.21141036E-07
  -13.6499996      -2.02352140E-07
  -13.6400003      -1.52000339E-07
  -13.6300001      -8.32902955E-08
  -13.6199999      -1.27824684E-08
  -13.6099997       4.39923369E-08
  -13.6000004       7.67985497E-08
  -13.5900002       8.36570422E-08
  -13.5799999       7.15625248E-08
  -13.5699997       5.45461596E-08
  -13.5600004       4.93728365E-08
  -13.5500002       6.98643348E-08
  -13.5400000       1.21351533E-07
  -13.5299997       1.96918265E-07
  -13.5200005       2.76819577E-07
  -13.5100002       3.31758855E-07
  -13.5000000       3.29728948E-07
  -13.4899998       2.45089495E-07
  -13.4799995       6.77371546E-08
  -13.4700003      -1.90129825E-07
  -13.4600000      -4.91890034E-07
  -13.4499998      -7.80375387E-07
  -13.4399996      -9.87743988E-07
  -13.4300003      -1.04981200E-06
  -13.4200001      -9.21963135E-07
  -13.4099998      -5.92960077E-07
  -13.3999996      -9.30127371E-08
  -13.3900003       5.06608444E-07
  -13.3800001       1.10341830E-06
  -13.3699999       1.58187629E-06
  -13.3599997       1.83661268E-06
  -13.3500004       1.79592621E-06
  -13.3400002       1.44020623E-06
  -13.3299999       8.10602160E-07
  -13.3199997       5.11017850E-09
  -13.3100004      -8.38070605E-07
  -13.3000002      -1.56710018E-06
  -13.2900000      -2.04763728E-06
  -13.2799997      -2.19174603E-06
  -13.2700005      -1.97779855E-06
  -13.2600002      -1.45627644E-06
  -13.2500000      -7.39381676E-07
  -13.2399998       2.38833291E-08
  -13.2299995       6.81908034E-07
  -13.2200003       1.11609188E-06
  -13.2100000       1.26921157E-06
  -13.1999998       1.15911359E-06
  -13.1899996       8.73499289E-07
  -13.1800003       5.46076365E-07
  -13.1700001       3.19115401E-07
  -13.1599998       3.01339242E-07
  -13.1499996       5.31987723E-07
  -13.1400003       9.61222099E-07
  -13.1300001       1.45368540E-06
  -13.1199999       1.81663881E-06
  -13.1099997       1.84783403E-06
  -13.1000004       1.39266410E-06
  -13.0900002       3.96642520E-07
  -13.0799999      -1.06101947E-06
  -13.0699997      -2.76367905E-06
  -13.0600004      -4.38793313E-06
  -13.0500002      -5.56511304E-06
  -13.0400000      -5.96196833E-06
  -13.0299997      -5.36298603E-06
  -13.0200005      -3.73462103E-06
  -13.0100002      -1.25423378E-06
  -13.0000000       1.70657290E-06
  -12.9899998       4.64444793E-06
  -12.9799995       7.02190937E-06
  -12.9700003       8.38008509E-06
  -12.9600000       8.44143142E-06
  -12.9499998       7.17777084E-06
  -12.9399996       4.82550240E-06
  -12.9300003       1.84122075E-06
  -12.9200001      -1.19518745E-06
  -12.9099998      -3.70979592E-06
  -12.8999996      -5.26693566E-06
  -12.8900003      -5.67263805E-06
  -12.8800001      -5.02234434E-06
  -12.8699999      -3.67796815E-06
  -12.8599997      -2.17590991E-06
  -12.8500004      -1.08492679E-06
  -12.8400002      -8.46674595E-07
  -12.8299999      -1.63857328E-06
  -12.8199997      -3.29617524E-06
  -12.8100004      -5.32032527E-06
  -12.8000002      -6.97526139E-06
  -12.7900000      -7.46156411E-06
  -12.7799997      -6.12771146E-06
  -12.7700005      -2.67102519E-06
  -12.7600002       2.72323496E-06
  -12.7500000       9.34560467E-06
  -12.7399998       1.60489053E-05
  -12.7299995       2.14497486E-05
  -12.7200003       2.42092938E-05
  -12.7100000       2.33356204E-05
  -12.6999998       1.84401288E-05
  -12.6899996       9.88563443E-06
  -12.6800003      -1.21610549E-06
  -12.6700001      -1.31682464E-05
  -12.6599998      -2.39890123E-05
  -12.6499996      -3.17906233E-05
  -12.6400003      -3.51583585E-05
  -12.6300001      -3.34469951E-05
  -12.6199999      -2.69264256E-05
  -12.6099997      -1.67392318E-05
  -12.6000004      -4.67383643E-06
  -12.5900002       7.20130811E-06
  -12.5799999       1.69641844E-05
  -12.5699997       2.32319671E-05
  -12.5600004       2.54310253E-05
  -12.5500002       2.38813045E-05
  -12.5400000       1.96740057E-05
  -12.5299997       1.43694842E-05
  -12.5200005       9.58533656E-06
  -12.5100002       6.57267492E-06
  -12.5000000       5.88388411E-06
  -12.4899998       7.21625020E-06
  -12.4799995       9.47586250E-06
  -12.4700003       1.10542087E-05
  -12.4600000       1.02577696E-05
  -12.4499998       5.79106563E-06
  -12.4399996      -2.82394603E-06
  -12.4300003      -1.49995622E-05
  -12.4200001      -2.90768003E-05
  -12.4099998      -4.25801409E-05
  -12.3999996      -5.26893818E-05
  -12.3900003      -5.68324722E-05
  -12.3800001      -5.32705017E-05
  -12.3699999      -4.15421055E-05
  -12.3599997      -2.26608990E-05
  -12.3500004       9.88456236E-07
  -12.3400002       2.60443248E-05
  -12.3299999       4.87760153E-05
  -12.3199997       6.57801065E-05
  -12.3100004       7.46179721E-05
  -12.3000002       7.42584161E-05
  -12.2900000       6.52314920E-05
  -12.2799997       4.94629603E-05
  -12.2700005       2.98299801E-05
  -12.2600002       9.54025018E-06
  -12.2500000      -8.52451194E-06
  -12.2399998      -2.23539082E-05
  -12.2299995      -3.11237891E-05
  -12.2200003      -3.52169882E-05
  -12.2100000      -3.59559017E-05
  -12.1999998      -3.51213384E-05
  -12.1899996      -3.43821848E-05
  -12.1800003      -3.47810746E-05
  -12.1700001      -3.64066873E-05
  -12.1599998      -3.83375082E-05
  -12.1499996      -3.88748776E-05
  -12.1400003      -3.60113845E-05
  -12.1300001      -2.80211207E-05
  -12.1199999      -1.40253642E-05
  -12.1099997       5.61085517E-06
  -12.1000004       2.91586803E-05
  -12.0900002       5.37258056E-05
  -12.0799999       7.57457237E-05
  -12.0699997       9.16547215E-05
  -12.0600004       9.86087471E-05
  -12.0500002       9.50790418E-05
  -12.0400000       8.11904247E-05
  -12.0299997       5.87230061E-05
  -12.0200005       3.07738592E-05
  -12.0100002       1.15335683E-06
  -12.0000000      -2.63490474E-05
  -11.9899998      -4.86650315E-05
  -11.9799995      -6.39582795E-05
  -11.9700003      -7.18363372E-05
  -11.9600000      -7.32253393E-05
  -11.9499998      -6.99498778E-05
  -11.9399996      -6.41306178E-05
  -11.9300003      -5.75554368E-05
  -11.9200001      -5.11848557E-05
  -11.9099998      -4.49189574E-05
  -11.8999996      -3.76870667E-05
  -11.8900003      -2.78403350E-05
  -11.8800001      -1.37494644E-05
  -11.8699999       5.54524831E-06
  -11.8599997       2.98031300E-05
  -11.8500004       5.73200778E-05
  -11.8400002       8.50218057E-05
  -11.8299999       1.08918292E-04
  -11.8199997       1.24837199E-04
  -11.8100004       1.29282969E-04
  -11.8000002       1.20231824E-04
  -11.7900000       9.76788942E-05
  -11.7799997       6.38031634E-05
  -11.7700005       2.26967586E-05
  -11.7600002      -2.02995834E-05
  -11.7500000      -5.95256352E-05
  -11.7399998      -9.00061932E-05
  -11.7299995      -1.08323453E-04
  -11.7200003      -1.13176800E-04
  -11.7100000      -1.05516898E-04
  -11.6999998      -8.82327440E-05
  -11.6899996      -6.54660253E-05
  -11.6800003      -4.17062329E-05
  -11.6700001      -2.08635975E-05
  -11.6599998      -5.51752873E-06
  -11.6499996       3.50509004E-06
  -11.6400003       7.14308362E-06
  -11.6300001       7.71825398E-06
  -11.6199999       8.25538609E-06
  -11.6099997       1.16654764E-05
  -11.6000004       1.99776769E-05
  -11.5900002       3.37889505E-05
  -11.5799999       5.20477770E-05
  -11.5699997       7.22122568E-05
  -11.5600004       9.07411304E-05
  -11.5500002       1.03806851E-04
  -11.5400000       1.08076922E-04
  -11.5299997       1.01401871E-04
  -11.5200005       8.32741352E-05
  -11.5100002       5.49750112E-05
  -11.5000000       1.93934484E-05
  -11.4899998      -1.94348613E-05
  -11.4799995      -5.69689837E-05
  -11.4700003      -8.88596478E-05
  -11.4600000      -1.11576774E-04
  -11.4499998      -1.22867568E-04
  -11.4399996      -1.21985468E-04
  -11.4300003      -1.09677239E-04
  -11.4200001      -8.79577419E-05
  -11.4099998      -5.97327817E-05
  -11.3999996      -2.83454501E-05
  -11.3900003       2.87885246E-06
  -11.3800001       3.10265459E-05
  -11.3699999       5.38863023E-05
  -11.3599997       7.01145618E-05
  -11.3500004       7.92740539E-05
  -11.3400002       8.17577456E-05
  -11.3299999       7.86205710E-05
  -11.3199997       7.13471891E-05
  -11.3100004       6.15879399E-05
  -11.3000002       5.08967933E-05
  -11.2900000       4.05057654E-05
  -11.2799997       3.11676158E-05
  -11.2700005       2.30916703E-05
  -11.2600002       1.59860556E-05
  -11.2500000       9.20259026E-06
  -11.2399998       1.96149836E-06
  -11.2299995      -6.38525489E-06
  -11.2200003      -1.61057651E-05
  -11.2100000      -2.69117209E-05
  -11.1999998      -3.79009871E-05
  -11.1899996      -4.76454697E-05
  -11.1800003      -5.44208051E-05
  -11.1700001      -5.65421833E-05
  -11.1599998      -5.27432094E-05
  -11.1499996      -4.25188264E-05
  -11.1400003      -2.63538350E-05
  -11.1300001      -5.77668698E-06
  -11.1199999       1.67890285E-05
  -11.1099997       3.83619335E-05
  -11.1000004       5.58752363E-05
  -11.0900002       6.66994092E-05
  -11.0799999       6.91163732E-05
  -11.0699997       6.26522378E-05
  -11.0600004       4.82012765E-05
  -11.0500002       2.79128908E-05
  -11.0400000       4.85884811E-06
  -11.0299997      -1.74604484E-05
  -11.0200005      -3.56820892E-05
  -11.0100002      -4.71187304E-05
  -11.0000000      -5.01754403E-05
  -10.9899998      -4.45766927E-05
  -10.9799995      -3.13707387E-05
  -10.9700003      -1.27187377E-05
  -10.9600000       8.48766285E-06
  -10.9499998       2.91098859E-05
  -10.9399996       4.62636744E-05
  -10.9300003       5.77561186E-05
  -10.9200001       6.23912565E-05
  -10.9099998       6.01013562E-05
  -10.8999996       5.18902780E-05
  -10.8900003       3.96056930E-05
  -10.8800001       2.55829545E-05
  -10.8699999       1.22227457E-05
  -10.8599997       1.57414615E-06
  -10.8500004      -5.00668693E-06
  -10.8400002      -7.06467063E-06
  -10.8299999      -5.08533185E-06
  -10.8199997      -3.59282183E-07
  -10.8100004       5.30365060E-06
  -10.8000002       9.95765367E-06
  -10.7900000       1.19290262E-05
  -10.7799997       1.01700134E-05
  -10.7700005       4.48794663E-06
  -10.7600002      -4.39738005E-06
  -10.7500000      -1.49814878E-05
  -10.7399998      -2.52638147E-05
  -10.7299995      -3.31394185E-05
  -10.7200003      -3.68144611E-05
  -10.7100000      -3.51612252E-05
  -10.6999998      -2.79419583E-05
  -10.6899996      -1.58593193E-05
  -10.6800003      -4.28515989E-07
  -10.6700001       1.62966862E-05
  -10.6599998       3.20833606E-05
  -10.6499996       4.48898900E-05
  -10.6400003       5.31767182E-05
  -10.6300001       5.61054403E-05
  -10.6199999       5.36026237E-05
  -10.6099997       4.62948883E-05
  -10.6000004       3.53466130E-05
  -10.5900002       2.22450672E-05
  -10.5799999       8.57911436E-06
  -10.5699997      -4.15235263E-06
  -10.5600004      -1.46819320E-05
  -10.5500002      -2.20614274E-05
  -10.5400000      -2.57039228E-05
  -10.5299997      -2.53931485E-05
  -10.5200005      -2.12711748E-05
  -10.5100002      -1.38090209E-05
  -10.5000000      -3.75857280E-06
  -10.4899998       7.91855473E-06
  -10.4799995       2.01468320E-05
  -10.4700003       3.18513084E-05
  -10.4600000       4.20754041E-05
  -10.4499998       5.00797614E-05
  -10.4399996       5.53994105E-05
  -10.4300003       5.78443287E-05
  -10.4200001       5.74432706E-05
  -10.4099998       5.43487622E-05
  -10.3999996       4.87361140E-05
  -10.3900003       4.07353800E-05
  -10.3800001       3.04288988E-05
  -10.3699999       1.79280396E-05
  -10.3599997       3.51558856E-06
  -10.3500004      -1.21875300E-05
  -10.3400002      -2.80917611E-05
  -10.3299999      -4.26082406E-05
  -10.3199997      -5.37647938E-05
  -10.3100004      -5.94804951E-05
  -10.3000002      -5.79656262E-05
  -10.2900000      -4.81698989E-05
  -10.2799997      -3.01724140E-05
  -10.2700005      -5.40174460E-06
  -10.2600002       2.34008367E-05
  -10.2500000       5.25109645E-05
  -10.2399998       7.78123213E-05
  -10.2299995       9.55502182E-05
  -10.2200003       1.03097671E-04
  -10.2100000       9.95641385E-05
  -10.1999998       8.60965520E-05
  -10.1899996       6.57788114E-05
  -10.1800003       4.31189255E-05
  -10.1700001       2.32045168E-05
  -10.1599998       1.06859952E-05
  -10.1499996       8.79357503E-06
  -10.1400003       1.85975623E-05
  -10.1300001       3.86780448E-05
  -10.1199999       6.52890449E-05
  -10.1099997       9.30006136E-05
  -10.1000004       1.15702293E-04
  -10.0900002       1.27774634E-04
  -10.0799999       1.25199324E-04
  -10.0699997       1.06389452E-04
  -10.0600004       7.25776335E-05
  -10.0500002       2.76878491E-05
  -10.0400000      -2.22825838E-05
  -10.0299997      -7.02515608E-05
  -10.0200005      -1.09226668E-04
  -10.0100002      -1.33453155E-04
  -10.0000000      -1.39337179E-04
  -9.98999977      -1.25995313E-04
  -9.97999954      -9.53541894E-05
  -9.97000027      -5.18036832E-05
  -9.96000004      -1.47972980E-06
  -9.94999981       4.86944155E-05
  -9.93999958       9.20524253E-05
  -9.93000031       1.23157530E-04
  -9.92000008       1.38567106E-04
  -9.90999985       1.37289418E-04
  -9.89999962       1.20878009E-04
  -9.89000034       9.31569011E-05
  -9.88000011       5.96158206E-05
  -9.86999989       2.65559102E-05
  -9.85999966       1.00927764E-07
  -9.85000038      -1.47882192E-05
  -9.84000015      -1.51487011E-05
  -9.82999992      -5.63957144E-07
  -9.81999969       2.66800180E-05
  -9.81000042       6.18814884E-05
  -9.80000019       9.86341329E-05
  -9.78999996       1.29867214E-04
  -9.77999973       1.49050960E-04
  -9.77000046       1.51358370E-04
  -9.76000023       1.34566726E-04
  -9.75000000       9.95174196E-05
  -9.73999977       5.00282258E-05
  -9.72999954      -7.74321597E-06
  -9.72000027      -6.63754399E-05
  -9.71000004      -1.18495089E-04
  -9.69999981      -1.58067487E-04
  -9.68999958      -1.81408235E-04
  -9.68000031      -1.87714948E-04
  -9.67000008      -1.79019829E-04
  -9.65999985      -1.59588599E-04
  -9.64999962      -1.34910108E-04
  -9.64000034      -1.10506378E-04
  -9.63000011      -9.08247821E-05
  -9.61999989      -7.84460426E-05
  -9.60999966      -7.37600203E-05
  -9.60000038      -7.51483676E-05
  -9.59000015      -7.95952001E-05
  -9.57999992      -8.35538594E-05
  -9.56999969      -8.38501001E-05
  -9.56000042      -7.84096555E-05
  -9.55000019      -6.66565102E-05
  -9.53999996      -4.95191453E-05
  -9.52999973      -2.90820608E-05
  -9.52000046      -8.00201815E-06
  -9.51000023       1.11460304E-05
  -9.50000000       2.64288246E-05
  -9.48999977       3.68983856E-05
  -9.47999954       4.26671249E-05
  -9.47000027       4.47377752E-05
  -9.46000004       4.46720442E-05
  -9.44999981       4.42113451E-05
  -9.43999958       4.49559266E-05
  -9.43000031       4.81707575E-05
  -9.42000008       5.47321870E-05
  -9.40999985       6.51772716E-05
  -9.39999962       7.97854227E-05
  -9.39000034       9.86194937E-05
  -9.38000011       1.21480698E-04
  -9.36999989       1.47779079E-04
  -9.35999966       1.76370479E-04
  -9.35000038       2.05444783E-04
  -9.34000015       2.32553284E-04
  -9.32999992       2.54832092E-04
  -9.31999969       2.69420008E-04
  -9.31000042       2.74001271E-04
  -9.30000019       2.67346913E-04
  -9.28999996       2.49705714E-04
  -9.27999973       2.22914896E-04
  -9.27000046       1.90163148E-04
  -9.26000023       1.55428454E-04
  -9.25000000       1.22703335E-04
  -9.23999977       9.51867914E-05
  -9.22999954       7.46411170E-05
  -9.22000027       6.10766219E-05
  -9.21000004       5.28446690E-05
  -9.19999981       4.71136736E-05
  -9.18999958       4.06021863E-05
  -9.18000031       3.03794695E-05
  -9.17000008       1.45340791E-05
  -9.15999985      -7.44179488E-06
  -9.14999962      -3.46165070E-05
  -9.14000034      -6.48946007E-05
  -9.13000011      -9.54843781E-05
  -9.11999989      -1.23400168E-04
  -9.10999966      -1.45858590E-04
  -9.10000038      -1.60491152E-04
  -9.09000015      -1.65380668E-04
  -9.07999992      -1.59004863E-04
  -9.06999969      -1.40208183E-04
  -9.06000042      -1.08307657E-04
  -9.05000019      -6.33740201E-05
  -9.03999996      -6.63798846E-06
  -9.02999973       5.91139651E-05
  -9.02000046       1.29335065E-04
  -9.01000023       1.97870148E-04
  -9.00000000       2.57550477E-04
  -8.98999977       3.01195367E-04
  -8.97999954       3.22854234E-04
  -8.97000027       3.19025159E-04
  -8.96000004       2.89553049E-04
  -8.94999981       2.37960237E-04
  -8.93999958       1.71079184E-04
  -8.93000031       9.80188488E-05
  -8.92000008       2.86539962E-05
  -8.90999985      -2.80578934E-05
  -8.89999962      -6.55850308E-05
  -8.89000034      -8.08492114E-05
  -8.88000011      -7.45782672E-05
  -8.86999989      -5.09381207E-05
  -8.85999966      -1.65522724E-05
  -8.85000038       2.08654455E-05
  -8.84000015       5.39777757E-05
  -8.82999992       7.71074192E-05
  -8.81999969       8.71138764E-05
  -8.81000042       8.37373736E-05
  -8.80000019       6.93928887E-05
  -8.78999996       4.84974298E-05
  -8.77999973       2.64878709E-05
  -8.77000046       8.72729834E-06
  -8.76000023      -4.98274858E-07
  -8.75000000       1.28114868E-06
  -8.73999977       1.43636134E-05
  -8.72999954       3.69480476E-05
  -8.72000027       6.56010598E-05
  -8.71000004       9.60088000E-05
  -8.69999981       1.23850725E-04
  -8.68999958       1.45610393E-04
  -8.68000031       1.59156509E-04
  -8.67000008       1.63983539E-04
  -8.65999985       1.61085292E-04
  -8.64999962       1.52524124E-04
  -8.64000034       1.40830933E-04
  -8.63000011       1.28405329E-04
  -8.61999989       1.17070660E-04
  -8.60999966       1.07880012E-04
  -8.60000038       1.01183912E-04
  -8.59000015       9.68869717E-05
  -8.57999992       9.47655062E-05
  -8.56999969       9.47100343E-05
  -8.56000042       9.67972155E-05
  -8.55000019       1.01170095E-04
  -8.53999996       1.07786793E-04
  -8.52999973       1.16154763E-04
  -8.52000046       1.25179577E-04
  -8.51000023       1.33219131E-04
  -8.50000000       1.38357602E-04
  -8.48999977       1.38828836E-04
  -8.47999954       1.33458190E-04
  -8.47000027       1.21976598E-04
  -8.46000004       1.05101695E-04
  -8.44999981       8.43611997E-05
  -8.43999958       6.17257538E-05
  -8.43000031       3.91862013E-05
  -8.42000008       1.84263718E-05
  -8.40999985       6.99801433E-07
  -8.39999962      -1.30686221E-05
  -8.39000034      -2.20343300E-05
  -8.38000011      -2.51880065E-05
  -8.36999989      -2.12766809E-05
  -8.35999966      -8.99788029E-06
  -8.35000038       1.25355591E-05
  -8.34000015       4.31864246E-05
  -8.32999992       8.12582657E-05
  -8.31999969       1.23275167E-04
  -8.31000042       1.64250407E-04
  -8.30000019       1.98479203E-04
  -8.28999996       2.20718546E-04
  -8.27999973       2.27470111E-04
  -8.27000046       2.18010144E-04
  -8.26000023       1.94845255E-04
  -8.25000000       1.63409350E-04
  -8.23999977       1.31019347E-04
  -8.22999954       1.05316307E-04
  -8.22000027       9.25694112E-05
  -8.21000004       9.62677586E-05
  -8.19999981       1.16353083E-04
  -8.18999958       1.49276122E-04
  -8.18000031       1.88842168E-04
  -8.17000008       2.27611221E-04
  -8.15999985       2.58489599E-04
  -8.14999962       2.76127830E-04
  -8.14000034       2.77822342E-04
  -8.13000011       2.63772643E-04
  -8.11999989       2.36724431E-04
  -8.10999966       2.01171977E-04
  -8.10000038       1.62371289E-04
  -8.09000015       1.25409468E-04
  -8.07999992       9.45032152E-05
  -8.06999969       7.25938880E-05
  -8.06000042       6.12085278E-05
  -8.05000019       6.04974193E-05
  -8.03999996       6.93533584E-05
  -8.02999973       8.55564431E-05
  -8.02000046       1.05946456E-04
  -8.01000023       1.26672559E-04
  -8.00000000       1.43582700E-04
  -7.98999977       1.52781970E-04
  -7.98000002       1.51321132E-04
  -7.96999979       1.37898387E-04
  -7.96000004       1.13401009E-04
  -7.94999981       8.11045466E-05
  -7.94000006       4.63971373E-05
  -7.92999983       1.59988795E-05
  -7.92000008      -3.22389883E-06
  -7.90999985      -5.63045114E-06
  -7.90000010       1.19309179E-05
  -7.88999987       4.92675754E-05
  -7.88000011       1.02624617E-04
  -7.86999989       1.65199919E-04
  -7.86000013       2.28322358E-04
  -7.84999990       2.83068250E-04
  -7.84000015       3.21982661E-04
  -7.82999992       3.40537255E-04
  -7.82000017       3.38008191E-04
  -7.80999994       3.17580969E-04
  -7.80000019       2.85657530E-04
  -7.78999996       2.50514888E-04
  -7.78000021       2.20605070E-04
  -7.76999998       2.02858093E-04
  -7.76000023       2.01343297E-04
  -7.75000000       2.16555156E-04
  -7.73999977       2.45448406E-04
  -7.73000002       2.82180874E-04
  -7.71999979       3.19374463E-04
  -7.71000004       3.49605631E-04
  -7.69999981       3.66809982E-04
  -7.69000006       3.67328204E-04
  -7.67999983       3.50422517E-04
  -7.67000008       3.18218954E-04
  -7.65999985       2.75153841E-04
  -7.65000010       2.27091674E-04
  -7.63999987       1.80316856E-04
  -7.63000011       1.40586664E-04
  -7.61999989       1.12379559E-04
  -7.61000013       9.84036451E-05
  -7.59999990       9.93700814E-05
  -7.59000015       1.13999209E-04
  -7.57999992       1.39221534E-04
  -7.57000017       1.70549407E-04
  -7.55999994       2.02610972E-04
  -7.55000019       2.29840472E-04
  -7.53999996       2.47294549E-04
  -7.53000021       2.51515041E-04
  -7.51999998       2.41301692E-04
  -7.51000023       2.18216228E-04
  -7.50000000       1.86642166E-04
  -7.48999977       1.53280678E-04
  -7.48000002       1.26077255E-04
  -7.46999979       1.12719972E-04
  -7.46000004       1.18987773E-04
  -7.44999981       1.47316649E-04
  -7.44000006       1.95952220E-04