  -16.0000000       0.00000000    
  -15.9899998       0.00000000    
  -15.9799995       0.00000000    
  -15.9700003       0.00000000    
  -15.9600000       0.00000000    
  -15.9499998       0.00000000    
  -15.9399996       0.00000000    
  -15.9300003       0.00000000    
  -15.9200001       0.00000000    
  -15.9099998       0.00000000    
  -15.8999996      -1.59355661E-41
  -15.8900003      -6.69626166E-39
  -15.8800001      -9.34243500E-38
  -15.8699999      -5.92627685E-37
  -15.8599997      -2.05801589E-36
  -15.8500004      -3.32117512E-36
  -15.8400002       6.97194146E-37
  -15.8299999      -1.36560674E-35
  -15.8199997      -3.05379014E-34
  -15.8100004      -1.99825297E-33
  -15.8000002      -7.96844992E-33
  -15.7900000      -2.14685647E-32
  -15.7799997      -3.39131002E-32
  -15.7700005       1.49069802E-32
  -15.7600002       3.18121944E-31
  -15.7500000       1.29256823E-30
  -15.7399998       3.51666984E-30
  -15.7299995       7.14385194E-30
  -15.7200003       1.02969641E-29
  -15.7100000       6.34413135E-30
  -15.6999998      -1.85192714E-29
  -15.6899996      -8.30697881E-29
  -15.6800003      -1.96953793E-28
  -15.6700001      -3.28359163E-28
  -15.6599998      -3.58493924E-28
  -15.6499996      -5.45913148E-29
  -15.6400003       8.70480757E-28
  -15.6300001       2.52527645E-27
  -15.6199999       4.39814645E-27
  -15.6099997       4.84946964E-27
  -15.6000004       9.88173277E-28
  -15.5900002      -1.03123256E-26
  -15.5799999      -2.95297569E-26
  -15.5699997      -4.98269939E-26
  -15.5600004      -5.26045424E-26
  -15.5500002      -7.93384221E-27
  -15.5400000       1.13583953E-25
  -15.5299997       3.12670838E-25
  -15.5200005       5.20378160E-25
  -15.5100002       5.63559371E-25
  -15.5000000       1.75086606E-25
  -15.4899998      -9.03206688E-25
  -15.4799995      -2.69525609E-24
  -15.4700003      -4.67726833E-24
  -15.4600000      -5.51940535E-24
  -15.4499998      -3.14648571E-24
  -15.4399996       4.56596755E-24
  -15.4300003       1.82692755E-23
  -15.4200001       3.49968864E-23
  -15.4099998       4.62590465E-23
  -15.3999996       3.79626436E-23
  -15.3900003      -5.89427126E-24
  -15.3800001      -9.43891195E-23
  -15.3699999      -2.16388585E-22
  -15.3599997      -3.27065139E-22
  -15.3500004      -3.42710308E-22
  -15.3400002      -1.55221750E-22
  -15.3299999       3.23845880E-22
  -15.3199997       1.08870701E-21
  -15.3100004       1.95105047E-21
  -15.3000002       2.47882321E-21
  -15.2900000       2.02453424E-21
  -15.2799997      -9.01189839E-23
  -15.2700005      -4.19777076E-21
  -15.2600002      -9.76248899E-21
  -15.2500000      -1.48843251E-20
  -15.2399998      -1.61487870E-20
  -15.2299995      -9.22657612E-21
  -15.2200003       9.44199204E-21
  -15.2100000       3.98761575E-20
  -15.1999998       7.53315775E-20
  -15.1899996       1.00095504E-19
  -15.1800003       9.04934039E-20
  -15.1700001       2.13775314E-20
  -15.1599998      -1.20817703E-19
  -15.1499996      -3.20231962E-19
  -15.1400003      -5.15042096E-19
  -15.1300001      -5.92821216E-19
  -15.1199999      -4.10577456E-19
  -15.1099997       1.51074600E-19
  -15.1000004       1.10169611E-18
  -15.0900002       2.24473347E-18
  -15.0799999       3.11677850E-18
  -15.0699997       3.02495918E-18
  -15.0600004       1.24039042E-18
  -15.0500002      -2.63507835E-18
  -15.0400000      -8.19354160E-18
  -15.0299997      -1.38113032E-17
  -15.0200005      -1.65762660E-17
  -15.0100002      -1.28468685E-17
  -15.0000000       3.82076793E-19
  -14.9899998       2.34319274E-17
  -14.9799995       5.17884282E-17
  -14.9700003       7.48937201E-17
  -14.9600000       7.71844943E-17
  -14.9499998       4.24322412E-17
  -14.9399996      -3.85216158E-17
  -14.9300003      -1.58211501E-16
  -14.9200001      -2.84744181E-16
  -14.9099998      -3.60833839E-16
  -14.8999996      -3.14729915E-16
  -14.8900003      -8.55188882E-17
  -14.8800001       3.40176478E-16
  -14.8699999       8.90552124E-16
  -14.8599997       1.38756946E-15
  -14.8500004       1.56305086E-15
  -14.8400002       1.12750186E-15
  -14.8299999      -1.08189315E-16
  -14.8199997      -2.08277651E-15
  -14.8100004      -4.35892684E-15
  -14.8000002      -6.09411830E-15
  -14.7900000      -6.17850226E-15
  -14.7799997      -3.57463404E-15
  -14.7700005       2.17738522E-15
  -14.7600002       1.04206957E-14
  -14.7500000       1.90282140E-14
  -14.7399998       2.44939617E-14
  -14.7299995       2.26743385E-14
  -14.7200003       1.02120655E-14
  -14.7100000      -1.36020591E-14
  -14.6999998      -4.50912264E-14
  -14.6899996      -7.53796778E-14
  -14.6800003      -9.13272415E-14
  -14.6700001      -7.87190950E-14
  -14.6599998      -2.75351539E-14
  -14.6499996       6.18227800E-14
  -14.6400003       1.73410291E-13
  -14.6300001       2.74340934E-13
  -14.6199999       3.19471771E-13
  -14.6099997       2.63217616E-13
  -14.6000004       7.71894755E-14
  -14.5900002      -2.30548301E-13
  -14.5799999      -6.01360053E-13
  -14.5699997      -9.24865653E-13
  -14.5600004      -1.05699455E-12
  -14.5500002      -8.58945835E-13
  -14.5400000      -2.51516120E-13
  -14.5299997       7.28926197E-13
  -14.5200005       1.89296539E-12
  -14.5100002       2.90086358E-12
  -14.5000000       3.32132846E-12
  -14.4899998       2.74809906E-12
  -14.4799995       9.55828407E-13
  -14.4700003      -1.94481909E-12
  -14.4600000      -5.40842197E-12
  -14.4499998      -8.46951936E-12
  -14.4399996      -9.90979260E-12
  -14.4300003      -8.57808529E-12
  -14.4200001      -3.81065362E-12
  -14.4099998       4.15498235E-12
  -14.3999996       1.39159656E-11
  -14.3900003       2.29339221E-11
  -14.3800001       2.79550376E-11
  -14.3699999       2.58199070E-11
  -14.3599997       1.45329634E-11
  -14.3500004      -5.66906157E-12
  -14.3400002      -3.15982761E-11
  -14.3299999      -5.70982393E-11
  -14.3199997      -7.39701495E-11
  -14.3100004      -7.38615905E-11
  -14.3000002      -5.08368903E-11
  -14.2900000      -4.04261997E-12
  -14.2799997       6.03335160E-11
  -14.2700005       1.28643804E-10
  -14.2600002       1.81516455E-10
  -14.2500000       1.97888567E-10
  -14.2399998       1.60820135E-10
  -14.2299995       6.38782013E-11
  -14.2200003      -8.36530567E-11
  -14.2100000      -2.54642862E-10
  -14.1999998      -4.06614215E-10
  -14.1899996      -4.89502938E-10
  -14.1800003      -4.57938631E-10
  -14.1700001      -2.85779261E-10
  -14.1599998       2.06687913E-11
  -14.1499996       4.14932505E-10
  -14.1400003       8.11931244E-10
  -14.1300001       1.10097143E-09
  -14.1199999       1.16966514E-09
  -14.1099997       9.35022171E-10
  -14.1000004       3.74908660E-10
  -14.0900002      -4.48863280E-10
  -14.0799999      -1.38454315E-09
  -14.0699997      -2.20780105E-09
  -14.0600004      -2.66382449E-09
  -14.0500002      -2.52901633E-09
  -14.0400000      -1.68036318E-09
  -14.0299997      -1.55364763E-10
  -14.0200005       1.81639004E-09
  -14.0100002       3.82588006E-09
  -14.0000000       5.34925837E-09
  -13.9899998       5.85977311E-09
  -13.9799995       4.96825825E-09
  -13.9700003       2.56102584E-09
  -13.9600000      -1.10285714E-09
  -13.9499998      -5.37095435E-09
  -13.9399996      -9.27725097E-09
  -13.9300003      -1.17243308E-08
  -13.9200001      -1.17425980E-08
  -13.9099998      -8.77448070E-09
  -13.8999996      -2.91308089E-09
  -13.8900003       4.97871433E-09
  -13.8800001       1.33265967E-08
  -13.8699999       2.01033146E-08
  -13.8599997       2.32608706E-08
  -13.8500004       2.12578382E-08
  -13.8400002       1.35613369E-08
  -13.8299999       9.85640458E-10
  -13.8199997      -1.42545895E-08
  -13.8100004      -2.88460651E-08
  -13.8000002      -3.90219981E-08
  -13.7900000      -4.14452046E-08
  -13.7799997      -3.41408288E-08
  -13.7700005      -1.72426340E-08
  -13.7600002       6.67593625E-09
  -13.7500000       3.28450831E-08
  -13.7399998       5.51506751E-08
  -13.7299995       6.74741472E-08
  -13.7200003       6.52502052E-08
  -13.7100000       4.68706070E-08
  -13.6999998       1.45432884E-08
  -13.6899996      -2.57017980E-08
  -13.6800003      -6.49915393E-08
  -13.6700001      -9.34651965E-08
  -13.6599998      -1.02651605E-07
  -13.6499996      -8.78234374E-08
  -13.6400003      -4.97112218E-08
  -13.6300001       4.95959718E-09
  -13.6199999       6.44113243E-08
  -13.6099997       1.14191671E-07
  -13.6000004       1.40558555E-07
  -13.5900002       1.34121422E-07
  -13.5799999       9.28207342E-08
  -13.5699997       2.33793251E-08
  -13.5600004      -5.93530203E-08
  -13.5500002      -1.35262681E-07
  -13.5400000      -1.83577569E-07
  -13.5299997      -1.88232192E-07
  -13.5200005      -1.42684584E-07
  -13.5100002      -5.28536290E-08
  -13.5000000       6.28328252E-08
  -13.4899998       1.76662240E-07
  -13.4799995       2.57711605E-07
  -13.4700003       2.79553831E-07
  -13.4600000       2.27799617E-07
  -13.4499998       1.05495246E-07
  -13.4399996      -6.52986714E-08
  -13.4300003      -2.46645072E-07
  -13.4200001      -3.92380883E-07
  -13.4099998      -4.58891520E-07
  -13.3999996      -4.16648675E-07
  -13.3900003      -2.59665939E-07
  -13.3800001      -1.02076951E-08
  -13.3699999       2.83030573E-07
  -13.3599997       5.53616246E-07
  -13.3500004       7.31600721E-07
  -13.3400002       7.60372700E-07
  -13.3299999       6.12252904E-07
  -13.3199997       2.98809454E-07
  -13.3100004      -1.27263377E-07
  -13.3000002      -5.80109997E-07
  -13.2900000      -9.57639372E-07
  -13.2799997      -1.16421347E-06
  -13.2700005      -1.13413842E-06
  -13.2600002      -8.50293020E-07
  -13.2500000      -3.52863083E-07
  -13.2399998       2.64906731E-07
  -13.2299995       8.74117347E-07
  -13.2200003       1.33772267E-06
  -13.2100000       1.54230884E-06
  -13.1999998       1.42673321E-06
  -13.1899996       1.00034026E-06
  -13.1800003       3.45426940E-07
  -13.1700001      -3.97901232E-07
  -13.1599998      -1.06210541E-06
  -13.1499996      -1.49143648E-06
  -13.1400003      -1.58087926E-06
  -13.1300001      -1.30502212E-06
  -13.1199999      -7.28805787E-07
  -13.1099997       3.95437727E-09
  -13.1000004       7.03057594E-07
  -13.0900002       1.17874231E-06
  -13.0799999       1.29194279E-06
  -13.0699997       9.95260507E-07
  -13.0600004       3.53222390E-07
  -13.0500002      -4.65291237E-07
  -13.0400000      -1.22304243E-06
  -13.0299997      -1.67219298E-06
  -13.0200005      -1.62094352E-06
  -13.0100002      -9.92665377E-07
  -13.0000000       1.38534958E-07
  -12.9899998       1.54745953E-06
  -12.9799995       2.89653804E-06
  -12.9700003       3.80802499E-06
  -12.9600000       3.95512552E-06
  -12.9499998       3.15133252E-06
  -12.9399996       1.41566625E-06
  -12.9300003      -1.00476916E-06
  -12.9200001      -3.66483459E-06
  -12.9099998      -6.00212661E-06
  -12.8999996      -7.45414900E-06
  -12.8900003      -7.58756141E-06
  -12.8800001      -6.21014715E-06
  -12.8699999      -3.43774082E-06
  -12.8599997       3.03287834E-07
  -12.8500004       4.34379763E-06
  -12.8400002       7.89963451E-06
  -12.8299999       1.02343593E-05
  -12.8199997       1.08219710E-05
  -12.8100004       9.47231274E-06
  -12.8000002       6.38810980E-06
  -12.7900000       2.13667295E-06
  -12.7799997      -2.46173227E-06
  -12.7700005      -6.50719539E-06
  -12.7600002      -9.21773335E-06
  -12.7500000      -1.01059886E-05
  -12.7399998      -9.09250411E-06
  -12.7299995      -6.52602512E-06
  -12.7200003      -3.10213250E-06
  -12.7100000       3.04282253E-07
  -12.6999998       2.85537226E-06
  -12.6899996       3.96419364E-06
  -12.6800003       3.45253261E-06
  -12.6700001       1.61003118E-06
  -12.6599998      -8.65948891E-07
  -12.6499996      -3.04162586E-06
  -12.6400003      -3.99260352E-06
  -12.6300001      -3.06620041E-06
  -12.6199999      -9.39219120E-08
  -12.6099997       4.50470816E-06
  -12.6000004       9.76289266E-06
  -12.5900002       1.43543975E-05
  -12.5799999       1.68943388E-05
  -12.5699997       1.62878368E-05
  -12.5600004       1.20441573E-05
  -12.5500002       4.47558205E-06
  -12.5400000      -5.27834663E-06
  -12.5299997      -1.54230329E-05
  -12.5200005      -2.38538760E-05
  -12.5100002      -2.86073955E-05
  -12.5000000      -2.83214704E-05
  -12.4899998      -2.25984604E-05
  -12.4799995      -1.21801813E-05
  -12.4700003       1.11881911E-06
  -12.4600000       1.47209039E-05
  -12.4499998       2.57836346E-05
  -12.4399996       3.17863814E-05
  -12.4300003       3.10795986E-05
  -12.4200001       2.32735165E-05
  -12.4099998       9.37343430E-06
  -12.3999996      -8.37802327E-06
  -12.3900003      -2.69274024E-05
  -12.3800001      -4.30204091E-05
  -12.3699999      -5.38665699E-05
  -12.3599997      -5.77139981E-05
  -12.3500004      -5.42062771E-05
  -12.3400002      -4.44392463E-05
  -12.3299999      -3.07012015E-05
  -12.3199997      -1.59508127E-05
  -12.3100004      -3.14720842E-06
  -12.3000002       5.41808822E-06
  -12.2900000       8.63546029E-06
  -12.2799997       6.81829533E-06
  -12.2700005       1.61154662E-06
  -12.2600002      -4.41668726E-06
  -12.2500000      -8.41215387E-06
  -12.2399998      -7.95726191E-06
  -12.2299995      -1.71381134E-06
  -12.2200003       1.01663309E-05
  -12.2100000       2.59659537E-05
  -12.1999998       4.26928636E-05
  -12.1899996       5.66842791E-05
  -12.1800003       6.44012034E-05
  -12.1700001       6.32420197E-05
  -12.1599998       5.21944130E-05
  -12.1499996       3.21744301E-05
  -12.1400003       5.96495374E-06
  -12.1300001      -2.22492035E-05
  -12.1199999      -4.76650712E-05
  -12.1099997      -6.58079880E-05
  -12.1000004      -7.34450005E-05
  -12.0900002      -6.92710528E-05
  -12.0799999      -5.42168636E-05
  -12.0699997      -3.13043929E-05
  -12.0600004      -5.06940250E-06
  -12.0500002       1.93368523E-05
  -12.0400000       3.71851893E-05
  -12.0299997       4.51308661E-05
  -12.0200005       4.18985037E-05
  -12.0100002       2.85428541E-05
  -12.0000000       8.22599031E-06
  -11.9899998      -1.44470323E-05
  -11.9799995      -3.43983702E-05
  -11.9700003      -4.71515923E-05
  -11.9600000      -4.97841284E-05
  -11.9499998      -4.15561663E-05
  -11.9399996      -2.40811260E-05
  -11.9300003      -9.99232157E-07
  -11.9200001       2.27791206E-05
  -11.9099998       4.21020704E-05
  -11.8999996       5.26606382E-05
  -11.8900003       5.19001442E-05
  -11.8800001       3.95666902E-05
  -11.8699999       1.77740549E-05
  -11.8599997      -9.42190218E-06
  -11.8500004      -3.68499459E-05
  -11.8400002      -5.92759279E-05
  -11.8299999      -7.24591664E-05
  -11.8199997      -7.39923926E-05
  -11.8100004      -6.37529301E-05
  -11.8000002      -4.38770294E-05
  -11.7900000      -1.82712974E-05
  -11.7799997       8.22773291E-06
  -11.7700005       3.08622148E-05
  -11.7600002       4.59144394E-05
  -11.7500000       5.14199673E-05
  -11.7399998       4.74883782E-05
  -11.7299995       3.61738930E-05
  -11.7200003       2.09354821E-05
  -11.7100000       5.81263976E-06
  -11.6999998      -5.49873812E-06
  -11.6899996      -1.04682294E-05
  -11.6800003      -8.27428357E-06
  -11.6700001       4.41093491E-08
  -11.6599998       1.18545049E-05
  -11.6499996       2.35532189E-05
  -11.6400003       3.14033168E-05
  -11.6300001       3.24039393E-05
  -11.6199999       2.50014491E-05
  -11.6099997       9.48817524E-06
  -11.6000004      -1.19977212E-05
  -11.5900002      -3.58721518E-05
  -11.5799999      -5.78205691E-05
  -11.5699997      -7.36781876E-05
  -11.5600004      -8.02896757E-05
  -11.5500002      -7.61678530E-05
  -11.5400000      -6.18137274E-05
  -11.5299997      -3.96311480E-05
  -11.5200005      -1.34542670E-05
  -11.5100002       1.22138372E-05
  -11.5000000       3.30936928E-05
  -11.4899998       4.59694238E-05
  -11.4799995       4.93043299E-05
  -11.4700003       4.35076508E-05
  -11.4600000       3.08005692E-05
  -11.4499998       1.47119808E-05
  -11.4399996      -6.89991509E-07
  -11.4300003      -1.16715528E-05
  -11.4200001      -1.56322021E-05
  -11.4099998      -1.16656174E-05
  -11.3999996      -7.67888594E-07
  -11.3900003       1.43499246E-05
  -11.3800001       2.98082305E-05
  -11.3699999       4.13557245E-05
  -11.3599997       4.52578533E-05
  -11.3500004       3.90996101E-05
  -11.3400002       2.23416937E-05
  -11.3299999      -3.48332742E-06
  -11.3199997      -3.49781985E-05
  -11.3100004      -6.74563998E-05
  -11.3000002      -9.57788943E-05
  -11.2900000      -1.15293602E-04
  -11.2799997      -1.22697660E-04
  -11.2700005      -1.16655807E-04
  -11.2600002      -9.80536788E-05
  -11.2500000      -6.98344738E-05
  -11.2399998      -3.64474181E-05
  -11.2299995      -3.01269324E-06
  -11.2200003       2.56361909E-05
  -11.2100000       4.58454851E-05
  -11.1999998       5.57934691E-05
  -11.1899996       5.57713938E-05
  -11.1800003       4.80356430E-05
  -11.1700001       3.62595783E-05
  -11.1599998       2.46957443E-05
  -11.1499996       1.72200180E-05
  -11.1400003       1.64565099E-05
  -11.1300001       2.31679187E-05
  -11.1199999       3.60432459E-05
  -11.1099997       5.19328496E-05
  -11.1000004       6.64867184E-05
  -11.0900002       7.50656109E-05
  -11.0799999       7.37350929E-05
  -11.0699997       6.01333159E-05
  -11.0600004       3.40294318E-05
  -11.0500002      -2.54440488E-06
  -11.0400000      -4.56126327E-05
  -11.0299997      -8.99556107E-05
  -11.0200005      -1.30036773E-04
  -11.0100002      -1.60960393E-04
  -11.0000000      -1.79262322E-04
  -10.9899998      -1.83380558E-04
  -10.9799995      -1.73729190E-04
  -10.9700003      -1.52390960E-04
  -10.9600000      -1.22527199E-04
  -10.9499998      -8.76600316E-05
  -10.9399996      -5.09986603E-05
  -10.9300003      -1.49570387E-05
  -10.9200001       1.90477658E-05
  -10.9099998       5.05020580E-05
  -10.8999996       7.94651642E-05
  -10.8900003       1.06113868E-04
  -10.8800001       1.30295361E-04
  -10.8699999       1.51211279E-04
  -10.8599997       1.67315753E-04
  -10.8500004       1.76455476E-04
  -10.8400002       1.76222733E-04
  -10.8299999       1.64446814E-04
  -10.8199997       1.39722557E-04
  -10.8100004       1.01870923E-04
  -10.8000002       5.22408409E-05
  -10.7900000      -6.20931132E-06
  -10.7799997      -6.90779780E-05
  -10.7700005      -1.30925007E-04
  -10.7600002      -1.85871861E-04
  -10.7500000      -2.28325589E-04
  -10.7399998      -2.53732986E-04
  -10.7299995      -2.59256776E-04
  -10.7200003      -2.44265364E-04
  -10.7100000      -2.10541664E-04
  -10.6999998      -1.62149445E-04
  -10.6899996      -1.04945590E-04
  -10.6800003      -4.57875540E-05
  -10.6700001       8.45412887E-06
  -10.6599998       5.19203932E-05
  -10.6499996       8.06466778E-05
  -10.6400003       9.31396062E-05
  -10.6300001       9.05324123E-05
  -10.6199999       7.62812779E-05
  -10.6099997       5.54535582E-05
  -10.6000004       3.37397905E-05
  -10.5900002       1.63754667E-05
  -10.5799999       7.17418561E-06
  -10.5699997       7.84765052E-06
  -10.5600004       1.77281054E-05
  -10.5500002       3.39291582E-05
  -10.5400000       5.19006753E-05
  -10.5299997       6.62680904E-05
  -10.5200005       7.18071969E-05
  -10.5100002       6.43951425E-05
  -10.5000000       4.17926822E-05
  -10.4899998       4.14533997E-06
  -10.4799995      -4.58681752E-05
  -10.4700003      -1.03267310E-04
  -10.4600000      -1.61362870E-04
  -10.4499998      -2.12649567E-04
  -10.4399996      -2.49890989E-04
  -10.4300003      -2.67251104E-04
  -10.4200001      -2.61297624E-04
  -10.4099998      -2.31698417E-04
  -10.3999996      -1.81456882E-04
  -10.3900003      -1.16596493E-04
  -10.3800001      -4.52982822E-05
  -10.3699999       2.33938899E-05
  -10.3599997       8.10826532E-05
  -10.3500004       1.21455894E-04
  -10.3400002       1.41360535E-04
  -10.3299999       1.41275406E-04
  -10.3199997       1.25067032E-04
  -10.3100004       9.90675180E-05
  -10.3000002       7.06692372E-05
  -10.2900000       4.67448153E-05
  -10.2799997       3.22443011E-05
  -10.2700005       2.92783752E-05
  -10.2600002       3.68778856E-05
  -10.2500000       5.14550593E-05
  -10.2399998       6.78231590E-05
  -10.2299995       8.05032905E-05
  -10.2200003       8.49920543E-05
  -10.2100000       7.86942983E-05
  -10.1999998       6.13289885E-05
  -10.1899996       3.47633832E-05
  -10.1800003       2.37740005E-06
  -10.1700001      -3.18314269E-05
  -10.1599998      -6.41505248E-05
  -10.1499996      -9.18398437E-05
  -10.1400003      -1.13468959E-04
  -10.1300001      -1.28881657E-04
  -10.1199999      -1.38869917E-04
  -10.1099997      -1.44704987E-04
  -10.1000004      -1.47684346E-04
  -10.0900002      -1.48815234E-04
  -10.0799999      -1.48685038E-04
  -10.0699997      -1.47495477E-04
  -10.0600004      -1.45185841E-04
  -10.0500002      -1.41557844E-04
  -10.0400000      -1.36339164E-04
  -10.0299997      -1.29172709E-04
  -10.0200005      -1.19569631E-04
  -10.0100002      -1.06895008E-04
  -10.0000000      -9.04502667E-05
  -9.98999977      -6.96782008E-05
  -9.97999954      -4.44574471E-05
  -9.97000027      -1.53985693E-05
  -9.96000004       1.59740575E-05
  -9.94999981       4.72554966E-05
  -9.93999958       7.54525608E-05
  -9.93000031       9.74971554E-05
  -9.92000008       1.10861452E-04
  -9.90999985       1.14106850E-04
  -9.89999962       1.07201078E-04
  -9.89000034       9.14965858E-05
  -9.88000011       6.93618713E-05
  -9.86999989       4.35660404E-05
  -9.85999966       1.65991241E-05
  -9.85000038      -9.86248597E-06
  -9.84000015      -3.51760427E-05
  -9.82999992      -5.95658457E-05
  -9.81999969      -8.36214676E-05
  -9.81000042      -1.07624401E-04
  -9.80000019      -1.30928325E-04
  -9.78999996      -1.51610671E-04
  -9.77999973      -1.66536280E-04
  -9.77000046      -1.71853535E-04
  -9.76000023      -1.63815435E-04
  -9.75000000      -1.39724740E-04
  -9.73999977      -9.87674503E-05
  -9.72999954      -4.25321923E-05
  -9.72000027       2.49033892E-05
  -9.71000004       9.73327988E-05
  -9.69999981       1.67148290E-04
  -9.68999958       2.26300195E-04
  -9.68000031       2.67338735E-04
  -9.67000008       2.84407841E-04
  -9.65999985       2.74090358E-04
  -9.64999962       2.36024323E-04
  -9.64000034       1.73212728E-04
  -9.63000011       9.19426529E-05
  -9.61999989       1.23499160E-06
  -9.60999966      -8.82108070E-05
  -9.60000038      -1.65521225E-04
  -9.59000015      -2.21416441E-04
  -9.57999992      -2.49923207E-04
  -9.56999969      -2.49633624E-04
  -9.56000042      -2.24129835E-04
  -9.55000019      -1.81337993E-04
  -9.53999996      -1.31828958E-04
  -9.52999973      -8.63831738E-05
  -9.52000046      -5.33941347E-05
  -9.51000023      -3.68060464E-05
  -9.50000000      -3.52020252E-05
  -9.48999977      -4.23808269E-05
  -9.47999954      -4.93445514E-05
  -9.47000027      -4.71886742E-05
  -9.46000004      -3.00764805E-05
  -9.44999981       2.59635453E-06
  -9.43999958       4.55415357E-05
  -9.43000031       8.86865309E-05
  -9.42000008       1.19780809E-04
  -9.40999985       1.27758511E-04
  -9.39999962       1.05864587E-04
  -9.39000034       5.36104635E-05
  -9.38000011      -2.30174282E-05
  -9.36999989      -1.13127113E-04
  -9.35999966      -2.03744872E-04
  -9.35000038      -2.82990368E-04
  -9.34000015      -3.42624233E-04
  -9.32999992      -3.79241654E-04
  -9.31999969      -3.93875118E-04
  -9.31000042      -3.90326779E-04
  -9.30000019      -3.72971583E-04
  -9.28999996      -3.44915199E-04
  -9.27999973      -3.07198497E-04
  -9.27000046      -2.59293185E-04
  -9.26000023      -2.00598122E-04
  -9.25000000      -1.32225177E-04
  -9.23999977      -5.82250723E-05
  -9.22999954       1.43969046E-05
  -9.22000027       7.70533225E-05
  -9.21000004       1.21945486E-04
  -9.19999981       1.44596648E-04
  -9.18999958       1.45567217E-04
  -9.18000031       1.30601577E-04
  -9.17000008       1.08990833E-04
  -9.15999985       9.05902634E-05
  -9.14999962       8.24616654E-05
  -9.14000034       8.63135137E-05
  -9.13000011       9.76943775E-05
  -9.11999989       1.07316948E-04
  -9.10999966       1.04148552E-04
  -9.10000038       7.92641149E-05
  -9.09000015       2.91551132E-05
  -9.07999992      -4.26562110E-05
  -9.06999969      -1.26278450E-04
  -9.06000042      -2.08182770E-04
  -9.05000019      -2.75076192E-04
  -9.03999996      -3.17592057E-04
  -9.02999973      -3.32551863E-04
  -9.02000046      -3.23080196E-04
  -9.01000023      -2.96642480E-04
  -9.00000000      -2.61831534E-04
  -8.98999977      -2.25172247E-04
  -8.97999954      -1.89178318E-04
  -8.97000027      -1.52386798E-04
  -8.96000004      -1.11306283E-04
  -8.94999981      -6.34397147E-05
  -8.93999958      -1.00819025E-05
  -8.93000031       4.23702368E-05
  -8.92000008       8.33182785E-05
  -8.90999985       1.00950405E-04
  -8.89999962       8.63514360E-05
  -8.89000034       3.72537652E-05
  -8.88000011      -4.00302451E-05
  -8.86999989      -1.31382301E-04
  -8.85999966      -2.18313711E-04
  -8.85000038      -2.83056870E-04
  -8.84000015      -3.13670171E-04
  -8.82999992      -3.07442766E-04
  -8.81999969      -2.71424506E-04
  -8.81000042      -2.19873429E-04
  -8.80000019      -1.69471503E-04
  -8.78999996      -1.33931448E-04
  -8.77999973      -1.19822755E-04
  -8.77000046      -1.25008854E-04
  -8.76000023      -1.40162592E-04
  -8.75000000      -1.52742650E-04
  -8.73999977      -1.51959364E-04
  -8.72999954      -1.32937901E-04
  -8.72000027      -9.86092418E-05
  -8.71000004      -5.87019931E-05
  -8.69999981      -2.62597150E-05
  -8.68999958      -1.29856535E-05
  -8.68000031      -2.51054462E-05
  -8.67000008      -6.12059812E-05
  -8.65999985      -1.12754053E-04
  -8.64999962      -1.67010134E-04
  -8.64000034      -2.11199265E-04
  -8.63000011      -2.36395121E-04
  -8.61999989      -2.39754678E-04
  -8.60999966      -2.24423798E-04
  -8.60000038      -1.97348432E-04
  -8.59000015      -1.66017577E-04
  -8.57999992      -1.35529481E-04
  -8.56999969      -1.07179621E-04
  -8.56000042      -7.90989870E-05
  -8.55000019      -4.85939236E-05
  -8.53999996      -1.51014538E-05
  -8.52999973       1.76266967E-05
  -8.52000046       4.12369154E-05
  -8.51000023       4.47756793E-05
  -8.50000000       1.84447053E-05
  -8.48999977      -4.21922923E-05
  -8.47999954      -1.33152498E-04
  -8.47000027      -2.41428745E-04
  -8.46000004      -3.47333611E-04
  -8.44999981      -4.29260865E-04
  -8.43999958      -4.69454622E-04
  -8.43000031      -4.58968774E-04
  -8.42000008      -4.00219666E-04
  -8.40999985      -3.06309928E-04
  -8.39999962      -1.97357454E-04
  -8.39000034      -9.50306203E-05
  -8.38000011      -1.70303974E-05
  -8.36999989       2.68049571E-05
  -8.35999966       3.57258214E-05
  -8.35000038       1.65326001E-05
  -8.34000015      -1.98999351E-05
  -8.32999992      -6.26364854E-05
  -8.31999969      -1.03801845E-04
  -8.31000042      -1.39861935E-04
  -8.30000019      -1.70911924E-04
  -8.28999996      -1.98601541E-04
  -8.27999973      -2.23806637E-04
  -8.27000046      -2.45162024E-04
  -8.26000023      -2.59122404E-04
  -8.25000000      -2.61514302E-04
  -8.23999977      -2.49872915E-04
  -8.22999954      -2.25491007E-04
  -8.22000027      -1.94188717E-04
  -8.21000004      -1.65308782E-04
  -8.19999981      -1.49149928E-04
  -8.18999958      -1.53695655E-04
  -8.18000031      -1.81816242E-04
  -8.17000008      -2.29993704E-04
  -8.15999985      -2.89089221E-04
  -8.14999962      -3.46936140E-04
  -8.14000034      -3.91884969E-04
  -8.13000011      -4.16089722E-04
  -8.11999989      -4.17434756E-04
  -8.10999966      -3.99508688E-04
  -8.10000038      -3.69740970E-04
  -8.09000015      -3.36461439E-04
  -8.07999992      -3.05983704E-04
  -8.06999969      -2.80740525E-04
  -8.06000042      -2.59051594E-04
  -8.05000019      -2.36469932E-04
  -8.03999996      -2.08077545E-04
  -8.02999973      -1.70797954E-04
  -8.02000046      -1.24863960E-04
  -8.01000023      -7.39702737E-05
  -8.00000000      -2.41842936E-05
  -7.98999977       1.78410519E-05
  -7.98000002       4.65931953E-05
  -7.96999979       5.87179929E-05
  -7.96000004       5.30536672E-05
  -7.94999981       2.98667928E-05
  -7.94000006      -1.01722617E-05
  -7.92999983      -6.66506312E-05
  -7.92000008      -1.39293843E-04
  -7.90999985      -2.27056618E-04
  -7.90000010      -3.26843088E-04
  -7.88999987      -4.32530505E-04
  -7.88000011      -5.34927007E-04
  -7.86999989      -6.22959982E-04
  -7.86000013      -6.85892126E-04
  -7.84999990      -7.15901377E-04
  -7.84000015      -7.10138876E-04
  -7.82999992      -6.71499816E-04
  -7.82000017      -6.07773778E-04
  -7.80999994      -5.29427954E-04
  -7.80000019      -4.46787366E-04
  -7.78999996      -3.67603032E-04
  -7.78000021      -2.95848586E-04
  -7.76999998      -2.32104314E-04
  -7.76000023      -1.75259382E-04
  -7.75000000      -1.24738232E-04
  -7.73999977      -8.22462680E-05
  -7.73000002      -5.22247137E-05
  -7.71999979      -4.07351363E-05
  -7.71000004      -5.31548976E-05
  -7.69999981      -9.15903729E-05
  -7.69000006      -1.53087691E-04
  -7.67999983      -2.29459954E-04
  -7.67000008      -3.08947143E-04
  -7.65999985      -3.79209232E-04
  -7.65000010      -4.30612126E-04
  -7.63999987      -4.58617578E-04
  -7.63000011      -4.64410201E-04
  -7.61999989      -4.53567889E-04
  -7.61000013      -4.33348410E-04
  -7.59999990      -4.09719796E-04
  -7.59000015      -3.85371153E-04
  -7.57999992      -3.59546015E-04
  -7.57000017      -3.29780974E-04
  -7.55999994      -2.94802187E-04
  -7.55000019      -2.57268141E-04
  -7.53999996      -2.24995994E-04
  -7.53000021      -2.09824793E-04
  -7.51999998      -2.24179486E-04
  -7.51000023      -2.76372390E-04
  -7.50000000      -3.66328546E-04
  -7.48999977      -4.83466778E-04
  -7.48000002      -6.07852999E-04
  -7.46999979      -7.14647467E-04
  -7.46000004      -7.80677656E-04
  -7.44999981      -7.91115453E-04
  -7.44000006      -7.44061486E-04