  -16.0000000       0.00000000    
  -15.9899998       0.00000000    
  -15.9799995       0.00000000    
  -15.9700003       0.00000000    
  -15.9600000       0.00000000    
  -15.9499998       0.00000000    
  -15.9399996       0.00000000    
  -15.9300003       0.00000000    
  -15.9200001       0.00000000    
  -15.9099998       0.00000000    
  -15.8999996       2.32335285E-42
  -15.8900003      -4.61920663E-39
  -15.8800001      -1.82864528E-37
  -15.8699999      -2.58588202E-36
  -15.8599997      -2.12307352E-35
  -15.8500004      -1.20177331E-34
  -15.8400002      -5.10643149E-34
  -15.8299999      -1.71343014E-33
  -15.8199997      -4.71616305E-33
  -15.8100004      -1.11061551E-32
  -15.8000002      -2.38517649E-32
  -15.7900000      -5.09040658E-32
  -15.7799997      -1.13418007E-31
  -15.7700005      -2.49403414E-31
  -15.7600002      -4.70132007E-31
  -15.7500000      -5.76897410E-31
  -15.7399998       2.52926770E-31
  -15.7299995       3.99169933E-30
  -15.7200003       1.36943309E-29
  -15.7100000       3.12901023E-29
  -15.6999998       5.14550523E-29
  -15.6899996       5.19824200E-29
  -15.6800003      -1.24990822E-29
  -15.6700001      -1.96949328E-28
  -15.6599998      -5.10849451E-28
  -15.6499996      -8.15321064E-28
  -15.6400003      -7.18397099E-28
  -15.6300001       4.00154389E-28
  -15.6199999       3.03756169E-27
  -15.6099997       6.76286140E-27
  -15.6000004       9.16751821E-27
  -15.5900002       5.40620592E-27
  -15.5799999      -1.02107960E-26
  -15.5699997      -3.91910843E-26
  -15.5600004      -7.07499517E-26
  -15.5500002      -7.48464386E-26
  -15.5400000      -5.51566037E-27
  -15.5299997       1.74087020E-25
  -15.5200005       4.39837188E-25
  -15.5100002       6.42964532E-25
  -15.5000000       4.81728759E-25
  -15.4899998      -4.15330238E-25
  -15.4799995      -2.22395351E-24
  -15.4700003      -4.48454842E-24
  -15.4600000      -5.66711837E-24
  -15.4499998      -3.14248382E-24
  -15.4399996       5.89529757E-24
  -15.4300003       2.21650919E-23
  -15.4200001       4.09745524E-23
  -15.4099998       4.93461053E-23
  -15.3999996       2.65265460E-23
  -15.3900003      -4.84927755E-23
  -15.3800001      -1.80215804E-22
  -15.3699999      -3.33124954E-22
  -15.3599997      -4.11935895E-22
  -15.3500004      -2.65055901E-22
  -15.3400002       2.65263277E-22
  -15.3299999       1.23148765E-21
  -15.3199997       2.42250929E-21
  -15.3100004       3.22221503E-21
  -15.3000002       2.60421095E-21
  -15.2900000      -5.88588180E-22
  -15.2799997      -6.97428205E-21
  -15.2700005      -1.56268150E-20
  -15.2600002      -2.30733534E-20
  -15.2500000      -2.29712515E-20
  -15.2399998      -7.36549729E-21
  -15.2299995       2.97215268E-20
  -15.2200003       8.63984915E-20
  -15.2100000       1.46252667E-19
  -15.1999998       1.74435654E-19
  -15.1899996       1.21569132E-19
  -15.1800003      -5.95747045E-20
  -15.1700001      -3.82975447E-19
  -15.1599998      -7.89531022E-19
  -15.1499996      -1.11460096E-18
  -15.1400003      -1.08901295E-18
  -15.1300001      -4.02769879E-19
  -15.1199999       1.15072600E-18
  -15.1099997       3.46373899E-18
  -15.1000004       5.90072144E-18
  -15.0900002       7.20196794E-18
  -15.0799999       5.65718416E-18
  -15.0699997      -3.24536533E-19
  -15.0600004      -1.12402290E-17
  -15.0500002      -2.53230343E-17
  -15.0400000      -3.76585422E-17
  -15.0299997      -4.02910544E-17
  -15.0200005      -2.40343332E-17
  -15.0100002       1.76628025E-17
  -15.0000000       8.32692150E-17
  -14.9899998       1.57798996E-16
  -14.9799995       2.10350574E-16
  -14.9700003       1.97954432E-16
  -14.9600000       7.83364128E-17
  -14.9499998      -1.68474112E-16
  -14.9399996      -5.14267107E-16
  -14.9300003      -8.62384519E-16
  -14.9200001      -1.04691663E-15
  -14.9099998      -8.65009157E-16
  -14.8999996      -1.48883616E-16
  -14.8900003       1.13069835E-15
  -14.8800001       2.75829270E-15
  -14.8699999       4.21350483E-15
  -14.8599997       4.71435245E-15
  -14.8500004       3.40964473E-15
  -14.8400002      -2.75453288E-16
  -14.8299999      -6.20479120E-15
  -14.8199997      -1.31514240E-14
  -14.8100004      -1.86776864E-14
  -14.8000002      -1.94841159E-14
  -14.7900000      -1.23479320E-14
  -14.7799997       4.42112743E-15
  -14.7700005       2.93499966E-14
  -14.7600002       5.66088145E-14
  -14.7500000       7.60178595E-14
  -14.7399998       7.49186208E-14
  -14.7299995       4.21329367E-14
  -14.7200003      -2.65366359E-14
  -14.7100000      -1.22755782E-13
  -14.6999998      -2.22350906E-13
  -14.6899996      -2.86792183E-13
  -14.6800003      -2.71332517E-13
  -14.6700001      -1.39869507E-13
  -14.6599998       1.16118866E-13
  -14.6499996       4.60177415E-13
  -14.6400003       8.02749035E-13
  -14.6300001       1.01006681E-12
  -14.6199999       9.34724303E-13
  -14.6099997       4.66216150E-13
  -14.6000004      -4.08897498E-13
  -14.5900002      -1.55603622E-12
  -14.5799999      -2.67466474E-12
  -14.5699997      -3.33513187E-12
  -14.5600004      -3.08074269E-12
  -14.5500002      -1.58533679E-12
  -14.5400000       1.16844197E-12
  -14.5299997       4.74752572E-12
  -14.5200005       8.23122126E-12
  -14.5100002       1.03357123E-11
  -14.5000000       9.72168526E-12
  -14.4899998       5.44844768E-12
  -14.4799995      -2.52955057E-12
  -14.4700003      -1.29839672E-11
  -14.4600000      -2.33317012E-11
  -14.4499998      -2.99951591E-11
  -14.4399996      -2.92457170E-11
  -14.4300003      -1.84191221E-11
  -14.4200001       2.77796623E-12
  -14.4099998       3.12837811E-11
  -14.3999996       6.04694628E-11
  -14.3900003       8.10441922E-11
  -14.3800001       8.31640729E-11
  -14.3699999       5.94575639E-11
  -14.3599997       8.27925055E-12
  -14.3500004      -6.37982722E-11
  -14.3400002      -1.41315307E-10
  -14.3299999      -2.01883898E-10
  -14.3199997      -2.20982357E-10
  -14.3100004      -1.78946066E-10
  -14.3000002      -6.86209908E-11
  -14.2900000       9.85215659E-11
  -14.2799997       2.90172331E-10
  -14.2700005       4.56701288E-10
  -14.2600002       5.40974709E-10
  -14.2500000       4.93262875E-10
  -14.2399998       2.88145618E-10
  -14.2299995      -6.11146134E-11
  -14.2200003      -4.95692709E-10
  -14.2100000      -9.15822473E-10
  -14.1999998      -1.19853794E-09
  -14.1899996      -1.22669641E-09
  -14.1800003      -9.23707832E-10
  -14.1700001      -2.85407253E-10
  -14.1599998       6.00680006E-10
  -14.1499996       1.55707791E-09
  -14.1400003       2.34345365E-09
  -14.1300001       2.70725908E-09
  -14.1199999       2.44917553E-09
  -14.1099997       1.48867729E-09
  -14.1000004      -8.80385764E-11
  -14.0900002      -2.01431272E-09
  -14.0799999      -3.87410282E-09
  -14.0699997      -5.17859489E-09
  -14.0600004      -5.47711476E-09
  -14.0500002      -4.48002169E-09
  -14.0400000      -2.16406382E-09
  -14.0299997       1.17002397E-09
  -14.0200005       4.91090679E-09
  -14.0100002       8.23013835E-09
  -14.0000000       1.02461293E-08
  -13.9899998       1.02297335E-08
  -13.9799995       7.80759191E-09
  -13.9700003       3.11302162E-09
  -13.9600000      -3.16062554E-09
  -13.9499998      -9.83223991E-09
  -13.9399996      -1.54327111E-08
  -13.9300003      -1.85035329E-08
  -13.9200001      -1.79378201E-08
  -13.9099998      -1.32892204E-08
  -13.8999996      -4.97147168E-09
  -13.8900003       5.71327652E-09
  -13.8800001       1.67472329E-08
  -13.8699999       2.57572754E-08
  -13.8599997       3.05035712E-08
  -13.8500004       2.93996152E-08
  -13.8400002       2.19474643E-08
  -13.8299999       8.97751917E-09
  -13.8199997      -7.38519690E-09
  -13.8100004      -2.40514080E-08
  -13.8000002      -3.75508868E-08
  -13.7900000      -4.47607285E-08
  -13.7799997      -4.36249294E-08
  -13.7700005      -3.36979333E-08
  -13.7600002      -1.63697393E-08
  -13.7500000       5.30752864E-09
  -13.7399998       2.71838108E-08
  -13.7299995       4.48634019E-08
  -13.7200003       5.46644614E-08
  -13.7100000       5.44641310E-08
  -13.6999998       4.42192238E-08
  -13.6899996       2.60178421E-08
  -13.6800003       3.62529984E-09
  -13.6700001      -1.83862916E-08
  -13.6599998      -3.57226213E-08
  -13.6499996      -4.53954669E-08
  -13.6400003      -4.64228549E-08
  -13.6300001      -4.00008311E-08
  -13.6199999      -2.90783877E-08
  -13.6099997      -1.74283095E-08
  -13.6000004      -8.45531645E-09
  -13.5900002      -4.07632239E-09
  -13.5799999      -4.01446476E-09
  -13.5699997      -5.75866110E-09
  -13.5600004      -5.26946398E-09
  -13.5500002       1.70005621E-09
  -13.5400000       1.79969533E-08
  -13.5299997       4.36284999E-08
  -13.5200005       7.49542721E-08
  -13.5100002       1.04854962E-07
  -13.5000000       1.23991185E-07
  -13.4899998       1.22974782E-07
  -13.4799995       9.49967855E-08
  -13.4700003       3.82684853E-08
  -13.4600000      -4.24056701E-08
  -13.4499998      -1.35466038E-07
  -13.4399996      -2.24092815E-07
  -13.4300003      -2.89211300E-07
  -13.4200001      -3.13463119E-07
  -13.4099998      -2.85299080E-07
  -13.3999996      -2.02232300E-07
  -13.3900003      -7.24014271E-08
  -13.3800001       8.60747491E-08
  -13.3699999       2.47982456E-07
  -13.3599997       3.85636241E-07
  -13.3500004       4.74289266E-07
  -13.3400002       4.97132987E-07
  -13.3299999       4.48719788E-07
  -13.3199997       3.35968224E-07
  -13.3100004       1.76464681E-07
  -13.3000002      -5.56282309E-09
  -13.2900000      -1.84616468E-07
  -13.2799997      -3.39278273E-07
  -13.2700005      -4.56120546E-07
  -13.2600002      -5.31093519E-07
  -13.2500000      -5.67966367E-07
  -13.2399998      -5.74237731E-07
  -13.2299995      -5.55738723E-07
  -13.2200003      -5.11693543E-07
  -13.2100000      -4.32100990E-07
  -13.1999998      -2.98857032E-07
  -13.1899996      -9.11053348E-08
  -13.1800003       2.05931315E-07
  -13.1700001       5.90629384E-07
  -13.1599998       1.03604475E-06
  -13.1499996       1.48554466E-06
  -13.1400003       1.85557519E-06
  -13.1300001       2.04676576E-06
  -13.1199999       1.96260771E-06
  -13.1099997       1.53280405E-06
  -13.1000004       7.36600327E-07
  -13.0900002      -3.79527052E-07
  -13.0799999      -1.69515465E-06
  -13.0699997      -3.02387571E-06
  -13.0600004      -4.13690032E-06
  -13.0500002      -4.79985738E-06
  -13.0400000      -4.81707912E-06
  -13.0299997      -4.07518928E-06
  -13.0200005      -2.57691136E-06
  -13.0100002      -4.56956428E-07
  -13.0000000       2.02531965E-06
  -12.9899998       4.51756841E-06
  -12.9799995       6.62663888E-06
  -12.9700003       7.98309247E-06
  -12.9600000       8.30673889E-06
  -12.9499998       7.46091473E-06
  -12.9399996       5.48471371E-06
  -12.9300003       2.59607782E-06
  -12.9200001      -8.36002187E-07
  -12.9099998      -4.34608819E-06
  -12.8999996      -7.44441422E-06
  -12.8900003      -9.69373650E-06
  -12.8800001      -1.07771639E-05
  -12.8699999      -1.05449417E-05
  -12.8599997      -9.03229193E-06
  -12.8500004      -6.44613556E-06
  -12.8400002      -3.12453335E-06
  -12.8299999       5.22128630E-07
  -12.8199997       4.07604921E-06
  -12.8100004       7.17034573E-06
  -12.8000002       9.53041308E-06
  -12.7900000       1.09923540E-05
  -12.7799997       1.14981658E-05
  -12.7700005       1.10728633E-05
  -12.7600002       9.79273409E-06
  -12.7500000       7.75551325E-06
  -12.7399998       5.06198012E-06
  -12.7299995       1.81459984E-06
  -12.7200003      -1.86674492E-06
  -12.7100000      -5.81768745E-06
  -12.6999998      -9.80134519E-06
  -12.6899996      -1.34916982E-05
  -12.6800003      -1.64794255E-05
  -12.6700001      -1.83067023E-05
  -12.6599998      -1.85304234E-05
  -12.6499996      -1.68054921E-05
  -12.6400003      -1.29730188E-05
  -12.6300001      -7.13427244E-06
  -12.6199999       3.08664681E-07
  -12.6099997       8.66001301E-06
  -12.6000004       1.69913437E-05
  -12.5900002       2.42521710E-05
  -12.5799999       2.94151832E-05
  -12.5699997       3.16330188E-05
  -12.5600004       3.03795587E-05
  -12.5500002       2.55499999E-05
  -12.5400000       1.75006153E-05
  -12.5299997       7.01945692E-06
  -12.5200005      -4.76830337E-06
  -12.5100002      -1.65451092E-05
  -12.5000000      -2.69720240E-05
  -12.4899998      -3.48583671E-05
  -12.4799995      -3.93039991E-05
  -12.4700003      -3.97947624E-05
  -12.4600000      -3.62412356E-05
  -12.4499998      -2.89617528E-05
  -12.4399996      -1.86199122E-05
  -12.4300003      -6.13292787E-06
  -12.4200001       7.43100964E-06
  -12.4099998       2.09507580E-05
  -12.3999996       3.33355056E-05
  -12.3900003       4.35901748E-05
  -12.3800001       5.08658850E-05
  -12.3699999       5.45021139E-05
  -12.3599997       5.40672154E-05
  -12.3500004       4.94006381E-05
  -12.3400002       4.06544896E-05
  -12.3299999       2.83258851E-05
  -12.3199997       1.32669729E-05
  -12.3100004      -3.34139554E-06
  -12.3000002      -2.00630311E-05
  -12.2900000      -3.53295363E-05
  -12.2799997      -4.76053538E-05
  -12.2700005      -5.55755723E-05
  -12.2600002      -5.83286164E-05
  -12.2500000      -5.55017650E-05
  -12.2399998      -4.73601285E-05
  -12.2299995      -3.47887326E-05
  -12.2200003      -1.91919644E-05
  -12.2100000      -2.31160402E-06
  -12.1999998       1.40093025E-05
  -12.1899996       2.80779695E-05
  -12.1800003       3.85759595E-05
  -12.1700001       4.47172861E-05
  -12.1599998       4.63143333E-05
  -12.1499996       4.37431299E-05
  -12.1400003       3.78192017E-05
  -12.1300001       2.96124254E-05
  -12.1199999       2.02405772E-05
  -12.1099997       1.06838879E-05
  -12.1000004       1.65657957E-06
  -12.0900002      -6.44273814E-06
  -12.0799999      -1.34984866E-05
  -12.0699997      -1.95789635E-05
  -12.0600004      -2.48012784E-05
  -12.0500002      -2.91988017E-05
  -12.0400000      -3.26282934E-05
  -12.0299997      -3.47436617E-05
  -12.0200005      -3.50467380E-05
  -12.0100002      -3.30058356E-05
  -12.0000000      -2.82150395E-05
  -11.9899998      -2.05551660E-05
  -11.9799995      -1.03142138E-05
  -11.9700003       1.76824290E-06
  -11.9600000       1.45526647E-05
  -11.9499998       2.66461011E-05
  -11.9399996       3.66205022E-05
  -11.9300003       4.32614652E-05
  -11.9200001       4.57963142E-05
  -11.9099998       4.40514195E-05
  -11.8999996       3.85010426E-05
  -11.8900003       3.01913387E-05
  -11.8800001       2.05491506E-05
  -11.8699999       1.11105210E-05
  -11.8599997       3.22245523E-06
  -11.8500004      -2.22056678E-06
  -11.8400002      -4.94902815E-06
  -11.8299999      -5.36088146E-06
  -11.8199997      -4.42169767E-06
  -11.8100004      -3.43987199E-06
  -11.8000002      -3.76129719E-06
  -11.7900000      -6.44614784E-06
  -11.7799997      -1.19957422E-05
  -11.7700005      -2.01886105E-05
  -11.7600002      -3.00635074E-05
  -11.7500000      -4.00574863E-05
  -11.7399998      -4.82755204E-05
  -11.7299995      -5.28410565E-05
  -11.7200003      -5.22599112E-05
  -11.7100000      -4.57264978E-05
  -11.6999998      -3.33123935E-05
  -11.6899996      -1.60000873E-05
  -11.6800003       4.44525267E-06
  -11.6700001       2.57419415E-05
  -11.6599998       4.54458204E-05
  -11.6499996       6.13265365E-05
  -11.6400003       7.16979557E-05
  -11.6300001       7.56452646E-05
  -11.6199999       7.31132823E-05
  -11.6099997       6.48478817E-05
  -11.6000004       5.22107621E-05
  -11.5900002       3.69103473E-05
  -11.5799999       2.07045414E-05
  -11.5699997       5.13219948E-06
  -11.5600004      -8.68023471E-06
  -11.5500002      -2.01094226E-05
  -11.5400000      -2.90186017E-05
  -11.5299997      -3.56511227E-05
  -11.5200005      -4.04674647E-05
  -11.5100002      -4.39666328E-05
  -11.5000000      -4.65307930E-05
  -11.4899998      -4.83222721E-05
  -11.4799995      -4.92471227E-05
  -11.4700003      -4.89841805E-05
  -11.4600000      -4.70655978E-05
  -11.4499998      -4.29874235E-05
  -11.4399996      -3.63270738E-05
  -11.4300003      -2.68479125E-05
  -11.4200001      -1.45773120E-05
  -11.4099998       1.48858447E-07
  -11.3999996       1.66772224E-05
  -11.3900003       3.40624501E-05
  -11.3800001       5.11255275E-05
  -11.3699999       6.65425614E-05
  -11.3599997       7.89605474E-05
  -11.3500004       8.71335360E-05
  -11.3400002       9.00673622E-05
  -11.3299999       8.71558732E-05
  -11.3199997       7.82873467E-05
  -11.3100004       6.38998972E-05
  -11.3000002       4.49695253E-05
  -11.2900000       2.29247089E-05
  -11.2799997      -5.05116759E-07
  -11.2700005      -2.34861545E-05
  -11.2600002      -4.42904129E-05
  -11.2500000      -6.14840465E-05
  -11.2399998      -7.40623946E-05
  -11.2299995      -8.15114690E-05
  -11.2200003      -8.37913831E-05
  -11.2100000      -8.12538638E-05
  -11.1999998      -7.45188154E-05
  -11.1899996      -6.43413514E-05
  -11.1800003      -5.14987951E-05
  -11.1700001      -3.67183784E-05
  -11.1599998      -2.06531422E-05
  -11.1499996      -3.89950219E-06
  -11.1400003       1.29604778E-05
  -11.1300001       2.93143621E-05
  -11.1199999       4.44928082E-05
  -11.1099997       5.77749706E-05
  -11.1000004       6.84296974E-05
  -11.0900002       7.57860325E-05
  -11.0799999       7.93189902E-05
  -11.0699997       7.87327444E-05
  -11.0600004       7.40240648E-05
  -11.0500002       6.55128679E-05
  -11.0400000       5.38330023E-05
  -11.0299997       3.98829070E-05
  -11.0200005       2.47415101E-05
  -11.0100002       9.55929499E-06
  -11.0000000      -4.56269026E-06
  -10.9899998      -1.66914542E-05
  -10.9799995      -2.61633049E-05
  -10.9700003      -3.26535774E-05
  -10.9600000      -3.62030842E-05
  -10.9499998      -3.71940150E-05
  -10.9399996      -3.62746941E-05
  -10.9300003      -3.42409403E-05
  -10.9200001      -3.18904422E-05
  -10.9099998      -2.98738523E-05
  -10.8999996      -2.85700662E-05
  -10.8900003      -2.80118693E-05
  -10.8800001      -2.78808420E-05
  -10.8699999      -2.75780676E-05
  -10.8599997      -2.63617458E-05
  -10.8500004      -2.35272346E-05
  -10.8400002      -1.85932295E-05
  -10.8299999      -1.14526392E-05
  -10.8199997      -2.45043293E-06
  -10.8100004       7.63655589E-06
  -10.8000002       1.77232050E-05
  -10.7900000       2.66251809E-05
  -10.7799997       3.33141834E-05
  -10.7700005       3.71651113E-05
  -10.7600002       3.81366845E-05
  -10.7500000       3.68359870E-05
  -10.7399998       3.44384134E-05
  -10.7299995       3.24642861E-05
  -10.7200003       3.24464345E-05
  -10.7100000       3.55513075E-05
  -10.6999998       4.22336707E-05
  -10.6899996       5.20058493E-05
  -10.6800003       6.33856107E-05
  -10.6700001       7.40539253E-05
  -10.6599998       8.12113867E-05
  -10.6499996       8.20787754E-05
  -10.6400003       7.44525678E-05
  -10.6300001       5.72084282E-05
  -10.6199999       3.06497714E-05
  -10.6099997      -3.37582333E-06
  -10.6000004      -4.16268995E-05
  -10.5900002      -7.98690453E-05
  -10.5799999      -1.13462171E-04
  -10.5699997      -1.38034608E-04
  -10.5600004      -1.50128937E-04
  -10.5500002      -1.47711515E-04
  -10.5400000      -1.30465225E-04
  -10.5299997      -9.98258038E-05
  -10.5200005      -5.87675822E-05
  -10.5100002      -1.13858314E-05
  -10.5000000       3.76486496E-05
  -10.4899998       8.36740146E-05
  -10.4799995       1.22576006E-04
  -10.4700003       1.51212589E-04
  -10.4600000       1.67681152E-04
  -10.4499998       1.71412612E-04
  -10.4399996       1.63100907E-04
  -10.4300003       1.44496007E-04
  -10.4200001       1.18100805E-04
  -10.4099998       8.68176867E-05
  -10.3999996       5.35909094E-05
  -10.3900003       2.10867383E-05
  -10.3800001      -8.55438338E-06
  -10.3699999      -3.38697173E-05
  -10.3599997      -5.41190566E-05
  -10.3500004      -6.92256071E-05
  -10.3400002      -7.96303357E-05
  -10.3299999      -8.60895962E-05
  -10.3199997      -8.94535988E-05
  -10.3100004      -9.04652406E-05
  -10.3000002      -8.96131460E-05
  -10.2900000      -8.70611620E-05
  -10.2799997      -8.26604955E-05
  -10.2700005      -7.60344046E-05
  -10.2600002      -6.67118293E-05
  -10.2500000      -5.42795169E-05
  -10.2399998      -3.85224666E-05
  -10.2299995      -1.95299199E-05
  -10.2200003       2.24464611E-06
  -10.2100000       2.59693334E-05
  -10.1999998       5.04573982E-05
  -10.1899996       7.42183620E-05
  -10.1800003       9.55306023E-05
  -10.1700001       1.12537316E-04
  -10.1599998       1.23375154E-04
  -10.1499996       1.26347135E-04
  -10.1400003       1.20144708E-04
  -10.1300001       1.04108054E-04
  -10.1199999       7.84910007E-05
  -10.1099997       4.46749837E-05
  -10.1000004       5.26265239E-06
  -10.0900002      -3.60148006E-05
  -10.0799999      -7.46181468E-05
  -10.0699997      -1.05745523E-04
  -10.0600004      -1.25043167E-04
  -10.0500002      -1.29366759E-04
  -10.0400000      -1.17441479E-04
  -10.0299997      -9.02630345E-05
  -10.0200005      -5.11162143E-05
  -10.0100002      -5.15854708E-06
  -10.0000000       4.13881280E-05
  -9.98999977       8.22990696E-05
  -9.97999954       1.12449212E-04
  -9.97000027       1.28718661E-04
  -9.96000004       1.30494474E-04
  -9.94999981       1.19648234E-04
  -9.93999958       9.99909753E-05
  -9.93000031       7.63344287E-05
  -9.92000008       5.33862840E-05
  -9.90999985       3.47485984E-05
  -9.89999962       2.22592607E-05
  -9.89000034       1.58226721E-05
  -9.88000011       1.37416264E-05
  -9.86999989       1.34263419E-05
  -9.85999966       1.22571919E-05
  -9.85000038       8.34470120E-06
  -9.84000015       9.73664328E-07
  -9.82999992      -9.37498589E-06
  -9.81999969      -2.13935946E-05
  -9.81000042      -3.35525510E-05
  -9.80000019      -4.47115744E-05
  -9.78999996      -5.45116854E-05
  -9.77999973      -6.34011012E-05
  -9.77000046      -7.22780605E-05
  -9.76000023      -8.18726476E-05
  -9.75000000      -9.20912062E-05
  -9.73999977      -1.01576079E-04
  -9.72999954      -1.07677581E-04
  -9.72000027      -1.06909538E-04
  -9.71000004      -9.58029777E-05
  -9.69999981      -7.19351665E-05
  -9.68999958      -3.48379363E-05
  -9.68000031       1.34936245E-05
  -9.67000008       6.86666681E-05
  -9.65999985       1.24544255E-04
  -9.64999962       1.74333705E-04
  -9.64000034       2.11834355E-04
  -9.63000011       2.32530496E-04
  -9.61999989       2.34270410E-04
  -9.60999966       2.17401393E-04
  -9.60000038       1.84391858E-04
  -9.59000015       1.39110896E-04
  -9.57999992       8.60111177E-05
  -9.56999969       2.94499132E-05
  -9.56000042      -2.67019732E-05
  -9.55000019      -7.91439161E-05
  -9.53999996      -1.25021063E-04
  -9.52999973      -1.61762844E-04
  -9.52000046      -1.87050100E-04
  -9.51000023      -1.99000657E-04
  -9.50000000      -1.96547684E-04
  -9.48999977      -1.79875104E-04
  -9.47999954      -1.50716354E-04
  -9.47000027      -1.12339811E-04
  -9.46000004      -6.91372843E-05
  -9.44999981      -2.58670043E-05
  -9.43999958       1.32670402E-05
  -9.43000031       4.54411274E-05
  -9.42000008       6.96940187E-05
  -9.40999985       8.69116993E-05
  -9.39999962       9.93134308E-05
  -9.39000034       1.09595916E-04
  -9.38000011       1.20001896E-04
  -9.36999989       1.31601453E-04
  -9.35999966       1.44000340E-04
  -9.35000038       1.55544549E-04
  -9.34000015       1.63924735E-04
  -9.32999992       1.66955550E-04
  -9.31999969       1.63256977E-04
  -9.31000042       1.52614535E-04
  -9.30000019       1.35920898E-04
  -9.28999996       1.14758499E-04
  -9.27999973       9.08116053E-05
  -9.27000046       6.53506868E-05
  -9.26000023       3.89927409E-05
  -9.25000000       1.18246426E-05
  -9.23999977      -1.61734533E-05
  -9.22999954      -4.45918849E-05
  -9.22000027      -7.21815522E-05
  -9.21000004      -9.67672895E-05
  -9.19999981      -1.15560579E-04
  -9.18999958      -1.25793362E-04
  -9.18000031      -1.25466016E-04
  -9.17000008      -1.13949951E-04
  -9.15999985      -9.22299150E-05
  -9.14999962      -6.26983892E-05
  -9.14000034      -2.85773840E-05
  -9.13000011       6.82199152E-06
  -9.11999989       4.07363659E-05
  -9.10999966       7.12649198E-05
  -9.10000038       9.72788621E-05
  -9.09000015       1.18012387E-04
  -9.07999992       1.32560279E-04
  -9.06999969       1.39557538E-04
  -9.06000042       1.37251758E-04
  -9.05000019       1.24020051E-04
  -9.03999996       9.91858760E-05
  -9.02999973       6.38339188E-05
  -9.02000046       2.12686718E-05
  -9.01000023      -2.31542126E-05
  -9.00000000      -6.28965572E-05
  -8.98999977      -9.16305362E-05
  -8.97999954      -1.04769948E-04
  -8.97000027      -1.00663732E-04
  -8.96000004      -8.10462661E-05
  -8.94999981      -5.05570279E-05
  -8.93999958      -1.54386544E-05
  -8.93000031       1.82023068E-05
  -8.92000008       4.60316805E-05
  -8.90999985       6.65025073E-05
  -8.89999962       8.09287449E-05
  -8.89000034       9.26096545E-05
  -8.88000011       1.05316416E-04
  -8.86999989       1.21668229E-04
  -8.85999966       1.41962286E-04
  -8.85000038       1.63863966E-04
  -8.84000015       1.83064476E-04
  -8.82999992       1.94676730E-04
  -8.81999969       1.94884124E-04
  -8.81000042       1.82270960E-04
  -8.80000019       1.58378287E-04
  -8.78999996       1.27302934E-04
  -8.77999973       9.44932181E-05
  -8.77000046       6.51717637E-05
  -8.76000023       4.29356805E-05
  -8.75000000       2.90052340E-05
  -8.73999977       2.23436709E-05
  -8.72999954       2.05463439E-05
  -8.72000027       2.11152219E-05
  -8.71000004       2.25994863E-05
  -8.69999981       2.51452493E-05
  -8.68999958       3.02335520E-05
  -8.68000031       3.97088152E-05
  -8.67000008       5.44887735E-05
  -8.65999985       7.34920177E-05
  -8.64999962       9.32621333E-05
  -8.64000034       1.08524633E-04
  -8.63000011       1.13570168E-04
  -8.61999989       1.04038227E-04
  -8.60999966       7.84992444E-05
  -8.60000038       3.92672191E-05
  -8.59000015      -7.88494708E-06
  -8.57999992      -5.50710720E-05
  -8.56999969      -9.43004998E-05
  -8.56000042      -1.19521603E-04
  -8.55000019      -1.28053987E-04
  -8.53999996      -1.20967939E-04
  -8.52999973      -1.02325379E-04
  -8.52000046      -7.75793887E-05
  -8.51000023      -5.17054978E-05
  -8.50000000      -2.77109884E-05
  -8.48999977      -6.01612192E-06
  -8.47999954       1.51221038E-05
  -8.47000027       3.83491279E-05
  -8.46000004       6.56167613E-05
  -8.44999981       9.68654058E-05
  -8.43999958       1.29488079E-04
  -8.43000031       1.58790906E-04
  -8.42000008       1.79301627E-04
  -8.40999985       1.86472796E-04
  -8.39999962       1.78185233E-04
  -8.39000034       1.55530812E-04
  -8.38000011       1.22609068E-04
  -8.36999989       8.54170794E-05
  -8.35999966       5.02208168E-05
  -8.35000038       2.19601970E-05
  -8.34000015       3.20377967E-06
  -8.32999992      -6.04816933E-06
  -8.31999969      -7.72768726E-06
  -8.31000042      -4.54088604E-06
  -8.30000019       1.23411553E-06
  -8.28999996       8.53127312E-06
  -8.27999973       1.75908299E-05
  -8.27000046       2.93791309E-05
  -8.26000023       4.46231461E-05
  -8.25000000       6.29049900E-05
  -8.23999977       8.22406510E-05
  -8.22999954       9.93774011E-05
  -8.22000027       1.10757079E-04
  -8.21000004       1.13817245E-04
  -8.19999981       1.08143759E-04
  -8.18999958       9.60097532E-05
  -8.18000031       8.20337664E-05
  -8.17000008       7.19947857E-05
  -8.15999985       7.11462781E-05
  -8.14999962       8.25633542E-05
  -8.14000034       1.06066604E-04
  -8.13000011       1.38087649E-04
  -8.11999989       1.72534084E-04
  -8.10999966       2.02383380E-04
  -8.10000038       2.21500333E-04
  -8.09000015       2.26111209E-04
  -8.07999992       2.15498527E-04
  -8.06999969       1.91756015E-04
  -8.06000042       1.58764073E-04
  -8.05000019       1.20800025E-04
  -8.03999996       8.12966391E-05
  -8.02999973       4.21762379E-05
  -8.02000046       3.95279176E-06
  -8.01000023      -3.35031909E-05
  -8.00000000      -6.98923104E-05
  -7.98999977      -1.03576182E-04
  -7.98000002      -1.31237815E-04
  -7.96999979      -1.48307910E-04
  -7.96000004      -1.50065433E-04
  -7.94999981      -1.33065507E-04
  -7.94000006      -9.64126884E-05
  -7.92999983      -4.24331847E-05
  -7.92000008       2.35096850E-05
  -7.90999985       9.40320824E-05
  -7.90000010       1.61282442E-04
  -7.88999987       2.18565925E-04
  -7.88000011       2.61565030E-04
  -7.86999989       2.88828101E-04
  -7.86000013       3.01447843E-04
  -7.84999990       3.02116008E-04
  -7.84000015       2.93930148E-04
  -7.82999992       2.79378059E-04
  -7.82000017       2.59826571E-04
  -7.80999994       2.35635191E-04
  -7.80000019       2.06776313E-04
  -7.78999996       1.73660679E-04
  -7.78000021       1.37800278E-04
  -7.76999998       1.02012149E-04
  -7.76000023       7.00438904E-05
  -7.75000000       4.57213901E-05
  -7.73999977       3.18996099E-05
  -7.73000002       2.95772388E-05
  -7.71999979       3.74873198E-05
  -7.71000004       5.23197959E-05
  -7.69999981       6.95246199E-05
  -7.69000006       8.44561073E-05
  -7.67999983       9.35140124E-05
  -7.67000008       9.49480527E-05
  -7.65999985       8.91104501E-05
  -7.65000010       7.81218187E-05
  -7.63999987       6.50962975E-05
  -7.63000011       5.31956139E-05
  -7.61999989       4.48091741E-05
  -7.61000013       4.10894172E-05
  -7.59999990       4.19365424E-05
  -7.59000015       4.63756041E-05
  -7.57999992       5.31518272E-05
  -7.57000017       6.13207885E-05
  -7.55999994       7.06389837E-05
  -7.55000019       8.16461470E-05
  -7.53999996       9.54411880E-05
  -7.53000021       1.13247472E-04
  -7.51999998       1.35915150E-04
  -7.51000023       1.63506586E-04
  -7.50000000       1.95067623E-04
  -7.48999977       2.28623685E-04
  -7.48000002       2.61380716E-04
  -7.46999979       2.90073716E-04
  -7.46000004       3.11393611E-04
  -7.44999981       3.22429667E-04
  -7.44000006       3.21079453E-04