  -16.0000000       0.00000000    
  -15.9899998       0.00000000    
  -15.9799995       0.00000000    
  -15.9700003       0.00000000    
  -15.9600000       0.00000000    
  -15.9499998       0.00000000    
  -15.9399996       0.00000000    
  -15.9300003       0.00000000    
  -15.9200001       0.00000000    
  -15.9099998       0.00000000    
  -15.8999996       0.00000000    
  -15.8900003       2.12888065E-39
  -15.8800001       9.10810987E-38
  -15.8699999       1.80125245E-36
  -15.8599997       2.24822823E-35
  -15.8500004       2.02779365E-34
  -15.8400002       1.42634834E-33
  -15.8299999       8.21238263E-33
  -15.8199997       4.00031189E-32
  -15.8100004       1.68787153E-31
  -15.8000002       6.27671854E-31
  -15.7900000       2.08394610E-30
  -15.7799997       6.23701015E-30
  -15.7700005       1.69442068E-29
  -15.7600002       4.19781950E-29
  -15.7500000       9.50582386E-29
  -15.7399998       1.96697187E-28
  -15.7299995       3.70535873E-28
  -15.7200003       6.29645143E-28
  -15.7100000       9.46375204E-28
  -15.6999998       1.20286632E-27
  -15.6899996       1.13139332E-27
  -15.6800003       2.76836228E-28
  -15.6700001      -1.95597002E-27
  -15.6599998      -6.08519021E-27
  -15.6499996      -1.20970256E-26
  -15.6400003      -1.87775627E-26
  -15.6300001      -2.30474419E-26
  -15.6199999      -1.97731530E-26
  -15.6099997      -2.72950900E-27
  -15.6000004       3.26887535E-26
  -15.5900002       8.50084647E-26
  -15.5799999       1.41703356E-25
  -15.5699997       1.76521901E-25
  -15.5600004       1.53070829E-25
  -15.5500002       3.80145044E-26
  -15.5400000      -1.76282506E-25
  -15.5299997      -4.46504147E-25
  -15.5200005      -6.65242211E-25
  -15.5100002      -6.79299120E-25
  -15.5000000      -3.53968667E-25
  -15.4899998       3.21293728E-25
  -15.4799995       1.12317897E-24
  -15.4700003       1.55429619E-24
  -15.4600000       9.64304359E-25
  -15.4499998      -1.10207763E-24
  -15.4399996      -4.35757179E-24
  -15.4300003      -7.21211665E-24
  -15.4200001      -6.57407491E-24
  -15.4099998       1.48439621E-24
  -15.3999996       1.97558775E-23
  -15.3900003       4.65743131E-23
  -15.3800001       7.19242226E-23
  -15.3699999       7.49772027E-23
  -15.3599997       2.62909433E-23
  -15.3500004      -1.01600261E-22
  -15.3400002      -3.12929459E-22
  -15.3299999      -5.59202922E-22
  -15.3199997      -7.12386280E-22
  -15.3100004      -5.62376642E-22
  -15.3000002       1.31908903E-22
  -15.2900000       1.51287426E-21
  -15.2799997       3.41835498E-21
  -15.2700005       5.15824377E-21
  -15.2600002       5.40942355E-21
  -15.2500000       2.42935050E-21
  -15.2399998      -5.21939657E-21
  -15.2299995      -1.73933675E-20
  -15.2200003      -3.08396455E-20
  -15.2100000      -3.81908093E-20
  -15.1999998      -2.86844135E-20
  -15.1899996       8.16778009E-21
  -15.1800003       7.55176091E-20
  -15.1700001       1.60112039E-19
  -15.1599998       2.25239135E-19
  -15.1499996       2.12137641E-19
  -15.1400003       5.67509425E-20
  -15.1300001      -2.74936612E-19
  -15.1199999      -7.38709872E-19
  -15.1099997      -1.16998690E-18
  -15.1000004      -1.27927121E-18
  -15.0900002      -7.20361093E-19
  -15.0799999       7.48671505E-19
  -15.0699997       3.03181960E-18
  -15.0600004       5.46960896E-18
  -15.0500002       6.76347702E-18
  -15.0400000       5.21640360E-18
  -15.0299997      -5.99025174E-19
  -15.0200005      -1.07979504E-17
  -15.0100002      -2.30783821E-17
  -15.0000000      -3.21425611E-17
  -14.9899998      -3.03776091E-17
  -14.9799995      -1.03615357E-17
  -14.9700003       3.08506605E-17
  -14.9600000       8.67374179E-17
  -14.9499998       1.37867106E-16
  -14.9399996       1.53012293E-16
  -14.9300003       9.74765052E-17
  -14.9200001      -5.07654275E-17
  -14.9099998      -2.80307078E-16
  -14.8999996      -5.28790175E-16
  -14.8900003      -6.80111023E-16
  -14.8800001      -5.87811219E-16
  -14.8699999      -1.30051890E-16
  -14.8599997       7.11252772E-16
  -14.8500004       1.77183972E-15
  -14.8400002       2.66738129E-15
  -14.8299999       2.84200094E-15
  -14.8199997       1.73360751E-15
  -14.8100004      -9.52587864E-16
  -14.8000002      -4.92995241E-15
  -14.7900000      -9.10456826E-15
  -14.7799997      -1.16013190E-14
  -14.7700005      -1.01814741E-14
  -14.7600002      -3.08562160E-15
  -14.7500000       9.84744834E-15
  -14.7399998       2.61527165E-14
  -14.7299995       4.03360681E-14
  -14.7200003       4.46419601E-14
  -14.7100000       3.13002052E-14
  -14.6999998      -3.94926740E-15
  -14.6899996      -5.79495558E-14
  -14.6800003      -1.17393888E-13
  -14.6700001      -1.59130088E-13
  -14.6599998      -1.54997624E-13
  -14.6499996      -8.14645795E-14
  -14.6400003       6.76472089E-14
  -14.6300001       2.69294678E-13
  -14.6199999       4.65785830E-13
  -14.6099997       5.71401704E-13
  -14.6000004       4.94300239E-13
  -14.5900002       1.72011345E-13
  -14.5799999      -3.87746394E-13
  -14.5699997      -1.07542079E-12
  -14.5600004      -1.67472351E-12
  -14.5500002      -1.89922448E-12
  -14.5400000      -1.47497401E-12
  -14.5299997      -2.56918103E-13
  -14.5200005       1.65244261E-12
  -14.5100002       3.82883438E-12
  -14.5000000       5.54608182E-12
  -14.4899998       5.92405769E-12
  -14.4799995       4.20277832E-12
  -14.4700003       9.01958426E-14
  -14.4600000      -5.91990909E-12
  -14.4499998      -1.23955238E-11
  -14.4399996      -1.71075914E-11
  -14.4300003      -1.75329352E-11
  -14.4200001      -1.16768470E-11
  -14.4099998       9.64704662E-13
  -14.3999996       1.86074246E-11
  -14.3900003       3.69074944E-11
  -14.3800001       4.95234756E-11
  -14.3699999       4.96276631E-11
  -14.3599997       3.21787527E-11
  -14.3500004      -3.58036387E-12
  -14.3400002      -5.22158011E-11
  -14.3299999      -1.01688054E-10
  -14.3199997      -1.35121581E-10
  -14.3100004      -1.34919895E-10
  -14.3000002      -8.86146226E-11
  -14.2900000       4.98493000E-12
  -14.2799997       1.31372913E-10
  -14.2700005       2.59777588E-10
  -14.2600002       3.47941620E-10
  -14.2500000       3.52413210E-10
  -14.2399998       2.42683013E-10
  -14.2299995       1.56610939E-11
  -14.2200003      -2.94242325E-10
  -14.2100000      -6.14186368E-10
  -14.1999998      -8.44303016E-10
  -14.1899996      -8.81514306E-10
  -14.1800003      -6.51784016E-10
  -14.1700001      -1.42878848E-10
  -14.1599998       5.72786873E-10
  -14.1499996       1.33548195E-09
  -14.1400003       1.92238825E-09
  -14.1300001       2.09877582E-09
  -14.1199999       1.68762471E-09
  -14.1099997       6.41033227E-10
  -14.1000004      -9.08360609E-10
  -14.0900002      -2.63733457E-09
  -14.0799999      -4.07766132E-09
  -14.0699997      -4.71813877E-09
  -14.0600004      -4.14679802E-09
  -14.0500002      -2.20061680E-09
  -14.0400000       9.20472754E-10
  -14.0299997       4.61846517E-09
  -14.0200005       7.97120769E-09
  -14.0100002       9.92030458E-09
  -14.0000000       9.54530410E-09
  -13.9899998       6.36442010E-09
  -13.9799995       5.80312021E-10
  -13.9700003      -6.81336143E-09
  -13.9600000      -1.41275915E-08
  -13.9499998      -1.92945713E-08
  -13.9399996      -2.03643840E-08
  -13.9300003      -1.60804614E-08
  -13.9200001      -6.38795061E-09
  -13.9099998       7.28319138E-09
  -13.8999996       2.20883347E-08
  -13.8900003       3.42469662E-08
  -13.8800001       3.98823801E-08
  -13.8699999       3.60638168E-08
  -13.8599997       2.18042899E-08
  -13.8500004      -1.27007849E-09
  -13.8400002      -2.88286728E-08
  -13.8299999      -5.44622694E-08
  -13.8199997      -7.09955401E-08
  -13.8100004      -7.22615496E-08
  -13.8000002      -5.49451222E-08
  -13.7900000      -2.00094785E-08
  -13.7799997       2.67563234E-08
  -13.7700005       7.53779759E-08
  -13.7600002       1.13568362E-07
  -13.7500000       1.29551253E-07
  -13.7399998       1.15250067E-07
  -13.7299995       6.90549271E-08
  -13.7200003      -2.64139000E-09
  -13.7100000      -8.57567031E-08
  -13.6999998      -1.60909494E-07
  -13.6899996      -2.07596983E-07
  -13.6800003      -2.09348059E-07
  -13.6700001      -1.58646472E-07
  -13.6599998      -6.02877535E-08
  -13.6499996       6.79613734E-08
  -13.6400003       1.97992719E-07
  -13.6300001       2.97084711E-07
  -13.6199999       3.35687588E-07
  -13.6099997       2.95523307E-07
  -13.6000004       1.75916355E-07
  -13.5900002      -3.56324925E-09
  -13.5799999      -2.05362909E-07
  -13.5699997      -3.81210100E-07
  -13.5600004      -4.83157294E-07
  -13.5500002      -4.76024240E-07
  -13.5400000      -3.48158352E-07
  -13.5299997      -1.17463131E-07
  -13.5200005       1.69507416E-07
  -13.5100002       4.46047324E-07
  -13.5000000       6.40127212E-07
  -13.4899998       6.92454421E-07
  -13.4799995       5.73422938E-07
  -13.4700003       2.94359722E-07
  -13.4600000      -9.05856723E-08
  -13.4499998      -4.93535367E-07
  -13.4399996      -8.11887958E-07
  -13.4300003      -9.53413064E-07
  -13.4200001      -8.61555066E-07
  -13.4099998      -5.34319611E-07
  -13.3999996      -3.10336041E-08
  -13.3900003       5.36194079E-07
  -13.3800001       1.02582021E-06
  -13.3699999       1.30058049E-06
  -13.3599997       1.26389716E-06
  -13.3500004       8.89741045E-07
  -13.3400002       2.37398879E-07
  -13.3299999      -5.54398810E-07
  -13.3199997      -1.29473551E-06
  -13.3100004      -1.78439018E-06
  -13.3000002      -1.86672412E-06
  -13.2900000      -1.47308833E-06
  -13.2799997      -6.50361585E-07
  -13.2700005       4.38447586E-07
  -13.2600002       1.54356189E-06
  -13.2500000       2.38333973E-06
  -13.2399998       2.71323051E-06
  -13.2299995       2.39246856E-06
  -13.2200003       1.43110526E-06
  -13.2100000       3.27074479E-09
  -13.1999998      -1.58018292E-06
  -13.1899996      -2.93675384E-06
  -13.1800003      -3.70221142E-06
  -13.1700001      -3.62485480E-06
  -13.1599998      -2.64048117E-06
  -13.1499996      -9.07058791E-07
  -13.1400003       1.21363973E-06
  -13.1300001       3.22788333E-06
  -13.1199999       4.62216394E-06
  -13.1099997       4.99105045E-06
  -13.1000004       4.14974056E-06
  -13.0900002       2.20133029E-06
  -13.0799999      -4.62496530E-07
  -13.0699997      -3.23372069E-06
  -13.0600004      -5.42166526E-06
  -13.0500002      -6.41996394E-06
  -13.0400000      -5.86769193E-06
  -13.0299997      -3.76344451E-06
  -13.0200005      -4.99277235E-07
  -13.0100002       3.20138815E-06
  -13.0000000       6.43504563E-06
  -12.9899998       8.32872865E-06
  -12.9799995       8.26257292E-06
  -12.9700003       6.04974275E-06
  -12.9600000       2.02494266E-06
  -12.9499998      -2.98873329E-06
  -12.9399996      -7.83728501E-06
  -12.9300003      -1.12896869E-05
  -12.9200001      -1.23339960E-05
  -12.9099998      -1.04465516E-05
  -12.8999996      -5.76591174E-06
  -12.8900003       8.79068352E-07
  -12.8800001       8.10610891E-06
  -12.8699999       1.42617146E-05
  -12.8599997       1.77922320E-05
  -12.8500004       1.76213489E-05
  -12.8400002       1.34438278E-05
  -12.8299999       5.85871931E-06
  -12.8199997      -3.70159341E-06
  -12.8100004      -1.32442710E-05
  -12.8000002      -2.06399727E-05
  -12.7900000      -2.41074176E-05
  -12.7799997      -2.26476095E-05
  -12.7700005      -1.63215791E-05
  -12.7600002      -6.29616306E-06
  -12.7500000       5.36693506E-06
  -12.7399998       1.61438584E-05
  -12.7299995       2.36130818E-05
  -12.7200003       2.60249853E-05
  -12.7100000       2.27413748E-05
  -12.6999998       1.44333271E-05
  -12.6899996       2.97740871E-06
  -12.6800003      -8.94073582E-06
  -12.6700001      -1.84356377E-05
  -12.6599998      -2.31089325E-05
  -12.6499996      -2.16528460E-05
  -12.6400003      -1.42205972E-05
  -12.6300001      -2.46221998E-06
  -12.6199999       1.08003032E-05
  -12.6099997       2.21991468E-05
  -12.6000004       2.86125851E-05
  -12.5900002       2.79402120E-05
  -12.5799999       1.96734181E-05
  -12.5699997       5.11269627E-06
  -12.5600004      -1.28388247E-05
  -12.5500002      -3.02774733E-05
  -12.5400000      -4.31714507E-05
  -12.5299997      -4.83066106E-05
  -12.5200005      -4.40812182E-05
  -12.5100002      -3.09507122E-05
  -12.5000000      -1.13988681E-05
  -12.4899998       1.05794625E-05
  -12.4799995       3.03810048E-05
  -12.4700003       4.38805182E-05
  -12.4600000       4.84454140E-05
  -12.4499998       4.36282244E-05
  -12.4399996       3.13534438E-05
  -12.4300003       1.55296657E-05
  -12.4200001       1.15473813E-06
  -12.4099998      -6.89185390E-06
  -12.3999996      -5.08995254E-06
  -12.3900003       7.74733780E-06
  -12.3800001       3.00163156E-05
  -12.3699999       5.75177219E-05
  -12.3599997       8.42885274E-05
  -12.3500004       1.03900944E-04
  -12.3400002       1.10939756E-04
  -12.3299999       1.02314931E-04
  -12.3199997       7.80927439E-05
  -12.3100004       4.16317816E-05
  -12.3000002      -1.03164155E-06
  -12.2900000      -4.24282080E-05
  -12.2799997      -7.52572814E-05
  -12.2700005      -9.39813399E-05
  -12.2600002      -9.60422694E-05
  -12.2500000      -8.24106537E-05
  -12.2399998      -5.73316029E-05
  -12.2299995      -2.73186761E-05
  -12.2200003       3.73837651E-07
  -12.2100000       1.94441309E-05
  -12.1999998       2.60025645E-05
  -12.1899996       1.94515051E-05
  -12.1800003       2.57487636E-06
  -12.1700001      -1.91854742E-05
  -12.1599998      -3.90953246E-05
  -12.1499996      -5.08097692E-05
  -12.1400003      -4.99681555E-05
  -12.1300001      -3.53186733E-05
  -12.1199999      -9.09976097E-06
  -12.1099997       2.34179479E-05
  -12.1000004       5.51260564E-05
  -12.0900002       7.87309109E-05
  -12.0799999       8.84769906E-05
  -12.0699997       8.15370004E-05
  -12.0600004       5.87421819E-05
  -12.0500002       2.44807907E-05
  -12.0400000      -1.42142262E-05
  -12.0299997      -4.91807550E-05
  -12.0200005      -7.29021413E-05
  -12.0100002      -8.01412825E-05
  -12.0000000      -6.90713860E-05
  -11.9899998      -4.16593648E-05
  -11.9799995      -3.22948267E-06
  -11.9700003       3.86815336E-05
  -11.9600000       7.59125687E-05
  -11.9499998       1.01354461E-04
  -11.9399996       1.10352019E-04
  -11.9300003       1.01542610E-04
  -11.9200001       7.69767503E-05
  -11.9099998       4.15299583E-05
  -11.8999996       1.76904450E-06
  -11.8900003      -3.54533258E-05
  -11.8800001      -6.43579333E-05
  -11.8699999      -8.12632425E-05
  -11.8599997      -8.50781507E-05
  -11.8500004      -7.71978957E-05
  -11.8400002      -6.08769042E-05
  -11.8299999      -4.02662190E-05
  -11.8199997      -1.93674114E-05
  -11.8100004      -1.15686134E-06
  -11.8000002       1.29236532E-05
  -11.7900000       2.30158203E-05
  -11.7799997       3.04583991E-05
  -11.7700005       3.70990201E-05
  -11.7600002       4.45085425E-05
  -11.7500000       5.33201746E-05
  -11.7399998       6.28765411E-05
  -11.7299995       7.12833498E-05
  -11.7200003       7.58591705E-05
  -11.7100000       7.38650415E-05
  -11.6999998       6.33216114E-05
  -11.6899996       4.36942537E-05
  -11.6800003       1.62562410E-05
  -11.6700001      -1.59813826E-05
  -11.6599998      -4.87749785E-05
  -11.6499996      -7.74782820E-05
  -11.6400003      -9.80002224E-05
  -11.6300001      -1.07655498E-04
  -11.6199999      -1.05694737E-04
  -11.6099997      -9.33785341E-05
  -11.6000004      -7.35748545E-05
  -11.5900002      -4.99831731E-05
  -11.5799999      -2.61890491E-05
  -11.5699997      -4.80243307E-06
  -11.5600004       1.30841181E-05
  -11.5500002       2.79626329E-05
  -11.5400000       4.14755777E-05
  -11.5299997       5.55953848E-05
  -11.5200005       7.16505892E-05
  -11.5100002       8.94920231E-05
  -11.5000000       1.07074855E-04
  -11.4899998       1.20635726E-04
  -11.4799995       1.25489067E-04
  -11.4700003       1.17290576E-04
  -11.4600000       9.34649215E-05
  -11.4499998       5.44123286E-05
  -11.4399996       4.12286545E-06
  -11.4300003      -5.00566566E-05
  -11.4200001      -9.85623919E-05
  -11.4099998      -1.31487483E-04
  -11.3999996      -1.40808406E-04
  -11.3900003      -1.22450321E-04
  -11.3800001      -7.76659144E-05
  -11.3699999      -1.33210397E-05
  -11.3599997       5.90875206E-05
  -11.3500004       1.25563136E-04
  -11.3400002       1.72482905E-04
  -11.3299999       1.89598562E-04
  -11.3199997       1.72475819E-04
  -11.3100004       1.23771810E-04
  -11.3000002       5.29882200E-05
  -11.2900000      -2.53240723E-05
  -11.2799997      -9.45720240E-05
  -11.2700005      -1.39703610E-04
  -11.2600002      -1.50571053E-04
  -11.2500000      -1.24298429E-04
  -11.2399998      -6.60823353E-05
  -11.2299995       1.18009802E-05
  -11.2200003       9.26001958E-05
  -11.2100000       1.58746785E-04
  -11.1999998       1.95752931E-04
  -11.1899996       1.95465458E-04
  -11.1800003       1.57925577E-04
  -11.1700001       9.13948170E-05
  -11.1599998       1.05232466E-05
  -11.1499996      -6.69370056E-05
  -11.1400003      -1.24133454E-04
  -11.1300001      -1.48922132E-04
  -11.1199999      -1.36616160E-04
  -11.1099997      -9.10457748E-05
  -11.1000004      -2.36864598E-05
  -11.0900002       4.89494669E-05
  -11.0799999       1.09067943E-04
  -11.0699997       1.41647935E-04
  -11.0600004       1.37884912E-04
  -11.0500002       9.72542402E-05
  -11.0400000       2.77401250E-05
  -11.0299997      -5.58132306E-05
  -11.0200005      -1.34856105E-04
  -11.0100002      -1.91096202E-04
  -11.0000000      -2.10407728E-04
  -10.9899998      -1.85852303E-04
  -10.9799995      -1.19185075E-04
  -10.9700003      -2.05575780E-05
  -10.9600000       9.34835334E-05
  -10.9499998       2.03249860E-04
  -10.9399996       2.89721938E-04
  -10.9300003       3.38134909E-04
  -10.9200001       3.40636936E-04
  -10.9099998       2.97536637E-04
  -10.8999996       2.16960630E-04
  -10.8900003       1.13065013E-04
  -10.8800001       3.21725793E-06
  -10.8699999      -9.52624468E-05
  -10.8599997      -1.68164639E-04
  -10.8500004      -2.06702171E-04
  -10.8400002      -2.08690952E-04
  -10.8299999      -1.78455986E-04
  -10.8199997      -1.25561695E-04
  -10.8100004      -6.26732071E-05
  -10.8000002      -2.99196199E-06
  -10.7900000       4.22415833E-05
  -10.7799997       6.57258788E-05
  -10.7700005       6.52216113E-05
  -10.7600002       4.36552327E-05
  -10.7500000       8.22914717E-06
  -10.7399998      -3.12531665E-05
  -10.7299995      -6.44988395E-05
  -10.7200003      -8.28504271E-05
  -10.7100000      -8.10041456E-05
  -10.6999998      -5.79862644E-05
  -10.6899996      -1.72029431E-05
  -10.6800003       3.44300061E-05
  -10.6700001       8.80776715E-05
  -10.6599998       1.34941060E-04
  -10.6499996       1.68137922E-04
  -10.6400003       1.84083518E-04
  -10.6300001       1.83055687E-04
  -10.6199999       1.68815779E-04
  -10.6099997       1.47382205E-04
  -10.6000004       1.25261780E-04
  -10.5900002       1.07587119E-04
  -10.5799999       9.66443404E-05
  -10.5699997       9.11921306E-05
  -10.5600004       8.67833369E-05
  -10.5500002       7.70486295E-05
  -10.5400000       5.56469204E-05
  -10.5299997       1.83961620E-05
  -10.5200005      -3.49783186E-05
  -10.5100002      -9.99767290E-05
  -10.5000000      -1.67642400E-04
  -10.4899998      -2.26084376E-04
  -10.4799995      -2.62921356E-04
  -10.4700003      -2.68115429E-04
  -10.4600000      -2.36534674E-04
  -10.4499998      -1.69612031E-04
  -10.4399996      -7.56505469E-05
  -10.4300003       3.13764649E-05
  -10.4200001       1.34336922E-04
  -10.4099998       2.16261440E-04
  -10.3999996       2.63774215E-04
  -10.3900003       2.69892742E-04
  -10.3800001       2.35583924E-04
  -10.3699999       1.69730440E-04
  -10.3599997       8.75024198E-05
  -10.3500004       7.46661453E-06
  -10.3400002      -5.19776295E-05
  -10.3299999      -7.61240590E-05
  -10.3199997      -5.67673123E-05
  -10.3100004       6.21579693E-06
  -10.3000002       1.04759361E-04
  -10.2900000       2.23934170E-04
  -10.2799997       3.44411150E-04
  -10.2700005       4.45596583E-04
  -10.2600002       5.08906029E-04
  -10.2500000       5.20674803E-04
  -10.2399998       4.74307803E-04
  -10.2299995       3.71411850E-04
  -10.2200003       2.21800074E-04
  -10.2100000       4.23892670E-05
  -10.1999998      -1.44880527E-04
  -10.1899996      -3.15881538E-04
  -10.1800003      -4.47581464E-04
  -10.1700001      -5.21388545E-04
  -10.1599998      -5.26111282E-04
  -10.1499996      -4.60064883E-04
  -10.1400003      -3.31902120E-04
  -10.1300001      -1.59881514E-04
  -10.1199999       3.04899604E-05
  -10.1099997       2.10212456E-04
  -10.1000004       3.51420895E-04
  -10.0900002       4.32117726E-04
  -10.0799999       4.40134318E-04
  -10.0699997       3.75511794E-04
  -10.0600004       2.50747195E-04
  -10.0500002       8.87529459E-05
  -10.0400000      -8.11546415E-05
  -10.0299997      -2.28495628E-04
  -10.0200005      -3.27073998E-04
  -10.0100002      -3.59551486E-04
  -10.0000000      -3.20249266E-04
  -9.98999977      -2.15666689E-04
  -9.97999954      -6.27048576E-05
  -9.97000027       1.14926195E-04
  -9.96000004       2.91272649E-04
  -9.94999981       4.42678051E-04
  -9.93999958       5.51390287E-04
  -9.93000031       6.07619295E-04
  -9.92000008       6.09843060E-04
  -9.90999985       5.63584385E-04
  -9.89999962       4.79198323E-04
  -9.89000034       3.69358226E-04
  -9.88000011       2.46871088E-04
  -9.86999989       1.23237973E-04
  -9.85999966       8.07086326E-06
  -9.85000038      -9.08148213E-05
  -9.84000015      -1.67004415E-04
  -9.82999992      -2.15200416E-04
  -9.81999969      -2.31355094E-04
  -9.81000042      -2.13302410E-04
  -9.80000019      -1.61721313E-04
  -9.78999996      -8.10638885E-05
  -9.77999973       1.99922470E-05
  -9.77000046       1.28932268E-04
  -9.76000023       2.30785765E-04
  -9.75000000       3.10368487E-04
  -9.73999977       3.54972435E-04
  -9.72999954       3.56908335E-04
  -9.72000027       3.15272657E-04
  -9.71000004       2.36450462E-04
  -9.69999981       1.33145921E-04
  -9.68999958       2.20824877E-05
  -9.68000031      -7.91556668E-05
  -9.67000008      -1.55449990E-04
  -9.65999985      -1.96901427E-04
  -9.64999962      -2.00407696E-04
  -9.64000034      -1.69747756E-04
  -9.63000011      -1.14221868E-04
  -9.61999989      -4.62415264E-05
  -9.60999966       2.14988959E-05
  -9.60000038       7.85696466E-05
  -9.59000015       1.18488650E-04
  -9.57999992       1.39220196E-04
  -9.56999969       1.42505582E-04
  -9.56000042       1.32356712E-04
  -9.55000019       1.13250127E-04
  -9.53999996       8.86030539E-05
  -9.52999973       5.99884042E-05
  -9.52000046       2.72900706E-05
  -9.51000023      -1.03064058E-05
  -9.50000000      -5.28621276E-05
  -9.48999977      -9.82994097E-05
  -9.47999954      -1.41604163E-04
  -9.47000027      -1.74975008E-04
  -9.46000004      -1.89006867E-04
  -9.44999981      -1.74693341E-04
  -9.43999958      -1.25782186E-04
  -9.43000031      -4.08890446E-05
  -9.42000008       7.51985863E-05
  -9.40999985       2.11422885E-04
  -9.39999962       3.51685856E-04
  -9.39000034       4.77229158E-04
  -9.38000011       5.69724885E-04
  -9.36999989       6.14483142E-04
  -9.35999966       6.03154127E-04
  -9.35000038       5.35408501E-04
  -9.34000015       4.19279531E-04
  -9.32999992       2.70103599E-04
  -9.31999969       1.08246546E-04
  -9.31000042      -4.39916657E-05
  -9.30000019      -1.65772552E-04
  -9.28999996      -2.40857218E-04
  -9.27999973      -2.59982975E-04
  -9.27000046      -2.22105708E-04
  -9.26000023      -1.34324466E-04
  -9.25000000      -1.05219115E-05
  -9.23999977       1.31032240E-04
  -9.22999954       2.70692486E-04
  -9.22000027       3.90535803E-04
  -9.21000004       4.77007037E-04
  -9.19999981       5.22660965E-04
  -9.18999958       5.26728691E-04
  -9.18000031       4.94469481E-04
  -9.17000008       4.35512280E-04
  -9.15999985       3.61588551E-04
  -9.14999962       2.84162583E-04
  -9.14000034       2.12458384E-04
  -9.13000011       1.52258712E-04
  -9.11999989       1.05650710E-04
  -9.10999966       7.16595896E-05
  -9.10000038       4.75067063E-05
  -9.09000015       3.01013151E-05
  -9.07999992       1.73509889E-05
  -9.06999969       8.95417816E-06
  -9.06000042       6.49404456E-06
  -9.05000019       1.28418333E-05
  -9.03999996       3.10539035E-05
  -9.02999973       6.30691429E-05
  -9.02000046       1.08559158E-04
  -9.01000023       1.64249912E-04
  -9.00000000       2.23930707E-04
  -8.98999977       2.79217056E-04
  -8.97999954       3.20969906E-04
  -8.97000027       3.41122039E-04
  -8.96000004       3.34549346E-04
  -8.94999981       3.00575834E-04
  -8.93999958       2.43730319E-04
  -8.93000031       1.73484877E-04
  -8.92000008       1.02893413E-04
  -8.90999985       4.62832977E-05
  -8.89999962       1.63895838E-05
  -8.89000034       2.15031923E-05
  -8.88000011       6.32786614E-05
  -8.86999989       1.35772818E-04
  -8.85999966       2.26063697E-04
  -8.85000038       3.16461606E-04
  -8.84000015       3.87945591E-04
  -8.82999992       4.24135156E-04
  -8.81999969       4.14926588E-04
  -8.81000042       3.58948688E-04
  -8.80000019       2.64229428E-04
  -8.78999996       1.46864200E-04
  -8.77999973       2.79408941E-05
  -8.77000046      -7.06141145E-05
  -8.76000023      -1.30355082E-04
  -8.75000000      -1.39863987E-04
  -8.73999977      -9.67892847E-05
  -8.72999954      -8.00880571E-06
  -8.72000027       1.12016794E-04
  -8.71000004       2.44246767E-04
  -8.69999981       3.68717388E-04
  -8.68999958       4.68086684E-04
  -8.68000031       5.30409277E-04
  -8.67000008       5.50716824E-04
  -8.65999985       5.31257596E-04
  -8.64999962       4.80504736E-04
  -8.64000034       4.11227666E-04
  -8.63000011       3.38020705E-04
  -8.61999989       2.74707971E-04
  -8.60999966       2.32019724E-04
  -8.60000038       2.15881882E-04
  -8.59000015       2.26581382E-04
  -8.57999992       2.58962158E-04
  -8.56999969       3.03657813E-04
  -8.56000042       3.49183189E-04
  -8.55000019       3.84511310E-04
  -8.53999996       4.01608995E-04
  -8.52999973       3.97344178E-04
  -8.52000046       3.74264113E-04
  -8.51000023       3.39974911E-04
  -8.50000000       3.05197027E-04
  -8.48999977       2.80934968E-04
  -8.47999954       2.75477360E-04
  -8.47000027       2.92037235E-04
  -8.46000004       3.27708141E-04
  -8.44999981       3.74068855E-04
  -8.43999958       4.19310003E-04
  -8.43000031       4.51318861E-04
  -8.42000008       4.60874318E-04
  -8.40999985       4.44072939E-04
  -8.39999962       4.03332582E-04
  -8.39000034       3.46738350E-04
  -8.38000011       2.85974384E-04
  -8.36999989       2.33470942E-04
  -8.35999966       1.99573478E-04
  -8.35000038       1.90467093E-04
  -8.34000015       2.07300574E-04
  -8.32999992       2.46561627E-04
  -8.31999969       3.01398104E-04
  -8.31000042       3.63365107E-04
  -8.30000019       4.24069032E-04
  -8.28999996       4.76344314E-04
  -8.27999973       5.14853979E-04
  -8.27000046       5.36239531E-04
  -8.26000023       5.39065397E-04
  -8.25000000       5.23776223E-04
  -8.23999977       4.92737512E-04
  -8.22999954       4.50257241E-04
  -8.22000027       4.02371021E-04
  -8.21000004       3.56190780E-04
  -8.19999981       3.18774924E-04
  -8.18999958       2.95707403E-04
  -8.18000031       2.89777352E-04
  -8.17000008       3.00225132E-04
  -8.15999985       3.22909909E-04
  -8.14999962       3.51475086E-04
  -8.14000034       3.79232806E-04
  -8.13000011       4.01196128E-04
  -8.11999989       4.15574090E-04
  -8.10999966       4.24178172E-04
  -8.10000038       4.31537483E-04
  -8.09000015       4.42974444E-04
  -8.07999992       4.62282478E-04
  -8.06999969       4.89827362E-04
  -8.06000042       5.21787151E-04
  -8.05000019       5.50869911E-04
  -8.03999996       5.68337040E-04
  -8.02999973       5.66691742E-04
  -8.02000046       5.42139809E-04
  -8.01000023       4.95994173E-04
  -8.00000000       4.34551010E-04
  -7.98999977       3.67497007E-04
  -7.98000002       3.05412657E-04
  -7.96999979       2.57235661E-04
  -7.96000004       2.28524281E-04
  -7.94999981       2.21032635E-04
  -7.94000006       2.33592538E-04
  -7.92999983       2.63794034E-04
  -7.92000008       3.09664320E-04
  -7.90999985       3.70570109E-04
  -7.90000010       4.46909224E-04
  -7.88999987       5.38685708E-04
  -7.88000011       6.43568463E-04
  -7.86999989       7.55319081E-04
  -7.86000013       8.63415538E-04
  -7.84999990       9.54307092E-04
  -7.84000015       1.01414404E-03
  -7.82999992       1.03225210E-03
  -7.82000017       1.00427587E-03
  -7.80999994       9.33946867E-04
  -7.80000019       8.32821883E-04
  -7.78999996       7.17976887E-04
  -7.78000021       6.08286180E-04
  -7.76999998       5.20359725E-04
  -7.76000023       4.65290272E-04
  -7.75000000       4.47057100E-04
  -7.73999977       4.62865777E-04
  -7.73000002       5.05075033E-04
  -7.71999979       5.63897309E-04
  -7.71000004       6.29914808E-04
  -7.69999981       6.95654773E-04
  -7.69000006       7.55924906E-04
  -7.67999983       8.07127741E-04
  -7.67000008       8.46160168E-04
  -7.65999985       8.69610405E-04
  -7.65000010       8.73769342E-04
  -7.63999987       8.55565711E-04
  -7.63000011       8.14082450E-04
  -7.61999989       7.52009335E-04
  -7.61000013       6.76344207E-04
  -7.59999990       5.97893551E-04
  -7.59000015       5.29546640E-04
  -7.57999992       4.83748328E-04
  -7.57000017       4.69888881E-04
  -7.55999994       4.92368301E-04
  -7.55000019       5.49868972E-04
  -7.53999996       6.35966659E-04
  -7.53000021       7.40789983E-04
  -7.51999998       8.53150908E-04
  -7.51000023       9.62506747E-04
  -7.50000000       1.06028095E-03
  -7.48999977       1.14037562E-03
  -7.48000002       1.19902054E-03
  -7.46999979       1.23430253E-03
  -7.46000004       1.24572846E-03
  -7.44999981       1.23402954E-03
  -7.44000006       1.20118912E-03