  -16.0000000       0.00000000    
  -15.9899998       0.00000000    
  -15.9799995       0.00000000    
  -15.9700003       0.00000000    
  -15.9600000       0.00000000    
  -15.9499998       0.00000000    
  -15.9399996       0.00000000    
  -15.9300003       0.00000000    
  -15.9200001       0.00000000    
  -15.9099998       0.00000000    
  -15.8999996      -1.25863227E-40
  -15.8900003      -6.27269117E-39
  -15.8800001      -1.62328073E-37
  -15.8699999      -2.60103165E-36
  -15.8599997      -2.87895269E-35
  -15.8500004      -2.39029682E-34
  -15.8400002      -1.57865310E-33
  -15.8299999      -8.64580797E-33
  -15.8199997      -4.04563484E-32
  -15.8100004      -1.65303188E-31
  -15.8000002      -5.99271581E-31
  -15.7900000      -1.95025478E-30
  -15.7799997      -5.74562643E-30
  -15.7700005      -1.54122905E-29
  -15.7600002      -3.77737034E-29
  -15.7500000      -8.46928656E-29
  -15.7399998      -1.73496075E-28
  -15.7299995      -3.23218567E-28
  -15.7200003      -5.42067716E-28
  -15.7100000      -8.01379835E-28
  -15.6999998      -9.95395707E-28
  -15.6899996      -8.97074768E-28
  -15.6800003      -1.38144704E-28
  -15.6700001       1.73890173E-27
  -15.6599998       5.10144291E-27
  -15.6499996       9.88716350E-27
  -15.6400003       1.51385767E-26
  -15.6300001       1.85538467E-26
  -15.6199999       1.63136774E-26
  -15.6099997       3.51863626E-27
  -15.6000004      -2.44454005E-26
  -15.5900002      -6.94204314E-26
  -15.5799999      -1.26896264E-25
  -15.5699997      -1.81714603E-25
  -15.5600004      -2.04088596E-25
  -15.5500002      -1.48256953E-25
  -15.5400000       4.17917738E-26
  -15.5299997       4.12789810E-25
  -15.5200005       9.61990236E-25
  -15.5100002       1.57573753E-24
  -15.5000000       1.96348505E-24
  -15.4899998       1.63236374E-24
  -15.4799995      -2.32663292E-26
  -15.4700003      -3.43781244E-24
  -15.4600000      -8.37161360E-24
  -15.4499998      -1.33076638E-23
  -15.4399996      -1.50824967E-23
  -15.4300003      -9.28462149E-24
  -15.4200001       8.04028413E-24
  -15.4099998       3.72335942E-23
  -15.3999996       7.11802321E-23
  -15.3900003       9.27901868E-23
  -15.3800001       7.68253586E-23
  -15.3699999      -1.09493726E-24
  -15.3599997      -1.47817678E-22
  -15.3500004      -3.32589993E-22
  -15.3400002      -4.73907394E-22
  -15.3299999      -4.47810815E-22
  -15.3199997      -1.30262746E-22
  -15.3100004       5.25529593E-22
  -15.3000002       1.39773440E-21
  -15.2900000       2.13676403E-21
  -15.2799997       2.20025156E-21
  -15.2700005       1.03234816E-21
  -15.2600002      -1.61405647E-21
  -15.2500000      -5.30207303E-21
  -15.2399998      -8.66945786E-21
  -15.2299995      -9.56049617E-21
  -15.2200003      -5.71544968E-21
  -15.2100000       4.00069821E-21
  -15.1999998       1.81772051E-20
  -15.1899996       3.19358925E-20
  -15.1800003       3.73696839E-20
  -15.1700001       2.59845348E-20
  -15.1599998      -6.93769466E-21
  -15.1499996      -5.72775205E-20
  -15.1400003      -1.08704612E-19
  -15.1300001      -1.33932445E-19
  -15.1199999      -1.02796126E-19
  -15.1099997       3.06167817E-21
  -15.1000004       1.72862744E-19
  -15.0900002       3.54530102E-19
  -15.0799999       4.57401462E-19
  -15.0699997       3.77344829E-19
  -15.0600004       4.43187313E-20
  -15.0500002      -5.19455466E-19
  -15.0400000      -1.15509052E-18
  -15.0299997      -1.56784765E-18
  -15.0200005      -1.39945963E-18
  -15.0100002      -3.76645266E-19
  -15.0000000       1.49576899E-18
  -14.9899998       3.76947156E-18
  -14.9799995       5.51477013E-18
  -14.9700003       5.50295551E-18
  -14.9600000       2.64508020E-18
  -14.9499998      -3.38232767E-18
  -14.9399996      -1.15240934E-17
  -14.9300003      -1.90501912E-17
  -14.9200001      -2.18974776E-17
  -14.9099998      -1.58435031E-17
  -14.8999996       1.57956156E-18
  -14.8900003       2.89189820E-17
  -14.8800001       5.92512649E-17
  -14.8699999       8.02959705E-17
  -14.8599997       7.70381495E-17
  -14.8500004       3.70112866E-17
  -14.8400002      -4.27240209E-17
  -14.8299999      -1.49126291E-16
  -14.8199997      -2.50368857E-16
  -14.8100004      -2.99788042E-16
  -14.8000002      -2.48294579E-16
  -14.7900000      -6.41361635E-17
  -14.7799997       2.44812348E-16
  -14.7700005       6.14477563E-16
  -14.7600002       9.23501494E-16
  -14.7500000       1.01549001E-15
  -14.7399998       7.46323483E-16
  -14.7299995       4.86018638E-17
  -14.7200003      -1.00539571E-15
  -14.7100000      -2.16858032E-15
  -14.6999998      -3.03832243E-15
  -14.6899996      -3.14610928E-15
  -14.6800003      -2.11197077E-15
  -14.6700001       1.70295815E-16
  -14.6599998       3.37735308E-15
  -14.6499996       6.70294229E-15
  -14.6400003       8.96843906E-15
  -14.6300001       8.91862928E-15
  -14.6199999       5.66002620E-15
  -14.6099997      -8.72005755E-16
  -14.6000004      -9.58358911E-15
  -14.5900002      -1.82031023E-14
  -14.5799999      -2.36875525E-14
  -14.5699997      -2.30480765E-14
  -14.5600004      -1.44286658E-14
  -14.5500002       1.87549527E-15
  -14.5400000       2.28488611E-14
  -14.5299997       4.29760021E-14
  -14.5200005       5.54018908E-14
  -14.5100002       5.38817478E-14
  -14.5000000       3.50429287E-14
  -14.4899998       2.44552361E-16
  -14.4799995      -4.37128395E-14
  -14.4700003      -8.55412881E-14
  -14.4600000      -1.12119671E-13
  -14.4499998      -1.12288901E-13
  -14.4399996      -8.07133020E-14
  -14.4300003      -2.05118752E-14
  -14.4200001       5.64220403E-14
  -14.4099998       1.31840990E-13
  -14.3999996       1.85815691E-13
  -14.3900003       2.02305065E-13
  -14.3800001       1.73807000E-13
  -14.3699999       1.03464302E-13
  -14.3599997       3.86788786E-15
  -14.3500004      -1.06926410E-13
  -14.3400002      -2.10465448E-13
  -14.3299999      -2.91810657E-13
  -14.3199997      -3.40535082E-13
  -14.3100004      -3.48516029E-13
  -14.3000002      -3.06178070E-13
  -14.2900000      -2.00366836E-13
  -14.2799997      -1.72093666E-14
  -14.2700005       2.48407008E-13
  -14.2600002       5.78496452E-13
  -14.2500000       9.18462030E-13
  -14.2399998       1.17275840E-12
  -14.2299995       1.21766074E-12
  -14.2200003       9.34565684E-13
  -14.2100000       2.59209456E-13
  -14.1999998      -7.67069730E-13
  -14.1899996      -1.96461684E-12
  -14.1800003      -3.02229877E-12
  -14.1700001      -3.55658862E-12
  -14.1599998      -3.21919574E-12
  -14.1499996      -1.82922037E-12
  -14.1400003       5.11389325E-13
  -14.1300001       3.36652125E-12
  -14.1199999       6.01581892E-12
  -14.1099997       7.61561821E-12
  -14.1000004       7.44244943E-12
  -14.0900002       5.15363446E-12
  -14.0799999       9.78087186E-13
  -14.0699997      -4.24345715E-12
  -14.0600004      -9.21234963E-12
  -14.0500002      -1.25027523E-11
  -14.0400000      -1.29854990E-11
  -14.0299997      -1.02140518E-11
  -14.0200005      -4.63429338E-12
  -14.0100002       2.47670070E-12
  -14.0000000       9.35189426E-12
  -13.9899998       1.42626137E-11
  -13.9799995       1.60595686E-11
  -13.9700003       1.45278312E-11
  -13.9600000       1.04079792E-11
  -13.9499998       5.05394251E-12
  -13.9399996      -1.54482912E-13
  -13.9300003      -4.40570020E-12
  -13.9200001      -7.78229564E-12
  -13.9099998      -1.11228258E-11
  -13.8999996      -1.54065267E-11
  -13.8900003      -2.08763631E-11
  -13.8800001      -2.62980245E-11
  -13.8699999      -2.87971990E-11
  -13.8599997      -2.45687984E-11
  -13.8500004      -1.04279172E-11
  -13.8400002       1.42322647E-11
  -13.8299999       4.58410011E-11
  -13.8199997       7.62673882E-11
  -13.8100004       9.42641035E-11
  -13.8000002       8.87660431E-11
  -13.7900000       5.33070775E-11
  -13.7799997      -9.86765964E-12
  -13.7700005      -8.77272213E-11
  -13.7600002      -1.57859101E-10
  -13.7500000      -1.93859359E-10
  -13.7399998      -1.73831616E-10
  -13.7299995      -8.96959729E-11
  -13.7200003       4.59176343E-11
  -13.7100000       1.98385072E-10
  -13.6999998       3.17398607E-10
  -13.6899996       3.50623058E-10
  -13.6800003       2.61771632E-10
  -13.6700001       4.78896367E-11
  -13.6599998      -2.50365062E-10
  -13.6499996      -5.50742119E-10
  -13.6400003      -7.46100570E-10
  -13.6300001      -7.33819838E-10
  -13.6199999      -4.51326615E-10
  -13.6099997       9.23104579E-11
  -13.6000004       7.99702915E-10
  -13.5900002       1.49203661E-09
  -13.5799999       1.94276639E-09
  -13.5699997       1.93393146E-09
  -13.5600004       1.32343114E-09
  -13.5500002       1.06204122E-10
  -13.5400000      -1.54920587E-09
  -13.5299997      -3.30381678E-09
  -13.5200005      -4.69827199E-09
  -13.5100002      -5.24598809E-09
  -13.5000000      -4.55403182E-09
  -13.4899998      -2.44699327E-09
  -13.4799995       9.35691302E-10
  -13.4700003       5.09731102E-09
  -13.4600000       9.21716392E-09
  -13.4499998       1.22673978E-08
  -13.4399996       1.32048896E-08
  -13.4300003       1.12121619E-08
  -13.4200001       5.94578609E-09
  -13.4099998      -2.26025398E-09
  -13.3999996      -1.22919408E-08
  -13.3900003      -2.23022667E-08
  -13.3800001      -2.99380005E-08
  -13.3699999      -3.27455041E-08
  -13.3599997      -2.87142150E-08
  -13.3500004      -1.68719314E-08
  -13.3400002       2.19323404E-09
  -13.3299999       2.60310387E-08
  -13.3199997       5.03868414E-08
  -13.3100004       6.97121152E-08
  -13.3000002       7.81354785E-08
  -13.2900000       7.07869887E-08
  -13.2799997       4.52444944E-08
  -13.2700005       2.77188139E-09
  -13.2600002      -5.10223721E-08
  -13.2500000      -1.06430640E-07
  -13.2399998      -1.50971758E-07
  -13.2299995      -1.71737213E-07
  -13.2200003      -1.58415730E-07
  -13.2100000      -1.06389983E-07
  -13.1999998      -1.91349656E-08
  -13.1899996       9.08521827E-08
  -13.1800003       2.03151330E-07
  -13.1700001       2.92702055E-07
  -13.1599998       3.34888711E-07
  -13.1499996       3.11500855E-07
  -13.1400003       2.16231555E-07
  -13.1300001       5.82439696E-08
  -13.1199999      -1.37431599E-07
  -13.1099997      -3.33303234E-07
  -13.1000004      -4.86383442E-07
  -13.0900002      -5.57514113E-07
  -13.0799999      -5.21058325E-07
  -13.0699997      -3.72580331E-07
  -13.0600004      -1.32326505E-07
  -13.0500002       1.56882706E-07
  -13.0400000       4.37466525E-07
  -13.0299997       6.49253820E-07
  -13.0200005       7.43377029E-07
  -13.0100002       6.94533014E-07
  -13.0000000       5.08351945E-07
  -12.9899998       2.21600942E-07
  -12.9799995      -1.05351432E-07
  -12.9700003      -4.02374411E-07
  -12.9600000      -6.06485401E-07
  -12.9499998      -6.77546950E-07
  -12.9399996      -6.08513858E-07
  -12.9300003      -4.27228457E-07
  -12.9200001      -1.88924503E-07
  -12.9099998       3.88524910E-08
  -12.8999996       1.94978909E-07
  -12.8900003       2.41983656E-07
  -12.8800001       1.76813145E-07
  -12.8699999       3.18276356E-08
  -12.8599997      -1.34550547E-07
  -12.8500004      -2.55073729E-07
  -12.8400002      -2.73870114E-07
  -12.8299999      -1.63604739E-07
  -12.8199997       6.56945147E-08
  -12.8100004       3.69041885E-07
  -12.8000002       6.79586208E-07
  -12.7900000       9.28390534E-07
  -12.7799997       1.06454024E-06
  -12.7700005       1.06880714E-06
  -12.7600002       9.55921223E-07
  -12.7500000       7.64149945E-07
  -12.7399998       5.35308004E-07
  -12.7299995       2.92109945E-07
  -12.7200003       2.15947011E-08
  -12.7100000      -3.27642368E-07
  -12.6999998      -8.30475074E-07
  -12.6899996      -1.55428586E-06
  -12.6800003      -2.51971869E-06
  -12.6700001      -3.66511722E-06
  -12.6599998      -4.82764335E-06
  -12.6499996      -5.75108925E-06
  -12.6400003      -6.12385384E-06
  -12.6300001      -5.64206266E-06
  -12.6199999      -4.08476581E-06
  -12.6099997      -1.38300982E-06
  -12.6000004       2.33577430E-06
  -12.5900002       6.74170269E-06
  -12.5799999       1.13391043E-05
  -12.5699997       1.55392590E-05
  -12.5600004       1.87528040E-05
  -12.5500002       2.04798762E-05
  -12.5400000       2.03768086E-05
  -12.5299997       1.82850908E-05
  -12.5200005       1.42196923E-05
  -12.5100002       8.32622754E-06
  -12.5000000       8.25990298E-07
  -12.4899998      -8.02862542E-06
  -12.4799995      -1.79699819E-05
  -12.4700003      -2.86948416E-05
  -12.4600000      -3.98147786E-05
  -12.4499998      -5.07978257E-05
  -12.4399996      -6.09295676E-05
  -12.4300003      -6.93207257E-05
  -12.4200001      -7.49772880E-05
  -12.4099998      -7.69312901E-05
  -12.3999996      -7.44096396E-05
  -12.3900003      -6.70022710E-05
  -12.3800001      -5.47839991E-05
  -12.3699999      -3.83510087E-05
  -12.3599997      -1.87515743E-05
  -12.3500004       2.68198642E-06
  -12.3400002       2.45650244E-05
  -12.3299999       4.57000460E-05
  -12.3199997       6.52614253E-05
  -12.3100004       8.28734119E-05
  -12.3000002       9.85563529E-05
  -12.2900000       1.12551796E-04
  -12.2799997       1.25073027E-04
  -12.2700005       1.36052637E-04
  -12.2600002       1.44965321E-04
  -12.2500000       1.50789027E-04
  -12.2399998       1.52133332E-04
  -12.2299995       1.47519619E-04
  -12.2200003       1.35754060E-04
  -12.2100000       1.16304880E-04
  -12.1999998       8.95867706E-05
  -12.1899996       5.70730881E-05
  -12.1800003       2.11946826E-05
  -12.1700001      -1.49657089E-05
  -12.1599998      -4.81257630E-05
  -12.1499996      -7.53102213E-05
  -12.1400003      -9.43076375E-05
  -12.1300001      -1.03986604E-04
  -12.1199999      -1.04415383E-04
  -12.1099997      -9.67750675E-05
  -12.1000004      -8.31006546E-05
  -12.0900002      -6.59170764E-05
  -12.0799999      -4.78493639E-05
  -12.0699997      -3.12783850E-05
  -12.0600004      -1.80898096E-05
  -12.0500002      -9.53372819E-06
  -12.0400000      -6.18544800E-06
  -12.0299997      -7.98198562E-06
  -12.0200005      -1.43062998E-05
  -12.0100002      -2.41001544E-05
  -12.0000000      -3.59996848E-05
  -11.9899998      -4.84973571E-05
  -11.9799995      -6.01340216E-05
  -11.9700003      -6.97131763E-05
  -11.9600000      -7.65104633E-05
  -11.9499998      -8.04328083E-05
  -11.9399996      -8.20731802E-05
  -11.9300003      -8.26166070E-05
  -11.9200001      -8.35823739E-05
  -11.9099998      -8.64316316E-05
  -11.8999996      -9.21170576E-05
  -11.8900003      -1.00685676E-04
  -11.8800001      -1.11055117E-04
  -11.8699999      -1.21057390E-04
  -11.8599997      -1.27786072E-04
  -11.8500004      -1.28204309E-04
  -11.8400002      -1.19891942E-04
  -11.8299999      -1.01754442E-04
  -11.8199997      -7.45025682E-05
  -11.8100004      -4.07491607E-05
  -11.8000002      -4.65346920E-06
  -11.7900000       2.88448318E-05
  -11.7799997       5.50484874E-05
  -11.7700005       7.05487182E-05
  -11.7600002       7.40359901E-05
  -11.7500000       6.66591077E-05
  -11.7399998       5.18175621E-05
  -11.7299995       3.44100481E-05
  -11.7200003       1.97016398E-05
  -11.7100000       1.20759923E-05
  -11.6999998       1.39788899E-05
  -11.6899996       2.53213348E-05
  -11.6800003       4.35024813E-05
  -11.6700001       6.40602593E-05
  -11.6599998       8.17998589E-05
  -11.6499996       9.21273313E-05
  -11.6400003       9.22599647E-05
  -11.6300001       8.20118148E-05
  -11.6199999       6.39549689E-05
  -11.6099997       4.29091378E-05
  -11.6000004       2.48754677E-05
  -11.5900002       1.56641818E-05
  -11.5799999       1.95367920E-05
  -11.5699997       3.81767422E-05
  -11.5600004       7.02214747E-05
  -11.5500002       1.11455607E-04
  -11.5400000       1.55614354E-04
  -11.5299997       1.95613393E-04
  -11.5200005       2.24936535E-04
  -11.5100002       2.38891094E-04
  -11.5000000       2.35482599E-04
  -11.4899998       2.15750377E-04
  -11.4799995       1.83521028E-04
  -11.4700003       1.44650097E-04
  -11.4600000       1.05912506E-04
  -11.4499998       7.37561932E-05
  -11.4399996       5.31449150E-05
  -11.4300003       4.66901693E-05
  -11.4200001       5.42167400E-05
  -11.4099998       7.28321975E-05
  -11.3999996       9.74881332E-05
  -11.3900003       1.21940313E-04
  -11.3800001       1.39945900E-04
  -11.3699999       1.46487815E-04
  -11.3599997       1.38799209E-04
  -11.3500004       1.16982723E-04
  -11.3400002       8.40811190E-05
  -11.3299999       4.55544177E-05
  -11.3199997       8.23693426E-06
  -11.3100004      -2.10363287E-05
  -11.3000002      -3.68591063E-05
  -11.2900000      -3.64331536E-05
  -11.2799997      -2.02295778E-05
  -11.2700005       8.03154580E-06
  -11.2600002       4.20972392E-05
  -11.2500000       7.44466161E-05
  -11.2399998       9.78275420E-05
  -11.2299995       1.06722684E-04
  -11.2200003       9.84217550E-05
  -11.2100000       7.34766509E-05
  -11.1999998       3.54700642E-05
  -11.1899996      -9.80609911E-06
  -11.1800003      -5.55344741E-05
  -11.1700001      -9.51270558E-05
  -11.1599998      -1.23279402E-04
  -11.1499996      -1.36642688E-04
  -11.1400003      -1.34059112E-04
  -11.1300001      -1.16427007E-04
  -11.1199999      -8.63380046E-05
  -11.1099997      -4.76383175E-05
  -11.1000004      -5.01579052E-06
  -11.0900002       3.63691870E-05
  -11.0799999       7.12664987E-05
  -11.0699997       9.48200177E-05
  -11.0600004       1.03203740E-04
  -11.0500002       9.43694322E-05
  -11.0400000       6.87509091E-05
  -11.0299997       2.96850158E-05
  -11.0200005      -1.66983682E-05
  -11.0100002      -6.22725202E-05
  -11.0000000      -9.83678838E-05
  -10.9899998      -1.17631513E-04
  -10.9799995      -1.15848008E-04
  -10.9700003      -9.31953546E-05
  -10.9600000      -5.44831382E-05
  -10.9499998      -8.15736530E-06
  -10.9399996       3.57988683E-05
  -10.9300003       6.85821506E-05
  -10.9200001       8.51608202E-05
  -10.9099998       8.59434949E-05
  -10.8999996       7.69124526E-05
  -10.8900003       6.80114754E-05
  -10.8800001       7.00942182E-05
  -10.8699999       9.12200121E-05
  -10.8599997       1.33378519E-04
  -10.8500004       1.90718754E-04
  -10.8400002       2.50023266E-04
  -10.8299999       2.93572928E-04
  -10.8199997       3.03844659E-04
  -10.8100004       2.68875301E-04
  -10.8000002       1.86798599E-04
  -10.7900000       6.81404999E-05
  -10.7799997      -6.50493239E-05
  -10.7700005      -1.83349854E-04
  -10.7600002      -2.56622268E-04
  -10.7500000      -2.61624227E-04
  -10.7399998      -1.88652135E-04
  -10.7299995      -4.53859975E-05
  -10.7200003       1.43285462E-04
  -10.7100000       3.39716964E-04
  -10.6999998       5.01409464E-04
  -10.6899996       5.90614043E-04
  -10.6800003       5.83373185E-04
  -10.6700001       4.75777546E-04
  -10.6599998       2.85815739E-04
  -10.6499996       5.02148614E-05
  -10.6400003      -1.83139346E-04
  -10.6300001      -3.65543965E-04
  -10.6199999      -4.58240276E-04
  -10.6099997      -4.41121898E-04
  -10.6000004      -3.17370606E-04
  -10.5900002      -1.12930749E-04
  -10.5799999       1.29084336E-04
  -10.5699997       3.57802288E-04
  -10.5600004       5.25701209E-04
  -10.5500002       5.98924933E-04
  -10.5400000       5.64503716E-04
  -10.5299997       4.32890462E-04
  -10.5200005       2.35286905E-04
  -10.5100002       1.64104076E-05
  -10.5000000      -1.75630339E-04
  -10.4899998      -3.00042651E-04
  -10.4799995      -3.32220050E-04
  -10.4700003      -2.68791831E-04
  -10.4600000      -1.27757725E-04
  -10.4499998       5.62479581E-05
  -10.4399996       2.40389083E-04
  -10.4300003       3.83728795E-04
  -10.4200001       4.56594193E-04
  -10.4099998       4.46997583E-04
  -10.3999996       3.62636783E-04
  -10.3900003       2.28090721E-04
  -10.3800001       7.80121482E-05
  -10.3699999      -5.18959096E-05
  -10.3599997      -1.33802518E-04
  -10.3500004      -1.54316847E-04
  -10.3400002      -1.17094605E-04
  -10.3299999      -4.09338136E-05
  -10.3199997       4.59967778E-05
  -10.3100004       1.14148999E-04
  -10.3000002       1.40611955E-04
  -10.2900000       1.15014482E-04
  -10.2799997       4.18097261E-05
  -10.2700005      -6.15343815E-05
  -10.2600002      -1.69785824E-04
  -10.2500000      -2.57076317E-04
  -10.2399998      -3.03896581E-04
  -10.2299995      -3.02076834E-04
  -10.2200003      -2.56510975E-04
  -10.2100000      -1.83330907E-04
  -10.1999998      -1.05208404E-04
  -10.1899996      -4.51845190E-05
  -10.1800003      -2.07126923E-05
  -10.1700001      -3.94133385E-05
  -10.1599998      -9.74686845E-05
  -10.1499996      -1.80837291E-04
  -10.1400003      -2.68763193E-04
  -10.1300001      -3.38578655E-04
  -10.1199999      -3.70639522E-04
  -10.1099997      -3.52369185E-04
  -10.1000004      -2.80720706E-04
  -10.0900002      -1.62760363E-04
  -10.0799999      -1.44225860E-05
  -10.0699997       1.42270132E-04
  -10.0600004       2.83079833E-04
  -10.0500002       3.85973573E-04
  -10.0400000       4.35454072E-04
  -10.0299997       4.26073646E-04
  -10.0200005       3.64372856E-04
  -10.0100002       2.68589705E-04
  -10.0000000       1.65799865E-04
  -9.98999977       8.66721311E-05
  -9.97999954       5.86742062E-05
  -9.97000027       9.91555280E-05
  -9.96000004       2.10053870E-04
  -9.94999981       3.75841046E-04
  -9.93999958       5.65679395E-04
  -9.93000031       7.39715295E-04
  -9.92000008       8.58254440E-04
  -9.90999985       8.91607138E-04
  -9.89999962       8.27986281E-04
  -9.89000034       6.77187694E-04
  -9.88000011       4.68833314E-04
  -9.86999989       2.45451141E-04
  -9.85999966       5.21583097E-05
  -9.85000038      -7.42627599E-05
  -9.84000015      -1.13890579E-04
  -9.82999992      -6.74824041E-05
  -9.81999969       4.53288085E-05
  -9.81000042       1.92692503E-04
  -9.80000019       3.39871214E-04
  -9.78999996       4.58355818E-04
  -9.77999973       5.32104285E-04
  -9.77000046       5.59312874E-04
  -9.76000023       5.49667398E-04
  -9.75000000       5.18502551E-04
  -9.73999977       4.80215589E-04
  -9.72999954       4.43344994E-04
  -9.72000027       4.08933556E-04
  -9.71000004       3.72465787E-04
  -9.69999981       3.28289228E-04
  -9.68999958       2.74505495E-04
  -9.68000031       2.16179556E-04
  -9.67000008       1.65400983E-04
  -9.65999985       1.37976924E-04
  -9.64999962       1.47870378E-04
  -9.64000034       2.01421324E-04
  -9.63000011       2.93556805E-04
  -9.61999989       4.07543615E-04
  -9.60999966       5.18600922E-04
  -9.60000038       6.00322674E-04
  -9.59000015       6.31859817E-04
  -9.57999992       6.03537948E-04
  -9.56999969       5.19131427E-04
  -9.56000042       3.94170813E-04
  -9.55000019       2.51004647E-04
  -9.53999996       1.12377114E-04
  -9.52999973      -4.33109381E-06
  -9.52000046      -9.04383051E-05
  -9.51000023      -1.46094710E-04
  -9.50000000      -1.77620648E-04
  -9.48999977      -1.93403088E-04
  -9.47999954      -2.00070441E-04
  -9.47000027      -2.00353199E-04
  -9.46000004      -1.93209460E-04
  -9.44999981      -1.75805268E-04
  -9.43999958      -1.46197184E-04
  -9.43000031      -1.05352941E-04
  -9.42000008      -5.75313352E-05
  -9.40999985      -8.84280598E-06
  -9.39999962       3.53249452E-05
  -9.39000034       7.27802253E-05
  -9.38000011       1.05656487E-04
  -9.36999989       1.39510768E-04
  -9.35999966       1.80594594E-04
  -9.35000038       2.32347782E-04
  -9.34000015       2.92614219E-04
  -9.32999992       3.52910662E-04
  -9.31999969       4.00338467E-04
  -9.31000042       4.21686185E-04
  -9.30000019       4.08340566E-04
  -9.28999996       3.60181817E-04
  -9.27999973       2.86890252E-04
  -9.27000046       2.05967226E-04
  -9.26000023       1.37956231E-04
  -9.25000000       1.00405043E-04
  -9.23999977       1.02622682E-04
  -9.22999954       1.43051962E-04
  -9.22000027       2.10175102E-04
  -9.21000004       2.86620489E-04
  -9.19999981       3.55009863E-04
  -9.18999958       4.03491867E-04
  -9.18000031       4.29066742E-04
  -9.17000008       4.37648559E-04
  -9.15999985       4.41014301E-04
  -9.14999962       4.51898522E-04
  -9.14000034       4.79094335E-04
  -9.13000011       5.24318602E-04
  -9.11999989       5.81849832E-04
  -9.10999966       6.40863727E-04
  -9.10000038       6.89405832E-04
  -9.09000015       7.18414492E-04
  -9.07999992       7.24329497E-04
  -9.06999969       7.09494110E-04
  -9.06000042       6.80493074E-04
  -9.05000019       6.45360094E-04
  -9.03999996       6.10935211E-04
  -9.02999973       5.81423286E-04
  -9.02000046       5.58545988E-04
  -9.01000023       5.42882306E-04
  -9.00000000       5.35435393E-04
  -8.98999977       5.38386637E-04
  -8.97999954       5.54440194E-04
  -8.97000027       5.84923662E-04
  -8.96000004       6.27540285E-04
  -8.94999981       6.75018586E-04
  -8.93999958       7.15680770E-04
  -8.93000031       7.36205198E-04
  -8.92000008       7.25881313E-04
  -8.90999985       6.80861704E-04
  -8.89999962       6.06676156E-04
  -8.89000034       5.17740671E-04
  -8.88000011       4.33646201E-04
  -8.86999989       3.73260526E-04
  -8.85999966       3.48627276E-04
  -8.85000038       3.60894075E-04
  -8.84000015       3.99891054E-04
  -8.82999992       4.47699887E-04
  -8.81999969       4.85063880E-04
  -8.81000042       4.98359557E-04
  -8.80000019       4.84543067E-04
  -8.78999996       4.52153065E-04
  -8.77999973       4.17883624E-04
  -8.77000046       3.99911427E-04
  -8.76000023       4.10437991E-04
  -8.75000000       4.50283202E-04
  -8.73999977       5.07669814E-04
  -8.72999954       5.61806373E-04
  -8.72000027       5.90071955E-04
  -8.71000004       5.76214516E-04
  -8.69999981       5.16535365E-04
  -8.68999958       4.21734003E-04
  -8.68000031       3.13680823E-04
  -8.67000008       2.18270099E-04
  -8.65999985       1.56976195E-04
  -8.64999962       1.40213087E-04
  -8.64000034       1.64900688E-04
  -8.63000011       2.17026187E-04
  -8.61999989       2.78069521E-04
  -8.60999966       3.32689902E-04
  -8.60000038       3.74605443E-04
  -8.59000015       4.08342079E-04
  -8.57999992       4.46186488E-04
  -8.56999969       5.01614413E-04
  -8.56000042       5.81916480E-04
  -8.55000019       6.83133898E-04
  -8.53999996       7.89558864E-04
  -8.52999973       8.78283987E-04
  -8.52000046       9.27260262E-04
  -8.51000023       9.23850224E-04
  -8.50000000       8.70527001E-04
  -8.48999977       7.85336131E-04
  -8.47999954       6.96666772E-04
  -8.47000027       6.34045340E-04
  -8.46000004       6.18238992E-04
  -8.44999981       6.54317613E-04
  -8.43999958       7.30305444E-04
  -8.43000031       8.22009286E-04
  -8.42000008       9.02297965E-04
  -8.40999985       9.51402704E-04
  -8.39999962       9.64364735E-04
  -8.39000034       9.52764647E-04
  -8.38000011       9.39979451E-04
  -8.36999989       9.51644441E-04
  -8.35999966       1.00484141E-03
  -8.35000038       1.10010093E-03
  -8.34000015       1.21935061E-03
  -8.32999992       1.33081176E-03
  -8.31999969       1.39930646E-03
  -8.31000042       1.39842276E-03
  -8.30000019       1.32024579E-03
  -8.28999996       1.17915904E-03
  -8.27999973       1.00828707E-03
  -8.27000046       8.49727658E-04
  -8.26000023       7.41885277E-04
  -8.25000000       7.08191132E-04
  -8.23999977       7.50941166E-04
  -8.22999954       8.52131983E-04
  -8.22000027       9.80701181E-04
  -8.21000004       1.10339094E-03
  -8.19999981       1.19532144E-03
  -8.18999958       1.24665990E-03
  -8.18000031       1.26335188E-03
  -8.17000008       1.26212114E-03
  -8.15999985       1.26201252E-03
  -8.14999962       1.27589644E-03
  -8.14000034       1.30518386E-03
  -8.13000011       1.33963209E-03
  -8.11999989       1.36209838E-03
  -8.10999966       1.35619612E-03
  -8.10000038       1.31373247E-03
  -8.09000015       1.23895134E-03
  -8.07999992       1.14788185E-03
  -8.06999969       1.06299808E-03
  -8.06000042       1.00520125E-03
  -8.05000019       9.86173050E-04
  -8.03999996       1.00402057E-03
  -8.02999973       1.04391424E-03
  -8.02000046       1.08355994E-03
  -8.01000023       1.10153842E-03
  -8.00000000       1.08547730E-03
  -7.98999977       1.03705272E-03
  -7.98000002       9.71955305E-04
  -7.96999979       9.14766279E-04
  -7.96000004       8.90524941E-04
  -7.94999981       9.15943179E-04
  -7.94000006       9.93353780E-04
  -7.92999983       1.10950193E-03
  -7.92000008       1.23956508E-03
  -7.90999985       1.35496759E-03
  -7.90000010       1.43225584E-03
  -7.88999987       1.45998120E-03
  -7.88000011       1.44130795E-03
  -7.86999989       1.39161618E-03
  -7.86000013       1.33215275E-03
  -7.84999990       1.28214562E-03
  -7.84000015       1.25227310E-03
  -7.82999992       1.24181597E-03
  -7.82000017       1.24042167E-03
  -7.80999994       1.23370287E-03
  -7.80000019       1.21048023E-03
  -7.78999996       1.16887211E-03
  -7.78000021       1.11884216E-03
  -7.76999998       1.08010124E-03
  -7.76000023       1.07593834E-03
  -7.75000000       1.12506025E-03
  -7.73999977       1.23428530E-03
  -7.73000002       1.39471737E-03
  -7.71999979       1.58286747E-03
  -7.71000004       1.76651543E-03
  -7.69999981       1.91348779E-03
  -7.69000006       2.00053188E-03
  -7.67999983       2.01944518E-03
  -7.67000008       1.97856291E-03
  -7.65999985       1.89927930E-03
  -7.65000010       1.80894381E-03
  -7.63999987       1.73262157E-03
  -7.63000011       1.68647768E-03
  -7.61999989       1.67482125E-03
  -7.61000013       1.69145549E-03
  -7.59999990       1.72440219E-03
  -7.59000015       1.76191016E-03
  -7.57999992       1.79731264E-03
  -7.57000017       1.83090498E-03
  -7.55999994       1.86830421E-03
  -7.55000019       1.91622251E-03
  -7.53999996       1.97766814E-03
  -7.53000021       2.04883562E-03
  -7.51999998       2.11925595E-03
  -7.51000023       2.17540539E-03
  -7.50000000       2.20644940E-03
  -7.48999977       2.20975652E-03
  -7.48000002       2.19367538E-03
  -7.46999979       2.17599911E-03
  -7.46000004       2.17816816E-03
  -7.44999981       2.21703993E-03
  -7.44000006       2.29724054E-03