  -16.0000000       0.00000000    
  -15.9899998       0.00000000    
  -15.9799995       0.00000000    
  -15.9700003       0.00000000    
  -15.9600000       0.00000000    
  -15.9499998       0.00000000    
  -15.9399996       0.00000000    
  -15.9300003       0.00000000    
  -15.9200001       0.00000000    
  -15.9099998       0.00000000    
  -15.8999996       6.04590391E-38
  -15.8900003       2.40690576E-36
  -15.8800001       3.36986048E-35
  -15.8699999       2.83191306E-34
  -15.8599997       1.73500927E-33
  -15.8500004       8.57774758E-33
  -15.8400002       3.62685146E-32
  -15.8299999       1.35190044E-31
  -15.8199997       4.49476643E-31
  -15.8100004       1.33434652E-30
  -15.8000002       3.52297086E-30
  -15.7900000       8.21753908E-30
  -15.7799997       1.67605799E-29
  -15.7700005       2.93328188E-29
  -15.7600002       4.22392698E-29
  -15.7500000       4.42025177E-29
  -15.7399998       1.38306371E-29
  -15.7299995      -7.74418778E-29
  -15.7200003      -2.51219169E-28
  -15.7100000      -4.91565018E-28
  -15.6999998      -6.97082592E-28
  -15.6899996      -6.29898259E-28
  -15.6800003       8.15211960E-29
  -15.6700001       1.74140794E-27
  -15.6599998       3.94312624E-27
  -15.6499996       4.30174865E-27
  -15.6400003      -3.00868583E-27
  -15.6300001      -2.69164086E-26
  -15.6199999      -7.30251375E-26
  -15.6099997      -1.25839634E-25
  -15.6000004      -1.19357662E-25
  -15.5900002       8.76241549E-26
  -15.5799999       6.86111920E-25
  -15.5699997       1.76950652E-24
  -15.5600004       3.00795700E-24
  -15.5500002       3.20436305E-24
  -15.5400000       4.52805574E-26
  -15.5299997      -9.31285008E-24
  -15.5200005      -2.60316936E-23
  -15.5100002      -4.54388331E-23
  -15.5000000      -5.21813818E-23
  -15.4899998      -1.85765194E-23
  -15.4799995       8.73237531E-23
  -15.4700003       2.77453109E-22
  -15.4600000       5.03019971E-22
  -15.4499998       6.12187314E-22
  -15.4399996       3.42362326E-22
  -15.4300003      -6.00096411E-22
  -15.4200001      -2.32876424E-21
  -15.4099998      -4.44817101E-21
  -15.3999996      -5.73593128E-21
  -15.3900003      -4.10979033E-21
  -15.3800001       2.75701459E-21
  -15.3699999       1.59075201E-20
  -15.3599997       3.28107006E-20
  -15.3500004       4.52090135E-20
  -15.3400002       3.88678664E-20
  -15.3299999      -2.55841188E-21
  -15.3199997      -8.80407035E-20
  -15.3100004      -2.05075096E-19
  -15.3000002      -3.06238884E-19
  -15.2900000      -3.06371388E-19
  -15.2799997      -1.02634018E-19
  -15.2700005       3.74209995E-19
  -15.2600002       1.08204509E-18
  -15.2500000       1.78967867E-18
  -15.2399998       2.04935982E-18
  -15.2299995       1.28183020E-18
  -15.2200003      -9.80981406E-19
  -15.2100000      -4.71045569E-18
  -15.1999998      -8.96824340E-18
  -15.1899996      -1.16928489E-17
  -15.1800003      -9.97733592E-18
  -15.1700001      -1.07071479E-18
  -15.1599998       1.59065508E-17
  -15.1499996       3.79645196E-17
  -15.1400003       5.68861570E-17
  -15.1300001       5.97624096E-17
  -15.1199999       3.25356307E-17
  -15.1099997      -3.31913566E-17
  -15.1000004      -1.31433824E-16
  -15.0900002      -2.34541147E-16
  -15.0799999      -2.92259745E-16
  -15.0699997      -2.42039982E-16
  -15.0600004      -3.28642034E-17
  -15.0500002       3.40673210E-16
  -15.0400000       8.04753457E-16
  -15.0299997       1.19061344E-15
  -15.0200005       1.25618088E-15
  -15.0100002       7.57995861E-16
  -15.0000000      -4.30684781E-16
  -14.9899998      -2.18501424E-15
  -14.9799995      -4.03226223E-15
  -14.9700003      -5.16366997E-15
  -14.9600000      -4.61279151E-15
  -14.9499998      -1.61309516E-15
  -14.9399996       3.92981868E-15
  -14.9300003       1.10060158E-14
  -14.9200001       1.73307684E-14
  -14.9099998       1.96581558E-14
  -14.8999996       1.46998248E-14
  -14.8900003       5.60249402E-16
  -14.8800001      -2.16784818E-14
  -14.8699999      -4.68453232E-14
  -14.8599997      -6.57730435E-14
  -14.8500004      -6.71646712E-14
  -14.8400002      -4.13134696E-14
  -14.8299999       1.50038554E-14
  -14.8199997       9.39694489E-14
  -14.8100004       1.74581825E-13
  -14.8000002       2.24960499E-13
  -14.7900000       2.10204074E-13
  -14.7799997       1.05107146E-13
  -14.7700005      -9.12656249E-14
  -14.7600002      -3.44222697E-13
  -14.7500000      -5.81267185E-13
  -14.7399998      -7.03899721E-13
  -14.7299995      -6.14639849E-13
  -14.7200003      -2.54995623E-13
  -14.7100000       3.55912104E-13
  -14.6999998       1.09670151E-12
  -14.6899996       1.74800072E-12
  -14.6800003       2.03521661E-12
  -14.6700001       1.70834744E-12
  -14.6599998       6.42864722E-13
  -14.6499996      -1.06798500E-12
  -14.6400003      -3.06645833E-12
  -14.6300001      -4.76223271E-12
  -14.6199999      -5.45856286E-12
  -14.6099997      -4.55922539E-12
  -14.6000004      -1.80936342E-12
  -14.5900002       2.50379101E-12
  -14.5799999       7.47311414E-12
  -14.5699997       1.16814631E-11
  -14.5600004       1.35176098E-11
  -14.5500002       1.16505217E-11
  -14.5400000       5.54653415E-12
  -14.5299997      -4.13224403E-12
  -14.5200005      -1.54121282E-11
  -14.5100002      -2.52855289E-11
  -14.5000000      -3.03888338E-11
  -14.4899998      -2.79565121E-11
  -14.4799995      -1.68083585E-11
  -14.4700003       1.93680315E-12
  -14.4600000       2.47024831E-11
  -14.4499998       4.60090924E-11
  -14.4399996       5.97009803E-11
  -14.4300003       6.05836284E-11
  -14.4200001       4.60368653E-11
  -14.4099998       1.71136959E-11
  -14.3999996      -2.12697932E-11
  -14.3900003      -6.12075252E-11
  -14.3800001      -9.35745786E-11
  -14.3699999      -1.10232011E-10
  -14.3599997      -1.06030081E-10
  -14.3500004      -8.00115529E-11
  -14.3400002      -3.54666851E-11
  -14.3299999       2.11088751E-11
  -14.3199997       8.16959139E-11
  -14.3100004       1.38365791E-10
  -14.3000002       1.84150903E-10
  -14.2900000       2.12843645E-10
  -14.2799997       2.17971710E-10
  -14.2700005       1.91779800E-10
  -14.2600002       1.25379027E-10
  -14.2500000       1.10679113E-11
  -14.2399998      -1.52898416E-10
  -14.2299995      -3.55991209E-10
  -14.2200003      -5.69696568E-10
  -14.2100000      -7.45398188E-10
  -14.1999998      -8.18792201E-10
  -14.1899996      -7.22479576E-10
  -14.1800003      -4.05982581E-10
  -14.1700001       1.40599282E-10
  -14.1599998       8.65835847E-10
  -14.1499996       1.64711700E-09
  -14.1400003       2.29891794E-09
  -14.1300001       2.60299604E-09
  -14.1199999       2.35870168E-09
  -14.1099997       1.44482748E-09
  -14.1000004      -1.21558208E-10
  -14.0900002      -2.14709917E-09
  -14.0799999      -4.26156044E-09
  -14.0699997      -5.96495386E-09
  -14.0600004      -6.72193234E-09
  -14.0500002      -6.08982642E-09
  -14.0400000      -3.85442522E-09
  -14.0299997      -1.39712117E-10
  -14.0200005       4.54269156E-09
  -14.0100002       9.32997501E-09
  -14.0000000       1.31391706E-08
  -13.9899998       1.48790527E-08
  -13.9799995       1.37062957E-08
  -13.9700003       9.27163946E-09
  -13.9600000       1.89495619E-09
  -13.9499998      -7.38482786E-09
  -13.9399996      -1.69175216E-08
  -13.9300003      -2.47069618E-08
  -13.9200001      -2.87964159E-08
  -13.9099998      -2.77031145E-08
  -13.8999996      -2.08097148E-08
  -13.8900003      -8.61908234E-09
  -13.8800001       7.20184357E-09
  -13.8699999       2.40233859E-08
  -13.8599997       3.86821455E-08
  -13.8500004       4.80673528E-08
  -13.8400002       4.97525150E-08
  -13.8299999       4.25409326E-08
  -13.8199997       2.68031144E-08
  -13.8100004       4.52230786E-09
  -13.8000002      -2.09762216E-08
  -13.7900000      -4.55682958E-08
  -13.7799997      -6.50422933E-08
  -13.7700005      -7.58371783E-08
  -13.7600002      -7.56604521E-08
  -13.7500000      -6.38686046E-08
  -13.7399998      -4.15498356E-08
  -13.7299995      -1.13172947E-08
  -13.7200003       2.31155344E-08
  -13.7100000       5.74674388E-08
  -13.6999998       8.74144988E-08
  -13.6899996       1.09022217E-07
  -13.6800003       1.19052658E-07
  -13.6700001       1.15171524E-07
  -13.6599998       9.61206297E-08
  -13.6499996       6.19259524E-08
  -13.6400003       1.41745522E-08
  -13.6300001      -4.36752678E-08
  -13.6199999      -1.06066416E-07
  -13.6099997      -1.65373010E-07
  -13.6000004      -2.12371390E-07
  -13.5900002      -2.37273966E-07
  -13.5799999      -2.31316292E-07
  -13.5699997      -1.88712974E-07
  -13.5600004      -1.08619723E-07
  -13.5500002       3.38075656E-09
  -13.5400000       1.34771525E-07
  -13.5299997       2.66955254E-07
  -13.5200005       3.77605204E-07
  -13.5100002       4.44307943E-07
  -13.5000000       4.48936845E-07
  -13.4899998       3.81909018E-07
  -13.4799995       2.45356034E-07
  -13.4700003       5.43290213E-08
  -13.4600000      -1.64517772E-07
  -13.4499998      -3.76819401E-07
  -13.4399996      -5.46434990E-07
  -13.4300003      -6.42352802E-07
  -13.4200001      -6.45143416E-07
  -13.4099998      -5.51483652E-07
  -13.3999996      -3.75564014E-07
  -13.3900003      -1.46801383E-07
  -13.3800001       9.59075592E-08
  -13.3699999       3.12311528E-07
  -13.3599997       4.69553186E-07
  -13.3500004       5.49467984E-07
  -13.3400002       5.52523886E-07
  -13.3299999       4.97145265E-07
  -13.3199997       4.14216885E-07
  -13.3100004       3.37784172E-07
  -13.3000002       2.94085936E-07
  -13.2900000       2.91762149E-07
  -13.2799997       3.16149652E-07
  -13.2700005       3.29897716E-07
  -13.2600002       2.80782217E-07
  -13.2500000       1.15813172E-07
  -13.2399998      -2.01093272E-07
  -13.2299995      -6.72004603E-07
  -13.2200003      -1.25312567E-06
  -13.2100000      -1.85238775E-06
  -13.1999998      -2.33901119E-06
  -13.1899996      -2.56504404E-06
  -13.1800003      -2.39599171E-06
  -13.1700001      -1.74500644E-06
  -13.1599998      -6.03387321E-07
  -13.1499996       9.40120742E-07
  -13.1400003       2.69734846E-06
  -13.1300001       4.39919677E-06
  -13.1199999       5.73373927E-06
  -13.1099997       6.39882683E-06
  -13.1000004       6.16042007E-06
  -13.0900002       4.90577622E-06
  -13.0799999       2.68052918E-06
  -13.0699997      -2.99124423E-07
  -13.0600004      -3.66379777E-06
  -13.0500002      -6.93722131E-06
  -13.0400000      -9.60531270E-06
  -13.0299997      -1.11972504E-05
  -13.0200005      -1.13650076E-05
  -13.0100002      -9.94751463E-06
  -13.0000000      -7.00786632E-06
  -12.9899998      -2.83642567E-06
  -12.9799995       2.08151255E-06
  -12.9700003       7.12879591E-06
  -12.9600000       1.16403444E-05
  -12.9499998       1.49947446E-05
  -12.9399996       1.66994305E-05
  -12.9300003       1.64569956E-05
  -12.9200001       1.42038607E-05
  -12.9099998       1.01174983E-05
  -12.8999996       4.59355351E-06
  -12.8900003      -1.80148686E-06
  -12.8800001      -8.39371569E-06
  -12.8699999      -1.44722344E-05
  -12.8599997      -1.93585802E-05
  -12.8500004      -2.24694049E-05
  -12.8400002      -2.33693336E-05
  -12.8299999      -2.18129517E-05
  -12.8199997      -1.77757101E-05
  -12.8100004      -1.14730010E-05
  -12.8000002      -3.36506446E-06
  -12.7900000       5.85643238E-06
  -12.7799997       1.53052388E-05
  -12.7700005       2.39650835E-05
  -12.7600002       3.07829396E-05
  -12.7500000       3.47866517E-05
  -12.7399998       3.52160278E-05
  -12.7299995       3.16500482E-05
  -12.7200003       2.41089074E-05
  -12.7100000       1.31092111E-05
  -12.6999998      -3.45069225E-07
  -12.6899996      -1.48443005E-05
  -12.6800003      -2.87239782E-05
  -12.6700001      -4.02680307E-05
  -12.6599998      -4.79368173E-05
  -12.6499996      -5.05853022E-05
  -12.6400003      -4.76363166E-05
  -12.6300001      -3.91797148E-05
  -12.6199999      -2.59802491E-05
  -12.6099997      -9.39178062E-06
  -12.6000004       8.80859625E-06
  -12.5900002       2.66403913E-05
  -12.5799999       4.21596633E-05
  -12.5699997       5.36841326E-05
  -12.5600004       5.99737432E-05
  -12.5500002       6.03468070E-05
  -12.5400000       5.47244090E-05
  -12.5299997       4.36074224E-05
  -12.5200005       2.79993128E-05
  -12.5100002       9.29269663E-06
  -12.5000000      -1.08626955E-05
  -12.4899998      -3.06967122E-05
  -12.4799995      -4.84519842E-05
  -12.4700003      -6.25108514E-05
  -12.4600000      -7.15163260E-05
  -12.4499998      -7.44872377E-05
  -12.4399996      -7.09241722E-05
  -12.4300003      -6.08969021E-05
  -12.4200001      -4.50981825E-05
  -12.4099998      -2.48451797E-05
  -12.3999996      -2.01088528E-06
  -12.3900003       2.11253446E-05
  -12.3800001       4.21066579E-05
  -12.3699999       5.85892485E-05
  -12.3599997       6.86602070E-05
  -12.3500004       7.11350804E-05
  -12.3400002       6.57817945E-05
  -12.3299999       5.34218816E-05
  -12.3199997       3.58756006E-05
  -12.3100004       1.57420836E-05
  -12.3000002      -3.96409905E-06
  -12.2900000      -2.02691190E-05
  -12.2799997      -3.07155460E-05
  -12.2700005      -3.37740530E-05
  -12.2600002      -2.91137749E-05
  -12.2500000      -1.76755657E-05
  -12.2399998      -1.52661778E-06
  -12.2299995       1.64845005E-05
  -12.2200003       3.32149793E-05
  -12.2100000       4.57709539E-05
  -12.1999998       5.20082503E-05
  -12.1899996       5.08985468E-05
  -12.1800003       4.26937186E-05
  -12.1700001       2.88589436E-05
  -12.1599998       1.17887630E-05
  -12.1499996      -5.63881940E-06
  -12.1400003      -2.05855849E-05
  -12.1300001      -3.07560222E-05
  -12.1199999      -3.47881578E-05
  -12.1099997      -3.24638386E-05
  -12.1000004      -2.47056760E-05
  -12.0900002      -1.33686326E-05
  -12.0799999      -8.72270675E-07
  -12.0699997       1.02523309E-05
  -12.0600004       1.78141163E-05
  -12.0500002       2.03292984E-05
  -12.0400000       1.72411837E-05
  -12.0299997       8.96060465E-06
  -12.0200005      -3.26924464E-06
  -12.0100002      -1.76462745E-05
  -12.0000000      -3.21596199E-05
  -11.9899998      -4.49439285E-05
  -11.9799995      -5.45698276E-05
  -11.9700003      -6.02208565E-05
  -11.9600000      -6.17347250E-05
  -11.9499998      -5.95169404E-05
  -11.9399996      -5.43613132E-05
  -11.9300003      -4.72282481E-05
  -11.9200001      -3.90353925E-05
  -11.9099998      -3.05055673E-05
  -11.8999996      -2.20978272E-05
  -11.8900003      -1.40237253E-05
  -11.8800001      -6.32909769E-06
  -11.8699999       9.92677883E-07
  -11.8599997       7.89398200E-06
  -11.8500004       1.42042891E-05
  -11.8400002       1.96166657E-05
  -11.8299999       2.37291206E-05
  -11.8199997       2.61251480E-05
  -11.8100004       2.64686969E-05
  -11.8000002       2.45877982E-05
  -11.7900000       2.05274973E-05
  -11.7799997       1.45635167E-05
  -11.7700005       7.17956937E-06
  -11.7600002      -9.80318760E-07
  -11.7500000      -9.17044417E-06
  -11.7399998      -1.66014197E-05
  -11.7299995      -2.24924843E-05
  -11.7200003      -2.61200512E-05
  -11.7100000      -2.68690765E-05
  -11.6999998      -2.42938713E-05
  -11.6899996      -1.81900523E-05
  -11.6800003      -8.67080234E-06
  -11.6700001       3.76843877E-06
  -11.6599998       1.82190306E-05
  -11.6499996       3.33848475E-05
  -11.6400003       4.76812456E-05
  -11.6300001       5.94107914E-05
  -11.6199999       6.70019072E-05
  -11.6099997       6.92784597E-05
  -11.6000004       6.57136916E-05
  -11.5900002       5.66148119E-05
  -11.5799999       4.31880435E-05
  -11.5699997       2.74490121E-05
  -11.5600004       1.19687775E-05
  -11.5500002      -5.21892446E-07
  -11.5400000      -7.61398678E-06
  -11.5299997      -7.70428778E-06
  -11.5200005      -3.84727059E-07
  -11.5100002       1.33553822E-05
  -11.5000000       3.11807744E-05
  -11.4899998       4.97371548E-05
  -11.4799995       6.52191229E-05
  -11.4700003       7.40880350E-05
  -11.4600000       7.38051021E-05
  -11.4499998       6.34266253E-05
  -11.4399996       4.39223040E-05
  -11.4300003       1.81250289E-05
  -11.4200001      -9.70682595E-06
  -11.4099998      -3.46498782E-05
  -11.3999996      -5.20592548E-05
  -11.3900003      -5.85065936E-05
  -11.3800001      -5.25150026E-05
  -11.3699999      -3.49282964E-05
  -11.3599997      -8.82432414E-06
  -11.3500004       2.10231883E-05
  -11.3400002       4.90340681E-05
  -11.3299999       6.98870062E-05
  -11.3199997       7.95472370E-05
  -11.3100004       7.60504918E-05
  -11.3000002       5.98870974E-05
  -11.2900000       3.39117687E-05
  -11.2799997       2.79923279E-06
  -11.2700005      -2.78458483E-05
  -11.2600002      -5.25513933E-05
  -11.2500000      -6.70096415E-05
  -11.2399998      -6.88836881E-05
  -11.2299995      -5.82383764E-05
  -11.2200003      -3.75155068E-05
  -11.2100000      -1.10569208E-05
  -11.1999998       1.57376326E-05
  -11.1899996       3.74622286E-05
  -11.1800003       4.97677647E-05
  -11.1700001       5.02293951E-05
  -11.1599998       3.88411572E-05
  -11.1499996       1.80260140E-05
  -11.1400003      -7.85862812E-06
  -11.1300001      -3.34365104E-05
  -11.1199999      -5.34717183E-05
  -11.1099997      -6.40297367E-05
  -11.1000004      -6.33821983E-05
  -11.0900002      -5.24373172E-05
  -11.0799999      -3.45716544E-05
  -11.0699997      -1.48687286E-05
  -11.0600004       1.09040138E-06
  -11.0500002       8.62396973E-06
  -11.0400000       5.21091170E-06
  -11.0299997      -8.69537689E-06
  -11.0200005      -2.95270002E-05
  -11.0100002      -5.12158404E-05
  -11.0000000      -6.64693071E-05
  -10.9899998      -6.84534170E-05
  -10.9799995      -5.25193354E-05
  -10.9700003      -1.75784098E-05
  -10.9600000       3.32109230E-05
  -10.9499998       9.26443172E-05
  -10.9399996       1.50574910E-04
  -10.9300003       1.95738452E-04
  -10.9200001       2.17958310E-04
  -10.9099998       2.10295664E-04
  -10.8999996       1.70705607E-04
  -10.8900003       1.02843216E-04
  -10.8800001       1.58207258E-05
  -10.8699999      -7.70864717E-05
  -10.8599997      -1.60586802E-04
  -10.8500004      -2.20007889E-04
  -10.8400002      -2.43954390E-04
  -10.8299999      -2.26504271E-04
  -10.8199997      -1.68527360E-04
  -10.8100004      -7.78546164E-05
  -10.8000002       3.17769627E-05
  -10.7900000       1.42863719E-04
  -10.7799997       2.37020358E-04
  -10.7700005       2.98126950E-04
  -10.7600002       3.15189798E-04
  -10.7500000       2.84398819E-04
  -10.7399998       2.09988822E-04
  -10.7299995       1.03713675E-04
  -10.7200003      -1.70146977E-05
  -10.7100000      -1.32027300E-04
  -10.6999998      -2.21848008E-04
  -10.6899996      -2.71088793E-04
  -10.6800003      -2.71182973E-04
  -10.6700001      -2.21957613E-04
  -10.6599998      -1.31749097E-04
  -10.6499996      -1.60257532E-05
  -10.6400003       1.05248131E-04
  -10.6300001       2.11044011E-04
  -10.6199999       2.82889639E-04
  -10.6099997       3.08037997E-04
  -10.6000004       2.81628832E-04
  -10.5900002       2.07471530E-04
  -10.5799999       9.73285860E-05
  -10.5699997      -3.11513031E-05
  -10.5600004      -1.57464310E-04
  -10.5500002      -2.61696841E-04
  -10.5400000      -3.27775080E-04
  -10.5299997      -3.45960783E-04
  -10.5200005      -3.14188102E-04
  -10.5100002      -2.38056818E-04
  -10.5000000      -1.29546723E-04
  -10.4899998      -4.74383387E-06
  -10.4799995       1.18966105E-04
  -10.4700003       2.25710231E-04
  -10.4600000       3.03451379E-04
  -10.4499998       3.45448818E-04
  -10.4399996       3.50672490E-04
  -10.4300003       3.23199318E-04
  -10.4200001       2.70811870E-04
  -10.4099998       2.03155665E-04
  -10.3999996       1.29865046E-04
  -10.3900003       5.90303753E-05
  -10.3800001      -3.73104876E-06
  -10.3699999      -5.54985854E-05
  -10.3599997      -9.56337972E-05
  -10.3500004      -1.24938088E-04
  -10.3400002      -1.44675025E-04
  -10.3299999      -1.55757501E-04
  -10.3199997      -1.58331910E-04
  -10.3100004      -1.51867338E-04
  -10.3000002      -1.35706025E-04
  -10.2900000      -1.09892266E-04
  -10.2799997      -7.60033217E-05
  -10.2700005      -3.76842327E-05
  -10.2600002      -6.46100318E-07
  -10.2500000       2.79846208E-05
  -10.2399998       4.09097920E-05
  -10.2299995       3.22701489E-05
  -10.2200003      -7.30788088E-07
  -10.2100000      -5.65935698E-05
  -10.1999998      -1.29037770E-04
  -10.1899996      -2.07483914E-04
  -10.1800003      -2.78517255E-04
  -10.1700001      -3.28124384E-04
  -10.1599998      -3.44302302E-04
  -10.1499996      -3.19528539E-04
  -10.1400003      -2.52577622E-04
  -10.1300001      -1.49281346E-04
  -10.1199999      -2.20290713E-05
  -10.1099997       1.11948422E-04
  -10.1000004       2.33231811E-04
  -10.0900002       3.23344924E-04
  -10.0799999       3.67823523E-04
  -10.0699997       3.58699617E-04
  -10.0600004       2.95992184E-04
  -10.0500002       1.87968762E-04
  -10.0400000       5.01411159E-05
  -10.0299997      -9.68554596E-05
  -10.0200005      -2.30196471E-04
  -10.0100002      -3.28209746E-04
  -10.0000000      -3.73662246E-04
  -9.98999977      -3.56524630E-04
  -9.97999954      -2.75789178E-04
  -9.97000027      -1.40012577E-04
  -9.96000004       3.35938857E-05
  -9.94999981       2.21501105E-04
  -9.93999958       3.97362193E-04
  -9.93000031       5.36176900E-04
  -9.92000008       6.18438469E-04
  -9.90999985       6.33504766E-04
  -9.89999962       5.81508793E-04
  -9.89000034       4.73355060E-04
  -9.88000011       3.28710506E-04
  -9.86999989       1.72321190E-04
  -9.85999966       2.93645389E-05
  -9.85000038      -7.92078063E-05
  -9.84000015      -1.40354023E-04
  -9.82999992      -1.50874883E-04
  -9.81999969      -1.17218166E-04
  -9.81000042      -5.32760896E-05
  -9.80000019       2.32323982E-05
  -9.78999996       9.48846791E-05
  -9.77999973       1.48191233E-04
  -9.77000046       1.75928770E-04
  -9.76000023       1.77730108E-04
  -9.75000000       1.58964176E-04
  -9.73999977       1.28376923E-04
  -9.72999954       9.52448536E-05
  -9.72000027       6.68503199E-05
  -9.71000004       4.69190818E-05
  -9.69999981       3.53282885E-05
  -9.68999958       2.90054832E-05
  -9.68000031       2.36096676E-05
  -9.67000008       1.54044264E-05
  -9.65999985       2.73902083E-06
  -9.64999962      -1.32749474E-05
  -9.64000034      -2.90318058E-05
  -9.63000011      -3.95042298E-05
  -9.61999989      -3.97685981E-05
  -9.60999966      -2.65433500E-05
  -9.60000038       6.60302817E-07
  -9.59000015       3.90396126E-05
  -9.57999992       8.27384429E-05
  -9.56999969       1.23740479E-04
  -9.56000042       1.53219851E-04
  -9.55000019       1.63097735E-04
  -9.53999996       1.47552870E-04
  -9.52999973       1.04262304E-04
  -9.52000046       3.51872477E-05
  -9.51000023      -5.32412450E-05
  -9.50000000      -1.50632404E-04
  -9.48999977      -2.43864066E-04
  -9.47999954      -3.18944862E-04
  -9.47000027      -3.63289437E-04
  -9.46000004      -3.68051027E-04
  -9.44999981      -3.30061797E-04
  -9.43999958      -2.52926635E-04
  -9.43000031      -1.46927021E-04
  -9.42000008      -2.76130413E-05
  -9.40999985       8.67472336E-05
  -9.39999962       1.78405651E-04
  -9.39000034       2.33403873E-04
  -9.38000011       2.44170718E-04
  -9.36999989       2.10871600E-04
  -9.35999966       1.41214012E-04
  -9.35000038       4.87730249E-05
  -9.34000015      -4.97567744E-05
  -9.32999992      -1.37745097E-04
  -9.31999969      -2.01546572E-04
  -9.31000042      -2.32576887E-04
  -9.30000019      -2.28216581E-04
  -9.28999996      -1.91520303E-04
  -9.27999973      -1.29980166E-04
  -9.27000046      -5.37533160E-05
  -9.26000023       2.62089525E-05
  -9.25000000       9.97852330E-05
  -9.23999977       1.58871917E-04
  -9.22999954       1.98099689E-04
  -9.22000027       2.15142223E-04
  -9.21000004       2.10704093E-04
  -9.19999981       1.88240068E-04
  -9.18999958       1.53406101E-04
  -9.18000031       1.13223447E-04
  -9.17000008       7.49777100E-05
  -9.15999985       4.49711879E-05
  -9.14999962       2.73577589E-05
  -9.14000034       2.33589180E-05
  -9.13000011       3.11335316E-05
  -9.11999989       4.64347904E-05
  -9.10999966       6.39615027E-05
  -9.10000038       7.90668855E-05
  -9.09000015       8.93168326E-05
  -9.07999992       9.53682829E-05
  -9.06999969       1.00799101E-04
  -9.06000042       1.10833040E-04
  -9.05000019       1.30275119E-04
  -9.03999996       1.61281336E-04
  -9.02999973       2.01717179E-04
  -9.02000046       2.44746421E-04
  -9.01000023       2.79952859E-04
  -9.00000000       2.95825681E-04
  -8.98999977       2.82982830E-04
  -8.97999954       2.37217260E-04
  -8.97000027       1.61435761E-04
  -8.96000004       6.58349672E-05
  -8.94999981      -3.38486425E-05
  -8.93999958      -1.19620781E-04
  -8.93000031      -1.75202003E-04
  -8.92000008      -1.89653219E-04
  -8.90999985      -1.59729912E-04
  -8.89999962      -9.04231129E-05
  -8.89000034       6.33278796E-06
  -8.88000011       1.14313392E-04
  -8.86999989       2.16238943E-04
  -8.85999966       2.96767859E-04
  -8.85000038       3.44637636E-04
  -8.84000015       3.53704294E-04
  -8.82999992       3.23001615E-04
  -8.81999969       2.56180734E-04
  -8.81000042       1.60728901E-04
  -8.80000019       4.72152897E-05
  -8.78999996      -7.14341877E-05
  -8.77999973      -1.80837451E-04
  -8.77000046      -2.66493385E-04
  -8.76000023      -3.15675949E-04
  -8.75000000      -3.19714542E-04
  -8.73999977      -2.76171195E-04
  -8.72999954      -1.90227584E-04
  -8.72000027      -7.46392179E-05
  -8.71000004       5.20724061E-05
  -8.69999981       1.69012303E-04
  -8.68999958       2.57178617E-04
  -8.68000031       3.03527573E-04
  -8.67000008       3.03718116E-04
  -8.65999985       2.62739719E-04
  -8.64999962       1.93231273E-04
  -8.64000034       1.11993504E-04
  -8.63000011       3.57419085E-05
  -8.61999989      -2.26438515E-05
  -8.60999966      -5.63298454E-05
  -8.60000038      -6.47087654E-05
  -8.59000015      -5.17690351E-05
  -8.57999992      -2.34700146E-05
  -8.56999969       1.47796254E-05
  -8.56000042       5.95838865E-05
  -8.55000019       1.09505760E-04
  -8.53999996       1.63705758E-04
  -8.52999973       2.20046451E-04
  -8.52000046       2.73679005E-04
  -8.51000023       3.16945807E-04
  -8.50000000       3.40891624E-04
  -8.48999977       3.37982638E-04
  -8.47999954       3.05066525E-04
  -8.47000027       2.45400588E-04
  -8.46000004       1.68830811E-04
  -8.44999981       8.98409926E-05
  -8.43999958       2.39780238E-05
  -8.43000031      -1.62087017E-05
  -8.42000008      -2.43504346E-05
  -8.40999985      -1.48543586E-06
  -8.39999962       4.50479492E-05
  -8.39000034       1.04568666E-04
  -8.38000011       1.66691330E-04
  -8.36999989       2.24237301E-04
  -8.35999966       2.74325226E-04
  -8.35000038       3.17307829E-04
  -8.34000015       3.54135816E-04
  -8.32999992       3.83433362E-04
  -8.31999969       3.99765791E-04
  -8.31000042       3.94160656E-04
  -8.30000019       3.57042532E-04
  -8.28999996       2.82691908E-04
  -8.27999973       1.73558583E-04
  -8.27000046       4.25735561E-05
  -8.26000023      -8.78547580E-05
  -8.25000000      -1.90369814E-04
  -8.23999977      -2.39640140E-04
  -8.22999954      -2.19693917E-04
  -8.22000027      -1.29217704E-04
  -8.21000004       1.70530093E-05
  -8.19999981       1.91504456E-04
  -8.18999958       3.60531267E-04
  -8.18000031       4.93044965E-04
  -8.17000008       5.67963521E-04
  -8.15999985       5.78407606E-04
  -8.14999962       5.31483558E-04
  -8.14000034       4.44061006E-04
  -8.13000011       3.36304511E-04
  -8.11999989       2.25393655E-04
  -8.10999966       1.21634264E-04
  -8.10000038       2.81137491E-05
  -8.09000015      -5.63992799E-05
  -8.07999992      -1.32908186E-04
  -8.06999969      -1.98226975E-04
  -8.06000042      -2.43564165E-04
  -8.05000019      -2.56528961E-04
  -8.03999996      -2.25966432E-04
  -8.02999973      -1.47750296E-04
  -8.02000046      -2.90930438E-05
  -8.01000023       1.10676287E-04
  -8.00000000       2.43681599E-04
  -7.98999977       3.40603990E-04
  -7.98000002       3.79104604E-04
  -7.96999979       3.50715738E-04
  -7.96000004       2.63755006E-04
  -7.94999981       1.41138269E-04
  -7.94000006       1.37335728E-05
  -7.92999983      -8.85430563E-05
  -7.92000008      -1.44913589E-04
  -7.90999985      -1.48535284E-04
  -7.90000010      -1.06507316E-04
  -7.88999987      -3.54422300E-05
  -7.88000011       4.54626897E-05
  -7.86999989       1.21107601E-04
  -7.86000013       1.84437726E-04
  -7.84999990       2.36382199E-04
  -7.84000015       2.82191468E-04
  -7.82999992       3.26061825E-04
  -7.82000017       3.66627559E-04
  -7.80999994       3.95518873E-04
  -7.80000019       3.99872981E-04
  -7.78999996       3.67965840E-04
  -7.78000021       2.95692211E-04
  -7.76999998       1.91066109E-04
  -7.76000023       7.45015641E-05
  -7.75000000      -2.58225846E-05
  -7.73999977      -8.22811708E-05
  -7.73000002      -7.70072147E-05
  -7.71999979      -8.61914486E-06
  -7.71000004       1.06192841E-04
  -7.69999981       2.37132452E-04
  -7.69000006       3.49544775E-04
  -7.67999983       4.15379764E-04
  -7.67000008       4.22082172E-04
  -7.65999985       3.76270182E-04
  -7.65000010       3.00881948E-04
  -7.63999987       2.26796677E-04
  -7.63000011       1.81927171E-04
  -7.61999989       1.81682713E-04
  -7.61000013       2.24179166E-04
  -7.59999990       2.91813863E-04
  -7.59000015       3.58475256E-04
  -7.57999992       3.99597368E-04
  -7.57000017       4.01266734E-04
  -7.55999994       3.65010492E-04
  -7.55000019       3.06577480E-04
  -7.53999996       2.49325938E-04
  -7.53000021       2.14871121E-04
  -7.51999998       2.14660031E-04
  -7.51000023       2.45737174E-04
  -7.50000000       2.92311684E-04
  -7.48999977       3.32468946E-04
  -7.48000002       3.47358669E-04
  -7.46999979       3.29217815E-04
  -7.46000004       2.85020185E-04
  -7.44999981       2.34227031E-04
  -7.44000006       2.01401082E-04