  -16.0000000       0.00000000    
  -15.9899998       0.00000000    
  -15.9799995       0.00000000    
  -15.9700003       0.00000000    
  -15.9600000       0.00000000    
  -15.9499998       0.00000000    
  -15.9399996       0.00000000    
  -15.9300003       0.00000000    
  -15.9200001       0.00000000    
  -15.9099998       0.00000000    
  -15.8999996       0.00000000    
  -15.8900003      -1.07843019E-38
  -15.8800001      -1.57567033E-37
  -15.8699999      -9.17007025E-37
  -15.8599997      -5.66566134E-37
  -15.8500004       3.55502753E-35
  -15.8400002       3.68581993E-34
  -15.8299999       2.38248607E-33
  -15.8199997       1.19283385E-32
  -15.8100004       4.97323742E-32
  -15.8000002       1.78669675E-31
  -15.7900000       5.63293460E-31
  -15.7799997       1.57329847E-30
  -15.7700005       3.90523786E-30
  -15.7600002       8.58600107E-30
  -15.7500000       1.65046765E-29
  -15.7399998       2.68396333E-29
  -15.7299995       3.36449790E-29
  -15.7200003       2.04925732E-29
  -15.7100000      -4.47316549E-29
  -15.6999998      -2.08372283E-28
  -15.6899996      -5.10544769E-28
  -15.6800003      -9.30088481E-28
  -15.6700001      -1.28755418E-27
  -15.6599998      -1.13088844E-27
  -15.6499996       3.07500066E-28
  -15.6400003       3.91086229E-27
  -15.6300001       1.00202822E-26
  -15.6199999       1.72140127E-26
  -15.6099997       2.08241653E-26
  -15.6000004       1.22450803E-26
  -15.5900002      -1.90439173E-26
  -15.5799999      -7.85662752E-26
  -15.5699997      -1.54450559E-25
  -15.5600004      -2.03509437E-25
  -15.5500002      -1.47058143E-25
  -15.5400000       1.05632863E-25
  -15.5299997       5.90040051E-25
  -15.5200005       1.17909886E-24
  -15.5100002       1.48388720E-24
  -15.5000000       8.67943028E-25
  -15.4899998      -1.28578283E-24
  -15.4799995      -4.97210469E-24
  -15.4700003      -8.75052952E-24
  -15.4600000      -9.21040782E-24
  -15.4499998      -1.57671483E-24
  -15.4399996       1.76293089E-23
  -15.4300003       4.56820862E-23
  -15.4200001       6.81009988E-23
  -15.4099998       5.66392096E-23
  -15.3999996      -2.29867000E-23
  -15.3900003      -1.88388542E-22
  -15.3800001      -4.04199580E-22
  -15.3699999      -5.46748361E-22
  -15.3599997      -4.00548328E-22
  -15.3500004       2.73217166E-22
  -15.3400002       1.56884618E-21
  -15.3299999       3.19045703E-21
  -15.3199997       4.23534568E-21
  -15.3100004       3.20702912E-21
  -15.3000002      -1.50198369E-21
  -15.2900000      -1.05185870E-20
  -15.2799997      -2.19579084E-20
  -15.2700005      -3.01180629E-20
  -15.2600002      -2.55755537E-20
  -15.2500000       1.97344756E-21
  -15.2399998       5.73935067E-20
  -15.2299995       1.31286126E-19
  -15.2200003       1.92279025E-19
  -15.2100000       1.86687879E-19
  -15.1999998       5.26790167E-20
  -15.1899996      -2.46992098E-19
  -15.1800003      -6.78014357E-19
  -15.1700001      -1.09066411E-18
  -15.1599998      -1.20955891E-18
  -15.1499996      -6.92714132E-19
  -15.1400003       7.17032984E-19
  -15.1300001       2.96239123E-18
  -15.1199999       5.43692664E-18
  -15.1099997       6.88104751E-18
  -15.1000004       5.57615769E-18
  -15.0900002      -3.71073772E-20
  -15.0799999      -1.03373208E-17
  -15.0699997      -2.33646197E-17
  -15.0600004      -3.40744149E-17
  -15.0500002      -3.47307199E-17
  -15.0400000      -1.70763331E-17
  -15.0299997       2.35894590E-17
  -15.0200005       8.32335933E-17
  -15.0100002       1.44784189E-16
  -15.0000000       1.77591985E-16
  -14.9899998       1.43582421E-16
  -14.9799995       1.15489121E-17
  -14.9700003      -2.22167901E-16
  -14.9600000      -5.12788452E-16
  -14.9499998      -7.56333136E-16
  -14.9399996      -8.01002053E-16
  -14.9300003      -4.89472600E-16
  -14.9200001       2.68663472E-16
  -14.9099998       1.41017857E-15
  -14.8999996       2.64969058E-15
  -14.8900003       3.47298586E-15
  -14.8800001       3.23300596E-15
  -14.8699999       1.36576821E-15
  -14.8599997      -2.30166973E-15
  -14.8500004      -7.23729853E-15
  -14.8400002      -1.20223520E-14
  -14.8299999      -1.44584712E-14
  -14.8199997      -1.20800214E-14
  -14.8100004      -3.07365514E-15
  -14.8000002       1.25690584E-14
  -14.7900000       3.20343693E-14
  -14.7799997       4.93111174E-14
  -14.7700005       5.59584592E-14
  -14.7600002       4.32979593E-14
  -14.7500000       5.86394133E-15
  -14.7399998      -5.46571252E-14
  -14.7299995      -1.26353206E-13
  -14.7200003      -1.86556676E-13
  -14.7100000      -2.05338879E-13
  -14.6999998      -1.53630974E-13
  -14.6899996      -1.50389429E-14
  -14.6800003       2.01466190E-13
  -14.6700001       4.52470093E-13
  -14.6599998       6.59843979E-13
  -14.6499996       7.23527141E-13
  -14.6400003       5.48626140E-13
  -14.6300001       8.33023158E-14
  -14.6199999      -6.41680719E-13
  -14.6099997      -1.48558076E-12
  -14.6000004      -2.19798442E-12
  -14.5900002      -2.45908697E-12
  -14.5799999      -1.96318331E-12
  -14.5699997      -5.34520724E-13
  -14.5600004       1.75159550E-12
  -14.5500002       4.48303330E-12
  -14.5400000       6.90595454E-12
  -14.5299997       8.03742056E-12
  -14.5200005       6.90658858E-12
  -14.5100002       2.89571383E-12
  -14.5000000      -3.89441821E-12
  -14.4899998      -1.23699063E-11
  -14.4799995      -2.03920613E-11
  -14.4700003      -2.50593487E-11
  -14.4600000      -2.33658041E-11
  -14.4499998      -1.31685010E-11
  -14.4399996       5.73517666E-12
  -14.4300003       3.07377457E-11
  -14.4200001       5.61349855E-11
  -14.4099998       7.37535866E-11
  -14.3999996       7.46501611E-11
  -14.3900003       5.17436753E-11
  -14.3800001       2.87784033E-12
  -14.3699999      -6.65296637E-11
  -14.3599997      -1.42284629E-10
  -14.3500004      -2.02613870E-10
  -14.3400002      -2.22288882E-10
  -14.3299999      -1.79436119E-10
  -14.3199997      -6.38251119E-11
  -14.3100004       1.15509560E-10
  -14.3000002       3.26026983E-10
  -14.2900000       5.13419252E-10
  -14.2799997       6.10926754E-10
  -14.2700005       5.55936630E-10
  -14.2600002       3.11119547E-10
  -14.2500000      -1.15057332E-10
  -14.2399998      -6.55172860E-10
  -14.2299995      -1.18371213E-09
  -14.2200003      -1.53636337E-09
  -14.2100000      -1.54777668E-09
  -14.1999998      -1.10196763E-09
  -14.1899996      -1.83700319E-10
  -14.1800003       1.08481568E-09
  -14.1700001       2.43786458E-09
  -14.1599998       3.50208018E-09
  -14.1499996       3.87589738E-09
  -14.1400003       3.24126814E-09
  -14.1300001       1.48306134E-09
  -14.1199999      -1.21788657E-09
  -14.1099997      -4.35366676E-09
  -14.1000004      -7.14680581E-09
  -14.0900002      -8.70344508E-09
  -14.0799999      -8.24227619E-09
  -14.0699997      -5.35122613E-09
  -14.0600004      -2.03136716E-10
  -14.0500002       6.34358210E-09
  -14.0400000       1.28177442E-08
  -14.0299997       1.74029804E-08
  -14.0200005       1.83692777E-08
  -14.0100002       1.45822145E-08
  -14.0000000       5.96094596E-09
  -13.9899998      -6.25830276E-09
  -13.9799995      -1.95719529E-08
  -13.9700003      -3.06261505E-08
  -13.9600000      -3.59613388E-08
  -13.9499998      -3.29422782E-08
  -13.9399996      -2.06497450E-08
  -13.9300003      -4.76114426E-10
  -13.9200001       2.37994637E-08
  -13.9099998       4.65768935E-08
  -13.8999996       6.16050926E-08
  -13.8900003       6.35436450E-08
  -13.8800001       4.95564869E-08
  -13.8699999       2.05062225E-08
  -13.8599997      -1.86454461E-08
  -13.8500004      -5.94729350E-08
  -13.8400002      -9.17539964E-08
  -13.8299999      -1.05882634E-07
  -13.8199997      -9.54927302E-08
  -13.8100004      -5.96188556E-08
  -13.8000002      -3.74523745E-09
  -13.7900000       6.06997759E-08
  -13.7799997       1.18491535E-07
  -13.7700005       1.54056664E-07
  -13.7600002       1.55483363E-07
  -13.7500000       1.18106257E-07
  -13.7399998       4.66610075E-08
  -13.7299995      -4.47474484E-08
  -13.7200003      -1.35135153E-07
  -13.7100000      -2.01243523E-07
  -13.6999998      -2.23311375E-07
  -13.6899996      -1.90643149E-07
  -13.6800003      -1.05487473E-07
  -13.6700001       1.59960294E-08
  -13.6599998       1.46287334E-07
  -13.6499996       2.52331517E-07
  -13.6400003       3.03511456E-07
  -13.6300001       2.79945709E-07
  -13.6199999       1.78987904E-07
  -13.6099997       1.80195734E-08
  -13.6000004      -1.67637438E-07
  -13.5900002      -3.31736146E-07
  -13.5799999      -4.27826450E-07
  -13.5699997      -4.21357839E-07
  -13.5600004      -3.00201691E-07
  -13.5500002      -8.06828595E-08
  -13.5400000       1.92987017E-07
  -13.5299997       4.56541841E-07
  -13.5200005       6.39643986E-07
  -13.5100002       6.83192980E-07
  -13.5000000       5.55940176E-07
  -13.4899998       2.66082282E-07
  -13.4799995      -1.35737508E-07
  -13.4700003      -5.63833908E-07
  -13.4600000      -9.14669442E-07
  -13.4499998      -1.09064933E-06
  -13.4399996      -1.02528452E-06
  -13.4300003      -7.03526268E-07
  -13.4200001      -1.71578364E-07
  -13.4099998       4.67491788E-07
  -13.3999996       1.07283711E-06
  -13.3900003       1.49643472E-06
  -13.3800001       1.61875937E-06
  -13.3699999       1.38109021E-06
  -13.3599997       8.05959360E-07
  -13.3500004      -6.28254726E-10
  -13.3400002      -8.67602296E-07
  -13.3299999      -1.59524848E-06
  -13.3199997      -2.00217050E-06
  -13.3100004      -1.97187524E-06
  -13.3000002      -1.48707625E-06
  -13.2900000      -6.41804036E-07
  -13.2799997       3.73845040E-07
  -13.2700005       1.31492538E-06
  -13.2600002       1.94056997E-06
  -13.2500000       2.07697758E-06
  -13.2399998       1.66841153E-06
  -13.2299995       8.01714407E-07
  -13.2200003      -3.04689792E-07
  -13.2100000      -1.34794107E-06
  -13.1999998      -2.01526359E-06
  -13.1899996      -2.06899176E-06
  -13.1800003      -1.42068711E-06
  -13.1700001      -1.73472287E-07
  -13.1599998       1.38225471E-06
  -13.1499996       2.82403630E-06
  -13.1400003       3.69502095E-06
  -13.1300001       3.62358651E-06
  -13.1199999       2.43637123E-06
  -13.1099997       2.34512825E-07
  -13.1000004      -2.59120679E-06
  -13.0900002      -5.41790723E-06
  -13.0799999      -7.51533798E-06
  -13.0699997      -8.21469166E-06
  -13.0600004      -7.08465313E-06
  -13.0500002      -4.07175912E-06
  -13.0400000       4.33904034E-07
  -13.0299997       5.63257936E-06
  -13.0200005       1.04515457E-05
  -13.0100002       1.37631223E-05
  -13.0000000       1.46404082E-05
  -12.9899998       1.25935485E-05
  -12.9799995       7.72831390E-06
  -12.9700003       7.81758047E-07
  -12.9600000      -6.98502663E-06
  -12.9499998      -1.40246584E-05
  -12.9399996      -1.88270333E-05
  -12.9300003      -2.02597112E-05
  -12.9200001      -1.78464943E-05
  -12.9099998      -1.19141050E-05
  -12.8999996      -3.56315559E-06
  -12.8900003       5.54160624E-06
  -12.8800001       1.35236414E-05
  -12.8699999       1.87145761E-05
  -12.8599997       2.00454742E-05
  -12.8500004       1.73138069E-05
  -12.8400002       1.12547559E-05
  -12.8299999       3.38877544E-06
  -12.8199997      -4.32944125E-06
  -12.8100004      -9.98498308E-06
  -12.8000002      -1.21889425E-05
  -12.7900000      -1.04560413E-05
  -12.7799997      -5.37213191E-06
  -12.7700005       1.50407629E-06
  -12.7600002       7.99797726E-06
  -12.7500000       1.18622984E-05
  -12.7399998       1.13823698E-05
  -12.7299995       5.89458614E-06
  -12.7200003      -3.92022821E-06
  -12.7100000      -1.60613472E-05
  -12.6999998      -2.75717630E-05
  -12.6899996      -3.51801609E-05
  -12.6800003      -3.60874183E-05
  -12.6700001      -2.87181501E-05
  -12.6599998      -1.32521636E-05
  -12.6499996       8.21068716E-06
  -12.6400003       3.19224237E-05
  -12.6300001       5.31676669E-05
  -12.6199999       6.72268798E-05
  -12.6099997       7.04211197E-05
  -12.6000004       6.10047100E-05
  -12.5900002       3.96924879E-05
  -12.5799999       9.67895267E-06
  -12.5699997      -2.38851826E-05
  -12.5600004      -5.48717180E-05
  -12.5500002      -7.74136133E-05
  -12.5400000      -8.71395241E-05
  -12.5299997      -8.21293361E-05
  -12.5200005      -6.33674208E-05
  -12.5100002      -3.45760418E-05
  -12.5000000      -1.44819023E-06
  -12.4899998       2.95626396E-05
  -12.4799995       5.26317053E-05
  -12.4700003       6.38179845E-05
  -12.4600000       6.18938866E-05
  -12.4499998       4.85506644E-05
  -12.4399996       2.79220294E-05
  -12.4300003       5.52925167E-06
  -12.4200001      -1.31075167E-05
  -12.4099998      -2.38592693E-05
  -12.3999996      -2.50362718E-05
  -12.3900003      -1.78234932E-05
  -12.3800001      -5.97389408E-06
  -12.3699999       5.19055038E-06
  -12.3599997       1.02450658E-05
  -12.3500004       5.24246616E-06
  -12.3400002      -1.09928587E-05
  -12.3299999      -3.62087630E-05
  -12.3199997      -6.49202193E-05
  -12.3100004      -8.94697660E-05
  -12.3000002      -1.01754522E-04
  -12.2900000      -9.52429618E-05
  -12.2799997      -6.68085704E-05
  -12.2700005      -1.79195449E-05
  -12.2600002       4.51518972E-05
  -12.2500000       1.12225163E-04
  -12.2399998       1.71082778E-04
  -12.2299995       2.09951191E-04
  -12.2200003       2.20060887E-04
  -12.2100000       1.97708185E-04
  -12.1999998       1.45325743E-04
  -12.1899996       7.12719266E-05
  -12.1800003      -1.16707597E-05
  -12.1700001      -8.88055365E-05
  -12.1599998      -1.46516890E-04
  -12.1499996      -1.75101828E-04
  -12.1400003      -1.70804138E-04
  -12.1300001      -1.36582195E-04
  -12.1199999      -8.14165178E-05
  -12.1099997      -1.82910408E-05
  -12.1000004       3.87134205E-05
  -12.0900002       7.75645167E-05
  -12.0799999       9.09484952E-05
  -12.0699997       7.78499016E-05
  -12.0600004       4.36690898E-05
  -12.0500002      -1.16007345E-06
  -12.0400000      -4.37414310E-05
  -12.0299997      -7.18836891E-05
  -12.0200005      -7.71228151E-05
  -12.0100002      -5.68821888E-05
  -12.0000000      -1.52449084E-05
  -11.9899998       3.78688601E-05
  -11.9799995       8.89542862E-05
  -11.9700003       1.24099111E-04
  -11.9600000       1.32353889E-04
  -11.9499998       1.08504777E-04
  -11.9399996       5.45826442E-05
  -11.9300003      -2.02741030E-05
  -11.9200001      -1.01610574E-04
  -11.9099998      -1.72724176E-04
  -11.8999996      -2.18334157E-04
  -11.8900003      -2.28026140E-04
  -11.8800001      -1.98685811E-04
  -11.8699999      -1.35356371E-04
  -11.8599997      -5.03054071E-05
  -11.8500004       3.95106508E-05
  -11.8400002       1.16034964E-04
  -11.8299999       1.63964331E-04
  -11.8199997       1.74020548E-04
  -11.8100004       1.44920617E-04
  -11.8000002       8.36180407E-05
  -11.7900000       3.77052720E-06
  -11.7799997      -7.72194762E-05
  -11.7700005      -1.41935656E-04
  -11.7600002      -1.76633956E-04
  -11.7500000      -1.74089742E-04
  -11.7399998      -1.35008639E-04
  -11.7299995      -6.77273201E-05
  -11.7200003       1.36926355E-05
  -11.7100000       9.25299901E-05
  -11.6999998       1.52942972E-04
  -11.6899996       1.83215598E-04
  -11.6800003       1.78033268E-04
  -11.6700001       1.39342272E-04
  -11.6599998       7.56689114E-05
  -11.6499996       1.08961281E-07
  -11.6400003      -7.25265199E-05
  -11.6300001      -1.28765925E-04
  -11.6199999      -1.59079180E-04
  -11.6099997      -1.59506817E-04
  -11.6000004      -1.32034329E-04
  -11.5900002      -8.37179250E-05
  -11.5799999      -2.48360411E-05
  -11.5699997       3.34659271E-05
  -11.5600004       8.14937666E-05
  -11.5500002       1.12790505E-04
  -11.5400000       1.25051287E-04
  -11.5299997       1.20049735E-04
  -11.5200005       1.02690123E-04
  -11.5100002       7.94884472E-05
  -11.5000000       5.68897958E-05
  -11.4899998       3.98299599E-05
  -11.4799995       3.08538547E-05
  -11.4700003       2.99395633E-05
  -11.4600000       3.49897382E-05
  -11.4499998       4.27881860E-05
  -11.4399996       5.01184513E-05
  -11.4300003       5.47247946E-05
  -11.4200001       5.58632528E-05
  -11.4099998       5.43211354E-05
  -11.3999996       5.19388996E-05
  -11.3900003       5.08082085E-05
  -11.3800001       5.24063253E-05
  -11.3699999       5.69385084E-05
  -11.3599997       6.30950381E-05
  -11.3500004       6.83070757E-05
  -11.3400002       6.94394184E-05
  -11.3299999       6.37292615E-05
  -11.3199997       4.97037872E-05
  -11.3100004       2.78066946E-05
  -11.3000002       5.37293033E-07
  -11.2900000      -2.79648521E-05
  -11.2799997      -5.28053788E-05
  -11.2700005      -6.94742557E-05
  -11.2600002      -7.49458341E-05
  -11.2500000      -6.84482948E-05
  -11.2399998      -5.16906766E-05
  -11.2299995      -2.84744656E-05
  -11.2200003      -3.77748529E-06
  -11.2100000       1.74611177E-05
  -11.1999998       3.15433281E-05
  -11.1899996       3.68890796E-05
  -11.1800003       3.43552856E-05
  -11.1700001       2.69080501E-05
  -11.1599998       1.87277637E-05
  -11.1499996       1.39769963E-05
  -11.1400003       1.55532925E-05
  -11.1300001       2.41592006E-05
  -11.1199999       3.79461126E-05
  -11.1099997       5.28461314E-05
  -11.1000004       6.35324031E-05
  -11.0900002       6.47868364E-05
  -11.0799999       5.29454082E-05
  -11.0699997       2.70618220E-05
  -11.0600004      -1.05116596E-05
  -11.0500002      -5.42964844E-05
  -11.0400000      -9.66100342E-05
  -11.0299997      -1.29059961E-04
  -11.0200005      -1.44296428E-04
  -11.0100002      -1.37642055E-04
  -11.0000000      -1.08237240E-04
  -10.9899998      -5.94365592E-05
  -10.9799995       1.65150766E-06
  -10.9700003       6.54088581E-05
  -10.9600000       1.21496530E-04
  -10.9499998       1.60831245E-04
  -10.9399996       1.77349066E-04
  -10.9300003       1.69194624E-04
  -10.9200001       1.39087802E-04
  -10.9099998       9.37861187E-05
  -10.8999996       4.27445339E-05
  -10.8900003      -3.76024218E-06
  -10.8800001      -3.66621825E-05
  -10.8699999      -4.98822410E-05
  -10.8599997      -4.14864517E-05
  -10.8500004      -1.39909644E-05
  -10.8400002       2.62434223E-05
  -10.8299999       7.03936676E-05
  -10.8199997       1.09037777E-04
  -10.8100004       1.34103218E-04
  -10.8000002       1.40491655E-04
  -10.7900000       1.27046747E-04
  -10.7799997       9.66795851E-05
  -10.7700005       5.56521554E-05
  -10.7600002       1.22004676E-05
  -10.7500000      -2.51860965E-05
  -10.7399998      -4.94540909E-05
  -10.7299995      -5.62964851E-05
  -10.7200003      -4.48412065E-05
  -10.7100000      -1.76256854E-05
  -10.6999998       2.00754603E-05
  -10.6899996       6.13742959E-05
  -10.6800003       9.90800545E-05
  -10.6700001       1.26930390E-04
  -10.6599998       1.40535747E-04
  -10.6499996       1.37922951E-04
  -10.6400003       1.19661978E-04
  -10.6300001       8.86351554E-05
  -10.6199999       4.95461609E-05
  -10.6099997       8.26603991E-06
  -10.6000004      -2.89094296E-05
  -10.5900002      -5.60420522E-05
  -10.5799999      -6.83335165E-05
  -10.5699997      -6.28525449E-05
  -10.5600004      -3.91187859E-05
  -10.5500002       5.76964112E-07
  -10.5400000       5.12443039E-05
  -10.5299997       1.05746585E-04
  -10.5200005       1.55839516E-04
  -10.5100002       1.93576183E-04
  -10.5000000       2.12835395E-04
  -10.4899998       2.10644546E-04
  -10.4799995       1.87958402E-04
  -10.4700003       1.49639658E-04
  -10.4600000       1.03557111E-04
  -10.4499998       5.89360170E-05
  -10.4399996       2.43045815E-05
  -10.4300003       5.51888843E-06
  -10.4200001       4.36855498E-06
  -10.4099998       1.81500727E-05
  -10.3999996       4.03649392E-05
  -10.3900003       6.24114327E-05
  -10.3800001       7.58686365E-05
  -10.3699999       7.47953891E-05
  -10.3599997       5.74375372E-05
  -10.3500004       2.68696585E-05
  -10.3400002      -9.63801631E-06
  -10.3299999      -4.24078244E-05
  -10.3199997      -6.18714039E-05
  -10.3100004      -6.11851865E-05
  -10.3000002      -3.82705293E-05
  -10.2900000       3.26676445E-06
  -10.2799997       5.46134725E-05
  -10.2700005       1.03555678E-04
  -10.2600002       1.37218420E-04
  -10.2500000       1.45106082E-04
  -10.2399998       1.21727411E-04
  -10.2299995       6.81740712E-05
  -10.2200003      -7.74409091E-06
  -10.2100000      -9.28782028E-05
  -10.1999998      -1.71362786E-04
  -10.1899996      -2.27928293E-04
  -10.1800003      -2.51190068E-04
  -10.1700001      -2.36195468E-04
  -10.1599998      -1.85660509E-04
  -10.1499996      -1.09599634E-04
  -10.1400003      -2.33913470E-05
  -10.1300001       5.53457176E-05
  -10.1199999       1.10432477E-04
  -10.1099997       1.30600791E-04
  -10.1000004       1.12021218E-04
  -10.0900002       5.93352634E-05
  -10.0799999      -1.50567303E-05
  -10.0699997      -9.33393603E-05
  -10.0600004      -1.55801448E-04
  -10.0500002      -1.84824137E-04
  -10.0400000      -1.68527491E-04
  -10.0299997      -1.03333165E-04
  -10.0200005       5.07481400E-06
  -10.0100002       1.42578792E-04
  -10.0000000       2.89070536E-04
  -9.98999977       4.22016456E-04
  -9.97999954       5.20449830E-04
  -9.97000027       5.68640593E-04
  -9.96000004       5.58788422E-04
  -9.94999981       4.92301129E-04
  -9.93999958       3.79495468E-04
  -9.93000031       2.37841930E-04
  -9.92000008       8.91058589E-05
  -9.90999985      -4.41100965E-05
  -9.89999962      -1.41857163E-04
  -9.89000034      -1.89826678E-04
  -9.88000011      -1.81389274E-04
  -9.86999989      -1.18392963E-04
  -9.85999966      -1.06108437E-05
  -9.85000038       1.26066559E-04
  -9.84000015       2.72396195E-04
  -9.82999992       4.09032014E-04
  -9.81999969       5.19676309E-04
  -9.81000042       5.93540259E-04
  -9.80000019       6.26634399E-04
  -9.78999996       6.21642510E-04
  -9.77999973       5.86445560E-04
  -9.77000046       5.31686004E-04
  -9.76000023       4.68010723E-04
  -9.75000000       4.03718150E-04
  -9.73999977       3.43427848E-04
  -9.72999954       2.88094830E-04
  -9.72000027       2.36284934E-04
  -9.71000004       1.86228572E-04
  -9.69999981       1.37906056E-04
  -9.68999958       9.43819250E-05
  -9.68000031       6.18279446E-05
  -9.67000008       4.80968265E-05
  -9.65999985       6.02068576E-05
  -9.64999962       1.01507889E-04
  -9.64000034       1.69480176E-04
  -9.63000011       2.54995277E-04
  -9.61999989       3.43462190E-04
  -9.60999966       4.17710427E-04
  -9.60000038       4.61904972E-04
  -9.59000015       4.65426361E-04
  -9.57999992       4.25606384E-04
  -9.56999969       3.48513335E-04
  -9.56000042       2.47537682E-04
  -9.55000019       1.40168224E-04
  -9.53999996       4.38685129E-05
  -9.52999973      -2.78026873E-05
  -9.52000046      -6.78026117E-05
  -9.51000023      -7.63489807E-05
  -9.50000000      -5.97879553E-05
  -9.48999977      -2.81275934E-05
  -9.47999954       7.88289526E-06
  -9.47000027       3.92210968E-05
  -9.46000004       5.99727937E-05
  -9.44999981       6.74521580E-05
  -9.43999958       6.13551165E-05
  -9.43000031       4.25497383E-05
  -9.42000008       1.21543317E-05
  -9.40999985      -2.86644208E-05
  -9.39999962      -7.81258641E-05
  -9.39000034      -1.32846661E-04
  -9.38000011      -1.87015976E-04
  -9.36999989      -2.32313017E-04
  -9.35999966      -2.58886837E-04
  -9.35000038      -2.57305597E-04
  -9.34000015      -2.20972550E-04
  -9.32999992      -1.48258652E-04
  -9.31999969      -4.36169466E-05
  -9.31000042       8.27733456E-05
  -9.30000019       2.16830231E-04
  -9.28999996       3.43388907E-04
  -9.27999973       4.49231244E-04
  -9.27000046       5.25483512E-04
  -9.26000023       5.68766787E-04
  -9.25000000       5.80904831E-04
  -9.23999977       5.67458046E-04
  -9.22999954       5.35697793E-04
  -9.22000027       4.92743158E-04
  -9.21000004       4.44431760E-04
  -9.19999981       3.95150157E-04
  -9.18999958       3.48447968E-04
  -9.18000031       3.07960145E-04
  -9.17000008       2.78064981E-04
  -9.15999985       2.63849710E-04
  -9.14999962       2.70271819E-04
  -9.14000034       3.00765882E-04
  -9.13000011       3.55813187E-04
  -9.11999989       4.32054541E-04
  -9.10999966       5.22363698E-04
  -9.10000038       6.16972335E-04
  -9.09000015       7.05364568E-04
  -9.07999992       7.78385613E-04
  -9.06999969       8.29932455E-04
  -9.06000042       8.57740873E-04
  -9.05000019       8.63099820E-04
  -9.03999996       8.49690405E-04
  -9.02999973       8.22026981E-04
  -9.02000046       7.84078264E-04
  -9.01000023       7.38533097E-04
  -9.00000000       6.86892250E-04
  -8.98999977       6.30240014E-04
  -8.97999954       5.70282398E-04
  -8.97000027       5.10143116E-04
  -8.96000004       4.54507914E-04
  -8.94999981       4.08966531E-04
  -8.93999958       3.78712226E-04
  -8.93000031       3.67016910E-04
  -8.92000008       3.74003692E-04
  -8.90999985       3.96158081E-04
  -8.89999962       4.26790386E-04
  -8.89000034       4.57362650E-04
  -8.88000011       4.79329057E-04
  -8.86999989       4.85996599E-04
  -8.85999966       4.73926164E-04
  -8.85000038       4.43544850E-04
  -8.84000015       3.98871751E-04
  -8.82999992       3.46482673E-04
  -8.81999969       2.94003519E-04
  -8.81000042       2.48480559E-04
  -8.80000019       2.14947693E-04
  -8.78999996       1.95424524E-04
  -8.77999973       1.88480321E-04
  -8.77000046       1.89417027E-04
  -8.76000023       1.91059415E-04
  -8.75000000       1.85083627E-04
  -8.73999977       1.63739853E-04
  -8.72999954       1.21726029E-04
  -8.72000027       5.78677646E-05
  -8.71000004      -2.38046687E-05
  -8.69999981      -1.13965056E-04
  -8.68999958      -1.99117843E-04
  -8.68000031      -2.63905560E-04
  -8.67000008      -2.94229947E-04
  -8.65999985      -2.80525739E-04
  -8.64999962      -2.20373491E-04
  -8.64000034      -1.19705270E-04
  -8.63000011       7.84414442E-06
  -8.61999989       1.43418132E-04
  -8.60999966       2.66723684E-04
  -8.60000038       3.60207749E-04
  -8.59000015       4.12573543E-04
  -8.57999992       4.20755590E-04
  -8.56999969       3.89907247E-04
  -8.56000042       3.31519637E-04
  -8.55000019       2.60312256E-04
  -8.53999996       1.90839521E-04
  -8.52999973       1.34749978E-04
  -8.52000046       9.93320573E-05
  -8.51000023       8.74898251E-05
  -8.50000000       9.87993044E-05
  -8.48999977       1.30976172E-04
  -8.47999954       1.81051306E-04
  -8.47000027       2.45802396E-04
  -8.46000004       3.21417669E-04
  -8.44999981       4.02791658E-04
  -8.43999958       4.83090349E-04
  -8.43000031       5.54160622E-04
  -8.42000008       6.08013594E-04
  -8.40999985       6.39098638E-04
  -8.39999962       6.46620640E-04
  -8.39000034       6.35939301E-04
  -8.38000011       6.18247373E-04
  -8.36999989       6.08239032E-04
  -8.35999966       6.20196050E-04
  -8.35000038       6.63565006E-04
  -8.34000015       7.39445735E-04
  -8.32999992       8.39272223E-04
  -8.31999969       9.46357206E-04
  -8.31000042       1.04006752E-03
  -8.30000019       1.10149349E-03
  -8.28999996       1.11890235E-03
  -8.27999973       1.09123834E-03
  -8.27000046       1.02850085E-03
  -8.26000023       9.48817644E-04
  -8.25000000       8.73119978E-04
  -8.23999977       8.19121662E-04
  -8.22999954       7.96548557E-04
  -8.22000027       8.05123418E-04
  -8.21000004       8.35864106E-04
  -8.19999981       8.75103346E-04
  -8.18999958       9.09702678E-04
  -8.18000031       9.31557326E-04
  -8.17000008       9.39798367E-04
  -8.15999985       9.39995225E-04
  -8.14999962       9.40807571E-04
  -8.14000034       9.49506008E-04
  -8.13000011       9.68208711E-04
  -8.11999989       9.92396032E-04
  -8.10999966       1.01236487E-03
  -8.10000038       1.01710367E-03
  -8.09000015       9.99071635E-04
  -8.07999992       9.57929762E-04
  -8.06999969       9.01606923E-04
  -8.06000042       8.44069000E-04
  -8.05000019       8.00450274E-04
  -8.03999996       7.81306415E-04
  -8.02999973       7.88207108E-04
  -8.02000046       8.12516082E-04
  -8.01000023       8.38076754E-04
  -8.00000000       8.47055344E-04
  -7.98999977       8.26923293E-04
  -7.98000002       7.75986700E-04
  -7.96999979       7.05246988E-04
  -7.96000004       6.35614037E-04
  -7.94999981       5.91168646E-04
  -7.94000006       5.90673066E-04
  -7.92999983       6.40301150E-04
  -7.92000008       7.30272382E-04
  -7.90999985       8.36800318E-04
  -7.90000010       9.28933616E-04
  -7.88999987       9.78120370E-04
  -7.88000011       9.67313768E-04
  -7.86999989       8.96532030E-04
  -7.86000013       7.82967720E-04
  -7.84999990       6.55628101E-04
  -7.84000015       5.46371564E-04
  -7.82999992       4.80422779E-04
  -7.82000017       4.69565624E-04
  -7.80999994       5.10182639E-04
  -7.80000019       5.86521171E-04
  -7.78999996       6.77682401E-04
  -7.78000021       7.65542791E-04
  -7.76999998       8.40608496E-04
  -7.76000023       9.03717591E-04
  -7.75000000       9.63192899E-04
  -7.73999977       1.02885754E-03
  -7.73000002       1.10555242E-03
  -7.71999979       1.18897855E-03
  -7.71000004       1.26575015E-03
  -7.69999981       1.31785206E-03
  -7.69000006       1.32989546E-03
  -7.67999983       1.29637250E-03
  -7.67000008       1.22597767E-03
  -7.65999985       1.14106154E-03
  -7.65000010       1.07205741E-03
  -7.63999987       1.04860147E-03
  -7.63000011       1.09033217E-03
  -7.61999989       1.20053836E-03
  -7.61000013       1.36485649E-03
  -7.59999990       1.55543943E-03
  -7.59000015       1.73910952E-03
  -7.57999992       1.88667537E-03
  -7.57000017       1.98029913E-03
  -7.55999994       2.01664004E-03
  -7.55000019       2.00513937E-03
  -7.53999996       1.96258817E-03
  -7.53000021       1.90637342E-03
  -7.51999998       1.84906623E-03
  -7.51000023       1.79625687E-03
  -7.50000000       1.74805964E-03
  -7.48999977       1.70314615E-03
  -7.48000002       1.66314840E-03
  -7.46999979       1.63517275E-03
  -7.46000004       1.63104804E-03
  -7.44999981       1.66338554E-03
  -7.44000006       1.73996843E-03