  -16.0000000       0.00000000    
  -15.9899998       0.00000000    
  -15.9799995       0.00000000    
  -15.9700003       0.00000000    
  -15.9600000       0.00000000    
  -15.9499998       0.00000000    
  -15.9399996       0.00000000    
  -15.9300003       0.00000000    
  -15.9200001       0.00000000    
  -15.9099998      -0.00000000    
  -15.8999996      -1.56914599E-39
  -15.8900003      -4.26500350E-38
  -15.8800001      -6.19462035E-37
  -15.8699999      -6.12268114E-36
  -15.8599997      -4.50676498E-35
  -15.8500004      -2.59399553E-34
  -15.8400002      -1.20229939E-33
  -15.8299999      -4.55494877E-33
  -15.8199997      -1.40794968E-32
  -15.8100004      -3.43338302E-32
  -15.8000002      -5.74048611E-32
  -15.7900000      -1.12846370E-32
  -15.7799997       3.84843497E-31
  -15.7700005       1.94533030E-30
  -15.7600002       6.61514430E-30
  -15.7500000       1.83471113E-29
  -15.7399998       4.40026332E-29
  -15.7299995       9.34991381E-29
  -15.7200003       1.77679736E-28
  -15.7100000       3.01679761E-28
  -15.6999998       4.51600720E-28
  -15.6899996       5.74264017E-28
  -15.6800003       5.55175788E-28
  -15.6700001       2.09404413E-28
  -15.6599998      -6.88021284E-28
  -15.6499996      -2.29873606E-27
  -15.6400003      -4.52416159E-27
  -15.6300001      -6.74587085E-27
  -15.6199999      -7.63215607E-27
  -15.6099997      -5.25835536E-27
  -15.6000004       2.15991348E-27
  -15.5900002       1.47822164E-26
  -15.5799999       2.92746528E-26
  -15.5699997       3.77365604E-26
  -15.5600004       2.93172945E-26
  -15.5500002      -3.80035898E-27
  -15.5400000      -5.64977743E-26
  -15.5299997      -1.01655698E-25
  -15.5200005      -9.15971357E-26
  -15.5100002       1.89422020E-26
  -15.5000000       2.25241975E-25
  -15.4899998       4.18055456E-25
  -15.4799995       3.68168410E-25
  -15.4700003      -1.86451601E-25
  -15.4600000      -1.31146992E-24
  -15.4499998      -2.55742947E-24
  -15.4399996      -2.75593152E-24
  -15.4300003      -2.73418154E-25
  -15.4200001       5.95751858E-24
  -15.4099998       1.46597714E-23
  -15.3999996       2.04514809E-23
  -15.3900003       1.37615681E-23
  -15.3800001      -1.54903583E-23
  -15.3699999      -6.92874456E-23
  -15.3599997      -1.29801938E-22
  -15.3500004      -1.51130288E-22
  -15.3400002      -6.54398365E-23
  -15.3299999       1.85420178E-22
  -15.3199997       5.90602313E-22
  -15.3100004       1.00084118E-21
  -15.3000002       1.09300185E-21
  -15.2900000       4.31905814E-22
  -15.2799997      -1.31700462E-21
  -15.2700005      -4.03010997E-21
  -15.2600002      -6.74187419E-21
  -15.2500000      -7.48764375E-21
  -15.2399998      -3.70457119E-21
  -15.2299995       6.55985851E-21
  -15.2200003       2.27123359E-20
  -15.2100000       3.96020021E-20
  -15.1999998       4.67157198E-20
  -15.1899996       3.01892392E-20
  -15.1800003      -2.12107527E-20
  -15.1700001      -1.06563669E-19
  -15.1599998      -2.02781440E-19
  -15.1499996      -2.59981703E-19
  -15.1400003      -2.09550802E-19
  -15.1300001       9.75319128E-21
  -15.1199999       4.09041666E-19
  -15.1099997       9.02334107E-19
  -15.1000004       1.27987154E-18
  -15.0900002       1.23276071E-18
  -15.0799999       4.53335766E-19
  -15.0699997      -1.18990241E-18
  -15.0600004      -3.44701567E-18
  -15.0500002      -5.54376860E-18
  -15.0400000      -6.22440093E-18
  -15.0299997      -4.08663040E-18
  -15.0200005       1.77049883E-18
  -15.0100002       1.09196171E-17
  -15.0000000       2.09165489E-17
  -14.9899998       2.72029627E-17
  -14.9799995       2.40368048E-17
  -14.9700003       6.63462213E-18
  -14.9600000      -2.57935032E-17
  -14.9499998      -6.70849565E-17
  -14.9399996      -1.02763407E-16
  -14.9300003      -1.11922037E-16
  -14.9200001      -7.33831229E-17
  -14.9099998       2.43075427E-17
  -14.8999996       1.71593999E-16
  -14.8900003       3.29938921E-16
  -14.8800001       4.32800749E-16
  -14.8699999       4.00137094E-16
  -14.8599997       1.67256039E-16
  -14.8500004      -2.77284494E-16
  -14.8400002      -8.56950591E-16
  -14.8299999      -1.39288395E-15
  -14.8199997      -1.62696977E-15
  -14.8100004      -1.29160719E-15
  -14.8000002      -2.19804467E-16
  -14.7900000       1.53128151E-15
  -14.7799997       3.58909332E-15
  -14.7700005       5.26083736E-15
  -14.7600002       5.65884162E-15
  -14.7500000       3.96669171E-15
  -14.7399998      -1.95791613E-16
  -14.7299995      -6.40953770E-15
  -14.7200003      -1.32403413E-14
  -14.7100000      -1.83214328E-14
  -14.6999998      -1.88355462E-14
  -14.6899996      -1.23873656E-14
  -14.6800003       1.89506237E-15
  -14.6700001       2.23446885E-14
  -14.6599998       4.42387622E-14
  -14.6499996       6.01803831E-14
  -14.6400003       6.16142608E-14
  -14.6300001       4.14022793E-14
  -14.6199999      -3.01890272E-15
  -14.6099997      -6.67664505E-14
  -14.6000004      -1.36036703E-13
  -14.5900002      -1.89094630E-13
  -14.5799999      -2.00381731E-13
  -14.5699997      -1.47611835E-13
  -14.5600004      -2.06890000E-14
  -14.5500002       1.69769919E-13
  -14.5400000       3.87266825E-13
  -14.5299997       5.70652520E-13
  -14.5200005       6.43954291E-13
  -14.5100002       5.35130750E-13
  -14.5000000       2.01358922E-13
  -14.4899998      -3.44607128E-13
  -14.4799995      -1.01507735E-12
  -14.4700003      -1.64424724E-12
  -14.4600000      -2.00904441E-12
  -14.4499998      -1.87740795E-12
  -14.4399996      -1.07994570E-12
  -14.4300003       4.08425165E-13
  -14.4200001       2.39927024E-12
  -14.4099998       4.46181200E-12
  -14.3999996       5.96106541E-12
  -14.3900003       6.17873417E-12
  -14.3800001       4.51190734E-12
  -14.3699999       7.16613672E-13
  -14.3599997      -4.86548562E-12
  -14.3500004      -1.11789996E-11
  -14.3400002      -1.65078264E-11
  -14.3299999      -1.87651023E-11
  -14.3199997      -1.60193334E-11
  -14.3100004      -7.17700725E-12
  -14.3000002       7.34115720E-12
  -14.2900000       2.51543977E-11
  -14.2799997       4.19397121E-11
  -14.2700005       5.20814572E-11
  -14.2600002       4.99752496E-11
  -14.2500000       3.18026230E-11
  -14.2399998      -2.62700734E-12
  -14.2299995      -4.85345687E-11
  -14.2200003      -9.59329213E-11
  -14.2100000      -1.30944464E-10
  -14.1999998      -1.38780085E-10
  -14.1899996      -1.07987987E-10
  -14.1800003      -3.50507331E-11
  -14.1700001       7.19954582E-11
  -14.1599998       1.92350788E-10
  -14.1499996       2.94766433E-10
  -14.1400003       3.43735235E-10
  -14.1300001       3.08811726E-10
  -14.1199999       1.75132020E-10
  -14.1099997      -4.77113765E-11
  -14.1000004      -3.21572213E-10
  -14.0900002      -5.82967286E-10
  -14.0799999      -7.54609986E-10
  -14.0699997      -7.64026287E-10
  -14.0600004      -5.65587910E-10
  -14.0500002      -1.60364666E-10
  -14.0400000       3.92527177E-10
  -14.0299997       9.78416903E-10
  -14.0200005       1.44594592E-09
  -14.0100002       1.64066116E-09
  -14.0000000       1.44705692E-09
  -13.9899998       8.28990432E-10
  -13.9799995      -1.43279541E-10
  -13.9700003      -1.28979871E-09
  -13.9600000      -2.34709541E-09
  -13.9499998      -3.02237169E-09
  -13.9399996      -3.06609693E-09
  -13.9300003      -2.34646014E-09
  -13.9200001      -9.05639397E-10
  -13.9099998       1.02065201E-09
  -13.8999996       3.03189474E-09
  -13.8900003       4.63995420E-09
  -13.8800001       5.38167955E-09
  -13.8699999       4.94213781E-09
  -13.8599997       3.25709326E-09
  -13.8500004       5.64412961E-10
  -13.8400002      -2.61634736E-09
  -13.8299999      -5.58028379E-09
  -13.8199997      -7.59352403E-09
  -13.8100004      -8.07551270E-09
  -13.8000002      -6.76186884E-09
  -13.7900000      -3.80242016E-09
  -13.7799997       2.38628700E-10
  -13.7700005       4.49044046E-09
  -13.7600002       7.97291833E-09
  -13.7500000       9.83898829E-09
  -13.7399998       9.60021129E-09
  -13.7299995       7.27276461E-09
  -13.7200003       3.39696715E-09
  -13.7100000      -1.08533560E-09
  -13.6999998      -5.07229014E-09
  -13.6899996      -7.60296714E-09
  -13.6800003      -8.13525691E-09
  -13.6700001      -6.71694123E-09
  -13.6599998      -3.98934219E-09
  -13.6499996      -1.00681119E-09
  -13.6400003       1.09067100E-09
  -13.6300001       1.46508516E-09
  -13.6199999      -8.80031395E-11
  -13.6099997      -2.97790481E-09
  -13.6000004      -5.90426774E-09
  -13.5900002      -7.20034476E-09
  -13.5799999      -5.36570255E-09
  -13.5699997       3.50429741E-10
  -13.5600004       9.49282608E-09
  -13.5500002       2.02396748E-08
  -13.5400000       2.96449389E-08
  -13.5299997       3.42868631E-08
  -13.5200005       3.12038608E-08
  -13.5100002       1.88922780E-08
  -13.5000000      -1.91718397E-09
  -13.4899998      -2.79715344E-08
  -13.4799995      -5.38669731E-08
  -13.4700003      -7.30899501E-08
  -13.4600000      -7.95493804E-08
  -13.4499998      -6.92552646E-08
  -13.4399996      -4.17056043E-08
  -13.4300003      -5.60178626E-10
  -13.4200001       4.66833576E-08
  -13.4099998       9.00609720E-08
  -13.3999996       1.19331048E-07
  -13.3900003       1.26498634E-07
  -13.3800001       1.08043018E-07
  -13.3699999       6.62222845E-08
  -13.3599997       9.00844555E-09
  -13.3500004      -5.14712255E-08
  -13.3400002      -1.01716957E-07
  -13.3299999      -1.30231740E-07
  -13.3199997      -1.30629985E-07
  -13.3100004      -1.03606183E-07
  -13.3000002      -5.71161856E-08
  -13.2900000      -4.55287097E-09
  -13.2799997       3.87660037E-08
  -13.2700005       5.99747594E-08
  -13.2600002       5.27469233E-08
  -13.2500000       1.98903880E-08
  -13.2399998      -2.64708540E-08
  -13.2299995      -6.74814231E-08
  -13.2200003      -8.25267463E-08
  -13.2100000      -5.54982229E-08
  -13.1999998       1.92458938E-08
  -13.1899996       1.32951357E-07
  -13.1800003       2.61979523E-07
  -13.1700001       3.71432890E-07
  -13.1599998       4.22561385E-07
  -13.1499996       3.82570391E-07
  -13.1400003       2.34631884E-07
  -13.1300001      -1.44557379E-08
  -13.1199999      -3.31267216E-07
  -13.1099997      -6.58857118E-07
  -13.1000004      -9.26101336E-07
  -13.0900002      -1.06189179E-06
  -13.0799999      -1.01145656E-06
  -13.0699997      -7.51240520E-07
  -13.0600004      -2.98705856E-07
  -13.0500002       2.85810017E-07
  -13.0400000       9.06505591E-07
  -13.0299997       1.44812407E-06
  -13.0200005       1.79786173E-06
  -13.0100002       1.86888201E-06
  -13.0000000       1.62040772E-06
  -12.9899998       1.06971856E-06
  -12.9799995       2.92835978E-07
  -12.9700003      -5.87012039E-07
  -12.9600000      -1.42138276E-06
  -12.9499998      -2.06485197E-06
  -12.9399996      -2.40363920E-06
  -12.9300003      -2.37840527E-06
  -12.9200001      -1.99603937E-06
  -12.9099998      -1.32757827E-06
  -12.8999996      -4.92484787E-07
  -12.8900003       3.67296650E-07
  -12.8800001       1.11758061E-06
  -12.8699999       1.65938536E-06
  -12.8599997       1.94700260E-06
  -12.8500004       1.99229225E-06
  -12.8400002       1.85417980E-06
  -12.8299999       1.61614150E-06
  -12.8199997       1.35771518E-06
  -12.8100004       1.12794487E-06
  -12.8000002       9.28531279E-07
  -12.7900000       7.12240023E-07
  -12.7799997       3.98225154E-07
  -12.7700005      -9.87276039E-08
  -12.7600002      -8.32289686E-07
  -12.7500000      -1.79194444E-06
  -12.7399998      -2.88379215E-06
  -12.7299995      -3.93251457E-06
  -12.7200003      -4.70738041E-06
  -12.7100000      -4.96904067E-06
  -12.6999998      -4.52788618E-06
  -12.6899996      -3.30049579E-06
  -12.6800003      -1.34947084E-06
  -12.6700001       1.10563167E-06
  -12.6599998       3.71277451E-06
  -12.6499996       6.04575553E-06
  -12.6400003       7.68630889E-06
  -12.6300001       8.31309626E-06
  -12.6199999       7.77735750E-06
  -12.6099997       6.14638566E-06
  -12.6000004       3.70204771E-06
  -12.5900002       8.91334537E-07
  -12.5799999      -1.76284823E-06
  -12.5699997      -3.77237484E-06
  -12.5600004      -4.79147957E-06
  -12.5500002      -4.69591805E-06
  -12.5400000      -3.61386719E-06
  -12.5299997      -1.89942909E-06
  -12.5200005      -5.32055715E-08
  -12.5100002       1.39232839E-06
  -12.5000000       1.99534884E-06
  -12.4899998       1.50459334E-06
  -12.4799995      -8.94491166E-08
  -12.4700003      -2.56685234E-06
  -12.4600000      -5.55301403E-06
  -12.4499998      -8.63824698E-06
  -12.4399996      -1.15115163E-05
  -12.4300003      -1.40716475E-05
  -12.4200001      -1.64824905E-05
  -12.4099998      -1.91505751E-05
  -12.3999996      -2.26224820E-05
  -12.3900003      -2.74200229E-05
  -12.3800001      -3.38493919E-05
  -12.3699999      -4.18309683E-05
  -12.3599997      -5.07962868E-05
  -12.3500004      -5.96870996E-05
  -12.3400002      -6.70704612E-05
  -12.3299999      -7.13578629E-05
  -12.3199997      -7.10914392E-05
  -12.3100004      -6.52419621E-05
  -12.3000002      -5.34564388E-05
  -12.2900000      -3.61999191E-05
  -12.2799997      -1.47550800E-05
  -12.2700005       8.92848311E-06
  -12.2600002       3.25126202E-05
  -12.2500000       5.36268781E-05
  -12.2399998       7.02355755E-05
  -12.2299995       8.09453704E-05
  -12.2200003       8.51940349E-05
  -12.2100000       8.32852893E-05
  -12.1999998       7.62657000E-05
  -12.1899996       6.56720003E-05
  -12.1800003       5.32036102E-05
  -12.1700001       4.03898121E-05
  -12.1599998       2.83211812E-05
  -12.1499996       1.75003133E-05
  -12.1400003       7.84036729E-06
  -12.1300001      -1.19228264E-06
  -12.1199999      -1.03268594E-05
  -12.1099997      -2.01882976E-05
  -12.1000004      -3.10200812E-05
  -12.0900002      -4.24975442E-05
  -12.0799999      -5.36809202E-05
  -12.0699997      -6.31276707E-05
  -12.0600004      -6.91488822E-05
  -12.0500002      -7.01614990E-05
  -12.0400000      -6.50644579E-05
  -12.0299997      -5.35571089E-05
  -12.0200005      -3.63258077E-05
  -12.0100002      -1.50479036E-05
  -12.0000000       7.80232494E-06
  -11.9899998       2.93207304E-05
  -11.9799995       4.66511337E-05
  -11.9700003       5.74851620E-05
  -11.9600000       6.04860725E-05
  -11.9499998       5.55488878E-05
  -11.9399996       4.38381830E-05
  -11.9300003       2.75873954E-05
  -11.9200001       9.69134999E-06
  -11.9099998      -6.83292637E-06
  -11.8999996      -1.94123495E-05
  -11.8900003      -2.63971560E-05
  -11.8800001      -2.73542391E-05
  -11.8699999      -2.31112244E-05
  -11.8599997      -1.55387606E-05
  -11.8500004      -7.11376060E-06
  -11.8400002      -3.54286271E-07
  -11.8299999       2.75328648E-06
  -11.8199997       1.20967968E-06
  -11.8100004      -4.76173591E-06
  -11.8000002      -1.37554771E-05
  -11.7900000      -2.34966337E-05
  -11.7799997      -3.13606324E-05
  -11.7700005      -3.49866204E-05
  -11.7600002      -3.28467977E-05
  -11.7500000      -2.46405689E-05
  -11.7399998      -1.14188051E-05
  -11.7299995       4.59703188E-06
  -11.7200003       2.04672615E-05
  -11.7100000       3.31610136E-05
  -11.6999998       4.02187507E-05
  -11.6899996       4.03000377E-05
  -11.6800003       3.34896758E-05
  -11.6700001       2.12888262E-05
  -11.6599998       6.28900443E-06
  -11.6499996      -8.40000303E-06
  -11.6400003      -1.98396101E-05
  -11.6300001      -2.59123462E-05
  -11.6199999      -2.57831980E-05
  -11.6099997      -2.00662926E-05
  -11.6000004      -1.06587404E-05
  -11.5900002      -2.80630758E-07
  -11.5799999       8.17147247E-06
  -11.5699997       1.23070840E-05
  -11.5600004       1.08020104E-05
  -11.5500002       3.70711655E-06
  -11.5400000      -7.56413328E-06
  -11.5299997      -2.05637116E-05
  -11.5200005      -3.23735221E-05
  -11.5100002      -4.02730293E-05
  -11.5000000      -4.23542733E-05
  -11.4899998      -3.79429257E-05
  -11.4799995      -2.77314157E-05
  -11.4700003      -1.35989085E-05
  -11.4600000       1.83354848E-06
  -11.4499998       1.58033017E-05
  -11.4399996       2.60181096E-05
  -11.4300003       3.11363510E-05
  -11.4200001       3.10058022E-05
  -11.4099998       2.66106308E-05
  -11.3999996       1.97464287E-05
  -11.3900003       1.25077631E-05
  -11.3800001       6.71639964E-06
  -11.3699999       3.43149668E-06
  -11.3599997       2.66269467E-06
  -11.3500004       3.35837422E-06
  -11.3400002       3.67595317E-06
  -11.3299999       1.47415619E-06
  -11.3199997      -5.08604580E-06
  -11.3100004      -1.69723608E-05
  -11.3000002      -3.38801874E-05
  -11.2900000      -5.41008849E-05
  -11.2799997      -7.47029262E-05
  -11.2700005      -9.20019447E-05
  -11.2600002      -1.02233200E-04
  -11.2500000      -1.02295118E-04
  -11.2399998      -9.04155386E-05
  -11.2299995      -6.66051710E-05
  -11.2200003      -3.28034585E-05
  -11.2100000       7.31925957E-06
  -11.1999998       4.88734768E-05
  -11.1899996       8.64875765E-05
  -11.1800003       1.15140028E-04
  -11.1700001       1.30940141E-04
  -11.1599998       1.31721827E-04
  -11.1499996       1.17350261E-04
  -11.1400003       8.96942947E-05
  -11.1300001       5.22774717E-05
  -11.1199999       9.67729375E-06
  -11.1099997      -3.32147065E-05
  -11.1000004      -7.19376549E-05
  -11.0900002      -1.03078935E-04
  -11.0799999      -1.24659884E-04
  -11.0699997      -1.36230869E-04
  -11.0600004      -1.38674266E-04
  -11.0500002      -1.33771493E-04
  -11.0400000      -1.23637597E-04
  -11.0299997      -1.10153545E-04
  -11.0200005      -9.45265565E-05
  -11.0100002      -7.70812621E-05
  -11.0000000      -5.73325960E-05
  -10.9899998      -3.43260544E-05
  -10.9799995      -7.16491650E-06
  -10.9700003       2.44068269E-05
  -10.9600000       5.95206075E-05
  -10.9499998       9.59408426E-05
  -10.9399996       1.30158500E-04
  -10.9300003       1.57840346E-04
  -10.9200001       1.74567496E-04
  -10.9099998       1.76719404E-04
  -10.8999996       1.62311117E-04
  -10.8900003       1.31585446E-04
  -10.8800001       8.72030505E-05
  -10.8699999       3.39560647E-05
  -10.8599997      -2.19643862E-05
  -10.8500004      -7.40116739E-05
  -10.8400002      -1.16425443E-04
  -10.8299999      -1.45228420E-04
  -10.8199997      -1.58860552E-04
  -10.8100004      -1.58310620E-04
  -10.8000002      -1.46718390E-04
  -10.7900000      -1.28541127E-04
  -10.7799997      -1.08478474E-04
  -10.7700005      -9.04042754E-05
  -10.7600002      -7.65491277E-05
  -10.7500000      -6.71157613E-05
  -10.7399998      -6.04047309E-05
  -10.7299995      -5.34072569E-05
  -10.7200003      -4.27145569E-05
  -10.7100000      -2.55236828E-05
  -10.6999998      -5.04859884E-07
  -10.6899996       3.16651058E-05
  -10.6800003       6.82164391E-05
  -10.6700001       1.04656385E-04
  -10.6599998       1.35506401E-04
  -10.6499996       1.55245798E-04
  -10.6400003       1.59270363E-04
  -10.6300001       1.44687758E-04
  -10.6199999       1.10819616E-04
  -10.6099997       5.93491495E-05
  -10.6000004      -5.87680233E-06
  -10.5900002      -7.93260260E-05
  -10.5799999      -1.54439957E-04
  -10.5699997      -2.24366333E-04
  -10.5600004      -2.82668974E-04
  -10.5500002      -3.23942921E-04
  -10.5400000      -3.44288535E-04
  -10.5299997      -3.41622392E-04
  -10.5200005      -3.15818295E-04
  -10.5100002      -2.68682721E-04
  -10.5000000      -2.03776712E-04
  -10.4899998      -1.26103332E-04
  -10.4799995      -4.16878393E-05
  -10.4700003       4.29133543E-05
  -10.4600000       1.21133562E-04
  -10.4499998       1.86903839E-04
  -10.4399996       2.35110783E-04
  -10.4300003       2.61977722E-04
  -10.4200001       2.65355338E-04
  -10.4099998       2.44916620E-04
  -10.3999996       2.02255134E-04
  -10.3900003       1.40879449E-04
  -10.3800001       6.60869482E-05
  -10.3699999      -1.53088386E-05
  -10.3599997      -9.54250791E-05
  -10.3500004      -1.65944293E-04
  -10.3400002      -2.18919464E-04
  -10.3299999      -2.47688702E-04
  -10.3199997      -2.47790129E-04
  -10.3100004      -2.17731242E-04
  -10.3000002      -1.59454110E-04
  -10.2900000      -7.83614232E-05
  -10.2799997       1.71709726E-05
  -10.2700005       1.16778239E-04
  -10.2600002       2.09467442E-04
  -10.2500000       2.85143236E-04
  -10.2399998       3.36030178E-04
  -10.2299995       3.57721117E-04
  -10.2200003       3.49640264E-04
  -10.2100000       3.14821518E-04
  -10.1999998       2.59044697E-04
  -10.1899996       1.89515384E-04
  -10.1800003       1.13378410E-04
  -10.1700001       3.63994041E-05
  -10.1599998      -3.78882578E-05
  -10.1499996      -1.08381195E-04
  -10.1400003      -1.75917070E-04
  -10.1300001      -2.42237918E-04
  -10.1199999      -3.08684452E-04
  -10.1099997      -3.74973839E-04
  -10.1000004      -4.38398711E-04
  -10.0900002      -4.93686064E-04
  -10.0799999      -5.33591723E-04
  -10.0699997      -5.50122641E-04
  -10.0600004      -5.36122243E-04
  -10.0500002      -4.86859906E-04
  -10.0400000      -4.01266559E-04
  -10.0299997      -2.82542402E-04
  -10.0200005      -1.38015166E-04
  -10.0100002       2.17003526E-05
  -10.0000000       1.84040444E-04
  -9.98999977       3.36040161E-04
  -9.97999954       4.65794612E-04
  -9.97000027       5.63605747E-04
  -9.96000004       6.22700958E-04
  -9.94999981       6.39533158E-04
  -9.93999958       6.13762590E-04
  -9.93000031       5.48056676E-04
  -9.92000008       4.47816390E-04
  -9.90999985       3.20869382E-04
  -9.89999962       1.77091046E-04
  -9.89000034       2.78619245E-05
  -9.88000011      -1.14726587E-04
  -9.86999989      -2.38944936E-04
  -9.85999966      -3.34698881E-04
  -9.85000038      -3.94815084E-04
  -9.84000015      -4.16075462E-04
  -9.82999992      -3.99733894E-04
  -9.81999969      -3.51328374E-04
  -9.81000042      -2.79753003E-04
  -9.80000019      -1.95734799E-04
  -9.78999996      -1.10019944E-04
  -9.77999973      -3.16628248E-05
  -9.77000046       3.32035997E-05
  -9.76000023       8.18553817E-05
  -9.75000000       1.14654220E-04
  -9.73999977       1.34055939E-04
  -9.72999954       1.43265861E-04
  -9.72000027       1.44937570E-04
  -9.71000004       1.40280390E-04
  -9.69999981       1.28806219E-04
  -9.68999958       1.08748893E-04
  -9.68000031       7.79883048E-05
  -9.67000008       3.51658709E-05
  -9.65999985      -1.93710421E-05
  -9.64999962      -8.30973295E-05
  -9.64000034      -1.51463653E-04
  -9.63000011      -2.18637171E-04
  -9.61999989      -2.78615858E-04
  -9.60999966      -3.26395500E-04
  -9.60000038      -3.58858320E-04
  -9.59000015      -3.75141244E-04
  -9.57999992      -3.76400218E-04
  -9.56999969      -3.65067186E-04
  -9.56000042      -3.43844207E-04
  -9.55000019      -3.14752804E-04
  -9.53999996      -2.78535124E-04
  -9.52999973      -2.34594845E-04
  -9.52000046      -1.81504714E-04
  -9.51000023      -1.17937860E-04
  -9.50000000      -4.37537965E-05
  -9.48999977       3.90806090E-05
  -9.47999954       1.26015875E-04
  -9.47000027       2.10056358E-04
  -9.46000004       2.82516936E-04
  -9.44999981       3.34253826E-04
  -9.43999958       3.57111741E-04
  -9.43000031       3.45289562E-04
  -9.42000008       2.96363141E-04
  -9.40999985       2.11801002E-04
  -9.39999962       9.69308894E-05
  -9.39000034      -3.95710886E-05
  -9.38000011      -1.86527206E-04
  -9.36999989      -3.31284158E-04
  -9.35999966      -4.60795825E-04
  -9.35000038      -5.62698173E-04
  -9.34000015      -6.26361521E-04
  -9.32999992      -6.43918873E-04
  -9.31999969      -6.11237308E-04
  -9.31000042      -5.28730045E-04
  -9.30000019      -4.01836616E-04
  -9.28999996      -2.40961162E-04
  -9.27999973      -6.06970498E-05
  -9.27000046       1.21716956E-04
  -9.26000023       2.88579380E-04
  -9.25000000       4.24217375E-04
  -9.23999977       5.17305627E-04
  -9.22999954       5.62489266E-04
  -9.22000027       5.60891523E-04
  -9.21000004       5.19327121E-04
  -9.19999981       4.48363979E-04
  -9.18999958       3.59692844E-04
  -9.18000031       2.63477355E-04
  -9.17000008       1.66389553E-04
  -9.15999985       7.08651278E-05
  -9.14999962      -2.42255646E-05
  -9.14000034      -1.21708996E-04
  -9.13000011      -2.23627401E-04
  -9.11999989      -3.28934751E-04
  -9.10999966      -4.32131463E-04
  -9.10000038      -5.23339259E-04
  -9.09000015      -5.89897565E-04
  -9.07999992      -6.19106519E-04
  -9.06999969      -6.01389736E-04
  -9.06000042      -5.33009530E-04
  -9.05000019      -4.17583331E-04
  -9.03999996      -2.65983312E-04
  -9.02999973      -9.46514483E-05
  -9.02000046       7.72131752E-05
  -9.01000023       2.30864563E-04
  -9.00000000       3.50840332E-04
  -8.98999977       4.26816259E-04
  -8.97999954       4.54223657E-04
  -8.97000027       4.33741254E-04
  -8.96000004       3.70060152E-04
  -8.94999981       2.70440039E-04
  -8.93999958       1.43503814E-04
  -8.93000031      -1.49382936E-06
  -8.92000008      -1.54948662E-04
  -8.90999985      -3.06969509E-04
  -8.89999962      -4.47526138E-04
  -8.89000034      -5.66913921E-04
  -8.88000011      -6.56586315E-04
  -8.86999989      -7.10196677E-04
  -8.85999966      -7.24546378E-04
  -8.85000038      -7.00115692E-04
  -8.84000015      -6.40963786E-04
  -8.82999992      -5.53988502E-04
  -8.81999969      -4.47747007E-04
  -8.81000042      -3.31175164E-04
  -8.80000019      -2.12553394E-04
  -8.78999996      -9.89465480E-05
  -8.77999973       3.85531257E-06
  -8.77000046       9.10656599E-05
  -8.76000023       1.58585870E-04
  -8.75000000       2.02918542E-04
  -8.73999977       2.21448165E-04
  -8.72999954       2.13026957E-04
  -8.72000027       1.78625472E-04
  -8.71000004       1.21725920E-04
  -8.69999981       4.81937859E-05
  -8.68999958      -3.44583459E-05
  -8.68000031      -1.18270094E-04
  -8.67000008      -1.96159308E-04
  -8.65999985      -2.62967165E-04
  -8.64999962      -3.15897778E-04
  -8.64000034      -3.54238815E-04
  -8.63000011      -3.78512486E-04
  -8.61999989      -3.89415334E-04
  -8.60999966      -3.86980915E-04
  -8.60000038      -3.70306050E-04
  -8.59000015      -3.37953534E-04
  -8.57999992      -2.88869865E-04
  -8.56999969      -2.23441719E-04
  -8.56000042      -1.44250007E-04
  -8.55000019      -5.61912566E-05
  -8.53999996       3.41193154E-05
  -8.52999973       1.19463832E-04
  -8.52000046       1.93252301E-04
  -8.51000023       2.50422832E-04
  -8.50000000       2.87711329E-04
  -8.48999977       3.03269830E-04
  -8.47999954       2.95907928E-04
  -8.47000027       2.64422153E-04
  -8.46000004       2.07469362E-04
  -8.44999981       1.24222715E-04
  -8.43999958       1.56919814E-05
  -8.43000031      -1.13763912E-04
  -8.42000008      -2.55410152E-04
  -8.40999985      -3.96226475E-04
  -8.39999962      -5.20433940E-04
  -8.39000034      -6.12291798E-04
  -8.38000011      -6.59507758E-04
  -8.36999989      -6.56287826E-04
  -8.35999966      -6.05049718E-04
  -8.35000038      -5.16156841E-04
  -8.34000015      -4.05613653E-04
  -8.32999992      -2.91302975E-04
  -8.31999969      -1.88829217E-04
  -8.31000042      -1.08180524E-04
  -8.30000019      -5.21798793E-05
  -8.28999996      -1.71261308E-05
  -8.27999973       4.67690188E-06
  -8.27000046       2.14075299E-05
  -8.26000023       3.84286141E-05
  -8.25000000       5.62945061E-05
  -8.23999977       7.06734063E-05
  -8.22999954       7.41207623E-05
  -8.22000027       5.90049531E-05
  -8.21000004       2.05074321E-05
  -8.19999981      -4.13694579E-05
  -8.18999958      -1.21468438E-04
  -8.18000031      -2.10881932E-04
  -8.17000008      -2.99537904E-04
  -8.15999985      -3.79003410E-04
  -8.14999962      -4.44495789E-04
  -8.14000034      -4.95412678E-04
  -8.13000011      -5.34260005E-04
  -8.11999989      -5.64460584E-04
  -8.10999966      -5.87938935E-04
  -8.10000038      -6.03458495E-04
  -8.09000015      -6.06399903E-04
  -8.07999992      -5.90130512E-04
  -8.06999969      -5.48513781E-04
  -8.06000042      -4.78671689E-04
  -8.05000019      -3.82994855E-04
  -8.03999996      -2.69638811E-04
  -8.02999973      -1.51262939E-04
  -8.02000046      -4.23695274E-05
  -8.01000023       4.39240503E-05
  -8.00000000       9.86672458E-05
  -7.98999977       1.18574899E-04
  -7.98000002       1.05861691E-04
  -7.96999979       6.66075066E-05
  -7.96000004       8.33536524E-06
  -7.94999981      -6.22920124E-05
  -7.94000006      -1.40854710E-04
  -7.92999983      -2.25226555E-04
  -7.92000008      -3.14408739E-04
  -7.90999985      -4.06727166E-04
  -7.90000010      -4.98214620E-04
  -7.88999987      -5.81930974E-04
  -7.88000011      -6.48621703E-04
  -7.86999989      -6.88612228E-04
  -7.86000013      -6.94366579E-04
  -7.84999990      -6.62865059E-04
  -7.84000015      -5.96980506E-04
  -7.82999992      -5.05339529E-04
  -7.82000017      -4.00640100E-04
  -7.80999994      -2.96893937E-04
  -7.80000019      -2.06395867E-04
  -7.78999996      -1.37294177E-04
  -7.78000021      -9.24245469E-05
  -7.76999998      -6.96520729E-05
  -7.76000023      -6.34952594E-05
  -7.75000000      -6.74282419E-05
  -7.73999977      -7.60968105E-05
  -7.73000002      -8.67764320E-05
  -7.71999979      -9.97044990E-05
  -7.71000004      -1.17310112E-04
  -7.69999981      -1.42721168E-04
  -7.69000006      -1.78131289E-04
  -7.67999983      -2.23594965E-04
  -7.67000008      -2.76631123E-04
  -7.65999985      -3.32708762E-04
  -7.65000010      -3.86385102E-04
  -7.63999987      -4.32671688E-04
  -7.63000011      -4.68159764E-04
  -7.61999989      -4.91559389E-04
  -7.61000013      -5.03529445E-04
  -7.59999990      -5.05927543E-04
  -7.59000015      -5.00796421E-04
  -7.57999992      -4.89470840E-04
  -7.57000017      -4.72129002E-04
  -7.55999994      -4.47945029E-04
  -7.55000019      -4.15792165E-04
  -7.53999996      -3.75260453E-04
  -7.53000021      -3.27647722E-04
  -7.51999998      -2.76581326E-04
  -7.51000023      -2.28023724E-04
  -7.50000000      -1.89579907E-04
  -7.48999977      -1.69207575E-04
  -7.48000002      -1.73591034E-04
  -7.46999979      -2.06536541E-04
  -7.46000004      -2.67761032E-04
  -7.44999981      -3.52380710E-04
  -7.44000006      -4.51272179E-04