  -16.0000000       0.00000000    
  -15.9899998       0.00000000    
  -15.9799995       0.00000000    
  -15.9700003       0.00000000    
  -15.9600000       0.00000000    
  -15.9499998       0.00000000    
  -15.9399996       0.00000000    
  -15.9300003       0.00000000    
  -15.9200001       0.00000000    
  -15.9099998       0.00000000    
  -15.8999996       0.00000000    
  -15.8900003      -2.45992284E-38
  -15.8800001      -9.42368778E-37
  -15.8699999      -1.53072252E-35
  -15.8599997      -1.55638494E-34
  -15.8500004      -1.15594524E-33
  -15.8400002      -6.79756865E-33
  -15.8299999      -3.32034601E-32
  -15.8199997      -1.38906463E-31
  -15.8100004      -5.07919777E-31
  -15.8000002      -1.64563397E-30
  -15.7900000      -4.76690231E-30
  -15.7799997      -1.24110943E-29
  -15.7700005      -2.90997994E-29
  -15.7600002      -6.13232104E-29
  -15.7500000      -1.15266799E-28
  -15.7399998      -1.89789815E-28
  -15.7299995      -2.62199377E-28
  -15.7200003      -2.66982472E-28
  -15.7100000      -7.46122714E-29
  -15.6999998       5.10840496E-28
  -15.6899996       1.70368995E-27
  -15.6800003       3.60158606E-27
  -15.6700001       5.94428840E-27
  -15.6599998       7.80293598E-27
  -15.6499996       7.33752577E-27
  -15.6400003       1.88872425E-27
  -15.6300001      -1.12351088E-26
  -15.6199999      -3.29700348E-26
  -15.6099997      -5.97644473E-26
  -15.6000004      -8.07551054E-26
  -15.5900002      -7.68667607E-26
  -15.5799999      -2.48915660E-26
  -15.5699997       9.05702545E-26
  -15.5600004       2.57343758E-25
  -15.5500002       4.14866092E-25
  -15.5400000       4.48583436E-25
  -15.5299997       2.22752601E-25
  -15.5200005      -3.30753847E-25
  -15.5100002      -1.07931219E-24
  -15.5000000      -1.57949596E-24
  -15.4899998      -1.12042121E-24
  -15.4799995       9.30116705E-25
  -15.4700003       4.42541147E-24
  -15.4600000       7.60281342E-24
  -15.4499998       6.72458089E-24
  -15.4399996      -2.87454169E-24
  -15.4300003      -2.35614609E-23
  -15.4200001      -5.02735754E-23
  -15.4099998      -6.57884310E-23
  -15.3999996      -4.10650569E-23
  -15.3900003       5.36588868E-23
  -15.3800001       2.24047024E-22
  -15.3699999       4.18403115E-22
  -15.3599997       5.04139724E-22
  -15.3500004       2.84019940E-22
  -15.3400002      -4.17620616E-22
  -15.3299999      -1.59224018E-21
  -15.3199997      -2.85493411E-21
  -15.3100004      -3.34062363E-21
  -15.3000002      -1.85801850E-21
  -15.2900000       2.55506155E-21
  -15.2799997       9.68957108E-21
  -15.2700005       1.71495786E-20
  -15.2600002       1.99284579E-20
  -15.2500000       1.14431891E-20
  -15.2399998      -1.33380038E-20
  -15.2299995      -5.29262241E-20
  -15.2200003      -9.42569271E-20
  -15.2100000      -1.10931744E-19
  -15.1999998      -6.88845512E-20
  -15.1899996       5.77871672E-20
  -15.1800003       2.62470845E-19
  -15.1700001       4.81799878E-19
  -15.1599998       5.87331736E-19
  -15.1499996       4.11834202E-19
  -15.1400003      -1.77798130E-19
  -15.1300001      -1.16854544E-18
  -15.1199999      -2.28808042E-18
  -15.1099997      -2.95901365E-18
  -15.1000004      -2.40177785E-18
  -15.0900002       5.94386979E-20
  -15.0799999       4.51280667E-18
  -15.0699997       9.94612226E-18
  -15.0600004       1.39825039E-17
  -15.0500002       1.32028159E-17
  -15.0400000       4.30412017E-18
  -15.0299997      -1.39503746E-17
  -15.0200005      -3.85101280E-17
  -15.0100002      -6.05823507E-17
  -15.0000000      -6.62824126E-17
  -14.9899998      -4.05049997E-17
  -14.9799995       2.58455362E-17
  -14.9700003       1.26826508E-16
  -14.9600000       2.34180284E-16
  -14.9499998       2.96777210E-16
  -14.9399996       2.51490832E-16
  -14.9300003       4.73744667E-17
  -14.9200001      -3.20571689E-16
  -14.9099998      -7.78918846E-16
  -14.8999996      -1.16159790E-15
  -14.8900003      -1.23232568E-15
  -14.8800001      -7.55216111E-16
  -14.8699999       3.91364109E-16
  -14.8599997       2.08638678E-15
  -14.8500004       3.87565050E-15
  -14.8400002       4.98408289E-15
  -14.8299999       4.48475401E-15
  -14.8199997       1.63617680E-15
  -14.8100004      -3.67157654E-15
  -14.8000002      -1.05040607E-14
  -14.7900000      -1.67077283E-14
  -14.7799997      -1.91819657E-14
  -14.7700005      -1.47192083E-14
  -14.7600002      -1.34773964E-15
  -14.7500000       2.01426010E-14
  -14.7399998       4.50563862E-14
  -14.7299995       6.47190296E-14
  -14.7200003       6.80531478E-14
  -14.7100000       4.49745018E-14
  -14.6999998      -8.90429579E-15
  -14.6899996      -8.75700201E-14
  -14.6800003      -1.71844689E-13
  -14.6700001      -2.30631459E-13
  -14.6599998      -2.27585068E-13
  -14.6499996      -1.33089002E-13
  -14.6400003       6.07628639E-14
  -14.6300001       3.26731345E-13
  -14.6199999       5.96542347E-13
  -14.6099997       7.68263112E-13
  -14.6000004       7.30031649E-13
  -14.5900002       3.98254753E-13
  -14.5799999      -2.37973757E-13
  -14.5699997      -1.08038481E-12
  -14.5600004      -1.91012072E-12
  -14.5500002      -2.41630999E-12
  -14.5400000      -2.27082112E-12
  -14.5299997      -1.24083849E-12
  -14.5200005       6.86383405E-13
  -14.5100002       3.20696442E-12
  -14.5000000       5.67823176E-12
  -14.4899998       7.20850679E-12
  -14.4799995       6.87100507E-12
  -14.4700003       4.01463454E-12
  -14.4600000      -1.40003872E-12
  -14.4499998      -8.54721068E-12
  -14.4399996      -1.56836037E-11
  -14.4300003      -2.03908296E-11
  -14.4200001      -2.01384916E-11
  -14.4099998      -1.30941612E-11
  -14.3999996       1.00363511E-12
  -14.3900003       2.01795993E-11
  -14.3800001       4.00584253E-11
  -14.3699999       5.44347172E-11
  -14.3599997       5.66433254E-11
  -14.3500004       4.15573860E-11
  -14.3400002       7.77805077E-12
  -14.3299999      -4.06270052E-11
  -14.3199997      -9.35453590E-11
  -14.3100004      -1.35969555E-10
  -14.3000002      -1.51074223E-10
  -14.2900000      -1.24872404E-10
  -14.2799997      -5.14948501E-11
  -14.2700005       6.23581325E-11
  -14.2600002       1.95433170E-10
  -14.2500000       3.13786191E-10
  -14.2399998       3.77098630E-10
  -14.2299995       3.48870627E-10
  -14.2200003       2.08560613E-10
  -14.2100000      -3.74182872E-11
  -14.1999998      -3.49483942E-10
  -14.1899996      -6.56700527E-10
  -14.1800003      -8.68391137E-10
  -14.1700001      -8.94896213E-10
  -14.1599998      -6.73937572E-10
  -14.1499996      -1.96424196E-10
  -14.1400003       4.75973538E-10
  -14.1300001       1.20881216E-09
  -14.1199999       1.81317983E-09
  -14.1099997       2.08444884E-09
  -14.1000004       1.85575011E-09
  -14.0900002       1.05477449E-09
  -14.0799999      -2.51334981E-10
  -14.0699997      -1.83865034E-09
  -14.0600004      -3.34841532E-09
  -14.0500002      -4.35182113E-09
  -14.0400000      -4.44999548E-09
  -14.0299997      -3.38997341E-09
  -14.0200005      -1.16848620E-09
  -14.0100002       1.90773353E-09
  -14.0000000       5.23159249E-09
  -13.9899998       7.98845967E-09
  -13.9799995       9.32563626E-09
  -13.9700003       8.56968807E-09
  -13.9600000       5.44367396E-09
  -13.9499998       2.26201960E-10
  -13.9399996      -6.20230356E-09
  -13.9300003      -1.24617863E-08
  -13.9200001      -1.69265295E-08
  -13.9099998      -1.80945960E-08
  -13.8999996      -1.49987507E-08
  -13.8900003      -7.55959828E-09
  -13.8800001       3.22201288E-09
  -13.8699999       1.53134998E-08
  -13.8599997       2.59720103E-08
  -13.8500004       3.23057243E-08
  -13.8400002       3.19737232E-08
  -13.8299999       2.38695836E-08
  -13.8199997       8.61144223E-09
  -13.8100004      -1.13190559E-08
  -13.8000002      -3.18825784E-08
  -13.7900000      -4.82278502E-08
  -13.7799997      -5.57594007E-08
  -13.7700005      -5.13087635E-08
  -13.7600002      -3.41303732E-08
  -13.7500000      -6.44557296E-09
  -13.7399998       2.66686833E-08
  -13.7299995       5.81138124E-08
  -13.7200003       8.02207651E-08
  -13.7100000       8.65420020E-08
  -13.6999998       7.35836991E-08
  -13.6899996       4.20378825E-08
  -13.6800003      -2.85862800E-09
  -13.6700001      -5.20410346E-08
  -13.6599998      -9.43664986E-08
  -13.6499996      -1.19089265E-07
  -13.6400003      -1.18531460E-07
  -13.6300001      -9.03053206E-08
  -13.6199999      -3.84777081E-08
  -13.6099997       2.67382116E-08
  -13.6000004       9.08558846E-08
  -13.5900002       1.38259409E-07
  -13.5799999       1.55969090E-07
  -13.5699997       1.37146742E-07
  -13.5600004       8.34255047E-08
  -13.5500002       5.34472244E-09
  -13.5400000      -7.94267407E-08
  -13.5299997      -1.49866267E-07
  -13.5200005      -1.86625741E-07
  -13.5100002      -1.77162889E-07
  -13.5000000      -1.19673416E-07
  -13.4899998      -2.46861696E-08
  -13.4799995       8.63426948E-08
  -13.4700003       1.85403621E-07
  -13.4600000       2.44478969E-07
  -13.4499998       2.42819425E-07
  -13.4399996       1.73167876E-07
  -13.4300003       4.52211246E-08
  -13.4200001      -1.14859446E-07
  -13.4099998      -2.69199546E-07
  -13.3999996      -3.76487662E-07
  -13.3900003      -4.02064217E-07
  -13.3800001      -3.27476215E-07
  -13.3699999      -1.57040006E-07
  -13.3599997       8.05453055E-08
  -13.3500004       3.36448721E-07
  -13.3400002       5.51364963E-07
  -13.3299999       6.68732412E-07
  -13.3199997       6.48610353E-07
  -13.3100004       4.78885568E-07
  -13.3000002       1.80844197E-07
  -13.2900000      -1.92727143E-07
  -13.2799997      -5.67063637E-07
  -13.2700005      -8.60871467E-07
  -13.2600002      -1.00443265E-06
  -13.2500000      -9.56213967E-07
  -13.2399998      -7.13914517E-07
  -13.2299995      -3.16987780E-07
  -13.2200003       1.60420996E-07
  -13.2100000       6.24888344E-07
  -13.1999998       9.84128519E-07
  -13.1899996       1.16766546E-06
  -13.1800003       1.14273837E-06
  -13.1700001       9.21402716E-07
  -13.1599998       5.56855468E-07
  -13.1499996       1.29690832E-07
  -13.1400003      -2.72575164E-07
  -13.1300001      -5.77487242E-07
  -13.1199999      -7.45309819E-07
  -13.1099997      -7.77458524E-07
  -13.1000004      -7.13098416E-07
  -13.0900002      -6.14460987E-07
  -13.0799999      -5.44647548E-07
  -13.0699997      -5.44093268E-07
  -13.0600004      -6.12744202E-07
  -13.0500002      -7.03981470E-07
  -13.0400000      -7.33522654E-07
  -13.0299997      -6.02549335E-07
  -13.0200005      -2.30116299E-07
  -13.0100002       4.13385578E-07
  -13.0000000       1.28133127E-06
  -12.9899998       2.24308587E-06
  -12.9799995       3.09841130E-06
  -12.9700003       3.61384718E-06
  -12.9600000       3.57502768E-06
  -12.9499998       2.84392399E-06
  -12.9399996       1.40728878E-06
  -12.9300003      -5.96970438E-07
  -12.9200001      -2.88495335E-06
  -12.9099998      -5.06634660E-06
  -12.8999996      -6.71336011E-06
  -12.8900003      -7.44644058E-06
  -12.8800001      -7.01896352E-06
  -12.8699999      -5.38169525E-06
  -12.8599997      -2.71076919E-06
  -12.8500004       6.10003553E-07
  -12.8400002       4.05194487E-06
  -12.8299999       7.03857904E-06
  -12.8199997       9.05760953E-06
  -12.8100004       9.76393585E-06
  -12.8000002       9.05059187E-06
  -12.7900000       7.07066920E-06
  -12.7799997       4.20379183E-06
  -12.7700005       9.73237775E-07
  -12.7600002      -2.06845334E-06
  -12.7500000      -4.45945898E-06
  -12.7399998      -5.92603283E-06
  -12.7299995      -6.43342401E-06
  -12.7200003      -6.17694241E-06
  -12.7100000      -5.51400399E-06
  -12.6999998      -4.85277224E-06
  -12.6899996      -4.52484437E-06
  -12.6800003      -4.67508107E-06
  -12.6700001      -5.19940522E-06
  -12.6599998      -5.75114518E-06
  -12.6499996      -5.82026723E-06
  -12.6400003      -4.87117495E-06
  -12.6300001      -2.50815947E-06
  -12.6199999       1.37268239E-06
  -12.6099997       6.48704281E-06
  -12.6000004       1.21537714E-05
  -12.5900002       1.73875706E-05
  -12.5799999       2.10826311E-05
  -12.5699997       2.22530689E-05
  -12.5600004       2.02782612E-05
  -12.5500002       1.50943788E-05
  -12.5400000       7.28007899E-06
  -12.5299997      -1.99585907E-06
  -12.5200005      -1.11677191E-05
  -12.5100002      -1.85769404E-05
  -12.5000000      -2.28285135E-05
  -12.4899998      -2.31236118E-05
  -12.4799995      -1.94910936E-05
  -12.4700003      -1.28571010E-05
  -12.4600000      -4.92344680E-06
  -12.4499998       2.13378848E-06
  -12.4399996       6.09322888E-06
  -12.4300003       5.16088903E-06
  -12.4200001      -1.61212688E-06
  -12.4099998      -1.40591683E-05
  -12.3999996      -3.08399285E-05
  -12.3900003      -4.96169887E-05
  -12.3800001      -6.74398980E-05
  -12.3699999      -8.12646540E-05
  -12.3599997      -8.85058544E-05
  -12.3500004      -8.75101177E-05
  -12.3400002      -7.78549365E-05
  -12.3299999      -6.04139095E-05
  -12.3199997      -3.71791102E-05
  -12.3100004      -1.08832319E-05
  -12.3000002       1.54939171E-05
  -12.2900000       3.92276525E-05
  -12.2799997       5.82545908E-05
  -12.2700005       7.14040580E-05
  -12.2600002       7.84198492E-05
  -12.2500000       7.97883622E-05
  -12.2399998       7.64343058E-05
  -12.2299995       6.93751936E-05
  -12.2200003       5.94312551E-05
  -12.2100000       4.70691739E-05
  -12.1999998       3.24193097E-05
  -12.1899996       1.54569861E-05
  -12.1800003      -3.70862631E-06
  -12.1700001      -2.45275587E-05
  -12.1599998      -4.57844217E-05
  -12.1499996      -6.55409240E-05
  -12.1400003      -8.12924991E-05
  -12.1300001      -9.03335167E-05
  -12.1199999      -9.02715619E-05
  -12.1099997      -7.95879751E-05
  -12.1000004      -5.81208005E-05
  -12.0900002      -2.73521782E-05
  -12.0799999       9.58424880E-06
  -12.0699997       4.82068026E-05
  -12.0600004       8.32681180E-05
  -12.0500002       1.09526052E-04
  -12.0400000       1.22571641E-04
  -12.0299997       1.19566816E-04
  -12.0200005       9.97587049E-05
  -12.0100002       6.46768385E-05
  -12.0000000       1.79778654E-05
  -11.9899998      -3.50342634E-05
  -11.9799995      -8.81280139E-05
  -11.9700003      -1.34980699E-04
  -11.9600000      -1.69994906E-04
  -11.9499998      -1.88971011E-04
  -11.9399996      -1.89546859E-04
  -11.9300003      -1.71363979E-04
  -11.9200001      -1.35971568E-04
  -11.9099998      -8.65218826E-05
  -11.8999996      -2.73373935E-05
  -11.8900003       3.65639717E-05
  -11.8800001       9.99134136E-05
  -11.8699999       1.57561415E-04
  -11.8599997       2.04763055E-04
  -11.8500004       2.37397748E-04
  -11.8400002       2.52159924E-04
  -11.8299999       2.46757583E-04
  -11.8199997       2.20138973E-04
  -11.8100004       1.72738728E-04
  -11.8000002       1.06702508E-04
  -11.7900000       2.60223023E-05
  -11.7799997      -6.34954849E-05
  -11.7700005      -1.54496433E-04
  -11.7600002      -2.38613327E-04
  -11.7500000      -3.07254202E-04
  -11.7399998      -3.52569827E-04
  -11.7299995      -3.68475594E-04
  -11.7200003      -3.51569877E-04
  -11.7100000      -3.01785796E-04
  -11.6999998      -2.22642338E-04
  -11.6899996      -1.21017358E-04
  -11.6800003      -6.44434385E-06
  -11.6700001       1.09983011E-04
  -11.6599998       2.16941771E-04
  -11.6499996       3.04244692E-04
  -11.6400003       3.64029052E-04
  -11.6300001       3.91590060E-04
  -11.6199999       3.85744352E-04
  -11.6099997       3.48694128E-04
  -11.6000004       2.85451417E-04
  -11.5900002       2.02955300E-04
  -11.5799999       1.09059591E-04
  -11.5699997       1.15743351E-05
  -11.5600004      -8.24876988E-05
  -11.5500002      -1.67368911E-04
  -11.5400000      -2.38714361E-04
  -11.5299997      -2.93466059E-04
  -11.5200005      -3.29613104E-04
  -11.5100002      -3.45927110E-04
  -11.5000000      -3.41797073E-04
  -11.4899998      -3.17232771E-04
  -11.4799995      -2.73040496E-04
  -11.4700003      -2.11111270E-04
  -11.4600000      -1.34710557E-04
  -11.4499998      -4.86388599E-05
  -11.4399996       4.08521155E-05
  -11.4300003       1.26454514E-04
  -11.4200001       2.00505310E-04
  -11.4099998       2.55910272E-04
  -11.3999996       2.87142146E-04
  -11.3900003       2.91127333E-04
  -11.3800001       2.67838506E-04
  -11.3699999       2.20452799E-04
  -11.3599997       1.55012181E-04
  -11.3500004       7.96159366E-05
  -11.3400002       3.26770282E-06
  -11.3299999      -6.54308024E-05
  -11.3199997      -1.19513272E-04
  -11.3100004      -1.54595080E-04
  -11.3000002      -1.69370993E-04
  -11.2900000      -1.65587728E-04
  -11.2799997      -1.47514453E-04
  -11.2700005      -1.21025645E-04
  -11.2600002      -9.24791457E-05
  -11.2500000      -6.76014824E-05
  -11.2399998      -5.05793469E-05
  -11.2299995      -4.35046277E-05
  -11.2200003      -4.62431635E-05
  -11.2100000      -5.67106435E-05
  -11.1999998      -7.14622438E-05
  -11.1899996      -8.64504327E-05
  -11.1800003      -9.77875316E-05
  -11.1700001      -1.02367172E-04
  -11.1599998      -9.82457568E-05
  -11.1499996      -8.47484553E-05
  -11.1400003      -6.23295127E-05
  -11.1300001      -3.22675696E-05
  -11.1199999       3.69567260E-06
  -11.1099997       4.36672781E-05
  -11.1000004       8.57873238E-05
  -11.0900002       1.28253640E-04
  -11.0799999       1.69206905E-04
  -11.0699997       2.06540237E-04
  -11.0600004       2.37723405E-04
  -11.0500002       2.59732857E-04
  -11.0400000       2.69157114E-04
  -11.0299997       2.62503949E-04
  -11.0200005       2.36687469E-04
  -11.0100002       1.89623708E-04
  -11.0000000       1.20830540E-04
  -10.9899998       3.19137580E-05
  -10.9799995      -7.31684413E-05
  -10.9700003      -1.88138962E-04
  -10.9600000      -3.04763264E-04
  -10.9499998      -4.13516216E-04
  -10.9399996      -5.04482887E-04
  -10.9300003      -5.68384479E-04
  -10.9200001      -5.97601815E-04
  -10.9099998      -5.87065471E-04
  -10.8999996      -5.34904131E-04
  -10.8900003      -4.42769495E-04
  -10.8800001      -3.15802463E-04
  -10.8699999      -1.62244571E-04
  -10.8599997       7.25739255E-06
  -10.8500004       1.80575706E-04
  -10.8400002       3.45154607E-04
  -10.8299999       4.89082886E-04
  -10.8199997       6.02081767E-04
  -10.8100004       6.76317315E-04
  -10.8000002       7.06969877E-04
  -10.7900000       6.92520058E-04
  -10.7799997       6.34740631E-04
  -10.7700005       5.38410619E-04
  -10.7600002       4.10793786E-04
  -10.7500000       2.60940316E-04
  -10.7399998       9.88863248E-05
  -10.7299995      -6.51704904E-05
  -10.7200003      -2.21641298E-04
  -10.7100000      -3.62193212E-04
  -10.6999998      -4.80218965E-04
  -10.6899996      -5.71096258E-04
  -10.6800003      -6.32229960E-04
  -10.6700001      -6.62895443E-04
  -10.6599998      -6.63929153E-04
  -10.6499996      -6.37328194E-04
  -10.6400003      -5.85832866E-04
  -10.6300001      -5.12563100E-04
  -10.6199999      -4.20764845E-04
  -10.6099997      -3.13699478E-04
  -10.6000004      -1.94677516E-04
  -10.5900002      -6.72083188E-05
  -10.5799999       6.47892521E-05
  -10.5699997       1.96785317E-04
  -10.5600004       3.23519140E-04
  -10.5500002       4.39023017E-04
  -10.5400000       5.36829175E-04
  -10.5299997       6.10369141E-04
  -10.5200005       6.53542229E-04
  -10.5100002       6.61398342E-04
  -10.5000000       6.30854454E-04
  -10.4899998       5.61347173E-04
  -10.4799995       4.55317291E-04
  -10.4700003       3.18427279E-04
  -10.4600000       1.59433970E-04
  -10.4499998      -1.03302264E-05
  -10.4399996      -1.77866343E-04
  -10.4300003      -3.29751463E-04
  -10.4200001      -4.53598041E-04
  -10.4099998      -5.39558707E-04
  -10.3999996      -5.81666536E-04
  -10.3900003      -5.78791194E-04
  -10.3800001      -5.35015832E-04
  -10.3699999      -4.59304691E-04
  -10.3599997      -3.64432606E-04
  -10.3500004      -2.65267532E-04
  -10.3400002      -1.76621543E-04
  -10.3299999      -1.10986344E-04
  -10.3199997      -7.65238365E-05
  -10.3100004      -7.56731097E-05
  -10.3000002      -1.04657702E-04
  -10.2900000      -1.54035588E-04
  -10.2799997      -2.10254671E-04
  -10.2700005      -2.57988315E-04
  -10.2600002      -2.82865367E-04
  -10.2500000      -2.74115155E-04
  -10.2399998      -2.26639298E-04
  -10.2299995      -1.42110293E-04
  -10.2200003      -2.88652955E-05
  -10.2100000       9.94125949E-05
  -10.1999998       2.26002754E-04
  -10.1899996       3.34027456E-04
  -10.1800003       4.09370841E-04
  -10.1700001       4.43091500E-04
  -10.1599998       4.32879082E-04
  -10.1499996       3.83291888E-04
  -10.1400003       3.04749468E-04
  -10.1300001       2.11493985E-04
  -10.1199999       1.18926386E-04
  -10.1099997       4.08301712E-05
  -10.1000004      -1.30019416E-05
  -10.0900002      -3.83239130E-05
  -10.0799999      -3.69339286E-05
  -10.0699997      -1.60843119E-05
  -10.0600004       1.30266671E-05
  -10.0500002       3.73609037E-05
  -10.0400000       4.43490353E-05
  -10.0299997       2.40124264E-05
  -10.0200005      -2.94156598E-05
  -10.0100002      -1.16565883E-04
  -10.0000000      -2.32770180E-04
  -9.98999977      -3.68609035E-04
  -9.97999954      -5.11033519E-04
  -9.97000027      -6.44882210E-04
  -9.96000004      -7.54601671E-04
  -9.94999981      -8.25992029E-04
  -9.93999958      -8.47816234E-04
  -9.93000031      -8.13136983E-04
  -9.92000008      -7.20259210E-04
  -9.90999985      -5.73179917E-04
  -9.89999962      -3.81475111E-04
  -9.89000034      -1.59596602E-04
  -9.88000011       7.43898563E-05
  -9.86999989       3.00522952E-04
  -9.85999966       4.98952344E-04
  -9.85000038       6.52011891E-04
  -9.84000015       7.46114354E-04
  -9.82999992       7.73232547E-04
  -9.81999969       7.31781241E-04
  -9.81000042       6.26788882E-04
  -9.80000019       4.69338789E-04
  -9.78999996       2.75351835E-04
  -9.77999973       6.38594720E-05
  -9.77000046      -1.45027603E-04
  -9.76000023      -3.32221534E-04
  -9.75000000      -4.81595285E-04
  -9.73999977      -5.81545057E-04
  -9.72999954      -6.26010180E-04
  -9.72000027      -6.14844903E-04
  -9.71000004      -5.53511374E-04
  -9.69999981      -4.52143344E-04
  -9.68999958      -3.24108725E-04
  -9.68000031      -1.84266682E-04
  -9.67000008      -4.71557541E-05
  -9.65999985       7.46411679E-05
  -9.64999962       1.71739317E-04
  -9.64000034       2.38652516E-04
  -9.63000011       2.73894315E-04
  -9.61999989       2.79522908E-04
  -9.60999966       2.60262226E-04
  -9.60000038       2.22392424E-04
  -9.59000015       1.72621905E-04
  -9.57999992       1.17131232E-04
  -9.56999969       6.09203780E-05
  -9.56000042       7.51405696E-06
  -9.55000019      -4.09993809E-05
  -9.53999996      -8.36825857E-05
  -9.52999973      -1.20339086E-04
  -9.52000046      -1.51103945E-04
  -9.51000023      -1.76135189E-04
  -9.50000000      -1.95462722E-04
  -9.48999977      -2.09000063E-04
  -9.47999954      -2.16679575E-04
  -9.47000027      -2.18640169E-04
  -9.46000004      -2.15386201E-04
  -9.44999981      -2.07845980E-04
  -9.43999958      -1.97288115E-04
  -9.43000031      -1.85095123E-04
  -9.42000008      -1.72439468E-04
  -9.40999985      -1.59946081E-04
  -9.39999962      -1.47446684E-04
  -9.39000034      -1.33926776E-04
  -9.38000011      -1.17732270E-04
  -9.36999989      -9.70418914E-05
  -9.35999966      -7.05365965E-05
  -9.35000038      -3.81251812E-05
  -9.34000015      -1.53828444E-06
  -9.32999992       3.54011936E-05
  -9.31999969       6.69751316E-05
  -9.31000042       8.62822708E-05
  -9.30000019       8.63881214E-05
  -9.28999996       6.17125697E-05
  -9.27999973       9.36839024E-06
  -9.27000046      -6.98585209E-05
  -9.26000023      -1.71141393E-04
  -9.25000000      -2.85986986E-04
  -9.23999977      -4.03315935E-04
  -9.22999954      -5.11050108E-04
  -9.22000027      -5.97887265E-04
  -9.21000004      -6.54902251E-04
  -9.19999981      -6.76664233E-04
  -9.18999958      -6.61683269E-04
  -9.18000031      -6.12167292E-04
  -9.17000008      -5.33233688E-04
  -9.15999985      -4.31829016E-04
  -9.14999962      -3.15647223E-04
  -9.14000034      -1.92285996E-04
  -9.13000011      -6.87693901E-05
  -9.11999989       4.85700293E-05
  -9.10999966       1.53973786E-04
  -9.10000038       2.42091555E-04
  -9.09000015       3.07944807E-04
  -9.07999992       3.47129884E-04
  -9.06999969       3.56264063E-04
  -9.06000042       3.33574601E-04
  -9.05000019       2.79463944E-04
  -9.03999996       1.96871639E-04
  -9.02999973       9.12983232E-05
  -9.02000046      -2.95580339E-05
  -9.01000023      -1.56510796E-04
  -9.00000000      -2.79818691E-04
  -8.98999977      -3.90188419E-04
  -8.97999954      -4.79694660E-04
  -8.97000027      -5.42504189E-04
  -8.96000004      -5.75342623E-04
  -8.94999981      -5.77687286E-04
  -8.93999958      -5.51697914E-04
  -8.93000031      -5.01904346E-04
  -8.92000008      -4.34671820E-04
  -8.90999985      -3.57469602E-04
  -8.89999962      -2.77989311E-04
  -8.89000034      -2.03200150E-04
  -8.88000011      -1.38470408E-04
  -8.86999989      -8.69148134E-05
  -8.85999966      -4.91206665E-05
  -8.85000038      -2.33502888E-05
  -8.84000015      -6.22020025E-06
  -8.82999992       6.26206293E-06
  -8.81999969       1.75290297E-05
  -8.81000042       2.94337806E-05
  -8.80000019       4.16453368E-05
  -8.78999996       5.16288346E-05
  -8.77999973       5.52329002E-05
  -8.77000046       4.77428912E-05
  -8.76000023       2.51315596E-05
  -8.75000000      -1.48134159E-05
  -8.73999977      -7.17676085E-05
  -8.72999954      -1.42717065E-04
  -8.72000027      -2.22377988E-04
  -8.71000004      -3.04040790E-04
  -8.69999981      -3.80596728E-04
  -8.68999958      -4.45493148E-04
  -8.68000031      -4.93432861E-04
  -8.67000008      -5.20750938E-04
  -8.65999985      -5.25522861E-04
  -8.64999962      -5.07533376E-04
  -8.64000034      -4.68239654E-04
  -8.63000011      -4.10796289E-04
  -8.61999989      -3.40106810E-04
  -8.60999966      -2.62772635E-04
  -8.60000038      -1.86775243E-04
  -8.59000015      -1.20773417E-04
  -8.57999992      -7.30207394E-05
  -8.56999969      -5.00662536E-05
  -8.56000042      -5.55310289E-05
  -8.55000019      -8.93027100E-05
  -8.53999996      -1.47425162E-04
  -8.52999973      -2.22785995E-04
  -8.52000046      -3.06475384E-04
  -8.51000023      -3.89478577E-04
  -8.50000000      -4.64248238E-04
  -8.48999977      -5.25728683E-04
  -8.47999954      -5.71574434E-04
  -8.47000027      -6.01567503E-04
  -8.46000004      -6.16504869E-04
  -8.44999981      -6.17009413E-04
  -8.43999958      -6.02740154E-04
  -8.43000031      -5.72330842E-04
  -8.42000008      -5.24115108E-04
  -8.40999985      -4.57392773E-04
  -8.39999962      -3.73765331E-04
  -8.39000034      -2.78004154E-04
  -8.38000011      -1.78044298E-04
  -8.36999989      -8.39816712E-05
  -8.35999966      -6.29567239E-06
  -8.35000038       4.62002427E-05
  -8.34000015       6.80607700E-05
  -8.32999992       5.80428350E-05
  -8.31999969       1.88355389E-05
  -8.31000042      -4.41749653E-05
  -8.30000019      -1.24637299E-04
  -8.28999996      -2.16828383E-04
  -8.27999973      -3.16535530E-04
  -8.27000046      -4.20931261E-04
  -8.26000023      -5.27541502E-04
  -8.25000000      -6.32777344E-04
  -8.23999977      -7.30708358E-04
  -8.22999954      -8.12716200E-04
  -8.22000027      -8.68378265E-04
  -8.21000004      -8.87496455E-04
  -8.19999981      -8.62742076E-04
  -8.18999958      -7.92109699E-04
  -8.18000031      -6.80353842E-04
  -8.17000008      -5.38853346E-04
  -8.15999985      -3.83817125E-04
  -8.14999962      -2.33261046E-04
  -8.14000034      -1.03573817E-04
  -8.13000011      -6.61613467E-06
  -8.11999989       5.18831730E-05
  -8.10999966       7.22942714E-05
  -8.10000038       5.95979691E-05
  -8.09000015       2.10626495E-05
  -8.07999992      -3.60826998E-05
  -8.06999969      -1.06231120E-04
  -8.06000042      -1.85827099E-04
  -8.05000019      -2.72693316E-04
  -8.03999996      -3.64719250E-04
  -8.02999973      -4.58590512E-04
  -8.02000046      -5.49182587E-04
  -8.01000023      -6.29945076E-04
  -8.00000000      -6.94184273E-04
  -7.98999977      -7.36771734E-04
  -7.98000002      -7.55618676E-04
  -7.96999979      -7.52321561E-04
  -7.96000004      -7.31691893E-04
  -7.94999981      -7.00300152E-04
  -7.94000006      -6.64540858E-04
  -7.92999983      -6.28909096E-04
  -7.92000008      -5.95104182E-04
  -7.90999985      -5.62262314E-04
  -7.90000010      -5.28194010E-04
  -7.88999987      -4.91115439E-04
  -7.88000011      -4.51177650E-04
  -7.86999989      -4.11174580E-04
  -7.86000013      -3.76128883E-04
  -7.84999990      -3.51890398E-04
  -7.84000015      -3.43269989E-04
  -7.82999992      -3.52425122E-04
  -7.82000017      -3.78127355E-04
  -7.80999994      -4.16215131E-04
  -7.80000019      -4.61084215E-04
  -7.78999996      -5.07664925E-04
  -7.78000021      -5.53134596E-04
  -7.76999998      -5.97699836E-04
  -7.76000023      -6.44121319E-04
  -7.75000000      -6.96122937E-04
  -7.73999977      -7.56256341E-04
  -7.73000002      -8.24011746E-04
  -7.71999979      -8.94898607E-04
  -7.71000004      -9.60884208E-04
  -7.69999981      -1.01210037E-03
  -7.69000006      -1.03927869E-03
  -7.67999983      -1.03612500E-03
  -7.67000008      -1.00087794E-03
  -7.65999985      -9.36598168E-04
  -7.65000010      -8.50191165E-04
  -7.63999987      -7.50598556E-04
  -7.63000011      -6.46848814E-04
  -7.61999989      -5.46641124E-04
  -7.61000013      -4.55860805E-04
  -7.59999990      -3.79016652E-04
  -7.59000015      -3.20194755E-04
  -7.57999992      -2.83916306E-04
  -7.57000017      -2.75335129E-04
  -7.55999994      -2.99499196E-04
  -7.55000019      -3.59820173E-04
  -7.53999996      -4.56268084E-04
  -7.53000021      -5.83993620E-04
  -7.51999998      -7.32999586E-04
  -7.51000023      -8.89155024E-04
  -7.50000000      -1.03639555E-03
  -7.48999977      -1.15954468E-03
  -7.48000002      -1.24697445E-03
  -7.46999979      -1.29238365E-03
  -7.46000004      -1.29527249E-03
  -7.44999981      -1.26012450E-03
  -7.44000006      -1.19471154E-03