  -16.0000000       0.00000000    
  -15.9899998       0.00000000    
  -15.9799995       0.00000000    
  -15.9700003       0.00000000    
  -15.9600000       0.00000000    
  -15.9499998       0.00000000    
  -15.9399996       0.00000000    
  -15.9300003       0.00000000    
  -15.9200001       0.00000000    
  -15.9099998       0.00000000    
  -15.8999996       5.90521186E-41
  -15.8900003       1.47497748E-38
  -15.8800001       3.94971555E-37
  -15.8699999       5.38450204E-36
  -15.8599997       4.88218964E-35
  -15.8500004       3.30435755E-34
  -15.8400002       1.77793410E-33
  -15.8299999       7.89951599E-33
  -15.8199997       2.96683489E-32
  -15.8100004       9.54140066E-32
  -15.8000002       2.63600282E-31
  -15.7900000       6.19472686E-31
  -15.7799997       1.19431543E-30
  -15.7700005       1.67208636E-30
  -15.7600002       6.70023975E-31
  -15.7500000      -5.59740581E-30
  -15.7399998      -2.51242226E-29
  -15.7299995      -7.13198761E-29
  -15.7200003      -1.60955430E-28
  -15.7100000      -3.04473346E-28
  -15.6999998      -4.84158806E-28
  -15.6899996      -6.20039760E-28
  -15.6800003      -5.35119683E-28
  -15.6700001       4.96621920E-29
  -15.6599998       1.44247742E-27
  -15.6499996       3.78290852E-27
  -15.6400003       6.71854344E-27
  -15.6300001       9.05995810E-27
  -15.6199999       8.65959579E-27
  -15.6099997       2.85137395E-27
  -15.6000004      -1.03145358E-26
  -15.5900002      -3.02295566E-26
  -15.5799999      -5.21635383E-26
  -15.5699997      -6.74586083E-26
  -15.5600004      -6.66952683E-26
  -15.5500002      -4.51532581E-26
  -15.5400000      -6.39919113E-27
  -15.5299997       4.33404557E-26
  -15.5200005       1.15923196E-25
  -15.5100002       2.71775795E-25
  -15.5000000       6.31981912E-25
  -15.4899998       1.31852204E-24
  -15.4799995       2.26637214E-24
  -15.4700003       2.90817241E-24
  -15.4600000       1.87714738E-24
  -15.4499998      -2.91581825E-24
  -15.4399996      -1.33198186E-23
  -15.4300003      -2.87159222E-23
  -15.4200001      -4.28258765E-23
  -15.4099998      -4.11906814E-23
  -15.3999996      -2.55319979E-24
  -15.3900003       9.18502496E-23
  -15.3800001       2.38871146E-22
  -15.3699999       3.87623934E-22
  -15.3599997       4.21001888E-22
  -15.3500004       1.68795067E-22
  -15.3400002      -5.20474825E-22
  -15.3299999      -1.63778358E-21
  -15.3199997      -2.83359483E-21
  -15.3100004      -3.29700419E-21
  -15.3000002      -1.85313822E-21
  -15.2900000       2.55642168E-21
  -15.2799997       9.95928527E-21
  -15.2700005       1.82245143E-20
  -15.2600002       2.23296001E-20
  -15.2500000       1.49646472E-20
  -15.2399998      -1.06000215E-20
  -15.2299995      -5.51566230E-20
  -15.2200003      -1.07032848E-19
  -15.2100000      -1.37822223E-19
  -15.1999998      -1.05521447E-19
  -15.1899996       2.99938113E-20
  -15.1800003       2.78022306E-19
  -15.1700001       5.81548037E-19
  -15.1599998       7.92868644E-19
  -15.1499996       6.86623084E-19
  -15.1400003       3.54600793E-20
  -15.1300001      -1.24483703E-18
  -15.1199999      -2.91277218E-18
  -15.1099997      -4.26474141E-18
  -15.1000004      -4.17083118E-18
  -15.0900002      -1.40756217E-18
  -15.0799999       4.66763461E-18
  -15.0699997       1.32286297E-17
  -15.0600004       2.12431496E-17
  -15.0500002       2.34531197E-17
  -15.0400000       1.36652983E-17
  -15.0299997      -1.23629033E-17
  -15.0200005      -5.28717205E-17
  -15.0100002      -9.63228464E-17
  -15.0000000      -1.20286567E-16
  -14.9899998      -9.56680436E-17
  -14.9799995       2.07102616E-18
  -14.9700003       1.75741297E-16
  -14.9600000       3.88433851E-16
  -14.9499998       5.54014446E-16
  -14.9399996       5.47450999E-16
  -14.9300003       2.43621022E-16
  -14.9200001      -4.16004403E-16
  -14.9099998      -1.34469604E-15
  -14.8999996      -2.25299244E-15
  -14.8900003      -2.65703859E-15
  -14.8800001      -1.99314560E-15
  -14.8699999       1.48926405E-16
  -14.8599997       3.71399510E-15
  -14.8500004       7.89685259E-15
  -14.8400002       1.10456569E-14
  -14.8299999       1.09224136E-14
  -14.8199997       5.41933247E-15
  -14.8100004      -6.33268682E-15
  -14.8000002      -2.27577814E-14
  -14.7900000      -3.90523558E-14
  -14.7799997      -4.74584463E-14
  -14.7700005      -3.91003012E-14
  -14.7600002      -7.45151994E-15
  -14.7500000       4.72258002E-14
  -14.7399998       1.13961778E-13
  -14.7299995       1.69783675E-13
  -14.7200003       1.83134934E-13
  -14.7100000       1.23119763E-13
  -14.6999998      -2.63345864E-14
  -14.6899996      -2.51009310E-13
  -14.6800003      -4.95767435E-13
  -14.6700001      -6.66064209E-13
  -14.6599998      -6.47421027E-13
  -14.6499996      -3.43903508E-13
  -14.6400003       2.71043984E-13
  -14.6300001       1.10677201E-12
  -14.6199999       1.93246439E-12
  -14.6099997       2.40129661E-12
  -14.6000004       2.13514297E-12
  -14.5900002       8.64518580E-13
  -14.5799999      -1.40706923E-12
  -14.5699997      -4.27000102E-12
  -14.5600004      -6.87581979E-12
  -14.5500002      -8.06555777E-12
  -14.5400000      -6.68272642E-12
  -14.5299997      -2.03123065E-12
  -14.5200005       5.63725976E-12
  -14.5100002       1.47851956E-11
  -14.5000000       2.25991205E-11
  -14.4899998       2.54972207E-11
  -14.4799995       2.01551189E-11
  -14.4700003       4.87947356E-12
  -14.4600000      -1.90462333E-11
  -14.4499998      -4.65648214E-11
  -14.4399996      -6.91251639E-11
  -14.4300003      -7.63755795E-11
  -14.4200001      -5.92152022E-11
  -14.4099998      -1.36213194E-11
  -14.3999996       5.58430802E-11
  -14.3900003       1.34243783E-10
  -14.3800001       1.97522235E-10
  -14.3699999       2.17482074E-10
  -14.3599997       1.70140860E-10
  -14.3500004       4.57329521E-11
  -14.3400002      -1.42559339E-10
  -14.3299999      -3.54666796E-10
  -14.3199997      -5.27571875E-10
  -14.3100004      -5.88541604E-10
  -14.3000002      -4.76340745E-10
  -14.2900000      -1.65918071E-10
  -14.2799997       3.10640097E-10
  -14.2700005       8.55211679E-10
  -14.2600002       1.31376066E-09
  -14.2500000       1.50830137E-09
  -14.2399998       1.28713551E-09
  -14.2299995       5.82612680E-10
  -14.2200003      -5.40129552E-10
  -14.2100000      -1.86207927E-09
  -14.1999998      -3.03213299E-09
  -14.1899996      -3.63759778E-09
  -14.1800003      -3.31530092E-09
  -14.1700001      -1.87987492E-09
  -14.1599998       5.66299396E-10
  -14.1499996       3.58113716E-09
  -14.1400003       6.42122622E-09
  -14.1300001       8.18345391E-09
  -14.1199999       8.03423994E-09
  -14.1099997       5.47958878E-09
  -14.1000004       6.04585770E-10
  -14.0900002      -5.79796389E-09
  -14.0799999      -1.22766171E-08
  -14.0699997      -1.69780083E-08
  -14.0600004      -1.80862454E-08
  -14.0500002      -1.43596832E-08
  -14.0400000      -5.63091396E-09
  -14.0299997       6.88463286E-09
  -14.0200005       2.06053592E-08
  -14.0100002       3.19949471E-08
  -14.0000000       3.73392837E-08
  -13.9899998       3.37481225E-08
  -13.9799995       2.01462580E-08
  -13.9700003      -2.02774464E-09
  -13.9600000      -2.86731172E-08
  -13.9499998      -5.35844933E-08
  -13.9399996      -6.97050169E-08
  -13.9300003      -7.08685306E-08
  -13.9200001      -5.36483888E-08
  -13.9099998      -1.88276221E-08
  -13.8999996       2.79831234E-08
  -13.8900003       7.69084707E-08
  -13.8800001       1.15619791E-07
  -13.8699999       1.32136549E-07
  -13.8599997       1.18045307E-07
  -13.8500004       7.13512165E-08
  -13.8400002      -1.86121440E-09
  -13.8299999      -8.76033042E-08
  -13.8199997      -1.66258701E-07
  -13.8100004      -2.16712280E-07
  -13.8000002      -2.21551119E-07
  -13.7900000      -1.72147594E-07
  -13.7799997      -7.22762294E-08
  -13.7700005       6.09106365E-08
  -13.7600002       1.99212167E-07
  -13.7500000       3.08911524E-07
  -13.7399998       3.58555781E-07
  -13.7299995       3.27296675E-07
  -13.7200003       2.11710386E-07
  -13.7100000       2.91093656E-08
  -13.6999998      -1.84009750E-07
  -13.6899996      -3.78660445E-07
  -13.6800003      -5.04177081E-07
  -13.6700001      -5.20898993E-07
  -13.6599998      -4.11689797E-07
  -13.6499996      -1.89146206E-07
  -13.6400003       1.03938895E-07
  -13.6300001       4.01851878E-07
  -13.6199999       6.30065983E-07
  -13.6099997       7.23366043E-07
  -13.6000004       6.43761098E-07
  -13.5900002       3.93477251E-07
  -13.5799999       1.90267997E-08
  -13.5699997      -3.95797059E-07
  -13.5600004      -7.47498348E-07
  -13.5500002      -9.37678124E-07
  -13.5400000      -8.99395047E-07
  -13.5299997      -6.18335037E-07
  -13.5200005      -1.42605543E-07
  -13.5100002       4.22757921E-07
  -13.5000000       9.36908350E-07
  -13.4899998       1.25618101E-06
  -13.4799995       1.27165583E-06
  -13.4700003       9.41939788E-07
  -13.4600000       3.12021484E-07
  -13.4499998      -4.88326464E-07
  -13.4399996      -1.26848386E-06
  -13.4300003      -1.81951657E-06
  -13.4200001      -1.96630845E-06
  -13.4099998      -1.61683170E-06
  -13.3999996      -7.95518304E-07
  -13.3900003       3.49552352E-07
  -13.3800001       1.57024567E-06
  -13.3699999       2.56990302E-06
  -13.3599997       3.07254049E-06
  -13.3500004       2.89394529E-06
  -13.3400002       1.99693409E-06
  -13.3299999       5.15392173E-07
  -13.3199997      -1.26178850E-06
  -13.3100004      -2.94645201E-06
  -13.3000002      -4.13619864E-06
  -13.2900000      -4.51008509E-06
  -13.2799997      -3.91224648E-06
  -13.2700005      -2.40188797E-06
  -13.2600002      -2.54828876E-07
  -13.2500000       2.08729466E-06
  -13.2399998       4.11133988E-06
  -13.2299995       5.35022900E-06
  -13.2200003       5.49638298E-06
  -13.2100000       4.48280389E-06
  -13.1999998       2.50983771E-06
  -13.1899996       7.79917730E-09
  -13.1800003      -2.45889737E-06
  -13.1700001      -4.32538354E-06
  -13.1599998      -5.16620321E-06
  -13.1499996      -4.80624749E-06
  -13.1400003      -3.37275833E-06
  -13.1300001      -1.27154146E-06
  -13.1199999       9.11036125E-07
  -13.1099997       2.55932650E-06
  -13.1000004       3.19659989E-06
  -13.0900002       2.62662229E-06
  -13.0799999       1.00862337E-06
  -13.0699997      -1.16003548E-06
  -13.0600004      -3.15697412E-06
  -13.0500002      -4.22206540E-06
  -13.0400000      -3.77551896E-06
  -13.0299997      -1.61099570E-06
  -13.0200005       1.99104852E-06
  -13.0100002       6.26925885E-06
  -13.0000000       1.01188152E-05
  -12.9899998       1.23396312E-05
  -12.9799995       1.19434590E-05
  -12.9700003       8.44713213E-06
  -12.9600000       2.07481708E-06
  -12.9499998      -6.19306729E-06
  -12.9399996      -1.47543997E-05
  -12.9300003      -2.16906064E-05
  -12.9200001      -2.51858492E-05
  -12.9099998      -2.39694436E-05
  -12.8999996      -1.76761860E-05
  -12.8900003      -7.02946045E-06
  -12.8800001       6.21347726E-06
  -12.8699999       1.95622142E-05
  -12.8599997       3.02893150E-05
  -12.8500004       3.60201921E-05
  -12.8400002       3.52847455E-05
  -12.8299999       2.78984171E-05
  -12.8199997       1.50720907E-05
  -12.8100004      -7.91450873E-07
  -12.8000002      -1.65842212E-05
  -12.7900000      -2.91629294E-05
  -12.7799997      -3.60524427E-05
  -12.7700005      -3.60170307E-05
  -12.7600002      -2.93569974E-05
  -12.7500000      -1.78480113E-05
  -12.7399998      -4.32362003E-06
  -12.7299995       8.01079204E-06
  -12.7200003       1.63735913E-05
  -12.7100000       1.91177769E-05
  -12.6999998       1.61740063E-05
  -12.6899996       9.09994378E-06
  -12.6800003       7.02363081E-07
  -12.6700001      -5.69555459E-06
  -12.6599998      -7.17466764E-06
  -12.6499996      -2.10235521E-06
  -12.6400003       9.25482163E-06
  -12.6300001       2.45687770E-05
  -12.6199999       3.98186567E-05
  -12.6099997       5.01447648E-05
  -12.6000004       5.10175450E-05
  -12.5900002       3.94601557E-05
  -12.5799999       1.50292835E-05
  -12.5699997      -1.97061599E-05
  -12.5600004      -5.93486220E-05
  -12.5500002      -9.65331128E-05
  -12.5400000      -1.23323378E-04
  -12.5299997      -1.32866131E-04
  -12.5200005      -1.20949058E-04
  -12.5100002      -8.71084339E-05
  -12.5000000      -3.50142582E-05
  -12.4899998       2.79907727E-05
  -12.4799995       9.21391547E-05
  -12.4700003       1.47036510E-04
  -12.4600000       1.83642798E-04
  -12.4499998       1.96018853E-04
  -12.4399996       1.82461634E-04
  -12.4300003       1.45779821E-04
  -12.4200001       9.26475841E-05
  -12.4099998       3.21788430E-05
  -12.3999996      -2.59618246E-05
  -12.3900003      -7.34912755E-05
  -12.3800001      -1.05054598E-04
  -12.3699999      -1.19049626E-04
  -12.3599997      -1.17562253E-04
  -12.3500004      -1.05456034E-04
  -12.3400002      -8.88601280E-05
  -12.3299999      -7.34426212E-05
  -12.3199997      -6.29065471E-05
  -12.3100004      -5.80893502E-05
  -12.3000002      -5.68959113E-05
  -12.2900000      -5.50848854E-05
  -12.2799997      -4.77089998E-05
  -12.2700005      -3.08359777E-05
  -12.2600002      -3.09179427E-06
  -12.2500000       3.34039214E-05
  -12.2399998       7.30032261E-05
  -12.2299995       1.07472399E-04
  -12.2200003       1.27743639E-04
  -12.2100000       1.26094572E-04
  -12.1999998       9.82450365E-05
  -12.1899996       4.48516548E-05
  -12.1800003      -2.80038203E-05
  -12.1700001      -1.09517481E-04
  -12.1599998      -1.85971556E-04
  -12.1499996      -2.43300776E-04
  -12.1400003      -2.69881188E-04
  -12.1300001      -2.58936634E-04
  -12.1199999      -2.10027385E-04
  -12.1099997      -1.29279011E-04
  -12.1000004      -2.82860747E-05
  -12.0900002       7.80815753E-05
  -12.0799999       1.74497778E-04
  -12.0699997       2.48015742E-04
  -12.0600004       2.90314289E-04
  -12.0500002       2.98890518E-04
  -12.0400000       2.76981271E-04
  -12.0299997       2.32290855E-04
  -12.0200005       1.74873421E-04
  -12.0100002       1.14704751E-04
  -12.0000000       5.95335405E-05
  -11.9899998       1.35158243E-05
  -11.9799995      -2.30708065E-05
  -11.9700003      -5.30132638E-05
  -11.9600000      -8.05093878E-05
  -11.9499998      -1.09148546E-04
  -11.9399996      -1.40096177E-04
  -11.9300003      -1.71005580E-04
  -11.9200001      -1.96000125E-04
  -11.9099998      -2.06799625E-04
  -11.8999996      -1.94767097E-04
  -11.8900003      -1.53402027E-04
  -11.8800001      -8.06636526E-05
  -11.8699999       1.94889290E-05
  -11.8599997       1.36799543E-04
  -11.8500004       2.55849794E-04
  -11.8400002       3.58486694E-04
  -11.8299999       4.27094434E-04
  -11.8199997       4.48043866E-04
  -11.8100004       4.14581533E-04
  -11.8000002       3.28512047E-04
  -11.7900000       2.00272218E-04
  -11.7799997       4.73305736E-05
  -11.7700005      -1.08793451E-04
  -11.7600002      -2.46299081E-04
  -11.7500000      -3.46901536E-04
  -11.7399998      -3.98893433E-04
  -11.7299995      -3.98872158E-04
  -11.7200003      -3.51828407E-04
  -11.7100000      -2.69646582E-04
  -11.6999998      -1.68402097E-04
  -11.6899996      -6.50797374E-05
  -11.6800003       2.55718296E-05
  -11.6700001       9.34055934E-05
  -11.6599998       1.34031172E-04
  -11.6499996       1.48627340E-04
  -11.6400003       1.42591729E-04
  -11.6300001       1.23457823E-04
  -11.6199999       9.86441300E-05
  -11.6099997       7.35922367E-05
  -11.6000004       5.07111545E-05
  -11.5900002       2.93147223E-05
  -11.5799999       6.47803654E-06
  -11.5699997      -2.14862739E-05
  -11.5600004      -5.73691541E-05
  -11.5500002      -1.01682424E-04
  -11.5400000      -1.51918750E-04
  -11.5299997      -2.02643365E-04
  -11.5200005      -2.46392505E-04
  -11.5100002      -2.75156868E-04
  -11.5000000      -2.82095600E-04
  -11.4899998      -2.63083464E-04
  -11.4799995      -2.17747700E-04
  -11.4700003      -1.49778250E-04
  -11.4600000      -6.64641047E-05
  -11.4499998       2.24259111E-05
  -11.4399996       1.06172432E-04
  -11.4300003       1.74737856E-04
  -11.4200001       2.20202797E-04
  -11.4099998       2.37778222E-04
  -11.3999996       2.26271222E-04
  -11.3900003       1.87998099E-04
  -11.3800001       1.28235202E-04
  -11.3699999       5.43582501E-05
  -11.3599997      -2.51618203E-05
  -11.3500004      -1.01757745E-04
  -11.3400002      -1.67653212E-04
  -11.3299999      -2.16579385E-04
  -11.3199997      -2.44299066E-04
  -11.3100004      -2.48936005E-04
  -11.3000002      -2.31107188E-04
  -11.2900000      -1.93847038E-04
  -11.2799997      -1.42303572E-04
  -11.2700005      -8.31921279E-05
  -11.2600002      -2.40163718E-05
  -11.2500000       2.78904390E-05
  -11.2399998       6.63983665E-05
  -11.2299995       8.75360929E-05
  -11.2200003       9.01931926E-05
  -11.2100000       7.64065844E-05
  -11.1999998       5.11218204E-05
  -11.1899996       2.14094089E-05
  -11.1800003      -4.77473350E-06
  -11.1700001      -2.00905306E-05
  -11.1599998      -1.93059841E-05
  -11.1499996      -4.83544284E-07
  -11.1400003       3.44018372E-05
  -11.1300001       7.95818632E-05
  -11.1199999       1.26383195E-04
  -11.1099997       1.64762605E-04
  -11.1000004       1.85227196E-04
  -11.0900002       1.80782852E-04
  -11.0799999       1.48526102E-04
  -11.0699997       9.05427587E-05
  -11.0600004       1.38954938E-05
  -11.0500002      -7.03495316E-05
  -11.0400000      -1.48919920E-04
  -11.0299997      -2.08652811E-04
  -11.0200005      -2.38907232E-04
  -11.0100002      -2.33613217E-04
  -11.0000000      -1.92548076E-04
  -10.9899998      -1.21564663E-04
  -10.9799995      -3.16900660E-05
  -10.9700003       6.27672562E-05
  -10.9600000       1.46764345E-04
  -10.9499998       2.07246354E-04
  -10.9399996       2.35518048E-04
  -10.9300003       2.28794423E-04
  -10.9200001       1.90615596E-04
  -10.9099998       1.30036147E-04
  -10.8999996       5.97486942E-05
  -10.8900003      -6.47782463E-06
  -10.8800001      -5.65199371E-05
  -10.8699999      -8.22227084E-05
  -10.8599997      -8.08518089E-05
  -10.8500004      -5.53919454E-05
  -10.8400002      -1.36604885E-05
  -10.8299999       3.35387704E-05
  -10.8199997       7.47933736E-05
  -10.8100004       1.00460740E-04
  -10.8000002       1.04536652E-04
  -10.7900000       8.56396509E-05
  -10.7799997       4.69550287E-05
  -10.7700005      -4.77265257E-06
  -10.7600002      -6.08982955E-05
  -10.7500000      -1.12757843E-04
  -10.7399998      -1.53328365E-04
  -10.7299995      -1.78316564E-04
  -10.7200003      -1.86499659E-04
  -10.7100000      -1.79347306E-04
  -10.6999998      -1.60131807E-04
  -10.6899996      -1.32840622E-04
  -10.6800003      -1.01215170E-04
  -10.6700001      -6.81578531E-05
  -10.6599998      -3.56039382E-05
  -10.6499996      -4.79444998E-06
  -10.6400003       2.32406765E-05
  -10.6300001       4.72357424E-05
  -10.6199999       6.54954129E-05
  -10.6099997       7.60673429E-05
  -10.6000004       7.72533240E-05
  -10.5900002       6.82975733E-05
  -10.5799999       5.00096503E-05
  -10.5699997       2.50766279E-05
  -10.5600004      -2.10183862E-06
  -10.5500002      -2.60853285E-05
  -10.5400000      -4.14477072E-05
  -10.5299997      -4.39690994E-05
  -10.5200005      -3.16639598E-05
  -10.5100002      -5.37541791E-06
  -10.5000000       3.12265511E-05
  -10.4899998       7.22534824E-05
  -10.4799995       1.10671492E-04
  -10.4700003       1.39588781E-04
  -10.4600000       1.53470493E-04
  -10.4499998       1.49035608E-04
  -10.4399996       1.25693230E-04
  -10.4300003       8.55011749E-05
  -10.4200001       3.27411581E-05
  -10.4099998      -2.67311589E-05
  -10.3999996      -8.62009620E-05
  -10.3900003      -1.38762771E-04
  -10.3800001      -1.77906259E-04
  -10.3699999      -1.98048423E-04
  -10.3599997      -1.95069209E-04
  -10.3500004      -1.66882208E-04
  -10.3400002      -1.14006478E-04
  -10.3299999      -4.00221761E-05
  -10.3199997       4.82686955E-05
  -10.3100004       1.41161669E-04
  -10.3000002       2.26970180E-04
  -10.2900000       2.93538149E-04
  -10.2799997       3.30172130E-04
  -10.2700005       3.29666393E-04
  -10.2600002       2.90000753E-04
  -10.2500000       2.15291162E-04
  -10.2399998       1.15682189E-04
  -10.2299995       6.06788035E-06
  -10.2200003      -9.62236809E-05
  -10.2100000      -1.74407149E-04
  -10.1999998      -2.15329550E-04
  -10.1899996      -2.12059997E-04
  -10.1800003      -1.65431877E-04
  -10.1700001      -8.41763103E-05
  -10.1599998       1.64449448E-05
  -10.1499996       1.17299882E-04
  -10.1400003       1.98866328E-04
  -10.1300001       2.44880852E-04
  -10.1199999       2.45454517E-04
  -10.1099997       1.99042435E-04
  -10.1000004       1.12867412E-04
  -10.0900002       1.69639213E-06
  -10.0799999      -1.14810558E-04
  -10.0699997      -2.15676177E-04
  -10.0600004      -2.82423076E-04
  -10.0500002      -3.02404485E-04
  -10.0400000      -2.71027151E-04
  -10.0299997      -1.92475534E-04
  -10.0200005      -7.88522666E-05
  -10.0100002       5.20393223E-05
  -10.0000000       1.79795621E-04
  -9.98999977       2.84788053E-04
  -9.97999954       3.51207418E-04
  -9.97000027       3.69297224E-04
  -9.96000004       3.36502009E-04
  -9.94999981       2.57483480E-04
  -9.93999958       1.43148907E-04
  -9.93000031       8.95320045E-06
  -9.92000008      -1.27225299E-04
  -9.90999985      -2.47362826E-04
  -9.89999962      -3.35499644E-04
  -9.89000034      -3.79701727E-04
  -9.88000011      -3.73608200E-04
  -9.86999989      -3.17388010E-04
  -9.85999966      -2.17925015E-04
  -9.85000038      -8.80882144E-05
  -9.84000015       5.49497636E-05
  -9.82999992       1.92207750E-04
  -9.81999969       3.05860100E-04
  -9.81000042       3.82147846E-04
  -9.80000019       4.13640868E-04
  -9.78999996       4.00331453E-04
  -9.77999973       3.49271431E-04
  -9.77000046       2.72808655E-04
  -9.76000023       1.85836470E-04
  -9.75000000       1.02733931E-04
  -9.73999977       3.47559908E-05
  -9.72999954      -1.15102257E-05
  -9.72000027      -3.43343781E-05
  -9.71000004      -3.58051984E-05
  -9.69999981      -2.00637678E-05
  -9.68999958       8.49573371E-06
  -9.68000031       4.64040786E-05
  -9.67000008       9.12920514E-05
  -9.65999985       1.41091034E-04
  -9.64999962       1.92690655E-04
  -9.64000034       2.40734895E-04
  -9.63000011       2.77237239E-04
  -9.61999989       2.92432815E-04
  -9.60999966       2.76844483E-04
  -9.60000038       2.24068644E-04
  -9.59000015       1.33451074E-04
  -9.57999992       1.17502086E-05
  -9.56999969      -1.26890256E-04
  -9.56000042      -2.62875576E-04
  -9.55000019      -3.74663534E-04
  -9.53999996      -4.43030905E-04
  -9.52999973      -4.55059344E-04
  -9.52000046      -4.06867708E-04
  -9.51000023      -3.04462243E-04
  -9.50000000      -1.62582364E-04
  -9.48999977      -1.92348580E-06
  -9.47999954       1.54528418E-04
  -9.47000027       2.85204034E-04
  -9.46000004       3.72984854E-04
  -9.44999981       4.07146523E-04
  -9.43999958       3.84135637E-04
  -9.43000031       3.07368609E-04
  -9.42000008       1.86361387E-04
  -9.40999985       3.54657568E-05
  -9.39999962      -1.27634092E-04
  -9.39000034      -2.83638074E-04
  -9.38000011      -4.13581089E-04
  -9.36999989      -5.00980008E-04
  -9.35999966      -5.33993705E-04
  -9.35000038      -5.07259276E-04
  -9.34000015      -4.22988029E-04
  -9.32999992      -2.90960830E-04
  -9.31999969      -1.27264284E-04
  -9.31000042       4.80997151E-05
  -9.30000019       2.14309388E-04
  -9.28999996       3.52914823E-04
  -9.27999973       4.50494612E-04
  -9.27000046       5.00296825E-04
  -9.26000023       5.02651441E-04
  -9.25000000       4.64232115E-04
  -9.23999977       3.96470714E-04
  -9.22999954       3.13525379E-04
  -9.22000027       2.30173580E-04
  -9.21000004       1.59887903E-04
  -9.19999981       1.13230395E-04
  -9.18999958       9.66299776E-05
  -9.18000031       1.11608359E-04
  -9.17000008       1.54566354E-04
  -9.15999985       2.17273468E-04
  -9.14999962       2.88156501E-04
  -9.14000034       3.54331394E-04
  -9.13000011       4.04094462E-04
  -9.11999989       4.29367210E-04
  -9.10999966       4.27475024E-04
  -9.10000038       4.01715981E-04
  -9.09000015       3.60455248E-04
  -9.07999992       3.14898381E-04
  -9.06999969       2.76117935E-04
  -9.06000042       2.52178754E-04
  -9.05000019       2.46213080E-04
  -9.03999996       2.56012951E-04
  -9.02999973       2.75215309E-04
  -9.02000046       2.95627018E-04
  -9.01000023       3.09859955E-04
  -9.00000000       3.13367258E-04
  -8.98999977       3.05226829E-04
  -8.97999954       2.87515810E-04
  -8.97000027       2.63669062E-04
  -8.96000004       2.36603941E-04
  -8.94999981       2.07462741E-04
  -8.93999958       1.75538225E-04
  -8.93000031       1.39417156E-04
  -8.92000008       9.88113025E-05
  -8.90999985       5.61847773E-05
  -8.89999962       1.72918226E-05
  -8.89000034      -9.86732903E-06
  -8.88000011      -1.75199275E-05
  -8.86999989      -1.22616882E-06
  -8.85999966       3.75592535E-05
  -8.85000038       9.05820125E-05
  -8.84000015       1.44134669E-04
  -8.82999992       1.82450400E-04
  -8.81999969       1.92151230E-04
  -8.81000042       1.66288839E-04
  -8.80000019       1.06565167E-04
  -8.78999996       2.28980716E-05
  -8.77999973      -6.95891649E-05
  -8.77000046      -1.55159360E-04
  -8.76000023      -2.22062430E-04
  -8.75000000      -2.65566108E-04
  -8.73999977      -2.88411044E-04
  -8.72999954      -2.98634899E-04
  -8.72000027      -3.05680645E-04
  -8.71000004      -3.16326972E-04
  -8.69999981      -3.32007330E-04
  -8.68999958      -3.48512258E-04
  -8.68000031      -3.58110963E-04
  -8.67000008      -3.53160809E-04
  -8.65999985      -3.29679810E-04
  -8.64999962      -2.89379124E-04
  -8.64000034      -2.39285771E-04
  -8.63000011      -1.89084254E-04
  -8.61999989      -1.47271203E-04
  -8.60999966      -1.17748823E-04
  -8.60000038      -9.83523059E-05
  -8.59000015      -8.20431887E-05
  -8.57999992      -6.03949957E-05
  -8.56999969      -2.79917276E-05
  -8.56000042       1.41250694E-05
  -8.55000019       5.75638041E-05
  -8.53999996       8.89024304E-05
  -8.52999973       9.45944630E-05
  -8.52000046       6.67136555E-05
  -8.51000023       7.29083558E-06
  -8.50000000      -7.06408464E-05
  -8.48999977      -1.46042395E-04
  -8.47999954      -1.96150038E-04
  -8.47000027      -2.03970674E-04
  -8.46000004      -1.64320663E-04
  -8.44999981      -8.61165754E-05
  -8.43999958       1.01098540E-05
  -8.43000031       9.87904787E-05
  -8.42000008       1.57785733E-04
  -8.40999985       1.75765439E-04
  -8.39999962       1.55849018E-04
  -8.39000034       1.14154798E-04
  -8.38000011       7.37435912E-05
  -8.36999989       5.61367706E-05
  -8.35999966       7.35048598E-05
  -8.35000038       1.24402475E-04
  -8.34000015       1.94629596E-04
  -8.32999992       2.62896327E-04
  -8.31999969       3.09160328E-04
  -8.31000042       3.22474662E-04
  -8.30000019       3.05328693E-04
  -8.28999996       2.72749749E-04
  -8.27999973       2.46394833E-04
  -8.27000046       2.45775271E-04
  -8.26000023       2.79901811E-04
  -8.25000000       3.42573650E-04
  -8.23999977       4.13265108E-04
  -8.22999954       4.63535398E-04
  -8.22000027       4.66844474E-04
  -8.21000004       4.08345833E-04
  -8.19999981       2.91141158E-04
  -8.18999958       1.36664414E-04
  -8.18000031      -2.11036968E-05
  -8.17000008      -1.45732192E-04
  -8.15999985      -2.09379286E-04
  -8.14999962      -2.01080693E-04
  -8.14000034      -1.29559805E-04
  -8.13000011      -1.97348545E-05
  -8.11999989       9.57480006E-05
  -8.10999966       1.86979130E-04
  -8.10000038       2.35698928E-04
  -8.09000015       2.39777393E-04
  -8.07999992       2.12012121E-04
  -8.06999969       1.73990411E-04
  -8.06000042       1.47408398E-04
  -8.05000019       1.45981321E-04
  -8.03999996       1.70700965E-04
  -8.02999973       2.09890233E-04
  -8.02000046       2.43776638E-04
  -8.01000023       2.51777499E-04
  -8.00000000       2.19877373E-04
  -7.98999977       1.45607977E-04
  -7.98000002       3.91022259E-05
  -7.96999979      -7.99086411E-05
  -7.96000004      -1.87960803E-04
  -7.94999981      -2.64576927E-04
  -7.94000006      -2.97741208E-04
  -7.92999983      -2.86614581E-04
  -7.92000008      -2.40958951E-04
  -7.90999985      -1.77749811E-04
  -7.90000010      -1.16179501E-04
  -7.88999987      -7.25125865E-05
  -7.88000011      -5.60722583E-05
  -7.86999989      -6.71679227E-05
  -7.86000013      -9.72228299E-05
  -7.84999990      -1.30894987E-04
  -7.84000015      -1.49676503E-04
  -7.82999992      -1.36281509E-04
  -7.82000017      -7.90364284E-05
  -7.80999994       2.45688225E-05
  -7.80000019       1.65998979E-04
  -7.78999996       3.26138223E-04
  -7.78000021       4.78400587E-04
  -7.76999998       5.94176527E-04
  -7.76000023       6.49581314E-04
  -7.75000000       6.31860690E-04
  -7.73999977       5.43581962E-04
  -7.73000002       4.03085462E-04
  -7.71999979       2.40612047E-04
  -7.71000004       9.08320144E-05
  -7.69999981      -1.62339347E-05
  -7.69000006      -6.31633884E-05
  -7.67999983      -4.93329717E-05
  -7.67000008       1.01839942E-05
  -7.65999985       9.08542497E-05
  -7.65000010       1.68059181E-04
  -7.63999987       2.26351200E-04
  -7.63000011       2.65169074E-04
  -7.61999989       2.98674364E-04
  -7.61000013       3.49418318E-04
  -7.59999990       4.37868701E-04
  -7.59000015       5.71579847E-04
  -7.57999992       7.38261733E-04
  -7.57000017       9.05911322E-04
  -7.55999994       1.03080238E-03
  -7.55000019       1.07125274E-03
  -7.53999996       1.00273895E-03
  -7.53000021       8.29010038E-04
  -7.51999998       5.84809633E-04
  -7.51000023       3.28436465E-04
  -7.50000000       1.25814884E-04
  -7.48999977       3.08387716E-05
  -7.48000002       6.83494582E-05
  -7.46999979       2.25574360E-04
  -7.46000004       4.55262430E-04
  -7.44999981       6.89920504E-04
  -7.44000006       8.62775312E-04