  -16.0000000       0.00000000    
  -15.9899998       0.00000000    
  -15.9799995       0.00000000    
  -15.9700003       0.00000000    
  -15.9600000       0.00000000    
  -15.9499998       0.00000000    
  -15.9399996       0.00000000    
  -15.9300003       0.00000000    
  -15.9200001       0.00000000    
  -15.9099998       0.00000000    
  -15.8999996      -7.35593916E-38
  -15.8900003      -6.70749559E-37
  -15.8800001       3.10393359E-36
  -15.8699999       1.04106762E-34
  -15.8599997       1.07443315E-33
  -15.8500004       7.36421644E-33
  -15.8400002       3.92645558E-32
  -15.8299999       1.74808658E-31
  -15.8199997       6.75896415E-31
  -15.8100004       2.32150787E-30
  -15.8000002       7.16781247E-30
  -15.7900000       1.99814810E-29
  -15.7799997       5.02282379E-29
  -15.7700005       1.13125959E-28
  -15.7600002       2.25276989E-28
  -15.7500000       3.86314175E-28
  -15.7399998       5.36552575E-28
  -15.7299995       4.90202664E-28
  -15.7200003      -1.25558499E-28
  -15.7100000      -1.84314500E-27
  -15.6999998      -5.11195618E-27
  -15.6899996      -9.75015516E-27
  -15.6800003      -1.42088995E-26
  -15.6700001      -1.51638695E-26
  -15.6599998      -8.32383070E-27
  -15.6499996       8.82751377E-27
  -15.6400003       3.30102759E-26
  -15.6300001       5.31584213E-26
  -15.6199999       5.62168967E-26
  -15.6099997       4.50524503E-26
  -15.6000004       6.30104559E-26
  -15.5900002       2.00654623E-25
  -15.5799999       5.41663846E-25
  -15.5699997       1.01112306E-24
  -15.5600004       1.15266255E-24
  -15.5500002      -5.45902724E-27
  -15.5400000      -3.67931510E-24
  -15.5299997      -1.03034393E-23
  -15.5200005      -1.77061392E-23
  -15.5100002      -1.92467073E-23
  -15.5000000      -3.83355358E-24
  -15.4899998       3.94495108E-23
  -15.4799995       1.10204651E-22
  -15.4700003       1.80956917E-22
  -15.4600000       1.85596479E-22
  -15.4499998       2.83943667E-23
  -15.4399996      -3.68110165E-22
  -15.4300003      -9.70252061E-22
  -15.4200001      -1.52158733E-21
  -15.4099998      -1.48623979E-21
  -15.3999996      -1.60857094E-22
  -15.3900003       2.94140438E-21
  -15.3800001       7.43819709E-21
  -15.3699999       1.13810262E-20
  -15.3599997       1.10186233E-20
  -15.3500004       1.70604143E-21
  -15.3400002      -1.95158951E-20
  -15.3299999      -4.98705382E-20
  -15.3199997      -7.68283220E-20
  -15.3100004      -7.71101968E-20
  -15.3000002      -2.24538000E-20
  -15.2900000       1.05323841E-19
  -15.2799997       2.91575918E-19
  -15.2700005       4.66866321E-19
  -15.2600002       5.01592346E-19
  -15.2500000       2.36148769E-19
  -15.2399998      -4.41157961E-19
  -15.2299995      -1.47697503E-18
  -15.2200003      -2.53811417E-18
  -15.2100000      -2.97488580E-18
  -15.1999998      -1.95279558E-18
  -15.1899996       1.18770387E-18
  -15.1800003       6.37633292E-18
  -15.1700001       1.22424691E-17
  -15.1599998       1.58615770E-17
  -15.1499996       1.32232075E-17
  -15.1400003       7.11580364E-19
  -15.1300001      -2.24815117E-17
  -15.1199999      -5.16939509E-17
  -15.1099997      -7.52161948E-17
  -15.1000004      -7.55016383E-17
  -15.0900002      -3.45348170E-17
  -15.0799999       5.66045583E-17
  -15.0699997       1.86229101E-16
  -15.0600004       3.13462012E-16
  -15.0500002       3.69244293E-16
  -15.0400000       2.72989269E-16
  -15.0299997      -3.32769301E-17
  -15.0200005      -5.39401592E-16
  -15.0100002      -1.12623682E-15
  -15.0000000      -1.55338452E-15
  -14.9899998      -1.50021817E-15
  -14.9799995      -6.73456203E-16
  -14.9700003       1.03048059E-15
  -14.9600000       3.35447684E-15
  -14.9499998       5.57942466E-15
  -14.9399996       6.58385157E-15
  -14.9300003       5.13191174E-15
  -14.9200001       3.87272410E-16
  -14.9099998      -7.45807513E-15
  -14.8999996      -1.66681261E-14
  -14.8900003      -2.38635558E-14
  -14.8800001      -2.46178318E-14
  -14.8699999      -1.48618893E-14
  -14.8599997       7.09541755E-15
  -14.8500004       3.85039392E-14
  -14.8400002       7.09596769E-14
  -14.8299999       9.10247626E-14
  -14.8199997       8.33611541E-14
  -14.8100004       3.63099240E-14
  -14.8000002      -5.12422881E-14
  -14.7900000      -1.63991935E-13
  -14.7799997      -2.68315182E-13
  -14.7700005      -3.17065222E-13
  -14.7600002      -2.62300733E-13
  -14.7500000      -7.44646789E-14
  -14.7399998       2.36807264E-13
  -14.7299995       6.07940510E-13
  -14.7200003       9.21448573E-13
  -14.7100000       1.02739291E-12
  -14.6999998       7.87322518E-13
  -14.6899996       1.33308309E-13
  -14.6800003      -8.74406613E-13
  -14.6700001      -2.01404908E-12
  -14.6599998      -2.91634729E-12
  -14.6499996      -3.14040309E-12
  -14.6400003      -2.30821460E-12
  -14.6300001      -2.71245130E-13
  -14.6199999       2.74011608E-12
  -14.6099997       6.04621865E-12
  -14.6000004       8.58370666E-12
  -14.5900002       9.13562021E-12
  -14.5799999       6.70568765E-12
  -14.5699997       9.56928655E-13
  -14.5600004      -7.41758998E-12
  -14.5500002      -1.65476383E-11
  -14.5400000      -2.35948934E-11
  -14.5299997      -2.53727785E-11
  -14.5200005      -1.93079597E-11
  -14.5100002      -4.53292655E-12
  -14.5000000       1.72170871E-11
  -14.4899998       4.12723293E-11
  -14.4799995       6.05627562E-11
  -14.4700003       6.71271649E-11
  -14.4600000       5.44170091E-11
  -14.4499998       1.98951688E-11
  -14.4399996      -3.28239241E-11
  -14.4300003      -9.31307809E-11
  -14.4200001      -1.44549595E-10
  -14.4099998      -1.68086045E-10
  -14.3999996      -1.47406823E-10
  -14.3900003      -7.47678100E-11
  -14.3800001       4.39454410E-11
  -14.3699999       1.86897581E-10
  -14.3599997       3.18214982E-10
  -14.3500004       3.94760336E-10
  -14.3400002       3.77081810E-10
  -14.3299999       2.42380144E-10
  -14.3199997      -3.87172109E-12
  -14.3100004      -3.21532689E-10
  -14.3000002      -6.37970787E-10
  -14.2900000      -8.60490790E-10
  -14.2799997      -8.98072894E-10
  -14.2700005      -6.88469726E-10
  -14.2600002      -2.24090690E-10
  -14.2500000       4.31239461E-10
  -14.2399998       1.14190823E-09
  -14.2299995       1.72083781E-09
  -14.2200003       1.96985894E-09
  -14.2100000       1.73349912E-09
  -14.1999998       9.54012203E-10
  -14.1899996      -2.87864510E-10
  -14.1800003      -1.76159698E-09
  -14.1700001      -3.11533821E-09
  -14.1599998      -3.94560296E-09
  -14.1499996      -3.89806054E-09
  -14.1400003      -2.77812595E-09
  -14.1300001      -6.42296938E-10
  -14.1199999       2.15997220E-09
  -14.1099997       5.01685582E-09
  -14.1000004       7.16478299E-09
  -14.0900002       7.86571075E-09
  -14.0799999       6.61587940E-09
  -14.0699997       3.33443784E-09
  -14.0600004      -1.52499235E-09
  -14.0500002      -6.98702163E-09
  -14.0400000      -1.17135759E-08
  -14.0299997      -1.42949759E-08
  -14.0200005      -1.36188119E-08
  -14.0100002      -9.22998478E-09
  -14.0000000      -1.58084090E-09
  -13.9899998       7.91855292E-09
  -13.9799995       1.71014332E-08
  -13.9700003       2.34881092E-08
  -13.9600000       2.48952183E-08
  -13.9499998       2.00737116E-08
  -13.9399996       9.20664700E-09
  -13.9300003      -5.89288351E-09
  -13.9200001      -2.19885443E-08
  -13.9099998      -3.50440423E-08
  -13.8999996      -4.11629735E-08
  -13.8900003      -3.76430798E-08
  -13.8800001      -2.38795526E-08
  -13.8699999      -1.85142524E-09
  -13.8599997       2.40029401E-08
  -13.8500004       4.75800910E-08
  -13.8400002       6.24630303E-08
  -13.8299999       6.35521289E-08
  -13.8199997       4.85834875E-08
  -13.8100004       1.91177936E-08
  -13.8000002      -1.93334149E-08
  -13.7900000      -5.81941428E-08
  -13.7799997      -8.76253523E-08
  -13.7700005      -9.88904176E-08
  -13.7600002      -8.67412027E-08
  -13.7500000      -5.12076532E-08
  -13.7399998       1.74620418E-09
  -13.7299995       6.10073627E-08
  -13.7200003       1.12510364E-07
  -13.7100000       1.42447192E-07
  -13.6999998       1.40785602E-07
  -13.6899996       1.04231773E-07
  -13.6800003       3.78199658E-08
  -13.6700001      -4.54264253E-08
  -13.6599998      -1.26884984E-07
  -13.6499996      -1.86388164E-07
  -13.6400003      -2.07089101E-07
  -13.6300001      -1.79993023E-07
  -13.6199999      -1.06975925E-07
  -13.6099997      -1.37761069E-09
  -13.6000004       1.14218885E-07
  -13.5900002       2.12733340E-07
  -13.5799999       2.68902141E-07
  -13.5699997       2.65711577E-07
  -13.5600004       1.99333485E-07
  -13.5500002       8.11755996E-08
  -13.5400000      -6.37345181E-08
  -13.5299997      -2.01946676E-07
  -13.5200005      -2.99353474E-07
  -13.5100002      -3.29756460E-07
  -13.5000000      -2.82096181E-07
  -13.4899998      -1.64360245E-07
  -13.4799995      -2.86852209E-09
  -13.4700003       1.63274933E-07
  -13.4600000       2.91521616E-07
  -13.4499998       3.46868916E-07
  -13.4399996       3.11724023E-07
  -13.4300003       1.91901918E-07
  -13.4200001       1.67958056E-08
  -13.4099998      -1.66861426E-07
  -13.3999996      -3.06548230E-07
  -13.3900003      -3.58168904E-07
  -13.3800001      -2.99288359E-07
  -13.3699999      -1.37634999E-07
  -13.3599997       8.79736746E-08
  -13.3500004       3.15352196E-07
  -13.3400002       4.74120043E-07
  -13.3299999       5.04946115E-07
  -13.3199997       3.77985089E-07
  -13.3100004       1.05292777E-07
  -13.3000002      -2.56939387E-07
  -13.2900000      -6.18178888E-07
  -13.2799997      -8.74151169E-07
  -13.2700005      -9.33924866E-07
  -13.2600002      -7.46893136E-07
  -13.2500000      -3.22307017E-07
  -13.2399998       2.64841333E-07
  -13.2299995       8.84853478E-07
  -13.2200003       1.38040457E-06
  -13.2100000       1.60442471E-06
  -13.1999998       1.46006630E-06
  -13.1899996       9.32490195E-07
  -13.1800003       1.03183680E-07
  -13.1700001      -8.58962665E-07
  -13.1599998      -1.73018816E-06
  -13.1499996      -2.28229874E-06
  -13.1400003      -2.34006529E-06
  -13.1300001      -1.83167379E-06
  -13.1199999      -8.18616854E-07
  -13.1099997       5.04775358E-07
  -13.1000004       1.84526891E-06
  -13.0900002       2.87309263E-06
  -13.0799999       3.30002558E-06
  -13.0699997       2.95527843E-06
  -13.0600004       1.84003534E-06
  -13.0500002       1.44985677E-07
  -13.0400000      -1.77711581E-06
  -13.0299997      -3.48142476E-06
  -13.0200005      -4.53034227E-06
  -13.0100002      -4.60058482E-06
  -13.0000000      -3.57250769E-06
  -12.9899998      -1.57828538E-06
  -12.9799995       1.00644036E-06
  -12.9700003       3.63037793E-06
  -12.9600000       5.68257792E-06
  -12.9499998       6.63268020E-06
  -12.9399996       6.16366833E-06
  -12.9300003       4.26462429E-06
  -12.9200001       1.25805241E-06
  -12.9099998      -2.24989117E-06
  -12.8999996      -5.49032211E-06
  -12.8900003      -7.70026691E-06
  -12.8800001      -8.30246609E-06
  -12.8699999      -7.05447246E-06
  -12.8599997      -4.12954432E-06
  -12.8500004      -1.05432356E-07
  -12.8400002       4.14266151E-06
  -12.8299999       7.62623631E-06
  -12.8199997       9.46667114E-06
  -12.8100004       9.10772724E-06
  -12.8000002       6.46710214E-06
  -12.7900000       1.98798625E-06
  -12.7799997      -3.42738190E-06
  -12.7700005      -8.59376360E-06
  -12.7600002      -1.22942465E-05
  -12.7500000      -1.35533064E-05
  -12.7399998      -1.18703019E-05
  -12.7299995      -7.35820049E-06
  -12.7200003      -7.51504842E-07
  -12.7100000       6.72424540E-06
  -12.6999998       1.35976725E-05
  -12.6899996       1.84605251E-05
  -12.6800003       2.02729643E-05
  -12.6700001       1.85961617E-05
  -12.6599998       1.36974586E-05
  -12.6499996       6.50081893E-06
  -12.6400003      -1.61006483E-06
  -12.6300001      -9.09451137E-06
  -12.6199999      -1.45963859E-05
  -12.6099997      -1.72465971E-05
  -12.6000004      -1.68556689E-05
  -12.5900002      -1.39492695E-05
  -12.5799999      -9.63499042E-06
  -12.5699997      -5.32787908E-06
  -12.5600004      -2.39616497E-06
  -12.5500002      -1.80908000E-06
  -12.5400000      -3.87050159E-06
  -12.5299997      -8.10431447E-06
  -12.5200005      -1.33234344E-05
  -12.5100002      -1.78720747E-05
  -12.5000000      -1.99896858E-05
  -12.4899998      -1.82148251E-05
  -12.4799995      -1.17357085E-05
  -12.4700003      -6.04244576E-07
  -12.4600000       1.42394547E-05
  -12.4499998       3.11417862E-05
  -12.4399996       4.80724520E-05
  -12.4300003       6.30472787E-05
  -12.4200001       7.45392899E-05
  -12.4099998       8.17812252E-05
  -12.3999996       8.48871787E-05
  -12.3900003       8.47630290E-05
  -12.3800001       8.28257034E-05
  -12.3699999       8.05978125E-05
  -12.3599997       7.92759165E-05
  -12.3500004       7.93790314E-05
  -12.3400002       8.05669260E-05
  -12.3299999       8.16789325E-05
  -12.3199997       8.09910707E-05
  -12.3100004       7.66365774E-05
  -12.3000002       6.70931695E-05
  -12.2900000       5.16212203E-05
  -12.2799997       3.05452304E-05
  -12.2700005       5.30472698E-06
  -12.2600002      -2.17464403E-05
  -12.2500000      -4.77547073E-05
  -12.2399998      -6.99062948E-05
  -12.2299995      -8.59712163E-05
  -12.2200003      -9.47279841E-05
  -12.2100000      -9.61710684E-05
  -12.1999998      -9.14524062E-05
  -12.1899996      -8.25701354E-05
  -12.1800003      -7.18771844E-05
  -12.1700001      -6.15253448E-05
  -12.1599998      -5.29766112E-05
  -12.1499996      -4.66983292E-05
  -12.1400003      -4.21155419E-05
  -12.1300001      -3.78322948E-05
  -12.1199999      -3.20689178E-05
  -12.1099997      -2.32087987E-05
  -12.1000004      -1.03198918E-05
  -12.0900002       6.48026116E-06
  -12.0799999       2.59120061E-05
  -12.0699997       4.57108108E-05
  -12.0600004       6.30626455E-05
  -12.0500002       7.52033302E-05
  -12.0400000       8.00460984E-05
  -12.0299997       7.66914454E-05
  -12.0200005       6.56966586E-05
  -12.0100002       4.90348793E-05
  -12.0000000       2.97426177E-05
  -11.9899998       1.13251490E-05
  -11.9799995      -2.95545487E-06
  -11.9700003      -1.07568358E-05
  -11.9600000      -1.11503314E-05
  -11.9499998      -4.82335099E-06
  -11.9399996       6.05693731E-06
  -11.9300003       1.82936092E-05
  -11.9200001       2.83320915E-05
  -11.9099998       3.30157964E-05
  -11.8999996       3.02690623E-05
  -11.8900003       1.95660050E-05
  -11.8800001       2.08771439E-06
  -11.8699999      -1.94663098E-05
  -11.8599997      -4.13771741E-05
  -11.8500004      -5.96186183E-05
  -11.8400002      -7.06424835E-05
  -11.8299999      -7.20836324E-05
  -11.8199997      -6.32458541E-05
  -11.8100004      -4.52725872E-05
  -11.8000002      -2.09666468E-05
  -11.7900000       5.70945485E-06
  -11.7799997       3.03597353E-05
  -11.7700005       4.89708473E-05
  -11.7600002       5.86628557E-05
  -11.7500000       5.82304638E-05
  -11.7399998       4.83686417E-05
  -11.7299995       3.15355792E-05
  -11.7200003       1.14747600E-05
  -11.7100000      -7.51607467E-06
  -11.6999998      -2.14307493E-05
  -11.6899996      -2.73519217E-05
  -11.6800003      -2.40425743E-05
  -11.6700001      -1.22114552E-05
  -11.6599998       5.60625631E-06
  -11.6499996       2.55370142E-05
  -11.6400003       4.31359986E-05
  -11.6300001       5.42857269E-05
  -11.6199999       5.60487970E-05
  -11.6099997       4.73024193E-05
  -11.6000004       2.90222360E-05
  -11.5900002       4.15074419E-06
  -11.5799999      -2.29319903E-05
  -11.5699997      -4.72366846E-05
  -11.5600004      -6.41311271E-05
  -11.5500002      -7.02523466E-05
  -11.5400000      -6.41803781E-05
  -11.5299997      -4.67350583E-05
  -11.5200005      -2.08319052E-05
  -11.5100002       9.07777940E-06
  -11.5000000       3.78726036E-05
  -11.4899998       6.07594011E-05
  -11.4799995       7.42029588E-05
  -11.4700003       7.65988807E-05
  -11.4600000       6.85533741E-05
  -11.4499998       5.27135926E-05
  -11.4399996       3.31842020E-05
  -11.4300003       1.46503871E-05
  -11.4200001       1.38740108E-06
  -11.4099998      -3.64019024E-06
  -11.3999996       5.95017411E-07
  -11.3900003       1.29595392E-05
  -11.3800001       3.03847828E-05
  -11.3699999       4.84979646E-05
  -11.3599997       6.25321481E-05
  -11.3500004       6.83333783E-05
  -11.3400002       6.32629308E-05
  -11.3299999       4.68130602E-05
  -11.3199997       2.08101628E-05
  -11.3100004      -1.08405320E-05
  -11.3000002      -4.28258027E-05
  -11.2900000      -6.93871407E-05
  -11.2799997      -8.53945821E-05
  -11.2700005      -8.73275712E-05
  -11.2600002      -7.39747629E-05
  -11.2500000      -4.67152822E-05
  -11.2399998      -9.32208877E-06
  -11.2299995       3.26823356E-05
  -11.2200003       7.30019674E-05
  -11.2100000       1.05694118E-04
  -11.1999998       1.26234678E-04
  -11.1899996       1.32317626E-04
  -11.1800003       1.24232582E-04
  -11.1700001       1.04744031E-04
  -11.1599998       7.84917574E-05
  -11.1499996       5.10274949E-05
  -11.1400003       2.76767278E-05
  -11.1300001       1.24533080E-05
  -11.1199999       7.24789561E-06
  -11.1099997       1.14596760E-05
  -11.1000004       2.21536848E-05
  -11.0900002       3.47198365E-05
  -11.0799999       4.39060314E-05
  -11.0699997       4.50179468E-05
  -11.0600004       3.50390583E-05
  -11.0500002       1.34348993E-05
  -11.0400000      -1.75355162E-05
  -11.0299997      -5.30822326E-05
  -11.0200005      -8.66878909E-05
  -11.0100002      -1.11309753E-04
  -11.0000000      -1.20754587E-04
  -10.9899998      -1.10960958E-04
  -10.9799995      -8.09349003E-05
  -10.9700003      -3.31457777E-05
  -10.9600000       2.67114829E-05
  -10.9499998       9.05633642E-05
  -10.9399996       1.49273372E-04
  -10.9300003       1.94194683E-04
  -10.9200001       2.18678935E-04
  -10.9099998       2.19262598E-04
  -10.8999996       1.96306719E-04
  -10.8900003       1.53963134E-04
  -10.8800001       9.94621005E-05
  -10.8699999       4.18430027E-05
  -10.8599997      -9.64615811E-06
  -10.8500004      -4.71887215E-05
  -10.8400002      -6.57769051E-05
  -10.8299999      -6.40701546E-05
  -10.8199997      -4.45728074E-05
  -10.8100004      -1.30964881E-05
  -10.8000002       2.23927946E-05
  -10.7900000       5.33261991E-05
  -10.7799997       7.21900651E-05
  -10.7700005       7.39789029E-05
  -10.7600002       5.71719138E-05
  -10.7500000       2.40536647E-05
  -10.7399998      -1.96752462E-05
  -10.7299995      -6.59183497E-05
  -10.7200003      -1.05638908E-04
  -10.7100000      -1.30479428E-04
  -10.6999998      -1.34250105E-04
  -10.6899996      -1.14023416E-04
  -10.6800003      -7.06511128E-05
  -10.6700001      -8.62958950E-06
  -10.6599998       6.46427361E-05
  -10.6499996       1.40068092E-04
  -10.6400003       2.08291443E-04
  -10.6300001       2.61131441E-04
  -10.6199999       2.92764948E-04
  -10.6099997       3.00484884E-04
  -10.6000004       2.84933631E-04
  -10.5900002       2.49807810E-04
  -10.5799999       2.01118703E-04
  -10.5699997       1.46160470E-04
  -10.5600004       9.23748012E-05
  -10.5500002       4.63025099E-05
  -10.5400000       1.27802987E-05
  -10.5299997      -5.51639005E-06
  -10.5200005      -8.15378371E-06
  -10.5100002       3.31734987E-06
  -10.5000000       2.58625678E-05
  -10.4899998       5.55835686E-05
  -10.4799995       8.83300381E-05
  -10.4700003       1.20201032E-04
  -10.4600000       1.47876373E-04
  -10.4499998       1.68768442E-04
  -10.4399996       1.81029172E-04
  -10.4300003       1.83474680E-04
  -10.4200001       1.75496782E-04
  -10.4099998       1.57015136E-04
  -10.3999996       1.28493077E-04
  -10.3900003       9.10046729E-05
  -10.3800001       4.63100478E-05
  -10.3699999      -3.11865711E-06
  -10.3599997      -5.41743575E-05
  -10.3500004      -1.03325605E-04
  -10.3400002      -1.46956183E-04
  -10.3299999      -1.81791213E-04
  -10.3199997      -2.05336983E-04
  -10.3100004      -2.16247732E-04
  -10.3000002      -2.14537809E-04
  -10.2900000      -2.01583331E-04
  -10.2799997      -1.79895869E-04
  -10.2700005      -1.52695764E-04
  -10.2600002      -1.23353238E-04
  -10.2500000      -9.47937951E-05
  -10.2399998      -6.89754670E-05
  -10.2299995      -4.65360463E-05
  -10.2200003      -2.66816296E-05
  -10.2100000      -7.34746936E-06
  -10.1999998       1.43848138E-05
  -10.1899996       4.16746043E-05
  -10.1800003       7.72119965E-05
  -10.1700001       1.22528916E-04
  -10.1599998       1.77453505E-04
  -10.1499996       2.39812245E-04
  -10.1400003       3.05449445E-04
  -10.1300001       3.68584500E-04
  -10.1199999       4.22473851E-04
  -10.1099997       4.60292329E-04
  -10.1000004       4.76109737E-04
  -10.0900002       4.65815741E-04
  -10.0799999       4.27848601E-04
  -10.0699997       3.63607542E-04
  -10.0600004       2.77473446E-04
  -10.0500002       1.76420144E-04
  -10.0400000       6.92606773E-05
  -10.0299997      -3.43717620E-05
  -10.0200005      -1.25167790E-04
  -10.0100002      -1.95250439E-04
  -10.0000000      -2.39093992E-04
  -9.98999977      -2.54127342E-04
  -9.97999954      -2.40943948E-04
  -9.97000027      -2.03100062E-04
  -9.96000004      -1.46543432E-04
  -9.94999981      -7.87678218E-05
  -9.93999958      -7.82453390E-06
  -9.93000031       5.86636124E-05
  -9.92000008       1.14350609E-04
  -9.90999985       1.54773617E-04
  -9.89999962       1.77658862E-04
  -9.89000034       1.82919859E-04
  -9.88000011       1.72388070E-04
  -9.86999989       1.49350541E-04
  -9.85999966       1.17986878E-04
  -9.85000038       8.27964832E-05
  -9.84000015       4.80908748E-05
  -9.82999992       1.76006415E-05
  -9.81999969      -5.78141726E-06
  -9.81000042      -2.01233797E-05
  -9.80000019      -2.44624134E-05
  -9.78999996      -1.87251680E-05
  -9.77999973      -3.58930788E-06
  -9.77000046       1.96871952E-05
  -9.76000023       4.94459418E-05
  -9.75000000       8.37975022E-05
  -9.73999977       1.20765209E-04
  -9.72999954       1.58393770E-04
  -9.72000027       1.94821696E-04
  -9.71000004       2.28326389E-04
  -9.69999981       2.57360138E-04
  -9.68999958       2.80599372E-04
  -9.68000031       2.97024962E-04
  -9.67000008       3.06036614E-04
  -9.65999985       3.07582639E-04
  -9.64999962       3.02262342E-04
  -9.64000034       2.91344011E-04
  -9.63000011       2.76643405E-04
  -9.61999989       2.60234316E-04
  -9.60999966       2.44007359E-04
  -9.60000038       2.29151890E-04
  -9.59000015       2.15684995E-04
  -9.57999992       2.02178795E-04
  -9.56999969       1.85822602E-04
  -9.56000042       1.62896336E-04
  -9.55000019       1.29634747E-04
  -9.53999996       8.33477534E-05
  -9.52999973       2.35622410E-05
  -9.52000046      -4.71042695E-05
  -9.51000023      -1.22613594E-04
  -9.50000000      -1.93907588E-04
  -9.48999977      -2.50074430E-04
  -9.47999954      -2.80133390E-04
  -9.47000027      -2.75122729E-04
  -9.46000004      -2.30065023E-04
  -9.44999981      -1.45368307E-04
  -9.43999958      -2.73080241E-05
  -9.43000031       1.12584392E-04
  -9.42000008       2.59168679E-04
  -9.40999985       3.96088813E-04
  -9.39999962       5.08446246E-04
  -9.39000034       5.85213245E-04
  -9.38000011       6.20895298E-04
  -9.36999989       6.16111851E-04
  -9.35999966       5.77003811E-04
  -9.35000038       5.13633073E-04
  -9.34000015       4.37757350E-04
  -9.32999992       3.60487553E-04
  -9.31999969       2.90336786E-04
  -9.31000042       2.32054008E-04
  -9.30000019       1.86431556E-04
  -9.28999996       1.51034881E-04
  -9.27999973       1.21588069E-04
  -9.27000046       9.36130746E-05
  -9.26000023       6.38904894E-05
  -9.25000000       3.13912205E-05
  -9.23999977      -2.50576181E-06
  -9.22999954      -3.44950931E-05
  -9.22000027      -6.03286862E-05
  -9.21000004      -7.59888499E-05
  -9.19999981      -7.87179451E-05
  -9.18999958      -6.76411291E-05
  -9.18000031      -4.38570169E-05
  -9.17000008      -1.00318675E-05
  -9.15999985       3.03313063E-05
  -9.14999962       7.37047012E-05
  -9.14000034       1.17191259E-04
  -9.13000011       1.58863448E-04
  -9.11999989       1.97743662E-04
  -9.10999966       2.33504703E-04
  -9.10000038       2.66049872E-04
  -9.09000015       2.95150414E-04
  -9.07999992       3.20273743E-04
  -9.06999969       3.40646162E-04
  -9.06000042       3.55494034E-04
  -9.05000019       3.64336185E-04
  -9.03999996       3.67180881E-04
  -9.02999973       3.64524429E-04
  -9.02000046       3.57133918E-04
  -9.01000023       3.45697306E-04
  -9.00000000       3.30494746E-04
  -8.98999977       3.11263138E-04
  -8.97999954       2.87373026E-04
  -8.97000027       2.58329470E-04
  -8.96000004       2.24480173E-04
  -8.94999981       1.87705358E-04
  -8.93999958       1.51820699E-04
  -8.93000031       1.22464073E-04
  -8.92000008       1.06359272E-04
  -8.90999985       1.10024012E-04
  -8.89999962       1.38166972E-04
  -8.89000034       1.92147592E-04
  -8.88000011       2.68910313E-04
  -8.86999989       3.60734644E-04
  -8.85999966       4.55975591E-04
  -8.85000038       5.40743233E-04
  -8.84000015       6.01243984E-04
  -8.82999992       6.26331428E-04
  -8.81999969       6.09743642E-04
  -8.81000042       5.51545818E-04
  -8.80000019       4.58454568E-04
  -8.78999996       3.42946354E-04
  -8.77999973       2.21306691E-04
  -8.77000046       1.10990150E-04
  -8.76000023       2.77987147E-05
  -8.75000000      -1.65885431E-05
  -8.73999977      -1.62899742E-05
  -8.72999954       2.81691409E-05
  -8.72000027       1.10354595E-04
  -8.71000004       2.19347028E-04
  -8.69999981       3.41738982E-04
  -8.68999958       4.63767123E-04
  -8.68000031       5.73163445E-04
  -8.67000008       6.60422316E-04
  -8.65999985       7.19355012E-04
  -8.64999962       7.46995735E-04
  -8.64000034       7.43069919E-04
  -8.63000011       7.09315180E-04
  -8.61999989       6.48921065E-04
  -8.60999966       5.66250528E-04
  -8.60000038       4.66850383E-04
  -8.59000015       3.57606477E-04
  -8.57999992       2.46807584E-04
  -8.56999969       1.43875644E-04
  -8.56000042       5.86194619E-05
  -8.55000019       3.54482701E-08
  -8.53999996      -2.51373986E-05
  -8.52999973      -1.37596617E-05
  -8.52000046       3.28531642E-05
  -8.51000023       1.08862194E-04
  -8.50000000       2.04736018E-04
  -8.48999977       3.08846531E-04
  -8.47999954       4.09477303E-04
  -8.47000027       4.96767054E-04
  -8.46000004       5.64122107E-04
  -8.44999981       6.08787290E-04
  -8.43999958       6.31509814E-04
  -8.43000031       6.35493954E-04
  -8.42000008       6.25036308E-04
  -8.40999985       6.04293367E-04
  -8.39999962       5.76545252E-04
  -8.39000034       5.44110371E-04
  -8.38000011       5.08816098E-04
  -8.36999989       4.72724292E-04
  -8.35999966       4.38720133E-04
  -8.35000038       4.10634035E-04
  -8.34000015       3.92755930E-04
  -8.32999992       3.88844841E-04
  -8.31999969       4.00953781E-04
  -8.31000042       4.28492349E-04
  -8.30000019       4.67901060E-04
  -8.28999996       5.13123581E-04
  -8.27999973       5.56800805E-04
  -8.27000046       5.91870456E-04
  -8.26000023       6.13116019E-04
  -8.25000000       6.18222053E-04
  -8.23999977       6.08059461E-04
  -8.22999954       5.86172217E-04
  -8.22000027       5.57689345E-04
  -8.21000004       5.28050761E-04
  -8.19999981       5.01953997E-04
  -8.18999958       4.82800824E-04
  -8.18000031       4.72707150E-04
  -8.17000008       4.72915766E-04
  -8.15999985       4.84301796E-04
  -8.14999962       5.07647754E-04
  -8.14000034       5.43489878E-04
  -8.13000011       5.91544143E-04
  -8.11999989       6.49931491E-04
  -8.10999966       7.14553287E-04
  -8.10000038       7.78963207E-04
  -8.09000015       8.34936218E-04
  -8.07999992       8.73708108E-04
  -8.06999969       8.87621427E-04
  -8.06000042       8.71759374E-04
  -8.05000019       8.25133000E-04
  -8.03999996       7.51110143E-04
  -8.02999973       6.56993012E-04
  -8.02000046       5.52890648E-04
  -8.01000023       4.50206484E-04
  -8.00000000       3.60113016E-04
  -7.98999977       2.92317505E-04
  -7.98000002       2.54268060E-04
  -7.96999979       2.50772078E-04
  -7.96000004       2.83881411E-04
  -7.94999981       3.52876814E-04
  -7.94000006       4.54250432E-04
  -7.92999983       5.81708504E-04
  -7.92000008       7.26323342E-04
  -7.90999985       8.77006736E-04
  -7.90000010       1.02140999E-03
  -7.88999987       1.14722142E-03
  -7.88000011       1.24367059E-03
  -7.86999989       1.30291912E-03
  -7.86000013       1.32101157E-03
  -7.84999990       1.29815424E-03
  -7.84000015       1.23828196E-03
  -7.82999992       1.14807964E-03
  -7.82000017       1.03578239E-03
  -7.80999994       9.10108327E-04
  -7.80000019       7.79581140E-04
  -7.78999996       6.52312418E-04
  -7.78000021       5.36101114E-04
  -7.76999998       4.38570074E-04
  -7.76000023       3.67043482E-04
  -7.75000000       3.27987975E-04
  -7.73999977       3.26053821E-04
  -7.73000002       3.62968654E-04
  -7.71999979       4.36667353E-04
  -7.71000004       5.41030255E-04
  -7.69999981       6.66440348E-04
  -7.69000006       8.01114656E-04
  -7.67999983       9.32905357E-04
  -7.67000008       1.05110847E-03
  -7.65999985       1.14781433E-03
  -7.65000010       1.21849251E-03
  -7.63999987       1.26177480E-03
  -7.63000011       1.27866014E-03
  -7.61999989       1.27154239E-03
  -7.61000013       1.24347245E-03
  -7.59999990       1.19790586E-03
  -7.59000015       1.13894127E-03
  -7.57999992       1.07180001E-03
  -7.57000017       1.00315514E-03
  -7.55999994       9.40942264E-04
  -7.55000019       8.93478282E-04
  -7.53999996       8.68002418E-04
  -7.53000021       8.69023032E-04
  -7.51999998       8.96997808E-04
  -7.51000023       9.47838009E-04
  -7.50000000       1.01349293E-03
  -7.48999977       1.08354050E-03
  -7.48000002       1.14738196E-03
  -7.46999979       1.19643600E-03
  -7.46000004       1.22573122E-03
  -7.44999981       1.23449450E-03
  -7.44000006       1.22565206E-03