  -16.0000000       0.00000000    
  -15.9899998       0.00000000    
  -15.9799995       0.00000000    
  -15.9700003       0.00000000    
  -15.9600000       0.00000000    
  -15.9499998       0.00000000    
  -15.9399996       0.00000000    
  -15.9300003       0.00000000    
  -15.9200001       0.00000000    
  -15.9099998       0.00000000    
  -15.8999996       0.00000000    
  -15.8900003       1.44304455E-39
  -15.8800001       1.27148386E-37
  -15.8699999       2.05277338E-36
  -15.8599997       1.74371314E-35
  -15.8500004       9.77814313E-35
  -15.8400002       3.96613171E-34
  -15.8299999       1.20150712E-33
  -15.8199997       2.62988925E-33
  -15.8100004       3.10471090E-33
  -15.8000002      -5.81794913E-33
  -15.7900000      -5.56729053E-32
  -15.7799997      -2.49785356E-31
  -15.7700005      -8.92287481E-31
  -15.7600002      -2.75921946E-30
  -15.7500000      -7.46858028E-30
  -15.7399998      -1.74574897E-29
  -15.7299995      -3.40608986E-29
  -15.7200003      -5.08827983E-29
  -15.7100000      -3.97138792E-29
  -15.6999998       6.86751651E-29
  -15.6899996       3.92222326E-28
  -15.6800003       1.05430047E-27
  -15.6700001       2.03403856E-27
  -15.6599998       2.88239163E-27
  -15.6499996       2.39469956E-27
  -15.6400003      -1.44761725E-27
  -15.6300001      -1.07293395E-26
  -15.6199999      -2.55586126E-26
  -15.6099997      -4.09403618E-26
  -15.6000004      -4.43066254E-26
  -15.5900002      -1.72370376E-26
  -15.5799999       5.47821682E-26
  -15.5699997       1.64420257E-25
  -15.5600004       2.65408677E-25
  -15.5500002       2.76840011E-25
  -15.5400000       1.32684580E-25
  -15.5299997      -1.21082556E-25
  -15.5200005      -2.36759320E-25
  -15.5100002       1.84109720E-25
  -15.5000000       1.32953937E-24
  -15.4899998       2.45077685E-24
  -15.4799995       1.08020538E-24
  -15.4700003      -6.91818944E-24
  -15.4600000      -2.51056687E-23
  -15.4499998      -5.09802496E-23
  -15.4399996      -6.80898727E-23
  -15.4300003      -4.04131075E-23
  -15.4200001       8.17168201E-23
  -15.4099998       3.32868353E-22
  -15.3999996       6.75678525E-22
  -15.3900003       9.29622670E-22
  -15.3800001       7.30512966E-22
  -15.3699999      -4.02308611E-22
  -15.3599997      -2.80883414E-21
  -15.3500004      -6.21678777E-21
  -15.3400002      -9.17835650E-21
  -15.3299999      -8.75907528E-21
  -15.3199997      -1.02505308E-21
  -15.3100004       1.71204512E-20
  -15.3000002       4.46121446E-20
  -15.2900000       7.22351820E-20
  -15.2799997       8.01833731E-20
  -15.2700005       4.05938530E-20
  -15.2600002      -7.14904286E-20
  -15.2500000      -2.57676480E-19
  -15.2399998      -4.70756035E-19
  -15.2299995      -5.96530501E-19
  -15.2200003      -4.62313623E-19
  -15.2100000       1.07662668E-19
  -15.1999998       1.18141389E-18
  -15.1899996       2.57239274E-18
  -15.1800003       3.71694270E-18
  -15.1700001       3.67515933E-18
  -15.1599998       1.36525178E-18
  -15.1499996      -3.90623761E-18
  -15.1400003      -1.16825332E-17
  -15.1300001      -1.96212486E-17
  -15.1199999      -2.32440697E-17
  -15.1099997      -1.67227630E-17
  -15.1000004       4.90219615E-18
  -15.0900002       4.21818537E-17
  -15.0799999       8.73510668E-17
  -15.0699997       1.21958940E-16
  -15.0600004       1.18554119E-16
  -15.0500002       4.86138811E-17
  -15.0400000      -1.02869677E-16
  -15.0299997      -3.19037765E-16
  -15.0200005      -5.36079953E-16
  -15.0100002      -6.41793794E-16
  -15.0000000      -4.98380581E-16
  -14.9899998       5.12556635E-18
  -14.9799995       8.76981756E-16
  -14.9700003       1.94588477E-15
  -14.9600000       2.82137061E-15
  -14.9499998       2.93656773E-15
  -14.9399996       1.70714334E-15
  -14.9300003      -1.19511595E-15
  -14.9200001      -5.51297111E-15
  -14.9099998      -1.01423115E-14
  -14.8999996      -1.31076095E-14
  -14.8900003      -1.19351465E-14
  -14.8800001      -4.49513312E-15
  -14.8699999       9.79389977E-15
  -14.8599997       2.87385302E-14
  -14.8500004       4.66745817E-14
  -14.8400002       5.49355144E-14
  -14.8299999       4.39551519E-14
  -14.8199997       7.00417304E-15
  -14.8100004      -5.51753874E-14
  -14.8000002      -1.30386628E-13
  -14.7900000      -1.93764709E-13
  -14.7799997      -2.11396533E-13
  -14.7700005      -1.49842785E-13
  -14.7600002       9.35222291E-15
  -14.7500000       2.53706832E-13
  -14.7399998       5.28416070E-13
  -14.7299995       7.36713750E-13
  -14.7200003       7.57882364E-13
  -14.7100000       4.84410634E-13
  -14.6999998      -1.27398810E-13
  -14.6899996      -1.00741908E-12
  -14.6800003      -1.94292239E-12
  -14.6700001      -2.59296599E-12
  -14.6599998      -2.56086428E-12
  -14.6499996      -1.52338927E-12
  -14.6400003       6.07879469E-13
  -14.6300001       3.54160429E-12
  -14.6199999       6.54221382E-12
  -14.6099997       8.50720883E-12
  -14.6000004       8.21965152E-12
  -14.5900002       4.75632598E-12
  -14.5799999      -2.03591202E-12
  -14.5699997      -1.11461968E-11
  -14.5600004      -2.02708458E-11
  -14.5500002      -2.61086500E-11
  -14.5400000      -2.51460918E-11
  -14.5299997      -1.48434581E-11
  -14.5200005       5.05046135E-12
  -14.5100002       3.14815084E-11
  -14.5000000       5.78550576E-11
  -14.4899998       7.49694681E-11
  -14.4799995       7.32315736E-11
  -14.4700003       4.58522699E-11
  -14.4600000      -7.73867949E-12
  -14.4499998      -7.93731192E-11
  -14.4399996      -1.51720025E-10
  -14.4300003      -2.00849518E-10
  -14.4200001      -2.01954634E-10
  -14.4099998      -1.37370421E-10
  -14.3999996      -4.95289660E-12
  -14.3900003       1.75889012E-10
  -14.3800001       3.63309494E-10
  -14.3699999       4.99266128E-10
  -14.3599997       5.23107002E-10
  -14.3500004       3.90352528E-10
  -14.3400002       9.21372631E-11
  -14.3299999      -3.30821731E-10
  -14.3199997      -7.85909726E-10
  -14.3100004      -1.14216281E-09
  -14.3000002      -1.25997879E-09
  -14.2900000      -1.03217146E-09
  -14.2799997      -4.26569086E-10
  -14.2700005       4.82843154E-10
  -14.2600002       1.50912882E-09
  -14.2500000       2.37861109E-09
  -14.2399998       2.79066459E-09
  -14.2299995       2.50133714E-09
  -14.2200003       1.41118595E-09
  -14.2100000      -3.68446912E-10
  -14.1999998      -2.49614751E-09
  -14.1899996      -4.44525439E-09
  -14.1800003      -5.61440494E-09
  -14.1700001      -5.48586598E-09
  -14.1599998      -3.79524900E-09
  -14.1499996      -6.64758526E-10
  -14.1400003       3.34733530E-09
  -14.1300001       7.31336058E-09
  -14.1199999       1.01236903E-08
  -14.1099997       1.07648592E-08
  -14.1000004       8.62556693E-09
  -14.0900002       3.74739040E-09
  -14.0799999      -3.06266723E-09
  -14.0699997      -1.03158744E-08
  -14.0600004      -1.61334253E-08
  -14.0500002      -1.86996871E-08
  -14.0400000      -1.67760135E-08
  -14.0299997      -1.01394200E-08
  -14.0200005       1.90583840E-10
  -14.0100002       1.20353958E-08
  -14.0000000       2.24765042E-08
  -13.9899998       2.85442781E-08
  -13.9799995       2.80235195E-08
  -13.9700003       2.01669188E-08
  -13.9600000       6.10318152E-09
  -13.9499998      -1.12177245E-08
  -13.9399996      -2.75910192E-08
  -13.9300003      -3.85465313E-08
  -13.9200001      -4.05410319E-08
  -13.9099998      -3.20469340E-08
  -13.8999996      -1.42195926E-08
  -13.8900003       9.09715414E-09
  -13.8800001       3.21126485E-08
  -13.8699999       4.84645923E-08
  -13.8599997       5.29221147E-08
  -13.8500004       4.29810143E-08
  -13.8400002       1.98917025E-08
  -13.8299999      -1.12378302E-08
  -13.8199997      -4.24069988E-08
  -13.8100004      -6.46184688E-08
  -13.8000002      -7.02915699E-08
  -13.7900000      -5.55854953E-08
  -13.7799997      -2.19749410E-08
  -13.7700005       2.34532518E-08
  -13.7600002       6.92266582E-08
  -13.7500000       1.02093040E-07
  -13.7399998       1.10466175E-07
  -13.7299995       8.78771758E-08
  -13.7200003       3.54929419E-08
  -13.7100000      -3.71003210E-08
  -13.6999998      -1.13282276E-07
  -13.6899996      -1.72859330E-07
  -13.6800003      -1.96944910E-07
  -13.6700001      -1.73147967E-07
  -13.6599998      -9.97444687E-08
  -13.6499996       1.23844028E-08
  -13.6400003       1.40825492E-07
  -13.6300001       2.55806555E-07
  -13.6199999       3.26768657E-07
  -13.6099997       3.29943390E-07
  -13.6000004       2.55128214E-07
  -13.5900002       1.09859094E-07
  -13.5799999      -8.03554130E-08
  -13.5699997      -2.76222750E-07
  -13.5600004      -4.32700119E-07
  -13.5500002      -5.09274116E-07
  -13.5400000      -4.80165852E-07
  -13.5299997      -3.41935419E-07
  -13.5200005      -1.16365229E-07
  -13.5100002       1.52521068E-07
  -13.5000000       4.07094319E-07
  -13.4899998       5.88777652E-07
  -13.4799995       6.51954167E-07
  -13.4700003       5.75805018E-07
  -13.4600000       3.70994712E-07
  -13.4499998       7.91527839E-08
  -13.4399996      -2.35271713E-07
  -13.4300003      -4.99334874E-07
  -13.4200001      -6.48994956E-07
  -13.4099998      -6.45464013E-07
  -13.3999996      -4.86340639E-07
  -13.3900003      -2.08343877E-07
  -13.3800001       1.19660925E-07
  -13.3699999       4.12299045E-07
  -13.3599997       5.88670218E-07
  -13.3500004       5.93749860E-07
  -13.3400002       4.14786768E-07
  -13.3299999       8.81121451E-08
  -13.3199997      -3.06159109E-07
  -13.3100004      -6.61194690E-07
  -13.3000002      -8.68935217E-07
  -13.2900000      -8.48266836E-07
  -13.2799997      -5.68986991E-07
  -13.2700005      -6.51607621E-08
  -13.2600002       5.66415167E-07
  -13.2500000       1.18357332E-06
  -13.2399998       1.62905417E-06
  -13.2299995       1.76738376E-06
  -13.2200003       1.51991412E-06
  -13.2100000       8.89388843E-07
  -13.1999998      -3.27203580E-08
  -13.1899996      -1.07919686E-06
  -13.1800003      -2.03880313E-06
  -13.1700001      -2.70058172E-06
  -13.1599998      -2.90115668E-06
  -13.1499996      -2.56414887E-06
  -13.1400003      -1.72204193E-06
  -13.1300001      -5.14450733E-07
  -13.1199999       8.37973573E-07
  -13.1099997       2.07902121E-06
  -13.1000004       2.97194606E-06
  -13.0900002       3.35147115E-06
  -13.0799999       3.16039359E-06
  -13.0699997       2.46162267E-06
  -13.0600004       1.42209626E-06
  -13.0500002       2.71779584E-07
  -13.0400000      -7.52753181E-07
  -13.0299997      -1.46641435E-06
  -13.0200005      -1.78064067E-06
  -13.0100002      -1.72332057E-06
  -13.0000000      -1.42746467E-06
  -12.9899998      -1.09030520E-06
  -12.9799995      -9.12390760E-07
  -12.9700003      -1.03216644E-06
  -12.9600000      -1.47383946E-06
  -12.9499998      -2.12415966E-06
  -12.9399996      -2.74734316E-06
  -12.9300003      -3.03803063E-06
  -12.9200001      -2.70207670E-06
  -12.9099998      -1.54662712E-06
  -12.8999996       4.43362012E-07
  -12.8900003       3.06389347E-06
  -12.8800001       5.90096488E-06
  -12.8699999       8.39376480E-06
  -12.8599997       9.94286893E-06
  -12.8500004       1.00423676E-05
  -12.8400002       8.40706798E-06
  -12.8299999       5.06450851E-06
  -12.8199997       3.87204466E-07
  -12.8100004      -4.94747246E-06
  -12.8000002      -1.00666603E-05
  -12.7900000      -1.40614975E-05
  -12.7799997      -1.61650569E-05
  -12.7700005      -1.59111823E-05
  -12.7600002      -1.32390560E-05
  -12.7500000      -8.51889126E-06
  -12.7399998      -2.49056734E-06
  -12.7299995       3.87392220E-06
  -12.7200003       9.55645555E-06
  -12.7100000       1.36881426E-05
  -12.6999998       1.57124505E-05
  -12.6899996       1.54811314E-05
  -12.6800003       1.32627256E-05
  -12.6700001       9.66275275E-06
  -12.6599998       5.47449872E-06
  -12.6499996       1.49489574E-06
  -12.6400003      -1.65221684E-06
  -12.6300001      -3.64496032E-06
  -12.6199999      -4.51505593E-06
  -12.6099997      -4.61077934E-06
  -12.6000004      -4.48047058E-06
  -12.5900002      -4.70456098E-06
  -12.5799999      -5.71659166E-06
  -12.5699997      -7.65701407E-06
  -12.5600004      -1.02969079E-05
  -12.5500002      -1.30534700E-05
  -12.5400000      -1.50984915E-05
  -12.5299997      -1.55397174E-05
  -12.5200005      -1.36374883E-05
  -12.5100002      -9.00952273E-06
  -12.5000000      -1.77710297E-06
  -12.4899998       7.38341896E-06
  -12.4799995       1.73012795E-05
  -12.4700003       2.64787814E-05
  -12.4600000       3.33378666E-05
  -12.4499998       3.65009582E-05
  -12.4399996       3.50527625E-05
  -12.4300003       2.87319799E-05
  -12.4200001       1.80142797E-05
  -12.4099998       4.06816116E-06
  -12.3999996      -1.14106069E-05
  -12.3900003      -2.64571518E-05
  -12.3800001      -3.91419599E-05
  -12.3699999      -4.78668298E-05
  -12.3599997      -5.15998472E-05
  -12.3500004      -5.00092028E-05
  -12.3400002      -4.34757530E-05
  -12.3299999      -3.29877948E-05
  -12.3199997      -1.99436708E-05
  -12.3100004      -5.90433547E-06
  -12.3000002       7.65468940E-06
  -12.2900000       1.95454031E-05
  -12.2799997       2.89894870E-05
  -12.2700005       3.56454475E-05
  -12.2600002       3.95470997E-05
  -12.2500000       4.09784880E-05
  -12.2399998       4.03226877E-05
  -12.2299995       3.79250705E-05
  -12.2200003       3.40050392E-05
  -12.2100000       2.86360246E-05
  -12.1999998       2.17947454E-05
  -12.1899996       1.34624779E-05
  -12.1800003       3.74726710E-06
  -12.1700001      -7.00973851E-06
  -12.1599998      -1.81772612E-05
  -12.1499996      -2.88478350E-05
  -12.1400003      -3.79273079E-05
  -12.1300001      -4.42860692E-05
  -12.1199999      -4.69431106E-05
  -12.1099997      -4.52457098E-05
  -12.1000004      -3.90074929E-05
  -12.0900002      -2.85764854E-05
  -12.0799999      -1.48188774E-05
  -12.0699997       9.78385742E-07
  -12.0600004       1.72678883E-05
  -12.0500002       3.24359935E-05
  -12.0400000       4.49983709E-05
  -12.0299997       5.37673222E-05
  -12.0200005       5.79700354E-05
  -12.0100002       5.73079014E-05
  -12.0000000       5.19580608E-05
  -11.9899998       4.25262187E-05
  -11.9799995       2.99639032E-05
  -11.9700003       1.54632817E-05
  -11.9600000       3.40541277E-07
  -11.9499998      -1.40844613E-05
  -11.9399996      -2.66063325E-05
  -11.9300003      -3.62439860E-05
  -11.9200001      -4.23340534E-05
  -11.9099998      -4.45970945E-05
  -11.8999996      -4.31645931E-05
  -11.8900003      -3.85563071E-05
  -11.8800001      -3.16035766E-05
  -11.8699999      -2.33233441E-05
  -11.8599997      -1.47588571E-05
  -11.8500004      -6.81283200E-06
  -11.8400002      -1.04548221E-07
  -11.8299999       5.11886083E-06
  -11.8199997       8.99515635E-06
  -11.8100004       1.19771303E-05
  -11.8000002       1.46916345E-05
  -11.7900000       1.77561997E-05
  -11.7799997       2.15936579E-05
  -11.7700005       2.62878548E-05
  -11.7600002       3.15161960E-05
  -11.7500000       3.65782762E-05
  -11.7399998       4.05180981E-05
  -11.7299995       4.23154270E-05
  -11.7200003       4.11051551E-05
  -11.7100000       3.63760300E-05
  -11.6999998       2.81043212E-05
  -11.6899996       1.67925518E-05
  -11.6800003       3.40489260E-06
  -11.6700001      -1.07856795E-05
  -11.6599998      -2.44042603E-05
  -11.6499996      -3.61896964E-05
  -11.6400003      -4.51740998E-05
  -11.6300001      -5.07919249E-05
  -11.6199999      -5.29024728E-05
  -11.6099997      -5.17306507E-05
  -11.6000004      -4.77491994E-05
  -11.5900002      -4.15369577E-05
  -11.5799999      -3.36499106E-05
  -11.5699997      -2.45346237E-05
  -11.5600004      -1.45000104E-05
  -11.5500002      -3.74654451E-06
  -11.5400000       7.56277677E-06
  -11.5299997       1.92150983E-05
  -11.5200005       3.08719245E-05
  -11.5100002       4.20280376E-05
  -11.5000000       5.20182875E-05
  -11.4899998       6.00729436E-05
  -11.4799995       6.54109244E-05
  -11.4700003       6.73523464E-05
  -11.4600000       6.54285468E-05
  -11.4499998       5.94697776E-05
  -11.4399996       4.96559624E-05
  -11.4300003       3.65232663E-05
  -11.4200001       2.09264181E-05
  -11.4099998       3.96284122E-06
  -11.3999996      -1.31313909E-05
  -11.3900003      -2.91012711E-05
  -11.3800001      -4.27948617E-05
  -11.3699999      -5.32741105E-05
  -11.3599997      -5.99017621E-05
  -11.3500004      -6.23935921E-05
  -11.3400002      -6.08283626E-05
  -11.3299999      -5.56130835E-05
  -11.3199997      -4.74077679E-05
  -11.3100004      -3.70210291E-05
  -11.3000002      -2.52942009E-05
  -11.2900000      -1.29950258E-05
  -11.2799997      -7.41025417E-07
  -11.2700005       1.10329993E-05
  -11.2600002       2.20590337E-05
  -11.2500000       3.21790139E-05
  -11.2399998       4.12656664E-05
  -11.2299995       4.91462233E-05
  -11.2200003       5.55542356E-05
  -11.2100000       6.01274660E-05
  -11.1999998       6.24565364E-05
  -11.1899996       6.21732979E-05
  -11.1800003       5.90543023E-05
  -11.1700001       5.31072365E-05
  -11.1599998       4.46103259E-05
  -11.1499996       3.40865263E-05
  -11.1400003       2.22129856E-05
  -11.1300001       9.68709173E-06
  -11.1199999      -2.91299625E-06
  -11.1099997      -1.52290904E-05
  -11.1000004      -2.71475310E-05
  -11.0900002      -3.87296277E-05
  -11.0799999      -5.00582755E-05
  -11.0699997      -6.10397110E-05
  -11.0600004      -7.12203619E-05
  -11.0500002      -7.96844470E-05
  -11.0400000      -8.50844153E-05
  -11.0299997      -8.58256826E-05
  -11.0200005      -8.03852599E-05
  -11.0100002      -6.77027056E-05
  -11.0000000      -4.75518609E-05
  -10.9899998      -2.07941339E-05
  -10.9799995       1.05680510E-05
  -10.9700003       4.35773836E-05
  -10.9600000       7.47310041E-05
  -10.9499998       1.00540237E-04
  -10.9399996       1.18126183E-04
  -10.9300003       1.25721082E-04
  -10.9200001       1.22962781E-04
  -10.9099998       1.10914902E-04
  -10.8999996       9.18095902E-05
  -10.8900003       6.85751584E-05
  -10.8800001       4.42610326E-05
  -10.8699999       2.14936681E-05
  -10.8599997       2.08407232E-06
  -10.8500004      -1.31362485E-05
  -10.8400002      -2.42361712E-05
  -10.8299999      -3.19110841E-05
  -10.8199997      -3.71096939E-05
  -10.8100004      -4.06750951E-05
  -10.8000002      -4.30988548E-05
  -10.7900000      -4.44448160E-05
  -10.7799997      -4.44432844E-05
  -10.7700005      -4.27035266E-05
  -10.7600002      -3.89587585E-05
  -10.7500000      -3.32530763E-05
  -10.7399998      -2.60043471E-05
  -10.7299995      -1.79225626E-05
  -10.7200003      -9.81459470E-06
  -10.7100000      -2.34677464E-06
  -10.6999998       4.14687156E-06
  -10.6899996       9.73649094E-06
  -10.6800003       1.48135905E-05
  -10.6700001       1.98718371E-05
  -10.6599998       2.52195714E-05
  -10.6499996       3.07222108E-05
  -10.6400003       3.56723358E-05
  -10.6300001       3.88530389E-05
  -10.6199999       3.88040535E-05
  -10.6099997       3.42368730E-05
  -10.6000004       2.44924722E-05
  -10.5900002       9.91095294E-06
  -10.5799999      -8.00603902E-06
  -10.5699997      -2.67124778E-05
  -10.5600004      -4.30170548E-05
  -10.5500002      -5.36914486E-05
  -10.5400000      -5.61556189E-05
  -10.5299997      -4.90803795E-05
  -10.5200005      -3.27601483E-05
  -10.5100002      -9.15890996E-06
  -10.5000000       1.83923530E-05
  -10.4899998       4.57871356E-05
  -10.4799995       6.88972796E-05
  -10.4700003       8.43264861E-05
  -10.4600000       9.00037485E-05
  -10.4499998       8.54970858E-05
  -10.4399996       7.19946402E-05
  -10.4300003       5.19758505E-05
  -10.4200001       2.86616360E-05
  -10.4099998       5.37457618E-06
  -10.3999996      -1.50510896E-05
  -10.3900003      -3.06931361E-05
  -10.3800001      -4.07298467E-05
  -10.3699999      -4.53830362E-05
  -10.3599997      -4.56596390E-05
  -10.3500004      -4.29742613E-05
  -10.3400002      -3.87497166E-05
  -10.3299999      -3.40839397E-05
  -10.3199997      -2.95441841E-05
  -10.3100004      -2.51131387E-05
  -10.3000002      -2.02760712E-05
  -10.2900000      -1.42114841E-05
  -10.2799997      -6.03425769E-06
  -10.2700005       4.95994027E-06
  -10.2600002       1.90909741E-05
  -10.2500000       3.61595339E-05
  -10.2399998       5.53960526E-05
  -10.2299995       7.54974826E-05
  -10.2200003       9.47486187E-05
  -10.2100000       1.11218600E-04
  -10.1999998       1.23015590E-04
  -10.1899996       1.28572574E-04
  -10.1800003       1.26925035E-04
  -10.1700001       1.17931624E-04
  -10.1599998       1.02385311E-04
  -10.1499996       8.19718189E-05
  -10.1400003       5.90552154E-05
  -10.1300001       3.63059116E-05
  -10.1199999       1.62267024E-05
  -10.1099997       6.67922791E-07
  -10.1000004      -9.55894393E-06
  -10.0900002      -1.48669951E-05
  -10.0799999      -1.68119495E-05
  -10.0699997      -1.77337733E-05
  -10.0600004      -2.01815528E-05
  -10.0500002      -2.62424401E-05
  -10.0400000      -3.69317131E-05
  -10.0299997      -5.17999761E-05
  -10.0200005      -6.88717118E-05
  -10.0100002      -8.49546486E-05
  -10.0000000      -9.62696577E-05
  -9.98999977      -9.92680434E-05
  -9.97999954      -9.14510165E-05
  -9.97000027      -7.19981836E-05
  -9.96000004      -4.20533106E-05
  -9.94999981      -4.59554485E-06
  -9.93999958       3.60770173E-05
  -9.93000031       7.51326879E-05
  -9.92000008       1.08081120E-04
  -9.90999985       1.31544002E-04
  -9.89999962       1.43761950E-04
  -9.89000034       1.44750127E-04
  -9.88000011       1.36104194E-04
  -9.86999989       1.20539538E-04
  -9.85999966       1.01298036E-04
  -9.85000038       8.15680905E-05
  -9.84000015       6.40340440E-05
  -9.82999992       5.06146389E-05
  -9.81999969       4.23863130E-05
  -9.81000042       3.96367177E-05
  -9.80000019       4.19719145E-05
  -9.78999996       4.84117008E-05
  -9.77999973       5.74441437E-05
  -9.77000046       6.70564987E-05
  -9.76000023       7.47964223E-05
  -9.75000000       7.79284528E-05
  -9.73999977       7.37301089E-05
  -9.72999954       5.99237901E-05
  -9.72000027       3.51809322E-05
  -9.71000004      -4.15590847E-07
  -9.69999981      -4.50864281E-05
  -9.68999958      -9.53650015E-05
  -9.68000031      -1.46458668E-04
  -9.67000008      -1.92934021E-04
  -9.65999985      -2.29609403E-04
  -9.64999962      -2.52470956E-04
  -9.64000034      -2.59406050E-04
  -9.63000011      -2.50578159E-04
  -9.61999989      -2.28346180E-04
  -9.60999966      -1.96739624E-04
  -9.60000038      -1.60609765E-04
  -9.59000015      -1.24657643E-04
  -9.57999992      -9.25691929E-05
  -9.56999969      -6.64575346E-05
  -9.56000042      -4.67294885E-05
  -9.55000019      -3.23804015E-05
  -9.53999996      -2.16080371E-05
  -9.52999973      -1.25543129E-05
  -9.52000046      -3.95511688E-06
  -9.51000023       4.48801620E-06
  -9.50000000       1.21154953E-05
  -9.48999977       1.76833601E-05
  -9.47999954       1.99795177E-05
  -9.47000027       1.84835972E-05
  -9.46000004       1.38533978E-05
  -9.44999981       8.06617209E-06
  -9.43999958       4.14028955E-06
  -9.43000031       5.48516709E-06
  -9.42000008       1.50404931E-05
  -9.40999985       3.44366599E-05
  -9.39999962       6.34155804E-05
  -9.39000034       9.96896779E-05
  -9.38000011       1.39303171E-04
  -9.36999989       1.77422888E-04
  -9.35999966       2.09366364E-04
  -9.35000038       2.31604674E-04
  -9.34000015       2.42480019E-04
  -9.32999992       2.42452690E-04
  -9.31999969       2.33820232E-04
  -9.31000042       2.19995694E-04
  -9.30000019       2.04552693E-04
  -9.28999996       1.90304403E-04
  -9.27999973       1.78667236E-04
  -9.27000046       1.69469713E-04
  -9.26000023       1.61232339E-04
  -9.25000000       1.51803630E-04
  -9.23999977       1.39136318E-04
  -9.22999954       1.21955542E-04
  -9.22000027       1.00117119E-04
  -9.21000004       7.45647776E-05
  -9.19999981       4.69321858E-05
  -9.18999958       1.89556813E-05
  -9.18000031      -8.07474589E-06
  -9.17000008      -3.36162266E-05
  -9.15999985      -5.78075160E-05
  -9.14999962      -8.10551282E-05
  -9.14000034      -1.03423190E-04
  -9.13000011      -1.24064391E-04
  -9.11999989      -1.40934339E-04
  -9.10999966      -1.50949898E-04
  -9.10000038      -1.50608670E-04
  -9.09000015      -1.36926072E-04
  -9.07999992      -1.08424261E-04
  -9.06999969      -6.58647186E-05
  -9.06000042      -1.24729722E-05
  -9.05000019       4.64553850E-05
  -9.03999996       1.04495346E-04
  -9.02999973       1.55341477E-04
  -9.02000046       1.94029883E-04
  -9.01000023       2.17803812E-04
  -9.00000000       2.26400982E-04
  -8.98999977       2.21714625E-04
  -8.97999954       2.06966986E-04
  -8.97000027       1.85671583E-04
  -8.96000004       1.60707539E-04
  -8.94999981       1.33771740E-04
  -8.93999958       1.05334220E-04
  -8.93000031       7.50497493E-05
  -8.92000008       4.24311838E-05
  -8.90999985       7.51690231E-06
  -8.89999962      -2.87130897E-05
  -8.89000034      -6.43116437E-05
  -8.88000011      -9.67200467E-05
  -8.86999989      -1.23358608E-04
  -8.85999966      -1.42229415E-04
  -8.85000038      -1.52317778E-04
  -8.84000015      -1.53667133E-04
  -8.82999992      -1.47132014E-04
  -8.81999969      -1.33937196E-04
  -8.81000042      -1.15239120E-04
  -8.80000019      -9.18732912E-05
  -8.78999996      -6.43846361E-05
  -8.77999973      -3.33112694E-05
  -8.77000046       4.22896989E-07
  -8.76000023       3.52094357E-05
  -8.75000000       6.87283027E-05
  -8.73999977       9.82684069E-05
  -8.72999954       1.21330442E-04
  -8.72000027       1.36319795E-04
  -8.71000004       1.43076308E-04
  -8.69999981       1.43019424E-04
  -8.68999958       1.38807634E-04
  -8.68000031       1.33578316E-04
  -8.67000008       1.29991677E-04
  -8.65999985       1.29389315E-04
  -8.64999962       1.31360284E-04
  -8.64000034       1.33884154E-04
  -8.63000011       1.34032307E-04
  -8.61999989       1.29017964E-04
  -8.60999966       1.17258212E-04
  -8.60000038       9.90946282E-05
  -8.59000015       7.69207691E-05
  -8.57999992       5.46537776E-05
  -8.56999969       3.66999557E-05
  -8.56000042       2.67297237E-05
  -8.55000019       2.66396473E-05
  -8.53999996       3.60179765E-05
  -8.52999973       5.22682531E-05
  -8.52000046       7.13362169E-05
  -8.51000023       8.88001232E-05
  -8.50000000       1.00984427E-04
  -8.48999977       1.05770210E-04
  -8.47999954       1.02894090E-04
  -8.47000027       9.37047589E-05
  -8.46000004       8.05195741E-05
  -8.44999981       6.58355348E-05
  -8.43999958       5.16651889E-05
  -8.43000031       3.91896574E-05
  -8.42000008       2.87848270E-05
  -8.40999985       2.03355885E-05
  -8.39999962       1.36584213E-05
  -8.39000034       8.83609300E-06
  -8.38000011       6.32895944E-06
  -8.36999989       6.83623330E-06
  -8.35999966       1.09915936E-05
  -8.35000038       1.90453247E-05
  -8.34000015       3.06847651E-05
  -8.32999992       4.50792868E-05
  -8.31999969       6.11342257E-05
  -8.31000042       7.78437752E-05
  -8.30000019       9.45853244E-05
  -8.28999996       1.11218120E-04
  -8.27999973       1.27929306E-04
  -8.27000046       1.44879188E-04
  -8.26000023       1.61791206E-04
  -8.25000000       1.77669383E-04
  -8.23999977       1.90790583E-04
  -8.22999954       1.99020884E-04
  -8.22000027       2.00381415E-04
  -8.21000004       1.93683096E-04
  -8.19999981       1.79007213E-04
  -8.18999958       1.57847593E-04
  -8.18000031       1.32839035E-04
  -8.17000008       1.07138367E-04
  -8.15999985       8.36475301E-05
  -8.14999962       6.43280946E-05
  -8.14000034       4.98288464E-05
  -8.13000011       3.95421848E-05
  -8.11999989       3.20564104E-05
  -8.10999966       2.58322816E-05
  -8.10000038       1.98551697E-05
  -8.09000015       1.40238189E-05
  -8.07999992       9.13270378E-06
  -8.06999969       6.45336968E-06
  -8.06000042       7.06831042E-06
  -8.05000019       1.12075550E-05
  -8.03999996       1.78473201E-05
  -8.02999973       2.47497483E-05
  -8.02000046       2.89776799E-05
  -8.01000023       2.77573636E-05
  -8.00000000       1.94402000E-05
  -7.98999977       4.26782390E-06
  -7.98000002      -1.53072288E-05
  -7.96999979      -3.48714129E-05
  -7.96000004      -4.88388068E-05
  -7.94999981      -5.15990287E-05
  -7.94000006      -3.87538785E-05
  -7.92999983      -8.15641852E-06
  -7.92000008       3.94742419E-05
  -7.90999985       1.00479825E-04
  -7.90000010       1.68724117E-04
  -7.88999987       2.36475229E-04
  -7.88000011       2.95533217E-04
  -7.86999989       3.38410784E-04
  -7.86000013       3.59397847E-04
  -7.84999990       3.55382799E-04
  -7.84000015       3.26348614E-04
  -7.82999992       2.75498081E-04
  -7.82000017       2.08989179E-04
  -7.80999994       1.35288559E-04
  -7.80000019       6.41836523E-05
  -7.78999996       5.53878863E-06
  -7.78000021      -3.20653489E-05
  -7.76999998      -4.26220577E-05
  -7.76000023      -2.37077475E-05
  -7.75000000       2.29861271E-05
  -7.73999977       9.17332582E-05
  -7.73000002       1.73498891E-04
  -7.71999979       2.57225620E-04
  -7.71000004       3.31478659E-04
  -7.69999981       3.86171567E-04
  -7.69000006       4.14070324E-04
  -7.67999983       4.11813875E-04
  -7.67000008       3.80281446E-04
  -7.65999985       3.24263121E-04
  -7.65000010       2.51520076E-04
  -7.63999987       1.71431602E-04
  -7.63000011       9.34896525E-05
  -7.61999989       2.59140779E-05
  -7.61000013      -2.53804246E-05
  -7.59999990      -5.73163852E-05
  -7.59000015      -6.96410207E-05
  -7.57999992      -6.44334214E-05
  -7.57000017      -4.52843306E-05
  -7.55999994      -1.63549721E-05
  -7.55000019       1.84722176E-05
  -7.53999996       5.61772686E-05
  -7.53000021       9.48228771E-05
  -7.51999998       1.33409892E-04
  -7.51000023       1.71462350E-04
  -7.50000000       2.08503858E-04
  -7.48999977       2.43609640E-04
  -7.48000002       2.75188941E-04
  -7.46999979       3.01078602E-04
  -7.46000004       3.18929902E-04
  -7.44999981       3.26776906E-04
  -7.44000006       3.23611719E-04