  -16.0000000       0.00000000    
  -15.9899998       0.00000000    
  -15.9799995       0.00000000    
  -15.9700003       0.00000000    
  -15.9600000       0.00000000    
  -15.9499998       0.00000000    
  -15.9399996       0.00000000    
  -15.9300003       0.00000000    
  -15.9200001       0.00000000    
  -15.9099998       0.00000000    
  -15.8999996       0.00000000    
  -15.8900003       0.00000000    
  -15.8800001       0.00000000    
  -15.8699999       0.00000000    
  -15.8599997       0.00000000    
  -15.8500004       0.00000000    
  -15.8400002       0.00000000    
  -15.8299999       0.00000000    
  -15.8199997       0.00000000    
  -15.8100004       0.00000000    
  -15.8000002       0.00000000    
  -15.7900000       0.00000000    
  -15.7799997       0.00000000    
  -15.7700005       0.00000000    
  -15.7600002       0.00000000    
  -15.7500000       0.00000000    
  -15.7399998       0.00000000    
  -15.7299995       0.00000000    
  -15.7200003       0.00000000    
  -15.7100000       0.00000000    
  -15.6999998       0.00000000    
  -15.6899996       0.00000000    
  -15.6800003       0.00000000    
  -15.6700001       0.00000000    
  -15.6599998       0.00000000    
  -15.6499996       0.00000000    
  -15.6400003       0.00000000    
  -15.6300001       0.00000000    
  -15.6199999       0.00000000    
  -15.6099997       0.00000000    
  -15.6000004       0.00000000    
  -15.5900002       0.00000000    
  -15.5799999       0.00000000    
  -15.5699997       0.00000000    
  -15.5600004       0.00000000    
  -15.5500002       0.00000000    
  -15.5400000       0.00000000    
  -15.5299997       0.00000000    
  -15.5200005       0.00000000    
  -15.5100002       0.00000000    
  -15.5000000       0.00000000    
  -15.4899998       0.00000000    
  -15.4799995       0.00000000    
  -15.4700003       0.00000000    
  -15.4600000       0.00000000    
  -15.4499998       0.00000000    
  -15.4399996       0.00000000    
  -15.4300003       0.00000000    
  -15.4200001       0.00000000    
  -15.4099998       0.00000000    
  -15.3999996       0.00000000    
  -15.3900003       0.00000000    
  -15.3800001       0.00000000    
  -15.3699999       0.00000000    
  -15.3599997       0.00000000    
  -15.3500004       0.00000000    
  -15.3400002       0.00000000    
  -15.3299999       0.00000000    
  -15.3199997       0.00000000    
  -15.3100004       0.00000000    
  -15.3000002       0.00000000    
  -15.2900000       0.00000000    
  -15.2799997       0.00000000    
  -15.2700005       0.00000000    
  -15.2600002       0.00000000    
  -15.2500000       0.00000000    
  -15.2399998       0.00000000    
  -15.2299995       0.00000000    
  -15.2200003       0.00000000    
  -15.2100000       0.00000000    
  -15.1999998       0.00000000    
  -15.1899996       0.00000000    
  -15.1800003       0.00000000    
  -15.1700001      -0.00000000    
  -15.1599998      -0.00000000    
  -15.1499996      -0.00000000    
  -15.1400003      -0.00000000    
  -15.1300001      -0.00000000    
  -15.1199999       0.00000000    
  -15.1099997       0.00000000    
  -15.1000004      -0.00000000    
  -15.0900002       0.00000000    
  -15.0799999      -0.00000000    
  -15.0699997      -0.00000000    
  -15.0600004      -0.00000000    
  -15.0500002      -0.00000000    
  -15.0400000      -0.00000000    
  -15.0299997       0.00000000    
  -15.0200005       1.40129846E-45
  -15.0100002       2.80259693E-45
  -15.0000000       4.20389539E-45
  -14.9899998       5.60519386E-45
  -14.9799995       5.60519386E-45
  -14.9700003       5.60519386E-45
  -14.9600000       1.40129846E-45
  -14.9499998      -0.00000000    
  -14.9399996      -1.40129846E-45
  -14.9300003      -2.80259693E-45
  -14.9200001      -9.80908925E-45
  -14.9099998      -7.00649232E-45
  -14.8999996       1.26116862E-44
  -14.8900003       3.50324616E-44
  -14.8800001       4.48415509E-44
  -14.8699999       5.32493416E-44
  -14.8599997       5.18480432E-44
  -14.8500004       3.22298647E-44
  -14.8400002      -2.38220739E-44
  -14.8299999      -1.12103877E-43
  -14.8199997      -2.03188277E-43
  -14.8100004      -2.71851902E-43
  -14.8000002      -2.83062290E-43
  -14.7900000      -1.77964905E-43
  -14.7799997       7.42688186E-44
  -14.7700005       4.62428493E-43
  -14.7600002       9.17850494E-43
  -14.7500000       1.30460887E-42
  -14.7399998       1.41531145E-42
  -14.7299995       1.02715177E-42
  -14.7200003      -1.54142831E-44
  -14.7100000      -1.72499841E-42
  -14.6999998      -3.83815649E-42
  -14.6899996      -5.77755357E-42
  -14.6800003      -6.69400276E-42
  -14.6700001      -5.63462113E-42
  -14.6599998      -1.82449060E-42
  -14.6499996       4.93677449E-42
  -14.6400003       1.38476314E-41
  -14.6300001       2.28537767E-41
  -14.6199999       2.86929874E-41
  -14.6099997       2.74724564E-41
  -14.6000004       1.56987467E-41
  -14.5900002      -8.24243757E-42
  -14.5799999      -4.24873694E-41
  -14.5699997      -8.05452344E-41
  -14.5600004      -1.11142586E-40
  -14.5500002      -1.19738151E-40
  -14.5400000      -9.18817390E-41
  -14.5299997      -1.82280904E-41
  -14.5200005       9.96981818E-41
  -14.5100002       2.44672317E-40
  -14.5000000       3.81895870E-40
  -14.4899998       4.62198680E-40
  -14.4799995       4.31420561E-40
  -14.4700003       2.45901256E-40
  -14.4600000      -1.08351200E-40
  -14.4499998      -5.97531882E-40
  -14.4399996      -1.12911866E-39
  -14.4300003      -1.55493683E-39
  -14.4200001      -1.69339352E-39
  -14.4099998      -1.37184317E-39
  -14.3999996      -4.84206073E-40
  -14.3900003       9.47693948E-40
  -14.3800001       2.72665076E-39
  -14.3699999       4.46675797E-39
  -14.3599997       5.63212822E-39
  -14.3500004       5.63635733E-39
  -14.3400002       3.99670921E-39
  -14.3299999       5.17921314E-40
  -14.3199997      -4.53773654E-39
  -14.3100004      -1.03492674E-38
  -14.3000002      -1.55599817E-38
  -14.2900000      -1.84635758E-38
  -14.2799997      -1.73584838E-38
  -14.2700005      -1.10291858E-38
  -14.2600002       7.37485165E-40
  -14.2500000       1.67345949E-38
  -14.2399998       3.41663106E-38
  -14.2299995       4.88588269E-38
  -14.2200003       5.59188208E-38
  -14.2100000       5.08061161E-38
  -14.1999998       3.06627141E-38
  -14.1899996      -4.37818749E-39
  -14.1800003      -5.02591725E-38
  -14.1700001      -9.88045346E-38
  -14.1599998      -1.38539888E-37
  -14.1499996      -1.56612962E-37
  -14.1400003      -1.41640491E-37
  -14.1300001      -8.70157077E-38
  -14.1199999       6.03729405E-39
  -14.1099997       1.26506109E-37
  -14.1000004       2.53520071E-37
  -14.0900002       3.58692857E-37
  -14.0799999       4.10932411E-37
  -14.0699997       3.83175357E-37
  -14.0600004       2.59895642E-37
  -14.0500002       4.37648239E-38
  -14.0400000      -2.40335197E-37
  -14.0299997      -5.45529797E-37
  -14.0200005      -8.08332360E-37
  -14.0100002      -9.59099609E-37
  -14.0000000      -9.36266471E-37
  -13.9899998      -7.01903092E-37
  -13.9799995      -2.55321333E-37
  -13.9700003       3.58743640E-37
  -13.9600000       1.05029746E-36
  -13.9499998       1.69418321E-36
  -13.9399996       2.14974933E-36
  -13.9300003       2.28754024E-36
  -13.9200001       2.01846134E-36
  -13.9099998       1.31958398E-36
  -13.8999996       2.50548982E-37
  -13.8900003      -1.04434725E-36
  -13.8800001      -2.35095552E-36
  -13.8699999      -3.41630090E-36
  -13.8599997      -3.99165423E-36
  -13.8500004      -3.88042674E-36
  -13.8400002      -2.98185318E-36
  -13.8299999      -1.32130365E-36
  -13.8199997       9.40055313E-37
  -13.8100004       3.52001188E-36
  -13.8000002       6.05356201E-36
  -13.7900000       8.14902203E-36
  -13.7799997       9.45244825E-36
  -13.7700005       9.70879915E-36
  -13.7600002       8.80858528E-36
  -13.7500000       6.81147965E-36
  -13.7399998       3.94292474E-36
  -13.7299995       5.65273352E-37
  -13.7200003      -2.87005100E-36
  -13.7100000      -5.87948568E-36
  -13.6999998      -8.00257455E-36
  -13.6899996      -8.84665469E-36
  -13.6800003      -8.11619156E-36
  -13.6700001      -5.62721249E-36
  -13.6599998      -1.31206602E-36
  -13.6499996       4.77751569E-36
  -13.6400003       1.24613436E-35
  -13.6300001       2.14118578E-35
  -13.6199999       3.11279198E-35
  -13.6099997       4.09114250E-35
  -13.6000004       4.98633511E-35
  -13.5900002       5.69183089E-35
  -13.5799999       6.09341546E-35
  -13.5699997       6.08441214E-35
  -13.5600004       5.58647090E-35
  -13.5500002       4.57354259E-35
  -13.5400000       3.09502841E-35
  -13.5299997       1.29293545E-35
  -13.5200005      -5.92305122E-36
  -13.5100002      -2.23186156E-35
  -13.5000000      -3.23673517E-35
  -13.4899998      -3.20358744E-35
  -13.4799995      -1.77404195E-35
  -13.4700003       1.29997320E-35
  -13.4600000       6.09481021E-35
  -13.4499998       1.24685788E-34
  -13.4399996       2.00397680E-34
  -13.4300003       2.81986149E-34
  -13.4200001       3.61546292E-34
  -13.4099998       4.30185106E-34
  -13.3999996       4.79112855E-34
  -13.3900003       5.00888612E-34
  -13.3800001       4.90668561E-34
  -13.3699999       4.47293922E-34
  -13.3599997       3.74061795E-34
  -13.3500004       2.79050030E-34
  -13.3400002       1.74911941E-34
  -13.3299999       7.81070251E-35
  -13.3199997       7.59156909E-36
  -13.3100004      -1.69531741E-35
  -13.3000002       2.27743363E-35
  -13.2900000       1.41427261E-34
  -13.2799997       3.47787269E-34
  -13.2700005       6.42819775E-34
  -13.2600002       1.01825867E-33
  -13.2500000       1.45596436E-33
  -13.2399998       1.92828424E-33
  -13.2299995       2.39957574E-33
  -13.2200003       2.82896987E-33
  -13.2100000       3.17431780E-33
  -13.1999998       3.39709161E-33
  -13.1899996       3.46785123E-33
  -13.1800003       3.37169873E-33
  -13.1700001       3.11301981E-33
  -13.1599998       2.71874688E-33
  -13.1499996       2.23943796E-33
  -13.1400003       1.74758798E-33
  -13.1300001       1.33290471E-33
  -13.1199999       1.09462172E-33
  -13.1099997       1.13136923E-33
  -13.1000004       1.52952873E-33
  -13.0900002       2.35135347E-33
  -13.0799999       3.62435067E-33
  -13.0699997       5.33344562E-33
  -13.0600004       7.41727017E-33
  -13.0500002       9.76951959E-33
  -13.0400000       1.22457800E-32
  -13.0299997       1.46755694E-32
  -13.0200005       1.68786501E-32
  -13.0100002       1.86841359E-32
  -13.0000000       1.99504563E-32
  -12.9899998       2.05840301E-32
  -12.9799995       2.05546075E-32
  -12.9700003       1.99054466E-32
  -12.9600000       1.87570886E-32
  -12.9499998       1.73039410E-32
  -12.9399996       1.58037722E-32
  -12.9300003       1.45606884E-32
  -12.9200001       1.39028068E-32
  -12.9099998       1.41563301E-32
  -12.8999996       1.56179853E-32
  -12.8900003       1.85279847E-32
  -12.8800001       2.30457152E-32
  -12.8699999       2.92302481E-32
  -12.8599997       3.70276283E-32
  -12.8500004       4.62664203E-32
  -12.8400002       5.66626657E-32
  -12.8299999       6.78346933E-32
  -12.8199997       7.93274252E-32
  -12.8100004       9.06449496E-32
  -12.8000002       1.01289245E-31
  -12.7900000       1.10802062E-31
  -12.7799997       1.18806191E-31
  -12.7700005       1.25042353E-31
  -12.7600002       1.29397830E-31
  -12.7500000       1.31923580E-31
  -12.7399998       1.32838338E-31
  -12.7299995       1.32519168E-31
  -12.7200003       1.31480677E-31
  -12.7100000       1.30345972E-31
  -12.6999998       1.29815131E-31
  -12.6899996       1.30636813E-31
  -12.6800003       1.33589326E-31
  -12.6700001       1.39475825E-31
  -12.6599998       1.49136179E-31
  -12.6499996       1.63474765E-31
  -12.6400003       1.83499405E-31
  -12.6300001       2.10362472E-31
  -12.6199999       2.45390441E-31
  -12.6099997       2.90086333E-31
  -12.6000004       3.46085426E-31
  -12.5900002       4.15045708E-31
  -12.5799999       4.98458035E-31
  -12.5699997       5.97358017E-31
  -12.5600004       7.11941304E-31
  -12.5500002       8.41075988E-31
  -12.5400000       9.81730282E-31
  -12.5299997       1.12833634E-30
  -12.5200005       1.27213212E-30
  -12.5100002       1.40052112E-30
  -12.5000000       1.49652167E-30
  -12.4899998       1.53836551E-30
  -12.4799995       1.49932781E-30
  -12.4700003       1.34786376E-30
  -12.4600000       1.04812437E-30
  -12.4499998       5.60908712E-31
  -12.4399996      -1.54881960E-31
  -12.4300003      -1.14028905E-30
  -12.4200001      -2.43385071E-30
  -12.4099998      -4.06868725E-30
  -12.3999996      -6.06923118E-30
  -12.3900003      -8.44770877E-30
  -12.3800001      -1.12005337E-29
  -12.3699999      -1.43047770E-29
  -12.3599997      -1.77148992E-29
  -12.3500004      -2.13598766E-29
  -12.3400002      -2.51407720E-29
  -12.3299999      -2.89287437E-29
  -12.3199997      -3.25631932E-29
  -12.3100004      -3.58496241E-29
  -12.3000002      -3.85561575E-29
  -12.2900000      -4.04078218E-29
  -12.2799997      -4.10758156E-29
  -12.2700005      -4.01601984E-29
  -12.2600002      -3.71610861E-29
  -12.2500000      -3.14352633E-29
  -12.2399998      -2.21293834E-29
  -12.2299995      -8.08751398E-30
  -12.2200003       1.22852491E-29
  -12.2100000       4.12020121E-29
  -12.1999998       8.17434724E-29
  -12.1899996       1.38181561E-28
  -12.1800003       2.16407263E-28
  -12.1700001       3.24473984E-28
  -12.1599998       4.73285295E-28
  -12.1499996       6.77470510E-28
  -12.1400003       9.56456099E-28
  -12.1300001       1.33578139E-27
  -12.1199999       1.84871094E-27
  -12.1099997       2.53818384E-27
  -12.1000004       3.45910885E-27
  -12.0900002       4.68115723E-27
  -12.0799999       6.29202006E-27
  -12.0699997       8.40117528E-27
  -12.0600004       1.11444252E-26
  -12.0500002       1.46889444E-26
  -12.0400000       1.92393268E-26
  -12.0299997       2.50442661E-26
  -12.0200005       3.24043260E-26
  -12.0100002       4.16807632E-26
  -12.0000000       5.33053035E-26
  -11.9899998       6.77911748E-26
  -11.9799995       8.57455997E-26
  -11.9700003       1.07883422E-25
  -11.9600000       1.35042350E-25
  -11.9499998       1.68199653E-25
  -11.9399996       2.08490095E-25
  -11.9300003       2.57226834E-25
  -11.9200001       3.15922177E-25
  -11.9099998       3.86311792E-25
  -11.8999996       4.70379515E-25
  -11.8900003       5.70384546E-25
  -11.8800001       6.88890732E-25
  -11.8699999       8.28797482E-25
  -11.8599997       9.93371024E-25
  -11.8500004       1.18628163E-24
  -11.8400002       1.41163612E-24
  -11.8299999       1.67401727E-24
  -11.8199997       1.97852192E-24
  -11.8100004       2.33080353E-24
  -11.8000002       2.73710812E-24
  -11.7900000       3.20432401E-24
  -11.7799997       3.74001440E-24
  -11.7700005       4.35246944E-24
  -11.7600002       5.05074348E-24
  -11.7500000       5.84469806E-24
  -11.7399998       6.74504631E-24
  -11.7299995       7.76338448E-24
  -11.7200003       8.91223970E-24
  -11.7100000       1.02050975E-23
  -11.6999998       1.16564367E-23
  -11.6899996       1.32817671E-23
  -11.6800003       1.50976286E-23
  -11.6700001       1.71216327E-23
  -11.6599998       1.93724785E-23
  -11.6499996       2.18699427E-23
  -11.6400003       2.46348781E-23
  -11.6300001       2.76892355E-23
  -11.6199999       3.10560055E-23
  -11.6099997       3.47591994E-23
  -11.6000004       3.88238399E-23
  -11.5900002       4.32758869E-23
  -11.5799999       4.81421332E-23
  -11.5699997       5.34502551E-23
  -11.5600004       5.92285603E-23
  -11.5500002       6.55059935E-23
  -11.5400000       7.23119888E-23
  -11.5299997       7.96763083E-23
  -11.5200005       8.76289034E-23
  -11.5100002       9.61997067E-23
  -11.5000000       1.05418562E-22
  -11.4899998       1.15314841E-22
  -11.4799995       1.25917309E-22
  -11.4700003       1.37253896E-22
  -11.4600000       1.49351312E-22
  -11.4499998       1.62234925E-22
  -11.4399996       1.75928313E-22
  -11.4300003       1.90452934E-22
  -11.4200001       2.05827896E-22
  -11.4099998       2.22069495E-22
  -11.3999996       2.39190856E-22
  -11.3900003       2.57201345E-22
  -11.3800001       2.76106542E-22
  -11.3699999       2.95907506E-22
  -11.3599997       3.16600249E-22
  -11.3500004       3.38175658E-22
  -11.3400002       3.60618637E-22
  -11.3299999       3.83907553E-22
  -11.3199997       4.08014511E-22
  -11.3100004       4.32903792E-22
  -11.3000002       4.58531800E-22
  -11.2900000       4.84847190E-22
  -11.2799997       5.11789327E-22
  -11.2700005       5.39288387E-22
  -11.2600002       5.67265055E-22
  -11.2500000       5.95629262E-22
  -11.2399998       6.24280842E-22
  -11.2299995       6.53108016E-22
  -11.2200003       6.81988049E-22
  -11.2100000       7.10786092E-22
  -11.1999998       7.39354974E-22
  -11.1899996       7.67535307E-22
  -11.1800003       7.95155182E-22
  -11.1700001       8.22029111E-22
  -11.1599998       8.47959184E-22
  -11.1499996       8.72733909E-22
  -11.1400003       8.96129126E-22
  -11.1300001       9.17906937E-22
  -11.1199999       9.37816625E-22
  -11.1099997       9.55594647E-22
  -11.1000004       9.70964737E-22
  -11.0900002       9.83638412E-22
  -11.0799999       9.93315376E-22
  -11.0699997       9.99683313E-22
  -11.0600004       1.00242012E-21
  -11.0500002       1.00119268E-21
  -11.0400000       9.95658684E-22
  -11.0299997       9.85467762E-22
  -11.0200005       9.70261250E-22
  -11.0100002       9.49674429E-22
  -11.0000000       9.23337128E-22
  -10.9899998       8.90874731E-22
  -10.9799995       8.51909900E-22
  -10.9700003       8.06063728E-22
  -10.9600000       7.52957106E-22
  -10.9499998       6.92212595E-22
  -10.9399996       6.23455580E-22
  -10.9300003       5.46316292E-22
  -10.9200001       4.60430974E-22
  -10.9099998       3.65444472E-22
  -10.8999996       2.61011026E-22
  -10.8900003       1.46796488E-22
  -10.8800001       2.24800793E-23
  -10.8699999      -1.12243964E-22
  -10.8599997      -2.57664918E-22
  -10.8500004      -4.14053854E-22
  -10.8400002      -5.81662007E-22
  -10.8299999      -7.60718741E-22
  -10.8199997      -9.51432693E-22
  -10.8100004      -1.15398723E-21
  -10.8000002      -1.36854195E-21
  -10.7900000      -1.59523175E-21
  -10.7799997      -1.83416456E-21
  -10.7700005      -2.08542411E-21
  -10.7600002      -2.34906753E-21
  -10.7500000      -2.62512694E-21
  -10.7399998      -2.91361103E-21
  -10.7299995      -3.21450444E-21
  -10.7200003      -3.52777224E-21
  -10.7100000      -3.85336070E-21
  -10.6999998      -4.19120017E-21
  -10.6899996      -4.54120945E-21
  -10.6800003      -4.90329968E-21
  -10.6700001      -5.27738040E-21
  -10.6599998      -5.66336194E-21
  -10.6499996      -6.06116877E-21
  -10.6400003      -6.47073828E-21
  -10.6300001      -6.89203817E-21
  -10.6199999      -7.32507045E-21
  -10.6099997      -7.76988198E-21
  -10.6000004      -8.22658261E-21
  -10.5900002      -8.69534603E-21
  -10.5799999      -9.17643799E-21
  -10.5699997      -9.67022604E-21
  -10.5600004      -1.01771900E-20
  -10.5500002      -1.06979535E-20
  -10.5400000      -1.12332945E-20
  -10.5299997      -1.17841685E-20
  -10.5200005      -1.23517323E-20
  -10.5100002      -1.29373762E-20
  -10.5000000      -1.35427343E-20
  -10.4899998      -1.41697380E-20
  -10.4799995      -1.48206177E-20
  -10.4700003      -1.54979574E-20
  -10.4600000      -1.62047235E-20
  -10.4499998      -1.69442940E-20
  -10.4399996      -1.77205077E-20
  -10.4300003      -1.85376975E-20
  -10.4200001      -1.94007426E-20
  -10.4099998      -2.03151051E-20
  -10.3999996      -2.12868824E-20
  -10.3900003      -2.23228502E-20
  -10.3800001      -2.34305306E-20
  -10.3699999      -2.46182327E-20
  -10.3599997      -2.58951153E-20
  -10.3500004      -2.72712401E-20
  -10.3400002      -2.87576513E-20
  -10.3299999      -3.03664368E-20
  -10.3199997      -3.21107604E-20
  -10.3100004      -3.40049685E-20
  -10.3000002      -3.60646676E-20
  -10.2900000      -3.83067665E-20
  -10.2799997      -4.07495665E-20
  -10.2700005      -4.34128587E-20
  -10.2600002      -4.63179590E-20
  -10.2500000      -4.94878605E-20
  -10.2399998      -5.29472300E-20
  -10.2299995      -5.67225986E-20
  -10.2200003      -6.08423329E-20
  -10.2100000      -6.53368317E-20
  -10.1999998      -7.02385554E-20
  -10.1899996      -7.55821551E-20
  -10.1800003      -8.14045178E-20
  -10.1700001      -8.77449348E-20
  -10.1599998      -9.46450686E-20
  -10.1499996      -1.02149277E-19
  -10.1400003      -1.10304431E-19
  -10.1300001      -1.19160240E-19
  -10.1199999      -1.28769287E-19
  -10.1099997      -1.39186967E-19
  -10.1000004      -1.50471869E-19
  -10.0900002      -1.62685657E-19
  -10.0799999      -1.75893211E-19
  -10.0699997      -1.90162761E-19
  -10.0600004      -2.05566002E-19
  -10.0500002      -2.22178076E-19
  -10.0400000      -2.40077722E-19
  -10.0299997      -2.59347463E-19
  -10.0200005      -2.80073429E-19
  -10.0100002      -3.02345758E-19
  -10.0000000      -3.26258361E-19
  -9.98999977      -3.51909128E-19
  -9.97999954      -3.79400166E-19
  -9.97000027      -4.08837507E-19
  -9.96000004      -4.40331298E-19
  -9.94999981      -4.73996256E-19
  -9.93999958      -5.09950851E-19
  -9.93000031      -5.48318021E-19
  -9.92000008      -5.89225049E-19
  -9.90999985      -6.32803457E-19
  -9.89999962      -6.79189005E-19
  -9.89000034      -7.28521902E-19
  -9.88000011      -7.80946593E-19
  -9.86999989      -8.36611454E-19
  -9.85999966      -8.95669513E-19
  -9.85000038      -9.58277676E-19
  -9.84000015      -1.02459699E-18
  -9.82999992      -1.09479246E-18
  -9.81999969      -1.16903316E-18
  -9.81000042      -1.24749155E-18
  -9.80000019      -1.33034414E-18
  -9.78999996      -1.41777113E-18
  -9.77999973      -1.50995472E-18
  -9.77000046      -1.60708206E-18
  -9.76000023      -1.70934237E-18
  -9.75000000      -1.81692765E-18
  -9.73999977      -1.93003199E-18
  -9.72999954      -2.04885255E-18
  -9.72000027      -2.17358808E-18
  -9.71000004      -2.30443833E-18
  -9.69999981      -2.44160576E-18
  -9.68999958      -2.58529138E-18
  -9.68000031      -2.73569908E-18
  -9.67000008      -2.89303255E-18
  -9.65999985      -3.05749384E-18
  -9.64999962      -3.22928602E-18
  -9.64000034      -3.40860927E-18
  -9.63000011      -3.59566189E-18
  -9.61999989      -3.79064201E-18
  -9.60999966      -3.99374339E-18
  -9.60000038      -4.20515545E-18
  -9.59000015      -4.42506514E-18
  -9.57999992      -4.65365361E-18
  -9.56999969      -4.89109704E-18
  -9.56000042      -5.13756419E-18
  -9.55000019      -5.39321883E-18
  -9.53999996      -5.65821648E-18
  -9.52999973      -5.93270107E-18
  -9.52000046      -6.21681238E-18
  -9.51000023      -6.51067615E-18
  -9.50000000      -6.81440570E-18
  -9.48999977      -7.12810733E-18
  -9.47999954      -7.45186500E-18
  -9.47000027      -7.78575893E-18
  -9.46000004      -8.12984952E-18
  -9.44999981      -8.48417813E-18
  -9.43999958      -8.84876957E-18
  -9.43000031      -9.22363707E-18
  -9.42000008      -9.60876243E-18
  -9.40999985      -1.00041134E-17
  -9.39999962      -1.04096337E-17
  -9.39000034      -1.08252473E-17
  -9.38000011      -1.12508466E-17
  -9.36999989      -1.16863026E-17
  -9.35999966      -1.21314549E-17
  -9.35000038      -1.25861163E-17
  -9.34000015      -1.30500687E-17
  -9.32999992      -1.35230630E-17
  -9.31999969      -1.40048163E-17
  -9.31000042      -1.44950151E-17
  -9.30000019      -1.49932988E-17
  -9.28999996      -1.54992769E-17
  -9.27999973      -1.60125143E-17
  -9.27000046      -1.65325479E-17
  -9.26000023      -1.70588548E-17
  -9.25000000      -1.75908792E-17
  -9.23999977      -1.81280188E-17
  -9.22999954      -1.86696137E-17
  -9.22000027      -1.92149672E-17
  -9.21000004      -1.97633317E-17
  -9.19999981      -2.03138965E-17
  -9.18999958      -2.08658080E-17
  -9.18000031      -2.14181545E-17
  -9.17000008      -2.19699684E-17
  -9.15999985      -2.25202172E-17
  -9.14999962      -2.30678157E-17
  -9.14000034      -2.36116175E-17
  -9.13000011      -2.41504082E-17
  -9.11999989      -2.46829090E-17
  -9.10999966      -2.52077832E-17
  -9.10000038      -2.57236147E-17
  -9.09000015      -2.62289360E-17
  -9.07999992      -2.67221921E-17
  -9.06999969      -2.72017617E-17
  -9.06000042      -2.76659473E-17
  -9.05000019      -2.81130004E-17
  -9.03999996      -2.85410663E-17
  -9.02999973      -2.89482377E-17
  -9.02000046      -2.93325160E-17
  -9.01000023      -2.96918334E-17
  -9.00000000      -3.00240423E-17
  -8.98999977      -3.03269129E-17
  -8.97999954      -3.05981322E-17
  -8.97000027      -3.08353179E-17
  -8.96000004      -3.10359919E-17
  -8.94999981      -3.11976131E-17
  -8.93999958      -3.13175444E-17
  -8.93000031      -3.13930693E-17
  -8.92000008      -3.14213986E-17
  -8.90999985      -3.13996536E-17
  -8.89999962      -3.13248798E-17
  -8.89000034      -3.11940231E-17
  -8.88000011      -3.10039801E-17
  -8.86999989      -3.07515444E-17
  -8.85999966      -3.04334339E-17
  -8.85000038      -3.00463100E-17
  -8.84000015      -2.95867252E-17
  -8.82999992      -2.90511754E-17
  -8.81999969      -2.84360839E-17
  -8.81000042      -2.77377929E-17
  -8.80000019      -2.69525900E-17
  -8.78999996      -2.60766802E-17
  -8.77999973      -2.51062038E-17
  -8.77000046      -2.40372482E-17
  -8.76000023      -2.28658380E-17
  -8.75000000      -2.15879317E-17
  -8.73999977      -2.01994478E-17
  -8.72999954      -1.86962373E-17
  -8.72000027      -1.70741179E-17
  -8.71000004      -1.53288595E-17
  -8.69999981      -1.34561945E-17
  -8.68999958      -1.14518209E-17
  -8.68000031      -9.31140672E-18
  -8.67000008      -7.03059349E-18
  -8.65999985      -4.60500422E-18
  -8.64999962      -2.03025153E-18
  -8.64000034       6.98068679E-19
  -8.63000011       3.58435433E-18
  -8.61999989       6.63300003E-18
  -8.60999966       9.84840245E-18
  -8.60000038       1.32349212E-17
  -8.59000015       1.67969115E-17
  -8.57999992       2.05386779E-17
  -8.56999969       2.44645002E-17
  -8.56000042       2.85786005E-17
  -8.55000019       3.28851542E-17
  -8.53999996       3.73882626E-17
  -8.52999973       4.20919689E-17
  -8.52000046       4.70002039E-17
  -8.51000023       5.21168354E-17
  -8.50000000       5.74456157E-17
  -8.48999977       6.29902007E-17
  -8.47999954       6.87541077E-17
  -8.47000027       7.47407182E-17
  -8.46000004       8.09532813E-17
  -8.44999981       8.73948941E-17
  -8.43999958       9.40684616E-17
  -8.43000031       1.00976723E-16
  -8.42000008       1.08122300E-16
  -8.40999985       1.15507448E-16
  -8.39999962       1.23134357E-16
  -8.39000034       1.31004935E-16
  -8.38000011       1.39120860E-16
  -8.36999989       1.47483511E-16
  -8.35999966       1.56094037E-16
  -8.35000038       1.64953300E-16
  -8.34000015       1.74061883E-16
  -8.32999992       1.83420061E-16
  -8.31999969       1.93027744E-16
  -8.31000042       2.02884508E-16
  -8.30000019       2.12989584E-16
  -8.28999996       2.23341915E-16
  -8.27999973       2.33939833E-16
  -8.27000046       2.44781616E-16
  -8.26000023       2.55864804E-16
  -8.25000000       2.67186723E-16
  -8.23999977       2.78744117E-16
  -8.22999954       2.90533333E-16
  -8.22000027       3.02550243E-16
  -8.21000004       3.14790266E-16
  -8.19999981       3.27248082E-16
  -8.18999958       3.39918239E-16
  -8.18000031       3.52794437E-16
  -8.17000008       3.65869926E-16
  -8.15999985       3.79137373E-16
  -8.14999962       3.92588918E-16
  -8.14000034       4.06215958E-16
  -8.13000011       4.20009440E-16
  -8.11999989       4.33959516E-16
  -8.10999966       4.48055812E-16
  -8.10000038       4.62287289E-16
  -8.09000015       4.76642221E-16
  -8.07999992       4.91108115E-16
  -8.06999969       5.05671893E-16
  -8.06000042       5.20319634E-16
  -8.05000019       5.35036779E-16
  -8.03999996       5.49808027E-16
  -8.02999973       5.64617181E-16
  -8.02000046       5.79447510E-16
  -8.01000023       5.94281280E-16
  -8.00000000       6.09100175E-16
  -7.98999977       6.23884870E-16
  -7.98000002       6.38615408E-16
  -7.96999979       6.53270772E-16
  -7.96000004       6.67829416E-16
  -7.94999981       6.82268734E-16
  -7.94000006       6.96565432E-16
  -7.92999983       7.10695265E-16
  -7.92000008       7.24633086E-16
  -7.90999985       7.38353009E-16
  -7.90000010       7.51828191E-16
  -7.88999987       7.65030946E-16
  -7.88000011       7.77932741E-16
  -7.86999989       7.90504192E-16
  -7.86000013       8.02714701E-16
  -7.84999990       8.14533299E-16
  -7.84000015       8.25928063E-16
  -7.82999992       8.36865905E-16
  -7.82000017       8.47312945E-16
  -7.80999994       8.57234665E-16
  -7.80000019       8.66595438E-16
  -7.78999996       8.75358735E-16
  -7.78000021       8.83487657E-16
  -7.76999998       8.90943982E-16
  -7.76000023       8.97688906E-16
  -7.75000000       9.03682617E-16
  -7.73999977       9.08884775E-16
  -7.73000002       9.13254089E-16
  -7.71999979       9.16748417E-16
  -7.71000004       9.19325092E-16
  -7.69999981       9.20940595E-16
  -7.69000006       9.21550883E-16
  -7.67999983       9.21110743E-16
  -7.67000008       9.19574755E-16
  -7.65999985       9.16896966E-16
  -7.65000010       9.13030472E-16
  -7.63999987       9.07927946E-16
  -7.63000011       9.01541317E-16
  -7.61999989       8.93822518E-16
  -7.61000013       8.84722419E-16
  -7.59999990       8.74191841E-16
  -7.59000015       8.62181073E-16
  -7.57999992       8.48640086E-16
  -7.57000017       8.33518272E-16
  -7.55999994       8.16765072E-16
  -7.55000019       7.98329982E-16
  -7.53999996       7.78161545E-16
  -7.53000021       7.56208675E-16
  -7.51999998       7.32420337E-16
  -7.51000023       7.06744915E-16
  -7.50000000       6.79131482E-16
  -7.48999977       6.49528740E-16
  -7.48000002       6.17885759E-16
  -7.46999979       5.84151719E-16
  -7.46000004       5.48276115E-16
  -7.44999981       5.10208813E-16
  -7.44000006       4.69900051E-16