  -16.0000000       0.00000000    
  -15.9899998       0.00000000    
  -15.9799995       0.00000000    
  -15.9700003       0.00000000    
  -15.9600000       0.00000000    
  -15.9499998       0.00000000    
  -15.9399996       0.00000000    
  -15.9300003       0.00000000    
  -15.9200001       0.00000000    
  -15.9099998       0.00000000    
  -15.8999996       0.00000000    
  -15.8900003       0.00000000    
  -15.8800001       0.00000000    
  -15.8699999       0.00000000    
  -15.8599997       0.00000000    
  -15.8500004       0.00000000    
  -15.8400002       0.00000000    
  -15.8299999       0.00000000    
  -15.8199997       0.00000000    
  -15.8100004       0.00000000    
  -15.8000002       0.00000000    
  -15.7900000       0.00000000    
  -15.7799997       0.00000000    
  -15.7700005       0.00000000    
  -15.7600002       0.00000000    
  -15.7500000       0.00000000    
  -15.7399998       0.00000000    
  -15.7299995       0.00000000    
  -15.7200003       0.00000000    
  -15.7100000       0.00000000    
  -15.6999998       0.00000000    
  -15.6899996       0.00000000    
  -15.6800003       0.00000000    
  -15.6700001       0.00000000    
  -15.6599998       0.00000000    
  -15.6499996       0.00000000    
  -15.6400003       0.00000000    
  -15.6300001       0.00000000    
  -15.6199999       0.00000000    
  -15.6099997       0.00000000    
  -15.6000004       0.00000000    
  -15.5900002       0.00000000    
  -15.5799999       0.00000000    
  -15.5699997       0.00000000    
  -15.5600004       0.00000000    
  -15.5500002       0.00000000    
  -15.5400000       0.00000000    
  -15.5299997       0.00000000    
  -15.5200005       0.00000000    
  -15.5100002       0.00000000    
  -15.5000000       0.00000000    
  -15.4899998       0.00000000    
  -15.4799995       0.00000000    
  -15.4700003       0.00000000    
  -15.4600000       0.00000000    
  -15.4499998       0.00000000    
  -15.4399996       0.00000000    
  -15.4300003       0.00000000    
  -15.4200001       0.00000000    
  -15.4099998       0.00000000    
  -15.3999996       0.00000000    
  -15.3900003       0.00000000    
  -15.3800001       0.00000000    
  -15.3699999       0.00000000    
  -15.3599997       0.00000000    
  -15.3500004       0.00000000    
  -15.3400002       0.00000000    
  -15.3299999       0.00000000    
  -15.3199997       0.00000000    
  -15.3100004       0.00000000    
  -15.3000002       0.00000000    
  -15.2900000       0.00000000    
  -15.2799997       0.00000000    
  -15.2700005       0.00000000    
  -15.2600002       0.00000000    
  -15.2500000       0.00000000    
  -15.2399998       0.00000000    
  -15.2299995       0.00000000    
  -15.2200003       0.00000000    
  -15.2100000       0.00000000    
  -15.1999998       0.00000000    
  -15.1899996       0.00000000    
  -15.1800003       0.00000000    
  -15.1700001       0.00000000    
  -15.1599998       0.00000000    
  -15.1499996       0.00000000    
  -15.1400003       0.00000000    
  -15.1300001       0.00000000    
  -15.1199999       0.00000000    
  -15.1099997       0.00000000    
  -15.1000004       0.00000000    
  -15.0900002       0.00000000    
  -15.0799999       0.00000000    
  -15.0699997       0.00000000    
  -15.0600004       0.00000000    
  -15.0500002       0.00000000    
  -15.0400000       0.00000000    
  -15.0299997       0.00000000    
  -15.0200005       0.00000000    
  -15.0100002       0.00000000    
  -15.0000000       0.00000000    
  -14.9899998       0.00000000    
  -14.9799995       0.00000000    
  -14.9700003       0.00000000    
  -14.9600000       0.00000000    
  -14.9499998       0.00000000    
  -14.9399996       0.00000000    
  -14.9300003       0.00000000    
  -14.9200001       0.00000000    
  -14.9099998       0.00000000    
  -14.8999996       0.00000000    
  -14.8900003       0.00000000    
  -14.8800001       0.00000000    
  -14.8699999       0.00000000    
  -14.8599997       0.00000000    
  -14.8500004       0.00000000    
  -14.8400002       0.00000000    
  -14.8299999       0.00000000    
  -14.8199997       0.00000000    
  -14.8100004       0.00000000    
  -14.8000002       0.00000000    
  -14.7900000       0.00000000    
  -14.7799997       0.00000000    
  -14.7700005       0.00000000    
  -14.7600002       0.00000000    
  -14.7500000       0.00000000    
  -14.7399998       0.00000000    
  -14.7299995       0.00000000    
  -14.7200003       0.00000000    
  -14.7100000       0.00000000    
  -14.6999998       0.00000000    
  -14.6899996       0.00000000    
  -14.6800003       0.00000000    
  -14.6700001       0.00000000    
  -14.6599998       0.00000000    
  -14.6499996       0.00000000    
  -14.6400003       0.00000000    
  -14.6300001       0.00000000    
  -14.6199999       0.00000000    
  -14.6099997       0.00000000    
  -14.6000004       0.00000000    
  -14.5900002       0.00000000    
  -14.5799999       0.00000000    
  -14.5699997       0.00000000    
  -14.5600004       0.00000000    
  -14.5500002       0.00000000    
  -14.5400000       0.00000000    
  -14.5299997       0.00000000    
  -14.5200005       0.00000000    
  -14.5100002       0.00000000    
  -14.5000000       0.00000000    
  -14.4899998       0.00000000    
  -14.4799995       0.00000000    
  -14.4700003       0.00000000    
  -14.4600000       0.00000000    
  -14.4499998       0.00000000    
  -14.4399996       0.00000000    
  -14.4300003       0.00000000    
  -14.4200001       0.00000000    
  -14.4099998       0.00000000    
  -14.3999996       0.00000000    
  -14.3900003       0.00000000    
  -14.3800001      -0.00000000    
  -14.3699999      -0.00000000    
  -14.3599997      -0.00000000    
  -14.3500004      -0.00000000    
  -14.3400002      -0.00000000    
  -14.3299999      -0.00000000    
  -14.3199997      -0.00000000    
  -14.3100004      -0.00000000    
  -14.3000002      -0.00000000    
  -14.2900000       0.00000000    
  -14.2799997       0.00000000    
  -14.2700005      -0.00000000    
  -14.2600002       0.00000000    
  -14.2500000       0.00000000    
  -14.2399998       0.00000000    
  -14.2299995       1.40129846E-45
  -14.2200003       1.40129846E-45
  -14.2100000       1.40129846E-45
  -14.1999998       1.40129846E-45
  -14.1899996       0.00000000    
  -14.1800003      -1.40129846E-45
  -14.1700001      -1.40129846E-45
  -14.1599998      -4.20389539E-45
  -14.1499996      -4.20389539E-45
  -14.1400003      -4.20389539E-45
  -14.1300001      -7.00649232E-45
  -14.1199999      -7.00649232E-45
  -14.1099997      -8.40779079E-45
  -14.1000004      -9.80908925E-45
  -14.0900002      -1.12103877E-44
  -14.0799999      -1.12103877E-44
  -14.0699997      -9.80908925E-45
  -14.0600004      -9.80908925E-45
  -14.0500002      -1.12103877E-44
  -14.0400000      -1.12103877E-44
  -14.0299997      -1.26116862E-44
  -14.0200005      -1.54142831E-44
  -14.0100002      -2.38220739E-44
  -14.0000000      -3.78350585E-44
  -13.9899998      -4.90454463E-44
  -13.9799995      -5.46506401E-44
  -13.9700003      -5.60519386E-44
  -13.9600000      -4.90454463E-44
  -13.9499998      -4.76441478E-44
  -13.9399996      -5.04467447E-44
  -13.9300003      -6.02558340E-44
  -13.9200001      -6.58610278E-44
  -13.9099998      -7.28675201E-44
  -13.8999996      -7.98740125E-44
  -13.8900003      -8.68805048E-44
  -13.8800001      -1.05097385E-43
  -13.8699999      -1.21912966E-43
  -13.8599997      -1.33123354E-43
  -13.8500004      -1.52741533E-43
  -13.8400002      -1.76563607E-43
  -13.8299999      -2.01786979E-43
  -13.8199997      -2.31214247E-43
  -13.8100004      -2.67648007E-43
  -13.8000002      -3.16693453E-43
  -13.7900000      -3.69942795E-43
  -13.7799997      -4.30198629E-43
  -13.7700005      -5.04467447E-43
  -13.7600002      -5.87144057E-43
  -13.7500000      -6.83833651E-43
  -13.7399998      -7.98740125E-43
  -13.7299995      -9.31863479E-43
  -13.7200003      -1.08880891E-42
  -13.7100000      -1.27097771E-42
  -13.6999998      -1.48817897E-42
  -13.6899996      -1.74321529E-42
  -13.6800003      -2.03608667E-42
  -13.6700001      -2.36819440E-42
  -13.6599998      -2.75074889E-42
  -13.6499996      -3.18515141E-42
  -13.6400003      -3.68541496E-42
  -13.6300001      -4.25434214E-42
  -13.6199999      -4.89893943E-42
  -13.6099997      -5.62341074E-42
  -13.6000004      -6.43055865E-42
  -13.5900002      -7.33579746E-42
  -13.5799999      -8.33071937E-42
  -13.5699997      -9.42233087E-42
  -13.5600004      -1.06302502E-41
  -13.5500002      -1.19614837E-41
  -13.5400000      -1.34244393E-41
  -13.5299997      -1.50135117E-41
  -13.5200005      -1.67202933E-41
  -13.5100002      -1.85433826E-41
  -13.5000000      -2.04673654E-41
  -13.4899998      -2.24894391E-41
  -13.4799995      -2.45927880E-41
  -13.4700003      -2.67269656E-41
  -13.4600000      -2.88415250E-41
  -13.4499998      -3.08846182E-41
  -13.4399996      -3.28142061E-41
  -13.4300003      -3.45321981E-41
  -13.4200001      -3.59124770E-41
  -13.4099998      -3.68289262E-41
  -13.3999996      -3.71302054E-41
  -13.3900003      -3.66033172E-41
  -13.3800001      -3.50016330E-41
  -13.3699999      -3.20420907E-41
  -13.3599997      -2.73435369E-41
  -13.3500004      -2.04981939E-41
  -13.3400002      -1.10100020E-41
  -13.3299999       1.70117634E-42
  -13.3199997       1.82953528E-41
  -13.3100004       3.96034972E-41
  -13.3000002       6.65644797E-41
  -13.2900000       1.00251695E-40
  -13.2799997       1.41950133E-40
  -13.2700005       1.93125553E-40
  -13.2600002       2.55474927E-40
  -13.2500000       3.30950264E-40
  -13.2399998       4.21790838E-40
  -13.2299995       5.30551217E-40
  -13.2200003       6.60171325E-40
  -13.2100000       8.14005870E-40
  -13.1999998       9.95856576E-40
  -13.1899996       1.21008989E-39
  -13.1800003       1.46162576E-39
  -13.1700001       1.75603297E-39
  -13.1599998       2.09961173E-39
  -13.1499996       2.49949887E-39
  -13.1400003       2.96376587E-39
  -13.1300001       3.50144269E-39
  -13.1199999       4.12268314E-39
  -13.1099997       4.83890921E-39
  -13.1000004       5.66290073E-39
  -13.0900002       6.60896777E-39
  -13.0799999       7.69307532E-39
  -13.0699997       8.93301847E-39
  -13.0600004       1.03486985E-38
  -13.0500002       1.19622096E-38
  -13.0400000       1.37980927E-38
  -13.0299997       1.58836214E-38
  -13.0200005       1.82489992E-38
  -13.0100002       2.09276527E-38
  -13.0000000       2.39565341E-38
  -12.9899998       2.73764534E-38
  -12.9799995       3.12324288E-38
  -12.9700003       3.55740635E-38
  -12.9600000       4.04559659E-38
  -12.9499998       4.59380697E-38
  -12.9399996       5.20862303E-38
  -12.9300003       5.89726481E-38
  -12.9200001       6.66764042E-38
  -12.9099998       7.52840818E-38
  -12.8999996       8.48902518E-38
  -12.8900003       9.55981843E-38
  -12.8800001       1.07520443E-37
  -12.8699999       1.20779753E-37
  -12.8599997       1.35509575E-37
  -12.8500004       1.51855038E-37
  -12.8400002       1.69973827E-37
  -12.8299999       1.90036901E-37
  -12.8199997       2.12229477E-37
  -12.8100004       2.36752178E-37
  -12.8000002       2.63821924E-37
  -12.7900000       2.93673079E-37
  -12.7799997       3.26558549E-37
  -12.7700005       3.62751151E-37
  -12.7600002       4.02544396E-37
  -12.7500000       4.46254415E-37
  -12.7399998       4.94220704E-37
  -12.7299995       5.46808095E-37
  -12.7200003       6.04407919E-37
  -12.7100000       6.67439221E-37
  -12.6999998       7.36350819E-37
  -12.6899996       8.11622743E-37
  -12.6800003       8.93767622E-37
  -12.6700001       9.83332701E-37
  -12.6599998       1.08090101E-36
  -12.6499996       1.18709414E-36
  -12.6400003       1.30257297E-36
  -12.6300001       1.42803990E-36
  -12.6199999       1.56424082E-36
  -12.6099997       1.71196647E-36
  -12.6000004       1.87205493E-36
  -12.5900002       2.04539282E-36
  -12.5799999       2.23291785E-36
  -12.5699997       2.43561924E-36
  -12.5600004       2.65454125E-36
  -12.5500002       2.89078376E-36
  -12.5400000       3.14550421E-36
  -12.5299997       3.41991908E-36
  -12.5200005       3.71530724E-36
  -12.5100002       4.03300532E-36
  -12.5000000       4.37441777E-36
  -12.4899998       4.74101144E-36
  -12.4799995       5.13431955E-36
  -12.4700003       5.55593990E-36
  -12.4600000       6.00753952E-36
  -12.4499998       6.49084964E-36
  -12.4399996       7.00767399E-36
  -12.4300003       7.55987867E-36
  -12.4200001       8.14939583E-36
  -12.4099998       8.77823150E-36
  -12.3999996       9.44844839E-36
  -12.3900003       1.01621745E-35
  -12.3800001       1.09216038E-35
  -12.3699999       1.17289813E-35
  -12.3599997       1.25866144E-35
  -12.3500004       1.34968634E-35
  -12.3400002       1.44621320E-35
  -12.3299999       1.54848680E-35
  -12.3199997       1.65675626E-35
  -12.3100004       1.77127340E-35
  -12.3000002       1.89229250E-35
  -12.2900000       2.02007083E-35
  -12.2799997       2.15486482E-35
  -12.2700005       2.29693160E-35
  -12.2600002       2.44652746E-35
  -12.2500000       2.60390595E-35
  -12.2399998       2.76931747E-35
  -12.2299995       2.94300852E-35
  -12.2200003       3.12521646E-35
  -12.2100000       3.31617317E-35
  -12.1999998       3.51609961E-35
  -12.1899996       3.72520674E-35
  -12.1800003       3.94368884E-35
  -12.1700001       4.17172815E-35
  -12.1599998       4.40948594E-35
  -12.1499996       4.65710228E-35
  -12.1400003       4.91469711E-35
  -12.1300001       5.18236142E-35
  -12.1199999       5.46015748E-35
  -12.1099997       5.74811629E-35
  -12.1000004       6.04623038E-35
  -12.0900002       6.35445614E-35
  -12.0799999       6.67270229E-35
  -12.0699997       7.00083454E-35
  -12.0600004       7.33866289E-35
  -12.0500002       7.68594341E-35
  -12.0400000       8.04237017E-35
  -12.0299997       8.40757009E-35
  -12.0200005       8.78109892E-35
  -12.0100002       9.16243893E-35
  -12.0000000       9.55098286E-35
  -11.9899998       9.94604137E-35
  -11.9799995       1.03468230E-34
  -11.9700003       1.07524351E-34
  -11.9600000       1.11618814E-34
  -11.9499998       1.15740391E-34
  -11.9399996       1.19876730E-34
  -11.9300003       1.24014046E-34
  -11.9200001       1.28137172E-34
  -11.9099998       1.32229465E-34
  -11.8999996       1.36272707E-34
  -11.8900003       1.40246934E-34
  -11.8800001       1.44130393E-34
  -11.8699999       1.47899505E-34
  -11.8599997       1.51528615E-34
  -11.8500004       1.54990009E-34
  -11.8400002       1.58253671E-34
  -11.8299999       1.61287330E-34
  -11.8199997       1.64056078E-34
  -11.8100004       1.66522470E-34
  -11.8000002       1.68646280E-34
  -11.7900000       1.70384325E-34
  -11.7799997       1.71690478E-34
  -11.7700005       1.72515115E-34
  -11.7600002       1.72805430E-34
  -11.7500000       1.72504978E-34
  -11.7399998       1.71553448E-34
  -11.7299995       1.69886622E-34
  -11.7200003       1.67436095E-34
  -11.7100000       1.64129053E-34
  -11.6999998       1.59888009E-34
  -11.6899996       1.54630657E-34
  -11.6800003       1.48269511E-34
  -11.6700001       1.40711679E-34
  -11.6599998       1.31858645E-34
  -11.6499996       1.21605775E-34
  -11.6400003       1.09842210E-34
  -11.6300001       9.64503791E-35
  -11.6199999       8.13056898E-35
  -11.6099997       6.42761631E-35
  -11.6000004       4.52219737E-35
  -11.5900002       2.39950224E-35
  -11.5799999       4.38524180E-37
  -11.5699997      -2.56135914E-35
  -11.5600004      -5.43370771E-35
  -11.5500002      -8.59180473E-35
  -11.5400000      -1.20553546E-34
  -11.5299997      -1.58452219E-34
  -11.5200005      -1.99834958E-34
  -11.5100002      -2.44935646E-34
  -11.5000000      -2.94001997E-34
  -11.4899998      -3.47296339E-34
  -11.4799995      -4.05096613E-34
  -11.4700003      -4.67697243E-34
  -11.4600000      -5.35410356E-34
  -11.4499998      -6.08566696E-34
  -11.4399996      -6.87516845E-34
  -11.4300003      -7.72632784E-34
  -11.4200001      -8.64308670E-34
  -11.4099998      -9.62963411E-34
  -11.3999996      -1.06904076E-33
  -11.3900003      -1.18301246E-33
  -11.3800001      -1.30537867E-33
  -11.3699999      -1.43667074E-33
  -11.3599997      -1.57745428E-33
  -11.3500004      -1.72832898E-33
  -11.3400002      -1.88993245E-33
  -11.3299999      -2.06294336E-33
  -11.3199997      -2.24808225E-33
  -11.3100004      -2.44611668E-33
  -11.3000002      -2.65786271E-33
  -11.2900000      -2.88418890E-33
  -11.2799997      -3.12601821E-33
  -11.2700005      -3.38433456E-33
  -11.2600002      -3.66018525E-33
  -11.2500000      -3.95468662E-33
  -11.2399998      -4.26902410E-33
  -11.2299995      -4.60446317E-33
  -11.2200003      -4.96234977E-33
  -11.2100000      -5.34411838E-33
  -11.1999998      -5.75129750E-33
  -11.1899996      -6.18551519E-33
  -11.1800003      -6.64850201E-33
  -11.1700001      -7.14210825E-33
  -11.1599998      -7.66829699E-33
  -11.1499996      -8.22916649E-33
  -11.1400003      -8.82694504E-33
  -11.1300001      -9.46401008E-33
  -11.1199999      -1.01428882E-32
  -11.1099997      -1.08662757E-32
  -11.1000004      -1.16370348E-32
  -11.0900002      -1.24582197E-32
  -11.0799999      -1.33330785E-32
  -11.0699997      -1.42650633E-32
  -11.0600004      -1.52578447E-32
  -11.0500002      -1.63153326E-32
  -11.0400000      -1.74416795E-32
  -11.0299997      -1.86412995E-32
  -11.0200005      -1.99188870E-32
  -11.0100002      -2.12794247E-32
  -11.0000000      -2.27282068E-32
  -10.9899998      -2.42708477E-32
  -10.9799995      -2.59133145E-32
  -10.9700003      -2.76619358E-32
  -10.9600000      -2.95234252E-32
  -10.9499998      -3.15048943E-32
  -10.9399996      -3.36138840E-32
  -10.9300003      -3.58583846E-32
  -10.9200001      -3.82468657E-32
  -10.9099998      -4.07882816E-32
  -10.8999996      -4.34921243E-32
  -10.8900003      -4.63684150E-32
  -10.8800001      -4.94277742E-32
  -10.8699999      -5.26813956E-32
  -10.8599997      -5.61411341E-32
  -10.8500004      -5.98194910E-32
  -10.8400002      -6.37296907E-32
  -10.8299999      -6.78856510E-32
  -10.8199997      -7.23020773E-32
  -10.8100004      -7.69944568E-32
  -10.8000002      -8.19791171E-32
  -10.7900000      -8.72732850E-32
  -10.7799997      -9.28950045E-32
  -10.7700005      -9.88633655E-32
  -10.7600002      -1.05198410E-31
  -10.7500000      -1.11921203E-31
  -10.7399998      -1.19053845E-31
  -10.7299995      -1.26619597E-31
  -10.7200003      -1.34642851E-31
  -10.7100000      -1.43149222E-31
  -10.6999998      -1.52165557E-31
  -10.6899996      -1.61719975E-31
  -10.6800003      -1.71841969E-31
  -10.6700001      -1.82562407E-31
  -10.6599998      -1.93913521E-31
  -10.6499996      -2.05929189E-31
  -10.6400003      -2.18644676E-31
  -10.6300001      -2.32096869E-31
  -10.6199999      -2.46324300E-31
  -10.6099997      -2.61367149E-31
  -10.6000004      -2.77267403E-31
  -10.5900002      -2.94068743E-31
  -10.5799999      -3.11816686E-31
  -10.5699997      -3.30558815E-31
  -10.5600004      -3.50344336E-31
  -10.5500002      -3.71224713E-31
  -10.5400000      -3.93253219E-31
  -10.5299997      -4.16485219E-31
  -10.5200005      -4.40978430E-31
  -10.5100002      -4.66792521E-31
  -10.5000000      -4.93989417E-31
  -10.4899998      -5.22633205E-31
  -10.4799995      -5.52790371E-31
  -10.4700003      -5.84529753E-31
  -10.4600000      -6.17922209E-31
  -10.4499998      -6.53041608E-31
  -10.4399996      -6.89963462E-31
  -10.4300003      -7.28766343E-31
  -10.4200001      -7.69530888E-31
  -10.4099998      -8.12340417E-31
  -10.3999996      -8.57280507E-31
  -10.3900003      -9.04439459E-31
  -10.3800001      -9.53907929E-31
  -10.3699999      -1.00577902E-30
  -10.3599997      -1.06014836E-30
  -10.3500004      -1.11711394E-30
  -10.3400002      -1.17677630E-30
  -10.3299999      -1.23923840E-30
  -10.3199997      -1.30460510E-30
  -10.3100004      -1.37298417E-30
  -10.3000002      -1.44448526E-30
  -10.2900000      -1.51922018E-30
  -10.2799997      -1.59730254E-30
  -10.2700005      -1.67884931E-30
  -10.2600002      -1.76397767E-30
  -10.2500000      -1.85280724E-30
  -10.2399998      -1.94545970E-30
  -10.2299995      -2.04205750E-30
  -10.2200003      -2.14272533E-30
  -10.2100000      -2.24758770E-30
  -10.1999998      -2.35677176E-30
  -10.1899996      -2.47040445E-30
  -10.1800003      -2.58861366E-30
  -10.1700001      -2.71152843E-30
  -10.1599998      -2.83927551E-30
  -10.1499996      -2.97198431E-30
  -10.1400003      -3.10978121E-30
  -10.1300001      -3.25279449E-30
  -10.1199999      -3.40114940E-30
  -10.1099997      -3.55497102E-30
  -10.1000004      -3.71438084E-30
  -10.0900002      -3.87949924E-30
  -10.0799999      -4.05044584E-30
  -10.0699997      -4.22733385E-30
  -10.0600004      -4.41027462E-30
  -10.0500002      -4.59937461E-30
  -10.0400000      -4.79473764E-30
  -10.0299997      -4.99645811E-30
  -10.0200005      -5.20463158E-30
  -10.0100002      -5.41934042E-30
  -10.0000000      -5.64066287E-30
  -9.98999977      -5.86867078E-30
  -9.97999954      -6.10342584E-30
  -9.97000027      -6.34497921E-30
  -9.96000004      -6.59337527E-30
  -9.94999981      -6.84864600E-30
  -9.93999958      -7.11081021E-30
  -9.93000031      -7.37987917E-30
  -9.92000008      -7.65584612E-30
  -9.90999985      -7.93869000E-30
  -9.89999962      -8.22837770E-30
  -9.89000034      -8.52485581E-30
  -9.88000011      -8.82805661E-30
  -9.86999989      -9.13789059E-30
  -9.85999966      -9.45425318E-30
  -9.85000038      -9.77701346E-30
  -9.84000015      -1.01060217E-29
  -9.82999992      -1.04411019E-29
  -9.81999969      -1.07820585E-29
  -9.81000042      -1.11286649E-29
  -9.80000019      -1.14806655E-29
  -9.78999996      -1.18377826E-29
  -9.77999973      -1.21997062E-29
  -9.77000046      -1.25660850E-29
  -9.76000023      -1.29365482E-29
  -9.75000000      -1.33106811E-29
  -9.73999977      -1.36880310E-29
  -9.72999954      -1.40681148E-29
  -9.72000027      -1.44503983E-29
  -9.71000004      -1.48343174E-29
  -9.69999981      -1.52192536E-29
  -9.68999958      -1.56045540E-29
  -9.68000031      -1.59895037E-29
  -9.67000008      -1.63733491E-29
  -9.65999985      -1.67552851E-29
  -9.64999962      -1.71344480E-29
  -9.64000034      -1.75099276E-29
  -9.63000011      -1.78807474E-29
  -9.61999989      -1.82458766E-29
  -9.60999966      -1.86042200E-29
  -9.60000038      -1.89546248E-29
  -9.59000015      -1.92958650E-29
  -9.57999992      -1.96266540E-29
  -9.56999969      -1.99456347E-29
  -9.56000042      -2.02513745E-29
  -9.55000019      -2.05423645E-29
  -9.53999996      -2.08170352E-29
  -9.52999973      -2.10737180E-29
  -9.52000046      -2.13106797E-29
  -9.51000023      -2.15261024E-29
  -9.50000000      -2.17180755E-29
  -9.48999977      -2.18846083E-29
  -9.47999954      -2.20236213E-29
  -9.47000027      -2.21329434E-29
  -9.46000004      -2.22103116E-29
  -9.44999981      -2.22533727E-29
  -9.43999958      -2.22596666E-29
  -9.43000031      -2.22266399E-29
  -9.42000008      -2.21516490E-29
  -9.40999985      -2.20319374E-29
  -9.39999962      -2.18646448E-29
  -9.39000034      -2.16468116E-29
  -9.38000011      -2.13753713E-29
  -9.36999989      -2.10471462E-29
  -9.35999966      -2.06588502E-29
  -9.35000038      -2.02070887E-29
  -9.34000015      -1.96883530E-29
  -9.32999992      -1.90990305E-29
  -9.31999969      -1.84353836E-29
  -9.31000042      -1.76935665E-29
  -9.30000019      -1.68696191E-29
  -9.28999996      -1.59594667E-29
  -9.27999973      -1.49589176E-29
  -9.27000046      -1.38636683E-29
  -9.26000023      -1.26692983E-29
  -9.25000000      -1.13712667E-29
  -9.23999977      -9.96493156E-30
  -9.22999954      -8.44553082E-30
  -9.22000027      -6.80818944E-30
  -9.21000004      -5.04791956E-30
  -9.19999981      -3.15962951E-30
  -9.18999958      -1.13811758E-30
  -9.18000031       1.02192617E-30
  -9.17000008       3.32591174E-30
  -9.15999985       5.77935051E-30
  -9.14999962       8.38785072E-30
  -9.14000034       1.11571176E-29
  -9.13000011       1.40929457E-29
  -9.11999989       1.72012191E-29
  -9.10999966       2.04878998E-29
  -9.10000038       2.39590274E-29
  -9.09000015       2.76207213E-29
  -9.07999992       3.14791624E-29
  -9.06999969       3.55405996E-29
  -9.06000042       3.98113282E-29
  -9.05000019       4.42977008E-29
  -9.03999996       4.90060999E-29
  -9.02999973       5.39429565E-29
  -9.02000046       5.91147284E-29
  -9.01000023       6.45278675E-29
  -9.00000000       7.01888617E-29
  -8.98999977       7.61041750E-29
  -8.97999954       8.22802833E-29
  -8.97000027       8.87236143E-29
  -8.96000004       9.54405959E-29
  -8.94999981       1.02437578E-28
  -8.93999958       1.09720843E-28
  -8.93000031       1.17296681E-28
  -8.92000008       1.25171207E-28
  -8.90999985       1.33350499E-28
  -8.89999962       1.41840503E-28
  -8.89000034       1.50646999E-28
  -8.88000011       1.59775690E-28
  -8.86999989       1.69232090E-28
  -8.85999966       1.79021544E-28
  -8.85000038       1.89149191E-28
  -8.84000015       1.99619954E-28
  -8.82999992       2.10438589E-28
  -8.81999969       2.21609440E-28
  -8.81000042       2.33136805E-28
  -8.80000019       2.45024439E-28
  -8.78999996       2.57276050E-28
  -8.77999973       2.69894791E-28
  -8.77000046       2.82883599E-28
  -8.76000023       2.96244883E-28
  -8.75000000       3.09980832E-28
  -8.73999977       3.24093035E-28
  -8.72999954       3.38582673E-28
  -8.72000027       3.53450491E-28
  -8.71000004       3.68696682E-28
  -8.69999981       3.84321006E-28
  -8.68999958       4.00322402E-28
  -8.68000031       4.16699547E-28
  -8.67000008       4.33450130E-28
  -8.65999985       4.50571455E-28
  -8.64999962       4.68060151E-28
  -8.64000034       4.85911884E-28
  -8.63000011       5.04121889E-28
  -8.61999989       5.22684339E-28
  -8.60999966       5.41592782E-28
  -8.60000038       5.60839804E-28
  -8.59000015       5.80417122E-28
  -8.57999992       6.00315638E-28
  -8.56999969       6.20525384E-28
  -8.56000042       6.41035045E-28
  -8.55000019       6.61832633E-28
  -8.53999996       6.82904955E-28
  -8.52999973       7.04237614E-28
  -8.52000046       7.25815540E-28
  -8.51000023       7.47621978E-28
  -8.50000000       7.69639065E-28
  -8.48999977       7.91848023E-28
  -8.47999954       8.14228388E-28
  -8.47000027       8.36758879E-28
  -8.46000004       8.59416289E-28
  -8.44999981       8.82176352E-28
  -8.43999958       9.05013740E-28
  -8.43000031       9.27900625E-28
  -8.42000008       9.50808791E-28
  -8.40999985       9.73707617E-28
  -8.39999962       9.96565902E-28
  -8.39000034       1.01934965E-27
  -8.38000011       1.04202420E-27
  -8.36999989       1.06455287E-27
  -8.35999966       1.08689722E-27
  -8.35000038       1.10901691E-27
  -8.34000015       1.13087024E-27
  -8.32999992       1.15241321E-27
  -8.31999969       1.17360037E-27
  -8.31000042       1.19438423E-27
  -8.30000019       1.21471579E-27
  -8.28999996       1.23454305E-27
  -8.27999973       1.25381352E-27
  -8.27000046       1.27247135E-27
  -8.26000023       1.29045983E-27
  -8.25000000       1.30771953E-27
  -8.23999977       1.32418893E-27
  -8.22999954       1.33980514E-27
  -8.22000027       1.35450210E-27
  -8.21000004       1.36821270E-27
  -8.19999981       1.38086683E-27
  -8.18999958       1.39239333E-27
  -8.18000031       1.40271756E-27
  -8.17000008       1.41176385E-27
  -8.15999985       1.41945332E-27
  -8.14999962       1.42570585E-27
  -8.14000034       1.43043901E-27
  -8.13000011       1.43356759E-27
  -8.11999989       1.43500511E-27
  -8.10999966       1.43466190E-27
  -8.10000038       1.43244699E-27
  -8.09000015       1.42826695E-27
  -8.07999992       1.42202588E-27
  -8.06999969       1.41362690E-27
  -8.06000042       1.40296967E-27
  -8.05000019       1.38995260E-27
  -8.03999996       1.37447188E-27
  -8.02999973       1.35642158E-27
  -8.02000046       1.33569424E-27
  -8.01000023       1.31217979E-27
  -8.00000000       1.28576691E-27
  -7.98999977       1.25634227E-27
  -7.98000002       1.22379039E-27
  -7.96999979       1.18799438E-27
  -7.96000004       1.14883609E-27
  -7.94999981       1.10619494E-27
  -7.94000006       1.05994951E-27
  -7.92999983       1.00997634E-27
  -7.92000008       9.56151321E-28
  -7.90999985       8.98348386E-28
  -7.90000010       8.36440619E-28
  -7.88999987       7.70299900E-28
  -7.88000011       6.99797334E-28
  -7.86999989       6.24802344E-28
  -7.86000013       5.45184641E-28
  -7.84999990       4.60812684E-28
  -7.84000015       3.71554016E-28
  -7.82999992       2.77276567E-28
  -7.82000017       1.77847341E-28
  -7.80999994       7.31334040E-29
  -7.80000019      -3.69981284E-29
  -7.78999996      -1.52680299E-28
  -7.78000021      -2.74045531E-28
  -7.76999998      -4.01226096E-28
  -7.76000023      -5.34353452E-28
  -7.75000000      -6.73558320E-28
  -7.73999977      -8.18970509E-28
  -7.73000002      -9.70718862E-28
  -7.71999979      -1.12893044E-27
  -7.71000004      -1.29373131E-27
  -7.69999981      -1.46524538E-27
  -7.69000006      -1.64359497E-27
  -7.67999983      -1.82889986E-27
  -7.67000008      -2.02127773E-27
  -7.65999985      -2.22084355E-27
  -7.65000010      -2.42770961E-27
  -7.63999987      -2.64198550E-27
  -7.63000011      -2.86377578E-27
  -7.61999989      -3.09318389E-27
  -7.61000013      -3.33030804E-27
  -7.59999990      -3.57524242E-27
  -7.59000015      -3.82807697E-27
  -7.57999992      -4.08889641E-27
  -7.57000017      -4.35778281E-27
  -7.55999994      -4.63481011E-27
  -7.55000019      -4.92004920E-27
  -7.53999996      -5.21356323E-27
  -7.53000021      -5.51541000E-27
  -7.51999998      -5.82564149E-27
  -7.51000023      -6.14430278E-27
  -7.50000000      -6.47143199E-27
  -7.48999977      -6.80705764E-27
  -7.48000002      -7.15120514E-27
  -7.46999979      -7.50388837E-27
  -7.46000004      -7.86511425E-27
  -7.44999981      -8.23488201E-27
  -7.44000006      -8.61317702E-27