  -16.0000000       0.00000000    
  -15.9899998       0.00000000    
  -15.9799995       0.00000000    
  -15.9700003       0.00000000    
  -15.9600000       0.00000000    
  -15.9499998       0.00000000    
  -15.9399996       0.00000000    
  -15.9300003       0.00000000    
  -15.9200001       0.00000000    
  -15.9099998       0.00000000    
  -15.8999996       0.00000000    
  -15.8900003       0.00000000    
  -15.8800001       0.00000000    
  -15.8699999       0.00000000    
  -15.8599997       0.00000000    
  -15.8500004       0.00000000    
  -15.8400002       0.00000000    
  -15.8299999       0.00000000    
  -15.8199997       0.00000000    
  -15.8100004       0.00000000    
  -15.8000002       0.00000000    
  -15.7900000       0.00000000    
  -15.7799997       0.00000000    
  -15.7700005       0.00000000    
  -15.7600002       0.00000000    
  -15.7500000       0.00000000    
  -15.7399998       0.00000000    
  -15.7299995       0.00000000    
  -15.7200003       0.00000000    
  -15.7100000       0.00000000    
  -15.6999998       0.00000000    
  -15.6899996       0.00000000    
  -15.6800003       0.00000000    
  -15.6700001       0.00000000    
  -15.6599998       0.00000000    
  -15.6499996       0.00000000    
  -15.6400003       0.00000000    
  -15.6300001       0.00000000    
  -15.6199999       0.00000000    
  -15.6099997       0.00000000    
  -15.6000004       0.00000000    
  -15.5900002       0.00000000    
  -15.5799999       0.00000000    
  -15.5699997       0.00000000    
  -15.5600004       0.00000000    
  -15.5500002       0.00000000    
  -15.5400000       0.00000000    
  -15.5299997       0.00000000    
  -15.5200005       0.00000000    
  -15.5100002       0.00000000    
  -15.5000000       0.00000000    
  -15.4899998       0.00000000    
  -15.4799995       0.00000000    
  -15.4700003       0.00000000    
  -15.4600000       0.00000000    
  -15.4499998       0.00000000    
  -15.4399996       0.00000000    
  -15.4300003       0.00000000    
  -15.4200001       0.00000000    
  -15.4099998       0.00000000    
  -15.3999996       0.00000000    
  -15.3900003       0.00000000    
  -15.3800001       0.00000000    
  -15.3699999       0.00000000    
  -15.3599997       0.00000000    
  -15.3500004       0.00000000    
  -15.3400002       0.00000000    
  -15.3299999       0.00000000    
  -15.3199997       0.00000000    
  -15.3100004       0.00000000    
  -15.3000002       0.00000000    
  -15.2900000       0.00000000    
  -15.2799997       0.00000000    
  -15.2700005       0.00000000    
  -15.2600002       0.00000000    
  -15.2500000       0.00000000    
  -15.2399998       0.00000000    
  -15.2299995       0.00000000    
  -15.2200003       0.00000000    
  -15.2100000       0.00000000    
  -15.1999998       0.00000000    
  -15.1899996       0.00000000    
  -15.1800003       0.00000000    
  -15.1700001       0.00000000    
  -15.1599998       0.00000000    
  -15.1499996       0.00000000    
  -15.1400003       0.00000000    
  -15.1300001       0.00000000    
  -15.1199999       0.00000000    
  -15.1099997       0.00000000    
  -15.1000004       0.00000000    
  -15.0900002       0.00000000    
  -15.0799999       0.00000000    
  -15.0699997       0.00000000    
  -15.0600004       0.00000000    
  -15.0500002       0.00000000    
  -15.0400000       0.00000000    
  -15.0299997       0.00000000    
  -15.0200005       0.00000000    
  -15.0100002       0.00000000    
  -15.0000000       0.00000000    
  -14.9899998       0.00000000    
  -14.9799995       0.00000000    
  -14.9700003       0.00000000    
  -14.9600000       0.00000000    
  -14.9499998       0.00000000    
  -14.9399996       0.00000000    
  -14.9300003       0.00000000    
  -14.9200001       0.00000000    
  -14.9099998       0.00000000    
  -14.8999996       0.00000000    
  -14.8900003       0.00000000    
  -14.8800001       0.00000000    
  -14.8699999       0.00000000    
  -14.8599997       0.00000000    
  -14.8500004       0.00000000    
  -14.8400002       0.00000000    
  -14.8299999       0.00000000    
  -14.8199997       0.00000000    
  -14.8100004       0.00000000    
  -14.8000002       0.00000000    
  -14.7900000       0.00000000    
  -14.7799997       0.00000000    
  -14.7700005       0.00000000    
  -14.7600002       0.00000000    
  -14.7500000       0.00000000    
  -14.7399998       0.00000000    
  -14.7299995       0.00000000    
  -14.7200003       0.00000000    
  -14.7100000       0.00000000    
  -14.6999998       0.00000000    
  -14.6899996       0.00000000    
  -14.6800003       0.00000000    
  -14.6700001       0.00000000    
  -14.6599998       0.00000000    
  -14.6499996       0.00000000    
  -14.6400003       0.00000000    
  -14.6300001       0.00000000    
  -14.6199999       0.00000000    
  -14.6099997       0.00000000    
  -14.6000004       0.00000000    
  -14.5900002       0.00000000    
  -14.5799999       0.00000000    
  -14.5699997       0.00000000    
  -14.5600004       0.00000000    
  -14.5500002       0.00000000    
  -14.5400000       0.00000000    
  -14.5299997       0.00000000    
  -14.5200005       0.00000000    
  -14.5100002       0.00000000    
  -14.5000000       0.00000000    
  -14.4899998       0.00000000    
  -14.4799995       0.00000000    
  -14.4700003       0.00000000    
  -14.4600000       0.00000000    
  -14.4499998       0.00000000    
  -14.4399996       0.00000000    
  -14.4300003       0.00000000    
  -14.4200001       0.00000000    
  -14.4099998       0.00000000    
  -14.3999996       0.00000000    
  -14.3900003       0.00000000    
  -14.3800001       0.00000000    
  -14.3699999       0.00000000    
  -14.3599997       0.00000000    
  -14.3500004       0.00000000    
  -14.3400002       0.00000000    
  -14.3299999       0.00000000    
  -14.3199997       0.00000000    
  -14.3100004       0.00000000    
  -14.3000002       0.00000000    
  -14.2900000       0.00000000    
  -14.2799997       0.00000000    
  -14.2700005       0.00000000    
  -14.2600002       0.00000000    
  -14.2500000       0.00000000    
  -14.2399998       0.00000000    
  -14.2299995       0.00000000    
  -14.2200003       0.00000000    
  -14.2100000       0.00000000    
  -14.1999998       0.00000000    
  -14.1899996       0.00000000    
  -14.1800003       0.00000000    
  -14.1700001       0.00000000    
  -14.1599998       0.00000000    
  -14.1499996       0.00000000    
  -14.1400003       0.00000000    
  -14.1300001       0.00000000    
  -14.1199999       0.00000000    
  -14.1099997       0.00000000    
  -14.1000004       0.00000000    
  -14.0900002       0.00000000    
  -14.0799999       0.00000000    
  -14.0699997       0.00000000    
  -14.0600004       0.00000000    
  -14.0500002       0.00000000    
  -14.0400000       0.00000000    
  -14.0299997       0.00000000    
  -14.0200005       0.00000000    
  -14.0100002       0.00000000    
  -14.0000000       0.00000000    
  -13.9899998       0.00000000    
  -13.9799995       0.00000000    
  -13.9700003       0.00000000    
  -13.9600000       0.00000000    
  -13.9499998       0.00000000    
  -13.9399996       0.00000000    
  -13.9300003       0.00000000    
  -13.9200001       0.00000000    
  -13.9099998       0.00000000    
  -13.8999996       0.00000000    
  -13.8900003       0.00000000    
  -13.8800001       0.00000000    
  -13.8699999       0.00000000    
  -13.8599997       0.00000000    
  -13.8500004       0.00000000    
  -13.8400002       0.00000000    
  -13.8299999       0.00000000    
  -13.8199997       0.00000000    
  -13.8100004       0.00000000    
  -13.8000002       0.00000000    
  -13.7900000       0.00000000    
  -13.7799997       0.00000000    
  -13.7700005       0.00000000    
  -13.7600002       0.00000000    
  -13.7500000       0.00000000    
  -13.7399998       0.00000000    
  -13.7299995       0.00000000    
  -13.7200003       0.00000000    
  -13.7100000       0.00000000    
  -13.6999998       0.00000000    
  -13.6899996       0.00000000    
  -13.6800003       0.00000000    
  -13.6700001       0.00000000    
  -13.6599998       0.00000000    
  -13.6499996       0.00000000    
  -13.6400003       0.00000000    
  -13.6300001       0.00000000    
  -13.6199999       0.00000000    
  -13.6099997       0.00000000    
  -13.6000004       0.00000000    
  -13.5900002       0.00000000    
  -13.5799999       0.00000000    
  -13.5699997       0.00000000    
  -13.5600004       0.00000000    
  -13.5500002       0.00000000    
  -13.5400000       0.00000000    
  -13.5299997       0.00000000    
  -13.5200005       0.00000000    
  -13.5100002       0.00000000    
  -13.5000000       0.00000000    
  -13.4899998       0.00000000    
  -13.4799995       0.00000000    
  -13.4700003       0.00000000    
  -13.4600000       0.00000000    
  -13.4499998       0.00000000    
  -13.4399996       0.00000000    
  -13.4300003       0.00000000    
  -13.4200001       0.00000000    
  -13.4099998       0.00000000    
  -13.3999996       0.00000000    
  -13.3900003       0.00000000    
  -13.3800001       0.00000000    
  -13.3699999       0.00000000    
  -13.3599997       0.00000000    
  -13.3500004       0.00000000    
  -13.3400002       0.00000000    
  -13.3299999       0.00000000    
  -13.3199997       0.00000000    
  -13.3100004       0.00000000    
  -13.3000002       0.00000000    
  -13.2900000       0.00000000    
  -13.2799997       0.00000000    
  -13.2700005       0.00000000    
  -13.2600002       0.00000000    
  -13.2500000       0.00000000    
  -13.2399998       0.00000000    
  -13.2299995       0.00000000    
  -13.2200003       0.00000000    
  -13.2100000       0.00000000    
  -13.1999998       0.00000000    
  -13.1899996       0.00000000    
  -13.1800003       0.00000000    
  -13.1700001       0.00000000    
  -13.1599998       0.00000000    
  -13.1499996       0.00000000    
  -13.1400003       0.00000000    
  -13.1300001       0.00000000    
  -13.1199999       0.00000000    
  -13.1099997       0.00000000    
  -13.1000004       0.00000000    
  -13.0900002       0.00000000    
  -13.0799999       0.00000000    
  -13.0699997       0.00000000    
  -13.0600004       0.00000000    
  -13.0500002       0.00000000    
  -13.0400000       0.00000000    
  -13.0299997       0.00000000    
  -13.0200005       0.00000000    
  -13.0100002       0.00000000    
  -13.0000000       0.00000000    
  -12.9899998       0.00000000    
  -12.9799995       0.00000000    
  -12.9700003       0.00000000    
  -12.9600000       0.00000000    
  -12.9499998       0.00000000    
  -12.9399996       0.00000000    
  -12.9300003       0.00000000    
  -12.9200001       0.00000000    
  -12.9099998       0.00000000    
  -12.8999996       0.00000000    
  -12.8900003       0.00000000    
  -12.8800001       0.00000000    
  -12.8699999       0.00000000    
  -12.8599997       0.00000000    
  -12.8500004       0.00000000    
  -12.8400002       0.00000000    
  -12.8299999       0.00000000    
  -12.8199997       0.00000000    
  -12.8100004       0.00000000    
  -12.8000002       0.00000000    
  -12.7900000       0.00000000    
  -12.7799997       0.00000000    
  -12.7700005       0.00000000    
  -12.7600002       0.00000000    
  -12.7500000       0.00000000    
  -12.7399998       0.00000000    
  -12.7299995       0.00000000    
  -12.7200003       0.00000000    
  -12.7100000       0.00000000    
  -12.6999998       0.00000000    
  -12.6899996       0.00000000    
  -12.6800003       0.00000000    
  -12.6700001       0.00000000    
  -12.6599998       0.00000000    
  -12.6499996       0.00000000    
  -12.6400003       0.00000000    
  -12.6300001       0.00000000    
  -12.6199999       0.00000000    
  -12.6099997       0.00000000    
  -12.6000004       4.62428493E-44
  -12.5900002       4.62428493E-44
  -12.5799999      -1.09301280E-43
  -12.5699997      -6.30584309E-44
  -12.5600004      -3.26502542E-43
  -12.5500002       5.80137564E-43
  -12.5400000       1.40129846E-42
  -12.5299997       1.49378416E-42
  -12.5200005       2.88387224E-42
  -12.5100002      -5.24085626E-42
  -12.5000000      -4.23192136E-42
  -12.4899998       3.78350585E-43
  -12.4799995       8.62218945E-42
  -12.4700003       8.99773744E-42
  -12.4600000      -1.51102013E-41
  -12.4499998      -4.26835512E-41
  -12.4399996      -1.03009450E-41
  -12.4300003      -1.01580126E-41
  -12.4200001       1.39513275E-41
  -12.4099998      -5.97653795E-42
  -12.3999996       7.41286888E-42
  -12.3900003      -2.26155559E-41
  -12.3800001      -1.47262456E-41
  -12.3699999      -3.33607125E-41
  -12.3599997      -1.64666583E-41
  -12.3500004       1.87816033E-41
  -12.3400002      -6.05416989E-41
  -12.3299999       3.95460440E-41
  -12.3199997       1.07984060E-41
  -12.3100004      -2.59828761E-41
  -12.3000002      -1.61873795E-40
  -12.2900000      -1.02562436E-40
  -12.2799997       9.06513990E-41
  -12.2700005       1.23207766E-40
  -12.2600002      -6.85319027E-41
  -12.2500000      -8.71705736E-41
  -12.2399998      -1.03794177E-40
  -12.2299995      -2.50113559E-40
  -12.2200003       1.77136738E-40
  -12.2100000      -2.61727521E-40
  -12.1999998      -2.11750211E-40
  -12.1899996      -7.53366080E-41
  -12.1800003      -3.07988587E-40
  -12.1700001      -4.21608669E-40
  -12.1599998      -3.16222617E-40
  -12.1499996      -7.94924389E-40
  -12.1400003      -1.44652257E-39
  -12.1300001      -1.28596880E-39
  -12.1199999      -1.43514403E-39
  -12.1099997      -2.24891728E-39
  -12.1000004      -2.22008697E-39
  -12.0900002      -2.69861217E-39
  -12.0799999      -3.57868226E-39
  -12.0699997      -4.56247926E-39
  -12.0600004      -5.51392308E-39
  -12.0500002      -6.70541634E-39
  -12.0400000      -8.62483090E-39
  -12.0299997      -1.04222526E-38
  -12.0200005      -1.28289393E-38
  -12.0100002      -1.55544606E-38
  -12.0000000      -1.85781488E-38
  -11.9899998      -2.32960881E-38
  -11.9799995      -2.77919861E-38
  -11.9700003      -3.38932620E-38
  -11.9600000      -4.13029163E-38
  -11.9499998      -5.00937576E-38
  -11.9399996      -6.02750374E-38
  -11.9300003      -7.24260775E-38
  -11.9200001      -8.72851045E-38
  -11.9099998      -1.04188570E-37
  -11.8999996      -1.24149607E-37
  -11.8900003      -1.48372811E-37
  -11.8800001      -1.76939143E-37
  -11.8699999      -2.10173873E-37
  -11.8599997      -2.48693663E-37
  -11.8500004      -2.94593138E-37
  -11.8400002      -3.48163321E-37
  -11.8299999      -4.11556202E-37
  -11.8199997      -4.84036246E-37
  -11.8100004      -5.69274160E-37
  -11.8000002      -6.68338742E-37
  -11.7900000      -7.83796409E-37
  -11.7799997      -9.17221457E-37
  -11.7700005      -1.07163576E-36
  -11.7600002      -1.25006316E-36
  -11.7500000      -1.45658370E-36
  -11.7399998      -1.69395972E-36
  -11.7299995      -1.96752080E-36
  -11.7200003      -2.28187837E-36
  -11.7100000      -2.64200086E-36
  -11.6999998      -3.05542507E-36
  -11.6899996      -3.52853895E-36
  -11.6800003      -4.06953970E-36
  -11.6700001      -4.68563212E-36
  -11.6599998      -5.38972734E-36
  -11.6499996      -6.19062936E-36
  -11.6400003      -7.10114745E-36
  -11.6300001      -8.13467776E-36
  -11.6199999      -9.30704540E-36
  -11.6099997      -1.06349680E-35
  -11.6000004      -1.21381372E-35
  -11.5900002      -1.38359100E-35
  -11.5799999      -1.57520447E-35
  -11.5699997      -1.79133171E-35
  -11.5600004      -2.03455386E-35
  -11.5500002      -2.30822048E-35
  -11.5400000      -2.61561957E-35
  -11.5299997      -2.96054882E-35
  -11.5200005      -3.34722303E-35
  -11.5100002      -3.78019526E-35
  -11.5000000      -4.26442202E-35
  -11.4899998      -4.80549380E-35
  -11.4799995      -5.40930530E-35
  -11.4700003      -6.08251918E-35
  -11.4600000      -6.83233133E-35
  -11.4499998      -7.66651733E-35
  -11.4399996      -8.59369654E-35
  -11.4300003      -9.62316728E-35
  -11.4200001      -1.07649821E-34
  -11.4099998      -1.20300907E-34
  -11.3999996      -1.34307289E-34
  -11.3900003      -1.49795472E-34
  -11.3800001      -1.66906377E-34
  -11.3699999      -1.85793655E-34
  -11.3599997      -2.06619190E-34
  -11.3500004      -2.29561672E-34
  -11.3400002      -2.54810487E-34
  -11.3299999      -2.82573758E-34
  -11.3199997      -3.13072028E-34
  -11.3100004      -3.46542990E-34
  -11.3000002      -3.83244104E-34
  -11.2900000      -4.23449937E-34
  -11.2799997      -4.67454614E-34
  -11.2700005      -5.15576184E-34
  -11.2600002      -5.68147873E-34
  -11.2500000      -6.25533487E-34
  -11.2399998      -6.88119883E-34
  -11.2299995      -7.56312055E-34
  -11.2200003      -8.30553340E-34
  -11.2100000      -9.11307965E-34
  -11.1999998      -9.99066791E-34
  -11.1899996      -1.09436439E-33
  -11.1800003      -1.19775087E-33
  -11.1700001      -1.30981855E-33
  -11.1599998      -1.43119532E-33
  -11.1499996      -1.56254111E-33
  -11.1400003      -1.70455699E-33
  -11.1300001      -1.85797388E-33
  -11.1199999      -2.02356871E-33
  -11.1099997      -2.20216726E-33
  -11.1000004      -2.39461919E-33
  -11.0900002      -2.60182652E-33
  -11.0799999      -2.82473956E-33
  -11.0699997      -3.06435012E-33
  -11.0600004      -3.32168990E-33
  -11.0500002      -3.59783482E-33
  -11.0400000      -3.89393157E-33
  -11.0299997      -4.21115157E-33
  -11.0200005      -4.55069018E-33
  -11.0100002      -4.91386210E-33
  -11.0000000      -5.30196552E-33
  -10.9899998      -5.71636621E-33
  -10.9799995      -6.15846339E-33
  -10.9700003      -6.62974773E-33
  -10.9600000      -7.13170880E-33
  -10.9499998      -7.66587768E-33
  -10.9399996      -8.23386846E-33
  -10.9300003      -8.83730335E-33
  -10.9200001      -9.47783830E-33
  -10.9099998      -1.01571741E-32
  -10.8999996      -1.08770784E-32
  -10.8900003      -1.16392580E-32
  -10.8800001      -1.24455273E-32
  -10.8699999      -1.32976917E-32
  -10.8599997      -1.41975297E-32
  -10.8500004      -1.51469412E-32
  -10.8400002      -1.61476851E-32
  -10.8299999      -1.72015687E-32
  -10.8199997      -1.83104713E-32
  -10.8100004      -1.94761297E-32
  -10.8000002      -2.07002998E-32
  -10.7900000      -2.19847140E-32
  -10.7799997      -2.33310326E-32
  -10.7700005      -2.47407648E-32
  -10.7600002      -2.62156135E-32
  -10.7500000      -2.77568394E-32
  -10.7399998      -2.93658355E-32
  -10.7299995      -3.10438213E-32
  -10.7200003      -3.27918578E-32
  -10.7100000      -3.46107972E-32
  -10.6999998      -3.65014476E-32
  -10.6899996      -3.84644233E-32
  -10.6800003      -4.04998711E-32
  -10.6700001      -4.26080468E-32
  -10.6599998      -4.47887563E-32
  -10.6499996      -4.70414619E-32
  -10.6400003      -4.93654201E-32
  -10.6300001      -5.17596376E-32
  -10.6199999      -5.42224452E-32
  -10.6099997      -5.67520033E-32
  -10.6000004      -5.93461959E-32
  -10.5900002      -6.20019668E-32
  -10.5799999      -6.47161009E-32
  -10.5699997      -6.74846781E-32
  -10.5600004      -7.03034430E-32
  -10.5500002      -7.31670061E-32
  -10.5400000      -7.60699658E-32
  -10.5299997      -7.90056806E-32
  -10.5200005      -8.19668978E-32
  -10.5100002      -8.49455359E-32
  -10.5000000      -8.79327080E-32
  -10.4899998      -9.09184636E-32
  -10.4799995      -9.38921058E-32
  -10.4700003      -9.68416856E-32
  -10.4600000      -9.97541786E-32
  -10.4499998      -1.02615132E-31
  -10.4399996      -1.05409388E-31
  -10.4300003      -1.08120207E-31
  -10.4200001      -1.10729111E-31
  -10.4099998      -1.13216716E-31
  -10.3999996      -1.15561968E-31
  -10.3900003      -1.17741288E-31
  -10.3800001      -1.19730917E-31
  -10.3699999      -1.21504033E-31
  -10.3599997      -1.23032176E-31
  -10.3500004      -1.24285029E-31
  -10.3400002      -1.25229668E-31
  -10.3299999      -1.25831710E-31
  -10.3199997      -1.26053490E-31
  -10.3100004      -1.25855290E-31
  -10.3000002      -1.25194698E-31
  -10.2900000      -1.24026432E-31
  -10.2799997      -1.22302029E-31
  -10.2700005      -1.19970037E-31
  -10.2600002      -1.16975853E-31
  -10.2500000      -1.13261443E-31
  -10.2399998      -1.08764684E-31
  -10.2299995      -1.03420075E-31
  -10.2200003      -9.71569238E-32
  -10.2100000      -8.99018021E-32
  -10.1999998      -8.15756757E-32
  -10.1899996      -7.20946672E-32
  -10.1800003      -6.13702326E-32
  -10.1700001      -4.93079208E-32
  -10.1599998      -3.58077267E-32
  -10.1499996      -2.07638823E-32
  -10.1400003      -4.06357707E-33
  -10.1300001       1.44126246E-32
  -10.1199999       3.47912327E-32
  -10.1099997       5.72066257E-32
  -10.1000004       8.18010708E-32
  -10.0900002       1.08726092E-31
  -10.0799999       1.38142027E-31
  -10.0699997       1.70218459E-31
  -10.0600004       2.05137212E-31
  -10.0500002       2.43088940E-31
  -10.0400000       2.84277581E-31
  -10.0299997       3.28919165E-31
  -10.0200005       3.77243150E-31
  -10.0100002       4.29493380E-31
  -10.0000000       4.85928582E-31
  -9.98999977       5.46823327E-31
  -9.97999954       6.12470737E-31
  -9.97000027       6.83179684E-31
  -9.96000004       7.59283116E-31
  -9.94999981       8.41128368E-31
  -9.93999958       9.29092491E-31
  -9.93000031       1.02356885E-30
  -9.92000008       1.12498232E-30
  -9.90999985       1.23378063E-30
  -9.89999962       1.35044111E-30
  -9.89000034       1.47547346E-30
  -9.88000011       1.60941822E-30
  -9.86999989       1.75284865E-30
  -9.85999966       1.90638307E-30
  -9.85000038       2.07066734E-30
  -9.84000015       2.24640488E-30
  -9.82999992       2.43432109E-30
  -9.81999969       2.63521759E-30
  -9.81000042       2.84992248E-30
  -9.80000019       3.07933140E-30
  -9.78999996       3.32438304E-30
  -9.77999973       3.58610036E-30
  -9.77000046       3.86554490E-30
  -9.76000023       4.16387521E-30
  -9.75000000       4.48229199E-30
  -9.73999977       4.82211067E-30
  -9.72999954       5.18467450E-30
  -9.72000027       5.57147233E-30
  -9.71000004       5.98406784E-30
  -9.69999981       6.42409506E-30
  -9.68999958       6.89330651E-30
  -9.68000031       7.39360142E-30
  -9.67000008       7.92694409E-30
  -9.65999985       8.49545829E-30
  -9.64999962       9.10137015E-30
  -9.64000034       9.74704945E-30
  -9.63000011       1.04350503E-29
  -9.61999989       1.11680081E-29
  -9.60999966       1.19488034E-29
  -9.60000038       1.27804245E-29
  -9.59000015       1.36660724E-29
  -9.57999992       1.46091311E-29
  -9.56999969       1.56131063E-29
  -9.56000042       1.66818936E-29
  -9.55000019       1.78194802E-29
  -9.53999996       1.90300626E-29
  -9.52999973       2.03181682E-29
  -9.52000046       2.16885260E-29
  -9.51000023       2.31461556E-29
  -9.50000000       2.46963381E-29
  -9.48999977       2.63447235E-29
  -9.47999954       2.80971332E-29
  -9.47000027       2.99597903E-29
  -9.46000004       3.19393544E-29
  -9.44999981       3.40426444E-29
  -9.43999958       3.62769609E-29
  -9.43000031       3.86500526E-29
  -9.42000008       4.11698040E-29
  -9.40999985       4.38449447E-29
  -9.39999962       4.66842981E-29
  -9.39000034       4.96972741E-29
  -9.38000011       5.28935715E-29
  -9.36999989       5.62837739E-29
  -9.35999966       5.98785161E-29
  -9.35000038       6.36892695E-29
  -9.34000015       6.77282094E-29
  -9.32999992       7.20073308E-29
  -9.31999969       7.65401634E-29
  -9.31000042       8.13402368E-29
  -9.30000019       8.64219474E-29
  -9.28999996       9.18002272E-29
  -9.27999973       9.74907002E-29
  -9.27000046       1.03509671E-28
  -9.26000023       1.09874388E-28
  -9.25000000       1.16602528E-28
  -9.23999977       1.23712170E-28
  -9.22999954       1.31223550E-28
  -9.22000027       1.39156202E-28
  -9.21000004       1.47530928E-28
  -9.19999981       1.56369839E-28
  -9.18999958       1.65695649E-28
  -9.18000031       1.75531097E-28
  -9.17000008       1.85900918E-28
  -9.15999985       1.96831003E-28
  -9.14999962       2.08346716E-28
  -9.14000034       2.20475212E-28
  -9.13000011       2.33245259E-28
  -9.11999989       2.46685144E-28
  -9.10999966       2.60825346E-28
  -9.10000038       2.75696366E-28
  -9.09000015       2.91330199E-28
  -9.07999992       3.07760042E-28
  -9.06999969       3.25020082E-28
  -9.06000042       3.43145322E-28
  -9.05000019       3.62171391E-28
  -9.03999996       3.82134762E-28
  -9.02999973       4.03073978E-28
  -9.02000046       4.25026931E-28
  -9.01000023       4.48034764E-28
  -9.00000000       4.72138259E-28
  -8.98999977       4.97378149E-28
  -8.97999954       5.23798441E-28
  -8.97000027       5.51441651E-28
  -8.96000004       5.80351689E-28
  -8.94999981       6.10575452E-28
  -8.93999958       6.42157236E-28
  -8.93000031       6.75143986E-28
  -8.92000008       7.09583418E-28
  -8.90999985       7.45523822E-28
  -8.89999962       7.83013060E-28
  -8.89000034       8.22099856E-28
  -8.88000011       8.62833467E-28
  -8.86999989       9.05264400E-28
  -8.85999966       9.49441381E-28
  -8.85000038       9.95415832E-28
  -8.84000015       1.04323571E-27
  -8.82999992       1.09295157E-27
  -8.81999969       1.14461503E-27
  -8.81000042       1.19827442E-27
  -8.80000019       1.25397491E-27
  -8.78999996       1.31177217E-27
  -8.77999973       1.37170220E-27
  -8.77000046       1.43381989E-27
  -8.76000023       1.49817060E-27
  -8.75000000       1.56479102E-27
  -8.73999977       1.63372824E-27
  -8.72999954       1.70501769E-27
  -8.72000027       1.77870743E-27
  -8.71000004       1.85481883E-27
  -8.69999981       1.93339966E-27
  -8.68999958       2.01446783E-27
  -8.68000031       2.09805704E-27
  -8.67000008       2.18418694E-27
  -8.65999985       2.27287910E-27
  -8.64999962       2.36414873E-27
  -8.64000034       2.45800873E-27
  -8.63000011       2.55445834E-27
  -8.61999989       2.65350506E-27
  -8.60999966       2.75513735E-27
  -8.60000038       2.85934923E-27
  -8.59000015       2.96612625E-27
  -8.57999992       3.07543760E-27
  -8.56999969       3.18724727E-27
  -8.56000042       3.30152156E-27
  -8.55000019       3.41821365E-27
  -8.53999996       3.53725114E-27
  -8.52999973       3.65858666E-27
  -8.52000046       3.78212620E-27
  -8.51000023       3.90779005E-27
  -8.50000000       4.03546457E-27
  -8.48999977       4.16505808E-27
  -8.47999954       4.29643154E-27
  -8.47000027       4.42944127E-27
  -8.46000004       4.56393897E-27
  -8.44999981       4.69977867E-27
  -8.43999958       4.83673077E-27
  -8.43000031       4.97463314E-27
  -8.42000008       5.11324385E-27
  -8.40999985       5.25235454E-27
  -8.39999962       5.39167863E-27
  -8.39000034       5.53097536E-27
  -8.38000011       5.66991387E-27
  -8.36999989       5.80820913E-27
  -8.35999966       5.94550020E-27
  -8.35000038       6.08144158E-27
  -8.34000015       6.21562458E-27
  -8.32999992       6.34766519E-27
  -8.31999969       6.47708729E-27
  -8.31000042       6.60347221E-27
  -8.30000019       6.72629492E-27
  -8.28999996       6.84503159E-27
  -8.27999973       6.95912907E-27
  -8.27000046       7.06803964E-27
  -8.26000023       7.17107997E-27
  -8.25000000       7.26764995E-27
  -8.23999977       7.35704854E-27
  -8.22999954       7.43853078E-27
  -8.22000027       7.51139641E-27
  -8.21000004       7.57479263E-27
  -8.19999981       7.62789283E-27
  -8.18999958       7.66983265E-27
  -8.18000031       7.69971076E-27
  -8.17000008       7.71656650E-27
  -8.15999985       7.71936988E-27
  -8.14999962       7.70710633E-27
  -8.14000034       7.67864417E-27
  -8.13000011       7.63287637E-27
  -8.11999989       7.56863043E-27
  -8.10999966       7.48468685E-27
  -8.10000038       7.37967975E-27
  -8.09000015       7.25238426E-27
  -8.07999992       7.10133819E-27
  -8.06999969       6.92513640E-27
  -8.06000042       6.72232212E-27
  -8.05000019       6.49130143E-27
  -8.03999996       6.23051125E-27
  -8.02999973       5.93829683E-27
  -8.02000046       5.61295026E-27
  -8.01000023       5.25274820E-27
  -8.00000000       4.85582945E-27
  -7.98999977       4.42035319E-27
  -7.98000002       3.94437232E-27
  -7.96999979       3.42590119E-27
  -7.96000004       2.86293126E-27
  -7.94999981       2.25334824E-27
  -7.94000006       1.59496495E-27
  -7.92999983       8.85615966E-28
  -7.92000008       1.23043740E-28
  -7.90999985      -6.95115591E-28
  -7.90000010      -1.57121708E-27
  -7.88999987      -2.50769599E-27
  -7.88000011      -3.50703176E-27
  -7.86999989      -4.57176480E-27
  -7.86000013      -5.70445735E-27
  -7.84999990      -6.90780227E-27
  -7.84000015      -8.18442265E-27
  -7.82999992      -9.53709492E-27
  -7.82000017      -1.09685647E-26
  -7.80999994      -1.24816615E-26
  -7.80000019      -1.40792428E-26
  -7.78999996      -1.57641957E-26
  -7.78000021      -1.75394502E-26
  -7.76999998      -1.94079828E-26
  -7.76000023      -2.13727718E-26
  -7.75000000      -2.34368248E-26
  -7.73999977      -2.56031694E-26
  -7.73000002      -2.78748839E-26
  -7.71999979      -3.02550375E-26
  -7.71000004      -3.27466516E-26
  -7.69999981      -3.53528631E-26
  -7.69000006      -3.80767012E-26
  -7.67999983      -4.09212319E-26
  -7.67000008      -4.38895584E-26
  -7.65999985      -4.69846695E-26
  -7.65000010      -5.02095853E-26
  -7.63999987      -5.35672608E-26
  -7.63000011      -5.70606820E-26
  -7.61999989      -6.06926839E-26
  -7.61000013      -6.44661631E-26
  -7.59999990      -6.83838435E-26
  -7.59000015      -7.24484555E-26
  -7.57999992      -7.66624888E-26
  -7.57000017      -8.10285936E-26
  -7.55999994      -8.55491795E-26
  -7.55000019      -9.02265269E-26
  -7.53999996      -9.50628790E-26
  -7.53000021      -1.00060294E-25
  -7.51999998      -1.05220733E-25
  -7.51000023      -1.10545753E-25
  -7.50000000      -1.16037014E-25
  -7.48999977      -1.21695969E-25
  -7.48000002      -1.27523988E-25
  -7.46999979      -1.33522017E-25
  -7.46000004      -1.39690528E-25
  -7.44999981      -1.46030233E-25
  -7.44000006      -1.52541479E-25