  -16.0000000       0.00000000    
  -15.9899998       0.00000000    
  -15.9799995       0.00000000    
  -15.9700003       0.00000000    
  -15.9600000       0.00000000    
  -15.9499998       0.00000000    
  -15.9399996       0.00000000    
  -15.9300003       0.00000000    
  -15.9200001       0.00000000    
  -15.9099998       0.00000000    
  -15.8999996      -1.11694670E-34
  -15.8900003      -1.11148565E-33
  -15.8800001      -3.44156093E-33
  -15.8699999       1.16965472E-32
  -15.8599997       1.73342017E-31
  -15.8500004       9.95451404E-31
  -15.8400002       4.05363942E-30
  -15.8299999       1.38286028E-29
  -15.8199997       4.39174861E-29
  -15.8100004       1.37930529E-28
  -15.8000002       4.28633283E-28
  -15.7900000       1.26927354E-27
  -15.7799997       3.44385702E-27
  -15.7700005       8.32920173E-27
  -15.7600002       1.75647399E-26
  -15.7500000       3.13062347E-26
  -15.7399998       4.38053968E-26
  -15.7299995       3.56430252E-26
  -15.7200003      -3.53142089E-26
  -15.7100000      -2.36268648E-25
  -15.6999998      -6.38809602E-25
  -15.6899996      -1.25275204E-24
  -15.6800003      -1.89881127E-24
  -15.6700001      -2.03942533E-24
  -15.6599998      -6.62573395E-25
  -15.6499996       3.57902209E-24
  -15.6400003       1.16842354E-23
  -15.6300001       2.28393818E-23
  -15.6199999       3.22946843E-23
  -15.6099997       2.94968819E-23
  -15.6000004      -1.46091823E-24
  -15.5900002      -7.60475860E-23
  -15.5799999      -1.95494424E-22
  -15.5699997      -3.25550981E-22
  -15.5600004      -3.75581625E-22
  -15.5500002      -1.96133300E-22
  -15.5400000       3.78212836E-22
  -15.5299997       1.41641998E-21
  -15.5200005       2.71065007E-21
  -15.5100002       3.58695200E-21
  -15.5000000       2.84618329E-21
  -15.4899998      -9.59222145E-22
  -15.4799995      -8.72379167E-21
  -15.4700003      -1.94570328E-20
  -15.4600000      -2.88121645E-20
  -15.4499998      -2.84136282E-20
  -15.4399996      -7.37089173E-21
  -15.4300003       4.27187314E-20
  -15.4200001       1.19101575E-19
  -15.4099998       1.97782413E-19
  -15.3999996       2.27603088E-19
  -15.3900003       1.36855882E-19
  -15.3800001      -1.39420375E-19
  -15.3699999      -6.09311631E-19
  -15.3599997      -1.16216074E-18
  -15.3500004      -1.52443783E-18
  -15.3400002      -1.27897395E-18
  -15.3299999       5.56424486E-21
  -15.3199997       2.51584564E-18
  -15.3100004       5.85137350E-18
  -15.3000002       8.73698769E-18
  -15.2900000       9.01653172E-18
  -15.2799997       4.17646676E-18
  -15.2700005      -7.46093172E-18
  -15.2600002      -2.50207858E-17
  -15.2500000      -4.34129333E-17
  -15.2399998      -5.27433023E-17
  -15.2299995      -4.00180220E-17
  -15.2200003       5.99132501E-18
  -15.2100000       8.69715232E-17
  -15.1999998       1.86475190E-16
  -15.1899996       2.64672756E-16
  -15.1800003       2.61916987E-16
  -15.1700001       1.15857299E-16
  -15.1599998      -2.07034480E-16
  -15.1499996      -6.71782783E-16
  -15.1400003      -1.14222668E-15
  -15.1300001      -1.37765473E-15
  -15.1199999      -1.08143661E-15
  -15.1099997      -1.32874662E-17
  -15.1000004       1.84809714E-15
  -15.0900002       4.13980619E-15
  -15.0799999       6.02851517E-15
  -15.0699997       6.29953734E-15
  -15.0600004       3.69415971E-15
  -15.0500002      -2.50679020E-15
  -15.0400000      -1.17763185E-14
  -15.0299997      -2.17729802E-14
  -15.0200005      -2.82708410E-14
  -15.0100002      -2.59347275E-14
  -15.0000000      -1.01023663E-14
  -14.9899998       2.06365771E-14
  -14.9799995       6.17718767E-14
  -14.9700003       1.01284317E-13
  -14.9600000       1.20500127E-13
  -14.9499998       9.84421420E-14
  -14.9399996       1.97612261E-14
  -14.9300003      -1.15208529E-13
  -14.9200001      -2.81495286E-13
  -14.9099998      -4.26156994E-13
  -14.8999996      -4.75144392E-13
  -14.8900003      -3.52991020E-13
  -14.8800001      -1.39169944E-14
  -14.8699999       5.22726502E-13
  -14.8599997       1.14523083E-12
  -14.8500004       1.64619230E-12
  -14.8400002       1.75681637E-12
  -14.8299999       1.22405189E-12
  -14.8199997      -7.92186073E-14
  -14.8100004      -2.03892567E-12
  -14.8000002      -4.22336471E-12
  -14.7900000      -5.89488614E-12
  -14.7799997      -6.14774898E-12
  -14.7700005      -4.17811489E-12
  -14.7600002       3.56756833E-13
  -14.7500000       6.98779142E-12
  -14.7399998       1.42304415E-11
  -14.7299995       1.96730323E-11
  -14.7200003       2.04545565E-11
  -14.7100000       1.41253962E-11
  -14.6999998      -2.63439959E-13
  -14.6899996      -2.11474518E-11
  -14.6800003      -4.39184071E-11
  -14.6700001      -6.12755610E-11
  -14.6599998      -6.46981496E-11
  -14.6499996      -4.69696816E-11
  -14.6400003      -5.27763120E-12
  -14.6300001       5.59863232E-11
  -14.6199999       1.23832930E-10
  -14.6099997       1.77734355E-10
  -14.6000004       1.93711061E-10
  -14.5900002       1.51189117E-10
  -14.5799999       4.13077558E-11
  -14.5699997      -1.25624983E-10
  -14.5600004      -3.16380644E-10
  -14.5500002      -4.77367701E-10
  -14.5400000      -5.44906231E-10
  -14.5299997      -4.62508004E-10
  -14.5200005      -2.01884218E-10
  -14.5100002       2.17954682E-10
  -14.5000000       7.20403959E-10
  -14.4899998       1.17605781E-09
  -14.4799995       1.42602707E-09
  -14.4700003       1.32231193E-09
  -14.4600000       7.77825970E-10
  -14.4499998      -1.86714005E-10
  -14.4399996      -1.41478373E-09
  -14.4300003      -2.61950150E-09
  -14.4200001      -3.43094175E-09
  -14.4099998      -3.48317597E-09
  -14.3999996      -2.52602228E-09
  -14.3900003      -5.34493116E-10
  -14.3800001       2.21791652E-09
  -14.3699999       5.15431919E-09
  -14.3599997       7.47836726E-09
  -14.3500004       8.34610869E-09
  -14.3400002       7.09859860E-09
  -14.3299999       3.50260820E-09
  -14.3199997      -2.06885020E-09
  -14.3100004      -8.58421334E-09
  -14.3000002      -1.44766652E-08
  -14.2900000      -1.79510220E-08
  -14.2799997      -1.74312955E-08
  -14.2700005      -1.20547838E-08
  -14.2600002      -2.08410622E-09
  -14.2500000       1.08984697E-08
  -14.2399998       2.41180693E-08
  -14.2299995       3.40925439E-08
  -14.2200003       3.74205236E-08
  -14.2100000       3.17195088E-08
  -14.1999998       1.64887553E-08
  -14.1899996      -6.35566844E-09
  -14.1800003      -3.24860459E-08
  -14.1700001      -5.58165212E-08
  -14.1599998      -6.97571849E-08
  -14.1499996      -6.88477826E-08
  -14.1400003      -5.04062250E-08
  -14.1300001      -1.57556581E-08
  -14.1199999       2.93755384E-08
  -14.1099997       7.55339400E-08
  -14.1000004       1.11315437E-07
  -14.0900002       1.25954344E-07
  -14.0799999       1.12191572E-07
  -14.0699997       6.87119055E-08
  -14.0600004       1.44969403E-09
  -14.0500002      -7.67605783E-08
  -14.0400000      -1.48360741E-07
  -14.0299997      -1.94786608E-07
  -14.0200005      -2.01001527E-07
  -14.0100002      -1.59796954E-07
  -14.0000000      -7.47141087E-08
  -13.9899998       3.93553385E-08
  -13.9799995       1.58373425E-07
  -13.9700003       2.53978726E-07
  -13.9600000       3.00039943E-07
  -13.9499998       2.79491587E-07
  -13.9399996       1.89730414E-07
  -13.9300003       4.50045903E-08
  -13.9200001      -1.25181458E-07
  -13.9099998      -2.81731019E-07
  -13.8999996      -3.84723450E-07
  -13.8900003      -4.03392448E-07
  -13.8800001      -3.24904647E-07
  -13.8699999      -1.59534423E-07
  -13.8599997       5.94960952E-08
  -13.8500004       2.82069180E-07
  -13.8400002       4.52201789E-07
  -13.8299999       5.21756078E-07
  -13.8199997       4.63574594E-07
  -13.8100004       2.80602421E-07
  -13.8000002       8.19864443E-09
  -13.7900000      -2.91660939E-07
  -13.7799997      -5.43647786E-07
  -13.7700005      -6.77152059E-07
  -13.7600002      -6.44990735E-07
  -13.7500000      -4.37999972E-07
  -13.7399998      -9.13108309E-08
  -13.7299995       3.20125054E-07
  -13.7200003       6.96700113E-07
  -13.7100000       9.37154311E-07
  -13.6999998       9.64299488E-07
  -13.6899996       7.47138984E-07
  -13.6800003       3.13376233E-07
  -13.6700001      -2.51777010E-07
  -13.6599998      -8.21484605E-07
  -13.6499996      -1.25517352E-06
  -13.6400003      -1.43243767E-06
  -13.6300001      -1.28491013E-06
  -13.6199999      -8.17886928E-07
  -13.6099997      -1.15319381E-07
  -13.6000004       6.74443811E-07
  -13.5900002       1.37021027E-06
  -13.5799999       1.80018708E-06
  -13.5699997       1.84518444E-06
  -13.5600004       1.47186165E-06
  -13.5500002       7.46899786E-07
  -13.5400000      -1.72976328E-07
  -13.5299997      -1.07447374E-06
  -13.5200005      -1.73790420E-06
  -13.5100002      -1.99257101E-06
  -13.5000000      -1.76353649E-06
  -13.4899998      -1.09707264E-06
  -13.4799995      -1.56527435E-07
  -13.4700003       8.12694509E-07
  -13.4600000       1.54252973E-06
  -13.4499998       1.81255746E-06
  -13.4399996       1.51382915E-06
  -13.4300003       6.88828550E-07
  -13.4200001      -4.65158621E-07
  -13.4099998      -1.63373909E-06
  -13.3999996      -2.45845240E-06
  -13.3900003      -2.62962385E-06
  -13.3800001      -1.97699205E-06
  -13.3699999      -5.34141350E-07
  -13.3599997       1.44277385E-06
  -13.3500004       3.51201879E-06
  -13.3400002       5.13578561E-06
  -13.3299999       5.80536471E-06
  -13.3199997       5.17439275E-06
  -13.3100004       3.16766659E-06
  -13.3000002       3.55826053E-08
  -13.2900000      -3.66515064E-06
  -13.2799997      -7.16765862E-06
  -13.2700005      -9.65264098E-06
  -13.2600002      -1.04357032E-05
  -13.2500000      -9.14191151E-06
  -13.2399998      -5.82471421E-06
  -13.2299995      -9.95361347E-07
  -13.2200003       4.45212527E-06
  -13.2100000       9.41186318E-06
  -13.1999998       1.28004358E-05
  -13.1899996       1.38049154E-05
  -13.1800003       1.20867726E-05
  -13.1700001       7.89094884E-06
  -13.1599998       2.02713909E-06
  -13.1499996      -4.28116755E-06
  -13.1400003      -9.65351410E-06
  -13.1300001      -1.28619613E-05
  -13.1199999      -1.31239831E-05
  -13.1099997      -1.03087168E-05
  -13.1000004      -5.00260148E-06
  -13.0900002       1.58931368E-06
  -13.0799999       7.89357091E-06
  -13.0699997       1.23195477E-05
  -13.0600004       1.36353829E-05
  -13.0500002       1.12810076E-05
  -13.0400000       5.54107464E-06
  -13.0299997      -2.47071807E-06
  -13.0200005      -1.10229794E-05
  -13.0100002      -1.81347732E-05
  -13.0000000      -2.20223737E-05
  -12.9899998      -2.15243017E-05
  -12.9799995      -1.64035246E-05
  -12.9700003      -7.45034276E-06
  -12.9600000       3.64853895E-06
  -12.9499998       1.46555103E-05
  -12.9399996       2.32712719E-05
  -12.9300003       2.76603696E-05
  -12.9200001       2.68921376E-05
  -12.9099998       2.11895949E-05
  -12.8999996       1.19200222E-05
  -12.8900003       1.31742127E-06
  -12.8800001      -8.01037095E-06
  -12.8699999      -1.36844737E-05
  -12.8599997      -1.41340715E-05
  -12.8500004      -9.01641124E-06
  -12.8400002       6.22739663E-07
  -12.8299999       1.24954740E-05
  -12.8199997       2.34986710E-05
  -12.8100004       3.03328088E-05
  -12.8000002       3.01772398E-05
  -12.7900000       2.12680116E-05
  -12.7799997       3.24770076E-06
  -12.7700005      -2.27936744E-05
  -12.7600002      -5.45974908E-05
  -12.7500000      -8.92669923E-05
  -12.7399998      -1.23924707E-04
  -12.7299995      -1.56337817E-04
  -12.7200003      -1.85354846E-04
  -12.7100000      -2.11053004E-04
  -12.6999998      -2.34543113E-04
  -12.6899996      -2.57492182E-04
  -12.6800003      -2.81458342E-04
  -12.6700001      -3.07219248E-04
  -12.6599998      -3.34254757E-04
  -12.6499996      -3.60527745E-04
  -12.6400003      -3.82626691E-04
  -12.6300001      -3.96272546E-04
  -12.6199999      -3.97066033E-04
  -12.6099997      -3.81341000E-04
  -12.6000004      -3.46902641E-04
  -12.5900002      -2.93507997E-04
  -12.5799999      -2.22956354E-04
  -12.5699997      -1.38765536E-04
  -12.5600004      -4.55042828E-05
  -12.5500002       5.20712601E-05
  -12.5400000       1.49899628E-04
  -12.5299997       2.45301839E-04
  -12.5200005       3.37332487E-04
  -12.5100002       4.26717103E-04
  -12.5000000       5.15396474E-04
  -12.4899998       6.05784240E-04
  -12.4799995       6.99915865E-04
  -12.4700003       7.98684661E-04
  -12.4600000       9.01348074E-04
  -12.4499998       1.00540998E-03
  -12.4399996       1.10691600E-03
  -12.4300003       1.20108959E-03
  -12.4200001       1.28317194E-03
  -12.4099998       1.34926185E-03
  -12.3999996       1.39698375E-03
  -12.3900003       1.42582087E-03
  -12.3800001       1.43704074E-03
  -12.3699999       1.43323210E-03
  -12.3599997       1.41756074E-03
  -12.3500004       1.39289605E-03
  -12.3400002       1.36102259E-03
  -12.3299999       1.32210122E-03
  -12.3199997       1.27449562E-03
  -12.3100004       1.21502555E-03
  -12.3000002       1.13957212E-03
  -12.2900000       1.04391074E-03
  -12.2799997       9.24612454E-04
  -12.2700005       7.79780792E-04
  -12.2600002       6.09506620E-04
  -12.2500000       4.15915129E-04
  -12.2399998       2.02800205E-04
  -12.2299995      -2.50487337E-05
  -12.2200003      -2.62712652E-04
  -12.2100000      -5.05992852E-04
  -12.1999998      -7.52056949E-04
  -12.1899996      -9.99741838E-04
  -12.1800003      -1.24946458E-03
  -12.1700001      -1.50272634E-03
  -12.1599998      -1.76136300E-03
  -12.1499996      -2.02667527E-03
  -12.1400003      -2.29864824E-03
  -12.1300001      -2.57541938E-03
  -12.1199999      -2.85312929E-03
  -12.1099997      -3.12616117E-03
  -12.1000004      -3.38773825E-03
  -12.0900002      -3.63073661E-03
  -12.0799999      -3.84855247E-03
  -12.0699997      -4.03583748E-03
  -12.0600004      -4.18898370E-03
  -12.0500002      -4.30625770E-03
  -12.0400000      -4.38761478E-03
  -12.0299997      -4.43422981E-03
  -12.0200005      -4.44790674E-03
  -12.0100002      -4.43046540E-03
  -12.0000000      -4.38326271E-03
  -11.9899998      -4.30690963E-03
  -11.9799995      -4.20122221E-03
  -11.9700003      -4.06538043E-03
  -11.9600000      -3.89820780E-03
  -11.9499998      -3.69851454E-03
  -11.9399996      -3.46537842E-03
  -11.9300003      -3.19834729E-03
  -11.9200001      -2.89750285E-03
  -11.9099998      -2.56340089E-03
  -11.8999996      -2.19694455E-03
  -11.8900003      -1.79919985E-03
  -11.8800001      -1.37125049E-03
  -11.8699999      -9.14076634E-04
  -11.8599997      -4.28507308E-04
  -11.8500004       8.47644333E-05
  -11.8400002       6.25110930E-04
  -11.8299999       1.19190000E-03
  -11.8199997       1.78438728E-03
  -11.8100004       2.40165018E-03
  -11.8000002       3.04254657E-03
  -11.7900000       3.70567897E-03
  -11.7799997       4.38940898E-03
  -11.7700005       5.09187113E-03
  -11.7600002       5.81099465E-03
  -11.7500000       6.54454250E-03
  -11.7399998       7.29012117E-03
  -11.7299995       8.04519095E-03
  -11.7200003       8.80706124E-03
  -11.7100000       9.57290735E-03
  -11.6999998       1.03397267E-02
  -11.6899996       1.11043723E-02
  -11.6800003       1.18635390E-02
  -11.6700001       1.26138227E-02
  -11.6599998       1.33517636E-02
  -11.6499996       1.40739521E-02
  -11.6400003       1.47771453E-02
  -11.6300001       1.54583910E-02
  -11.6199999       1.61152333E-02
  -11.6099997       1.67458225E-02
  -11.6000004       1.73491221E-02
  -11.5900002       1.79250184E-02
  -11.5799999       1.84743796E-02
  -11.5699997       1.89990513E-02
  -11.5600004       1.95017122E-02
  -11.5500002       1.99856553E-02
  -11.5400000       2.04544328E-02
  -11.5299997       2.09114589E-02
  -11.5200005       2.13595871E-02
  -11.5100002       2.18007509E-02
  -11.5000000       2.22357679E-02
  -11.4899998       2.26642694E-02
  -11.4799995       2.30848417E-02
  -11.4700003       2.34952923E-02
  -11.4600000       2.38930155E-02
  -11.4499998       2.42753364E-02
  -11.4399996       2.46398039E-02
  -11.4300003       2.49843262E-02
  -11.4200001       2.53071617E-02
  -11.4099998       2.56068688E-02
  -11.3999996       2.58821435E-02
  -11.3900003       2.61317622E-02
  -11.3800001       2.63546053E-02
  -11.3699999       2.65497603E-02
  -11.3599997       2.67167240E-02
  -11.3500004       2.68556066E-02
  -11.3400002       2.69672163E-02
  -11.3299999       2.70530563E-02
  -11.3199997       2.71150935E-02
  -11.3100004       2.71554962E-02
  -11.3000002       2.71762386E-02
  -11.2900000       2.71788836E-02
  -11.2799997       2.71644369E-02
  -11.2700005       2.71334015E-02
  -11.2600002       2.70860214E-02
  -11.2500000       2.70225462E-02
  -11.2399998       2.69434471E-02
  -11.2299995       2.68494748E-02
  -11.2200003       2.67414805E-02
  -11.2100000       2.66201161E-02
  -11.1999998       2.64853388E-02
  -11.1899996       2.63361167E-02
  -11.1800003       2.61701960E-02
  -11.1700001       2.59842761E-02
  -11.1599998       2.57743653E-02
  -11.1499996       2.55364478E-02
  -11.1400003       2.52671465E-02
  -11.1300001       2.49643102E-02
  -11.1199999       2.46273242E-02
  -11.1099997       2.42571346E-02
  -11.1000004       2.38558631E-02
  -11.0900002       2.34263167E-02
  -11.0799999       2.29713414E-02
  -11.0699997       2.24933419E-02
  -11.0600004       2.19938625E-02
  -11.0500002       2.14734767E-02
  -11.0400000       2.09319741E-02
  -11.0299997       2.03685183E-02
  -11.0200005       1.97821446E-02
  -11.0100002       1.91720836E-02
  -11.0000000       1.85382012E-02
  -10.9899998       1.78813059E-02
  -10.9799995       1.72034446E-02
  -10.9700003       1.65079907E-02
  -10.9600000       1.57996919E-02
  -10.9499998       1.50844315E-02
  -10.9399996       1.43688554E-02
  -10.9300003       1.36598060E-02
  -10.9200001       1.29636517E-02
  -10.9099998       1.22856461E-02
  -10.8999996       1.16294911E-02
  -10.8900003       1.09971333E-02
  -10.8800001       1.03889210E-02
  -10.8699999       9.80403088E-03
  -10.8599997       9.24109761E-03
  -10.8500004       8.69878009E-03
  -10.8400002       8.17621592E-03
  -10.8299999       7.67316855E-03
  -10.8199997       7.18986895E-03
  -10.8100004       6.72665797E-03
  -10.8000002       6.28356915E-03
  -10.7900000       5.85996918E-03
  -10.7799997       5.45449369E-03
  -10.7700005       5.06504998E-03
  -10.7600002       4.68923664E-03
  -10.7500000       4.32459498E-03
  -10.7399998       3.96891823E-03
  -10.7299995       3.62038333E-03
  -10.7200003       3.27738188E-03
  -10.7100000       2.93842750E-03
  -10.6999998       2.60198652E-03
  -10.6899996       2.26644403E-03
  -10.6800003       1.93029130E-03
  -10.6700001       1.59243308E-03
  -10.6599998       1.25267077E-03
  -10.6499996       9.11810552E-04
  -10.6400003       5.71825367E-04
  -10.6300001       2.35560976E-04
  -10.6199999      -9.37255172E-05
  -10.6099997      -4.12847789E-04
  -10.6000004      -7.19084230E-04
  -10.5900002      -1.01022644E-03
  -10.5799999      -1.28442410E-03
  -10.5699997      -1.53965247E-03
  -10.5600004      -1.77337462E-03
  -10.5500002      -1.98225933E-03
  -10.5400000      -2.16230238E-03
  -10.5299997      -2.30946671E-03
  -10.5200005      -2.42040376E-03
  -10.5100002      -2.49322294E-03
  -10.5000000      -2.52799294E-03
  -10.4899998      -2.52670329E-03
  -10.4799995      -2.49262247E-03
  -10.4700003      -2.42923014E-03
  -10.4600000      -2.33923434E-03
  -10.4499998      -2.22368864E-03
  -10.4399996      -2.08174041E-03
  -10.4300003      -1.91112666E-03
  -10.4200001      -1.70893117E-03
  -10.4099998      -1.47282484E-03
  -10.3999996      -1.20173069E-03
  -10.3900003      -8.96189944E-04
  -10.3800001      -5.57874271E-04
  -10.3699999      -1.88755163E-04
  -10.3599997       2.10188606E-04
  -10.3500004       6.39581413E-04
  -10.3400002       1.10203936E-03
  -10.3299999       1.60141557E-03
  -10.3199997       2.14160257E-03
  -10.3100004       2.72499630E-03
  -10.3000002       3.35120759E-03
  -10.2900000       4.01662569E-03
  -10.2799997       4.71461052E-03
  -10.2700005       5.43698249E-03
  -10.2600002       6.17565494E-03
  -10.2500000       6.92428602E-03
  -10.2399998       7.67949549E-03
  -10.2299995       8.44103657E-03
  -10.2200003       9.21101309E-03
  -10.2100000       9.99259017E-03
  -10.1999998       1.07882675E-02
  -10.1899996       1.15987901E-02
  -10.1800003       1.24225672E-02
  -10.1700001       1.32560087E-02
  -10.1599998       1.40945278E-02
  -10.1499996       1.49336960E-02
  -10.1400003       1.57705788E-02
  -10.1300001       1.66042224E-02
  -10.1199999       1.74357407E-02
  -10.1099997       1.82678588E-02
  -10.1000004       1.91040430E-02
  -10.0900002       1.99476872E-02
  -10.0799999       2.08016727E-02
  -10.0699997       2.16678958E-02
  -10.0600004       2.25472618E-02
  -10.0500002       2.34395918E-02
  -10.0400000       2.43435930E-02
  -10.0299997       2.52564810E-02
  -10.0200005       2.61737909E-02
  -10.0100002       2.70891879E-02
  -10.0000000       2.79947799E-02
  -9.98999977       2.88818795E-02
  -9.97999954       2.97421347E-02
  -9.97000027       3.05688549E-02
  -9.96000004       3.13580520E-02
  -9.94999981       3.21087725E-02
  -9.93999958       3.28227803E-02
  -9.93000031       3.35033312E-02
  -9.92000008       3.41535173E-02
  -9.90999985       3.47746909E-02
  -9.89999962       3.53653319E-02
  -9.89000034       3.59209441E-02
  -9.88000011       3.64346094E-02
  -9.86999989       3.68985273E-02
  -9.85999966       3.73053774E-02
  -9.85000038       3.76497135E-02
  -9.84000015       3.79285067E-02
  -9.82999992       3.81410792E-02
  -9.81999969       3.82883027E-02
  -9.81000042       3.83718275E-02
  -9.80000019       3.83935384E-02
  -9.78999996       3.83553095E-02
  -9.77999973       3.82597372E-02
  -9.77000046       3.81108932E-02
  -9.76000023       3.79148945E-02
  -9.75000000       3.76800895E-02
  -9.73999977       3.74164246E-02
  -9.72999954       3.71339694E-02
  -9.72000027       3.68414819E-02
  -9.71000004       3.65450345E-02
  -9.69999981       3.62474248E-02
  -9.68999958       3.59492302E-02
  -9.68000031       3.56500074E-02
  -9.67000008       3.53507362E-02
  -9.65999985       3.50556895E-02
  -9.64999962       3.47733051E-02
  -9.64000034       3.45158502E-02
  -9.63000011       3.42976376E-02
  -9.61999989       3.41325179E-02
  -9.60999966       3.40312608E-02
  -9.60000038       3.39998826E-02
  -9.59000015       3.40395048E-02
  -9.57999992       3.41473930E-02
  -9.56999969       3.43197845E-02
  -9.56000042       3.45542915E-02
  -9.55000019       3.48521471E-02
  -9.53999996       3.52189429E-02
  -9.52999973       3.56636830E-02
  -9.52000046       3.61965559E-02
  -9.51000023       3.68261635E-02
  -9.50000000       3.75571959E-02
  -9.48999977       3.83894108E-02
  -9.47999954       3.93183008E-02
  -9.47000027       4.03370559E-02
  -9.46000004       4.14397381E-02
  -9.44999981       4.26235050E-02
  -9.43999958       4.38905545E-02
  -9.43000031       4.52473275E-02
  -9.42000008       4.67033088E-02
  -9.40999985       4.82678413E-02
  -9.39999962       4.99473996E-02
  -9.39000034       5.17436117E-02
  -9.38000011       5.36530018E-02
  -9.36999989       5.56681603E-02
  -9.35999966       5.77800982E-02
  -9.35000038       5.99811189E-02
  -9.34000015       6.22666627E-02
  -9.32999992       6.46362007E-02
  -9.31999969       6.70922250E-02
  -9.31000042       6.96382150E-02
  -9.30000019       7.22760633E-02
  -9.28999996       7.50044733E-02
  -9.27999973       7.78176188E-02
  -9.27000046       8.07059631E-02
  -9.26000023       8.36583525E-02
  -9.25000000       8.66637453E-02
  -9.23999977       8.97136852E-02
  -9.22999954       9.28030461E-02
  -9.22000027       9.59299207E-02
  -9.21000004       9.90943611E-02
  -9.19999981      0.102296822    
  -9.18999958      0.105536208    
  -9.18000031      0.108809546    
  -9.17000008      0.112112164    
  -9.15999985      0.115438730    
  -9.14999962      0.118784837    
  -9.14000034      0.122147813    
  -9.13000011      0.125527278    
  -9.11999989      0.128924131    
  -9.10999966      0.132339180    
  -9.10000038      0.135771260    
  -9.09000015      0.139216065    
  -9.07999992      0.142665684    
  -9.06999969      0.146109447    
  -9.06000042      0.149535298    
  -9.05000019      0.152931705    
  -9.03999996      0.156289265    
  -9.02999973      0.159601003    
  -9.02000046      0.162862346    
  -9.01000023      0.166069776    
  -9.00000000      0.169219837    
  -8.98999977      0.172308326    
  -8.97999954      0.175329700    
  -8.97000027      0.178277925    
  -8.96000004      0.181147277    
  -8.94999981      0.183933243    
  -8.93999958      0.186633065    
  -8.93000031      0.189245060    
  -8.92000008      0.191767335    
  -8.90999985      0.194196567    
  -8.89999962      0.196526989    
  -8.89000034      0.198749140    
  -8.88000011      0.200851247    
  -8.86999989      0.202820286    
  -8.85999966      0.204643145    
  -8.85000038      0.206308722    
  -8.84000015      0.207807526    
  -8.82999992      0.209131882    
  -8.81999969      0.210274294    
  -8.81000042      0.211227551    
  -8.80000019      0.211983427    
  -8.78999996      0.212533683    
  -8.77999973      0.212872148    
  -8.77000046      0.212995946    
  -8.76000023      0.212907672    
  -8.75000000      0.212614954    
  -8.73999977      0.212129086    
  -8.72999954      0.211462647    
  -8.72000027      0.210625261    
  -8.71000004      0.209621489    
  -8.69999981      0.208449319    
  -8.68999958      0.207102016    
  -8.68000031      0.205571130    
  -8.67000008      0.203851104    
  -8.65999985      0.201943055    
  -8.64999962      0.199857146    
  -8.64000034      0.197612017    
  -8.63000011      0.195231646    
  -8.61999989      0.192740902    
  -8.60999966      0.190161467    
  -8.60000038      0.187507853    
  -8.59000015      0.184788749    
  -8.57999992      0.182007998    
  -8.56999969      0.179170385    
  -8.56000042      0.176284254    
  -8.55000019      0.173364505    
  -8.53999996      0.170432553    
  -8.52999973      0.167512596    
  -8.52000046      0.164627030    
  -8.51000023      0.161791861    
  -8.50000000      0.159013942    
  -8.48999977      0.156291589    
  -8.47999954      0.153619006    
  -8.47000027      0.150990263    
  -8.46000004      0.148406461    
  -8.44999981      0.145878434    
  -8.43999958      0.143426672    
  -8.43000031      0.141077295    
  -8.42000008      0.138856292    
  -8.40999985      0.136782303    
  -8.39999962      0.134863555    
  -8.39000034      0.133095860    
  -8.38000011      0.131466702    
  -8.36999989      0.129962534    
  -8.35999966      0.128573999    
  -8.35000038      0.127302244    
  -8.34000015      0.126161352    
  -8.32999992      0.125173837    
  -8.31999969      0.124366276    
  -8.31000042      0.123760946    
  -8.30000019      0.123370439    
  -8.28999996      0.123195246    
  -8.27999973      0.123224325    
  -8.27000046      0.123440966    
  -8.26000023      0.123829037    
  -8.25000000      0.124378428    
  -8.23999977      0.125088781    
  -8.22999954      0.125967935    
  -8.22000027      0.127029538    
  -8.21000004      0.128285855    
  -8.19999981      0.129743978    
  -8.18999958      0.131402999    
  -8.18000031      0.133253381    
  -8.17000008      0.135282174    
  -8.15999985      0.137475878    
  -8.14999962      0.139826789    
  -8.14000034      0.142333776    
  -8.13000011      0.145002320    
  -8.11999989      0.147841200    
  -8.10999966      0.150858119    
  -8.10000038      0.154055163    
  -8.09000015      0.157427073    
  -8.07999992      0.160961106    
  -8.06999969      0.164639950    
  -8.06000042      0.168445244    
  -8.05000019      0.172361851    
  -8.03999996      0.176379770    
  -8.02999973      0.180494845    
  -8.02000046      0.184706613    
  -8.01000023      0.189016566    
  -8.00000000      0.193425328    
  -7.98999977      0.197931841    
  -7.98000002      0.202532694    
  -7.96999979      0.207224846    
  -7.96000004      0.212004483    
  -7.94999981      0.216869578    
  -7.94000006      0.221818075    
  -7.92999983      0.226846844    
  -7.92000008      0.231949344    
  -7.90999985      0.237116158    
  -7.90000010      0.242332220    
  -7.88999987      0.247582361    
  -7.88000011      0.252850682    
  -7.86999989      0.258127242    
  -7.86000013      0.263407826    
  -7.84999990      0.268694669    
  -7.84000015      0.273994535    
  -7.82999992      0.279315680    
  -7.82000017      0.284662992    
  -7.80999994      0.290035486    
  -7.80000019      0.295425981    
  -7.78999996      0.300823182    
  -7.78000021      0.306213230    
  -7.76999998      0.311587095    
  -7.76000023      0.316938698    
  -7.75000000      0.322269678    
  -7.73999977      0.327585071    
  -7.73000002      0.332890719    
  -7.71999979      0.338189006    
  -7.71000004      0.343474656    
  -7.69999981      0.348735154    
  -7.69000006      0.353952289    
  -7.67999983      0.359107733    
  -7.67000008      0.364185333    
  -7.65999985      0.369178504    
  -7.65000010      0.374090165    
  -7.63999987      0.378931701    
  -7.63000011      0.383718193    
  -7.61999989      0.388464689    
  -7.61000013      0.393178701    
  -7.59999990      0.397858799    
  -7.59000015      0.402494401    
  -7.57999992      0.407068133    
  -7.57000017      0.411563218    
  -7.55999994      0.415967464    
  -7.55000019      0.420275480    
  -7.53999996      0.424494684    
  -7.53000021      0.428639591    
  -7.51999998      0.432726890    
  -7.51000023      0.436773539    
  -7.50000000      0.440789074    
  -7.48999977      0.444774568    
  -7.48000002      0.448724449    
  -7.46999979      0.452628285    
  -7.46000004      0.456476927    
  -7.44999981      0.460268170    
  -7.44000006      0.464008301    