  -16.0000000       0.00000000    
  -15.9899998       0.00000000    
  -15.9799995       0.00000000    
  -15.9700003       0.00000000    
  -15.9600000       0.00000000    
  -15.9499998       0.00000000    
  -15.9399996       0.00000000    
  -15.9300003       0.00000000    
  -15.9200001       0.00000000    
  -15.9099998       0.00000000    
  -15.8999996      -0.00000000    
  -15.8900003       2.80259693E-45
  -15.8800001       2.52233724E-44
  -15.8699999       9.52882956E-44
  -15.8599997      -1.72359711E-43
  -15.8500004      -3.73586171E-42
  -15.8400002      -2.22526196E-41
  -15.8299999      -8.83196383E-41
  -15.8199997      -2.79697772E-40
  -15.8100004      -7.66242612E-40
  -15.8000002      -1.72405113E-39
  -15.7900000      -1.68876083E-39
  -15.7799997       1.23038279E-38
  -15.7700005       1.04038418E-37
  -15.7600002       5.06694772E-37
  -15.7500000       1.90322286E-36
  -15.7399998       5.93781593E-36
  -15.7299995       1.58526534E-35
  -15.7200003       3.66453849E-35
  -15.7100000       7.32482500E-35
  -15.6999998       1.24250132E-34
  -15.6899996       1.68677746E-34
  -15.6800003       1.46237914E-34
  -15.6700001      -6.07376209E-35
  -15.6599998      -6.22424580E-34
  -15.6499996      -1.69920904E-33
  -15.6400003      -3.28641956E-33
  -15.6300001      -4.96106187E-33
  -15.6199999      -5.60519494E-33
  -15.6099997      -3.30746421E-33
  -15.6000004       4.22680475E-33
  -15.5900002       1.84009020E-32
  -15.5799999       3.74644332E-32
  -15.5699997       5.37762981E-32
  -15.5600004       5.21522939E-32
  -15.5500002       1.20088312E-32
  -15.5400000      -8.34982319E-32
  -15.5299997      -2.29552629E-31
  -15.5200005      -3.75835449E-31
  -15.5100002      -4.08023117E-31
  -15.5000000      -1.56252351E-31
  -15.4899998       5.41200232E-31
  -15.4799995       1.69811895E-30
  -15.4700003       2.97716815E-30
  -15.4600000       3.50313040E-30
  -15.4499998       1.86199641E-30
  -15.4399996      -3.47557531E-30
  -15.4300003      -1.31009579E-29
  -15.4200001      -2.50159447E-29
  -15.4099998      -3.29200198E-29
  -15.3999996      -2.56794290E-29
  -15.3900003       1.01831778E-29
  -15.3800001       8.32424297E-29
  -15.3699999       1.84970272E-28
  -15.3599997       2.75842761E-28
  -15.3500004       2.77975921E-28
  -15.3400002       8.69827542E-29
  -15.3299999      -3.84078411E-28
  -15.3199997      -1.12465064E-27
  -15.3100004      -1.92761378E-27
  -15.3000002      -2.31955998E-27
  -15.2900000      -1.59873929E-27
  -15.2799997       9.34177520E-28
  -15.2700005       5.51141908E-27
  -15.2600002       1.12732545E-26
  -15.2500000       1.57342976E-26
  -15.2399998       1.47751614E-26
  -15.2299995       3.66755995E-27
  -15.2200003      -2.05414773E-26
  -15.2100000      -5.55172818E-26
  -15.1999998      -9.01425625E-26
  -15.1899996      -1.03204601E-25
  -15.1800003      -6.70165196E-26
  -15.1700001       4.18523127E-26
  -15.1599998       2.24940926E-25
  -15.1499996       4.41831970E-25
  -15.1400003       5.97332035E-25
  -15.1300001       5.49409326E-25
  -15.1199999       1.50551170E-25
  -15.1099997      -6.73589049E-25
  -15.1000004      -1.82234067E-24
  -15.0900002      -2.93321815E-24
  -15.0799999      -3.37001497E-24
  -15.0699997      -2.35077710E-24
  -15.0600004       7.45773470E-25
  -15.0500002       5.92394821E-24
  -15.0400000       1.20948817E-23
  -15.0299997       1.68167364E-23
  -15.0200005       1.65465373E-23
  -15.0100002       7.64541191E-24
  -15.0000000      -1.18369170E-23
  -14.9899998      -3.99524254E-23
  -14.9799995      -6.90357800E-23
  -14.9700003      -8.54570053E-23
  -14.9600000      -7.21481771E-23
  -14.9499998      -1.45459687E-23
  -14.9399996       9.06523296E-23
  -14.9300003       2.26282012E-22
  -14.9200001       3.49169426E-22
  -14.9099998       3.93265412E-22
  -14.8999996       2.85541470E-22
  -14.8900003      -2.46858290E-23
  -14.8800001      -5.28172088E-22
  -14.8699999      -1.12206444E-21
  -14.8599997      -1.59787091E-21
  -14.8500004      -1.66964034E-21
  -14.8400002      -1.05379700E-21
  -14.8299999       4.04317593E-22
  -14.8199997       2.58572964E-21
  -14.8100004       4.98786315E-21
  -14.8000002       6.71701030E-21
  -14.7900000       6.64447287E-21
  -14.7799997       3.75111060E-21
  -14.7700005      -2.38193685E-21
  -14.7600002      -1.10633581E-20
  -14.7500000      -2.01657004E-20
  -14.7399998      -2.62170145E-20
  -14.7299995      -2.50930102E-20
  -14.7200003      -1.33401146E-20
  -14.7100000       1.00826087E-20
  -14.6999998       4.21313233E-20
  -14.6899996       7.47797382E-20
  -14.6800003       9.56392234E-20
  -14.6700001       9.05994834E-20
  -14.6599998       4.84397031E-20
  -14.6499996      -3.34356549E-20
  -14.6400003      -1.43816258E-19
  -14.6300001      -2.55308650E-19
  -14.6199999      -3.26969736E-19
  -14.6099997      -3.13254358E-19
  -14.6000004      -1.78780808E-19
  -14.5900002       8.39844554E-20
  -14.5799999       4.39379782E-19
  -14.5699997       8.02203894E-19
  -14.5600004       1.04657724E-18
  -14.5500002       1.03328342E-18
  -14.5400000       6.53527536E-19
  -14.5299997      -1.19712383E-19
  -14.5200005      -1.18786538E-18
  -14.5100002      -2.30899403E-18
  -14.5000000      -3.12273337E-18
  -14.4899998      -3.22614542E-18
  -14.4799995      -2.29414055E-18
  -14.4700003      -2.20269848E-19
  -14.4600000       2.76239364E-18
  -14.4499998       6.02872185E-18
  -14.4399996       8.62035191E-18
  -14.4300003       9.43687513E-18
  -14.4200001       7.54361174E-18
  -14.4099998       2.53585100E-18
  -14.3999996      -5.14005442E-18
  -14.3900003      -1.40282123E-17
  -14.3800001      -2.17741912E-17
  -14.3699999      -2.55604169E-17
  -14.3599997      -2.28345177E-17
  -14.3500004      -1.21953885E-17
  -14.3400002       5.79173874E-18
  -14.3299999       2.81289451E-17
  -14.3199997       4.95224761E-17
  -14.3100004       6.32665915E-17
  -14.3000002       6.28298071E-17
  -14.2900000       4.38692789E-17
  -14.2799997       6.18856292E-18
  -14.2700005      -4.49686814E-17
  -14.2600002      -9.88662944E-17
  -14.2500000      -1.40830186E-16
  -14.2399998      -1.55394679E-16
  -14.2299995      -1.30549403E-16
  -14.2200003      -6.21397928E-17
  -14.2100000       4.28174030E-17
  -14.1999998       1.65144531E-16
  -14.1899996       2.75718092E-16
  -14.1800003       3.41061760E-16
  -14.1700001       3.31565171E-16
  -14.1599998       2.30644954E-16
  -14.1499996       4.25010097E-17
  -14.1400003      -2.04027804E-16
  -14.1300001      -4.57481330E-16
  -14.1199999      -6.52444968E-16
  -14.1099997      -7.23965466E-16
  -14.1000004      -6.25035353E-16
  -14.0900002      -3.43049058E-16
  -14.0799999       8.94425896E-17
  -14.0699997       5.93757920E-16
  -14.0600004       1.05614294E-15
  -14.0500002       1.35031885E-15
  -14.0400000       1.36777504E-15
  -14.0299997       1.04928451E-15
  -14.0200005       4.09562294E-16
  -14.0100002      -4.52678547E-16
  -14.0000000      -1.36455282E-15
  -13.9899998      -2.10969861E-15
  -13.9799995      -2.47549847E-15
  -13.9700003      -2.30742638E-15
  -13.9600000      -1.55766956E-15
  -13.9499998      -3.14551958E-16
  -13.9399996       1.19790608E-15
  -13.9300003       2.65488988E-15
  -13.9200001       3.69655427E-15
  -13.9099998       4.01249968E-15
  -13.8999996       3.42615806E-15
  -13.8900003       1.95752236E-15
  -13.8800001      -1.54886486E-16
  -13.8699999      -2.48413609E-15
  -13.8599997      -4.49657435E-15
  -13.8500004      -5.67121000E-15
  -13.8400002      -5.63128594E-15
  -13.8299999      -4.25598523E-15
  -13.8199997      -1.74111339E-15
  -13.8100004       1.41331026E-15
  -13.8000002       4.49447964E-15
  -13.7900000       6.73351467E-15
  -13.7799997       7.49500830E-15
  -13.7700005       6.45433600E-15
  -13.7600002       3.71530504E-15
  -13.7500000      -1.69653552E-16
  -13.7399998      -4.29368158E-15
  -13.7299995      -7.59319128E-15
  -13.7200003      -9.10972246E-15
  -13.7100000      -8.25501539E-15
  -13.6999998      -5.01008172E-15
  -13.6899996       2.06758716E-18
  -13.6800003       5.60451123E-15
  -13.6700001       1.03118375E-14
  -13.6599998       1.26877074E-14
  -13.6499996       1.17344785E-14
  -13.6400003       7.21676052E-15
  -13.6300001      -1.73931334E-16
  -13.6199999      -8.87604385E-15
  -13.6099997      -1.67489974E-14
  -13.6000004      -2.15519097E-14
  -13.5900002      -2.15096732E-14
  -13.5799999      -1.58318606E-14
  -13.5699997      -5.04639064E-15
  -13.5600004       8.95853724E-15
  -13.5500002       2.32289062E-14
  -13.5400000       3.43400709E-14
  -13.5299997       3.91777743E-14
  -13.5200005       3.57312378E-14
  -13.5100002       2.37037122E-14
  -13.5000000       4.77174105E-15
  -13.4899998      -1.76051360E-14
  -13.4799995      -3.88208888E-14
  -13.4700003      -5.40919746E-14
  -13.4600000      -5.95533754E-14
  -13.4499998      -5.32273200E-14
  -13.4399996      -3.56203917E-14
  -13.4300003      -9.77620186E-15
  -13.4200001       1.92691390E-14
  -13.4099998       4.55387376E-14
  -13.3999996       6.34521868E-14
  -13.3900003       6.91404399E-14
  -13.3800001       6.14142729E-14
  -13.3699999       4.21261977E-14
  -13.3599997       1.58002934E-14
  -13.3500004      -1.14202564E-14
  -13.3400002      -3.32804192E-14
  -13.3299999      -4.50161657E-14
  -13.3199997      -4.46424378E-14
  -13.3100004      -3.35668518E-14
  -13.3000002      -1.63173579E-14
  -13.2900000       6.11909783E-16
  -13.2799997       1.05586909E-14
  -13.2700005       8.70336772E-15
  -13.2600002      -6.23780727E-15
  -13.2500000      -3.11371005E-14
  -13.2399998      -5.87327089E-14
  -13.2299995      -7.91256709E-14
  -13.2200003      -8.22457201E-14
  -13.2100000      -6.07503278E-14
  -13.1999998      -1.26408859E-14
  -13.1899996       5.71340935E-14
  -13.1800003       1.36649291E-13
  -13.1700001       2.08773753E-13
  -13.1599998       2.54541234E-13
  -13.1499996       2.57492107E-13
  -13.1400003       2.08041632E-13
  -13.1300001       1.06812047E-13
  -13.1199999      -3.40029010E-14
  -13.1099997      -1.91798617E-13
  -13.1000004      -3.37255262E-13
  -13.0900002      -4.39976397E-13
  -13.0799999      -4.74959210E-13
  -13.0699997      -4.28486673E-13
  -13.0600004      -3.02044766E-13
  -13.0500002      -1.13212147E-13
  -13.0400000       1.06906400E-13
  -13.0299997       3.19363161E-13
  -13.0200005       4.85080021E-13
  -13.0100002       5.72964527E-13
  -13.0000000       5.66616741E-13
  -12.9899998       4.68042759E-13
  -12.9799995       2.97408257E-13
  -12.9700003       8.87512787E-14
  -12.9600000      -1.17481735E-13
  -12.9499998      -2.83421398E-13
  -12.9399996      -3.82198938E-13
  -12.9300003      -4.03781500E-13
  -12.9200001      -3.56741248E-13
  -12.9099998      -2.65426461E-13
  -12.8999996      -1.63114896E-13
  -12.8900003      -8.27612786E-14
  -12.8800001      -4.76333755E-14
  -12.8699999      -6.42734902E-14
  -12.8599997      -1.19763723E-13
  -12.8500004      -1.84289229E-13
  -12.8400002      -2.18698418E-13
  -12.8299999      -1.85450803E-13
  -12.8199997      -6.03545060E-14
  -12.8100004       1.57915497E-13
  -12.8000002       4.43214476E-13
  -12.7900000       7.43933398E-13
  -12.7799997       9.91805813E-13
  -12.7700005       1.11604833E-12
  -12.7600002       1.05994022E-12
  -12.7500000       7.96112037E-13
  -12.7399998       3.36810901E-13
  -12.7299995      -2.63702986E-13
  -12.7200003      -9.15854849E-13
  -12.7100000      -1.50975315E-12
  -12.6999998      -1.93574388E-12
  -12.6899996      -2.10633182E-12
  -12.6800003      -1.97473440E-12
  -12.6700001      -1.54584808E-12
  -12.6599998      -8.76914969E-13
  -12.6499996      -6.73781235E-14
  -12.6400003       7.60170898E-13
  -12.6300001       1.48397755E-12
  -12.6199999       2.00683589E-12
  -12.6099997       2.27424004E-12
  -12.6000004       2.28282866E-12
  -12.5900002       2.07712818E-12
  -12.5799999       1.73525701E-12
  -12.5699997       1.34683833E-12
  -12.5600004       9.88298310E-13
  -12.5500002       7.01440804E-13
  -12.5400000       4.80577058E-13
  -12.5299997       2.71580149E-13
  -12.5200005      -1.65165546E-14
  -12.5100002      -4.89732116E-13
  -12.5000000      -1.24205496E-12
  -12.4899998      -2.32939124E-12
  -12.4799995      -3.75084035E-12
  -12.4700003      -5.44206563E-12
  -12.4600000      -7.28286095E-12
  -12.4499998      -9.11768751E-12
  -12.4399996      -1.07848635E-11
  -12.4300003      -1.21479320E-11
  -12.4200001      -1.31220130E-11
  -12.4099998      -1.36888305E-11
  -12.3999996      -1.38966868E-11
  -12.3900003      -1.38450128E-11
  -12.3800001      -1.36567138E-11
  -12.3699999      -1.34444495E-11
  -12.3599997      -1.32786846E-11
  -12.3500004      -1.31649925E-11
  -12.3400002      -1.30362223E-11
  -12.3299999      -1.27617404E-11
  -12.3199997      -1.21722007E-11
  -12.3100004      -1.10945350E-11
  -12.3000002      -9.38940072E-12
  -12.2900000      -6.98262238E-12
  -12.2799997      -3.88350810E-12
  -12.2700005      -1.85532348E-13
  -12.2600002       3.95085223E-12
  -12.2500000       8.32965294E-12
  -12.2399998       1.27580316E-11
  -12.2299995       1.70833746E-11
  -12.2200003       2.12204802E-11
  -12.2100000       2.51624988E-11
  -12.1999998       2.89730444E-11
  -12.1899996       3.27611931E-11
  -12.1800003       3.66450585E-11
  -12.1700001       4.07121732E-11
  -12.1599998       4.49858310E-11
  -12.1499996       4.94049940E-11
  -12.1400003       5.38227657E-11
  -12.1300001       5.80236588E-11
  -12.1199999       6.17561974E-11
  -12.1099997       6.47736587E-11
  -12.1000004       6.68740549E-11
  -12.0900002       6.79305986E-11
  -12.0799999       6.79065346E-11
  -12.0699997       6.68513370E-11
  -12.0600004       6.48796294E-11
  -12.0500002       6.21387455E-11
  -12.0400000       5.87717930E-11
  -12.0299997       5.48854989E-11
  -12.0200005       5.05295944E-11
  -12.0100002       4.56923596E-11
  -12.0000000       4.03119309E-11
  -11.9899998       3.43008434E-11
  -11.9799995       2.75763266E-11
  -11.9700003       2.00893555E-11
  -11.9600000       1.18447622E-11
  -11.9499998       2.90807591E-12
  -11.9399996      -6.60299159E-12
  -11.9300003      -1.65391711E-11
  -11.9200001      -2.67477152E-11
  -11.9099998      -3.71002534E-11
  -11.8999996      -4.75132850E-11
  -11.8900003      -5.79563238E-11
  -11.8800001      -6.84450968E-11
  -11.8699999      -7.90220944E-11
  -11.8599997      -8.97283775E-11
  -11.8500004      -1.00574361E-10
  -11.8400002      -1.11516088E-10
  -11.8299999      -1.22443972E-10
  -11.8199997      -1.33185935E-10
  -11.8100004      -1.43525261E-10
  -11.8000002      -1.53229152E-10
  -11.7900000      -1.62080960E-10
  -11.7799997      -1.69909045E-10
  -11.7700005      -1.76605647E-10
  -11.7600002      -1.82131199E-10
  -11.7500000      -1.86502827E-10
  -11.7399998      -1.89770089E-10
  -11.7299995      -1.91983721E-10
  -11.7200003      -1.93163624E-10
  -11.7100000      -1.93274133E-10
  -11.6999998      -1.92212996E-10
  -11.6899996      -1.89814511E-10
  -11.6800003      -1.85868612E-10
  -11.6700001      -1.80151158E-10
  -11.6599998      -1.72459422E-10
  -11.6499996      -1.62645161E-10
  -11.6400003      -1.50639778E-10
  -11.6300001      -1.36466130E-10
  -11.6199999      -1.20235821E-10
  -11.6099997      -1.02132358E-10
  -11.6000004      -8.23850224E-11
  -11.5900002      -6.12379175E-11
  -11.5799999      -3.89209741E-11
  -11.5699997      -1.56273362E-11
  -11.5600004       8.49951620E-12
  -11.5500002       3.33677183E-11
  -11.5400000       5.89290283E-11
  -11.5299997       8.51650694E-11
  -11.5200005       1.12071227E-10
  -11.5100002       1.39641854E-10
  -11.5000000       1.67860476E-10
  -11.4899998       1.96697061E-10
  -11.4799995       2.26111019E-10
  -11.4700003       2.56059118E-10
  -11.4600000       2.86506013E-10
  -11.4499998       3.17432913E-10
  -11.4399996       3.48843399E-10
  -11.4300003       3.80764642E-10
  -11.4200001       4.13241580E-10
  -11.4099998       4.46328280E-10
  -11.3999996       4.80075313E-10
  -11.3900003       5.14516374E-10
  -11.3800001       5.49657153E-10
  -11.3699999       5.85466564E-10
  -11.3599997       6.21874607E-10
  -11.3500004       6.58771870E-10
  -11.3400002       6.96015190E-10
  -11.3299999       7.33436867E-10
  -11.3199997       7.70854547E-10
  -11.3100004       8.08081657E-10
  -11.3000002       8.44938786E-10
  -11.2900000       8.81260731E-10
  -11.2799997       9.16902998E-10
  -11.2700005       9.51746126E-10
  -11.2600002       9.85696302E-10
  -11.2500000       1.01868414E-09
  -11.2399998       1.05066278E-09
  -11.2299995       1.08160580E-09
  -11.2200003       1.11150555E-09
  -11.2100000       1.14037202E-09
  -11.1999998       1.16823329E-09
  -11.1899996       1.19513888E-09
  -11.1800003       1.22116217E-09
  -11.1700001       1.24640454E-09
  -11.1599998       1.27099842E-09
  -11.1499996       1.29510491E-09
  -11.1400003       1.31891031E-09
  -11.1300001       1.34262168E-09
  -11.1199999       1.36644895E-09
  -11.1099997       1.39059708E-09
  -11.1000004       1.41524947E-09
  -11.0900002       1.44054912E-09
  -11.0799999       1.46658785E-09
  -11.0699997       1.49339419E-09
  -11.0600004       1.52092561E-09
  -11.0500002       1.54907198E-09
  -11.0400000       1.57765678E-09
  -11.0299997       1.60645175E-09
  -11.0200005       1.63518821E-09
  -11.0100002       1.66357783E-09
  -11.0000000       1.69132774E-09
  -10.9899998       1.71816805E-09
  -10.9799995       1.74385184E-09
  -10.9700003       1.76817638E-09
  -10.9600000       1.79097603E-09
  -10.9499998       1.81212656E-09
  -10.9399996       1.83153548E-09
  -10.9300003       1.84913707E-09
  -10.9200001       1.86488824E-09
  -10.9099998       1.87876226E-09
  -10.8999996       1.89075799E-09
  -10.8900003       1.90089477E-09
  -10.8800001       1.90922544E-09
  -10.8699999       1.91583638E-09
  -10.8599997       1.92084482E-09
  -10.8500004       1.92439686E-09
  -10.8400002       1.92664107E-09
  -10.8299999       1.92772909E-09
  -10.8199997       1.92779281E-09
  -10.8100004       1.92692973E-09
  -10.8000002       1.92520710E-09
  -10.7900000       1.92266358E-09
  -10.7799997       1.91930538E-09
  -10.7700005       1.91515270E-09
  -10.7600002       1.91022598E-09
  -10.7500000       1.90456428E-09
  -10.7399998       1.89822424E-09
  -10.7299995       1.89128135E-09
  -10.7200003       1.88381399E-09
  -10.7100000       1.87589011E-09
  -10.6999998       1.86755633E-09
  -10.6899996       1.85883764E-09
  -10.6800003       1.84973115E-09
  -10.6700001       1.84021975E-09
  -10.6599998       1.83027260E-09
  -10.6499996       1.81986082E-09
  -10.6400003       1.80894799E-09
  -10.6300001       1.79750759E-09
  -10.6199999       1.78550119E-09
  -10.6099997       1.77287873E-09
  -10.6000004       1.75957415E-09
  -10.5900002       1.74551229E-09
  -10.5799999       1.73060954E-09
  -10.5699997       1.71479431E-09
  -10.5600004       1.69802528E-09
  -10.5500002       1.68030545E-09
  -10.5400000       1.66170144E-09
  -10.5299997       1.64235370E-09
  -10.5200005       1.62244973E-09
  -10.5100002       1.60222879E-09
  -10.5000000       1.58194946E-09
  -10.4899998       1.56188085E-09
  -10.4799995       1.54226154E-09
  -10.4700003       1.52329893E-09
  -10.4600000       1.50513579E-09
  -10.4499998       1.48787216E-09
  -10.4399996       1.47155388E-09
  -10.4300003       1.45617818E-09
  -10.4200001       1.44170798E-09
  -10.4099998       1.42808987E-09
  -10.3999996       1.41526335E-09
  -10.3900003       1.40316636E-09
  -10.3800001       1.39174494E-09
  -10.3699999       1.38095746E-09
  -10.3599997       1.37076417E-09
  -10.3500004       1.36113243E-09
  -10.3400002       1.35201350E-09
  -10.3299999       1.34336275E-09
  -10.3199997       1.33512867E-09
  -10.3100004       1.32724731E-09
  -10.3000002       1.31967559E-09
  -10.2900000       1.31239286E-09
  -10.2799997       1.30540478E-09
  -10.2700005       1.29875521E-09
  -10.2600002       1.29250999E-09
  -10.2500000       1.28674371E-09
  -10.2399998       1.28152600E-09
  -10.2299995       1.27689903E-09
  -10.2200003       1.27287214E-09
  -10.2100000       1.26943522E-09
  -10.1999998       1.26655952E-09
  -10.1899996       1.26424560E-09
  -10.1800003       1.26253941E-09
  -10.1700001       1.26156285E-09
  -10.1599998       1.26150179E-09
  -10.1499996       1.26260957E-09
  -10.1400003       1.26515087E-09
  -10.1300001       1.26938371E-09
  -10.1199999       1.27549959E-09
  -10.1099997       1.28360755E-09
  -10.1000004       1.29372357E-09
  -10.0900002       1.30579558E-09
  -10.0799999       1.31973532E-09
  -10.0699997       1.33546008E-09
  -10.0600004       1.35291767E-09
  -10.0500002       1.37212497E-09
  -10.0400000       1.39314016E-09
  -10.0299997       1.41605239E-09
  -10.0200005       1.44095802E-09
  -10.0100002       1.46792944E-09
  -10.0000000       1.49699775E-09
  -9.98999977       1.52816348E-09
  -9.97999954       1.56143465E-09
  -9.97000027       1.59682900E-09
  -9.96000004       1.63442071E-09
  -9.94999981       1.67435144E-09
  -9.93999958       1.71680781E-09
  -9.93000031       1.76199111E-09
  -9.92000008       1.81006909E-09
  -9.90999985       1.86112969E-09
  -9.89999962       1.91514271E-09
  -9.89000034       1.97193684E-09
  -9.88000011       2.03123407E-09
  -9.86999989       2.09266982E-09
  -9.85999966       2.15584439E-09
  -9.85000038       2.22038032E-09
  -9.84000015       2.28594765E-09
  -9.82999992       2.35228526E-09
  -9.81999969       2.41918774E-09
  -9.81000042       2.48650034E-09
  -9.80000019       2.55409138E-09
  -9.78999996       2.62185362E-09
  -9.77999973       2.68969158E-09
  -9.77000046       2.75753886E-09
  -9.76000023       2.82537016E-09
  -9.75000000       2.89321012E-09
  -9.73999977       2.96115799E-09
  -9.72999954       3.02936098E-09
  -9.72000027       3.09799941E-09
  -9.71000004       3.16726778E-09
  -9.69999981       3.23733684E-09
  -9.68999958       3.30835048E-09
  -9.68000031       3.38041262E-09
  -9.67000008       3.45358830E-09
  -9.65999985       3.52791951E-09
  -9.64999962       3.60343577E-09
  -9.64000034       3.68016284E-09
  -9.63000011       3.75810449E-09
  -9.61999989       3.83723586E-09
  -9.60999966       3.91747967E-09
  -9.60000038       3.99871425E-09
  -9.59000015       4.08073930E-09
  -9.57999992       4.16329327E-09
  -9.56999969       4.24607371E-09
  -9.56000042       4.32876490E-09
  -9.55000019       4.41105552E-09
  -9.53999996       4.49266091E-09
  -9.52999973       4.57333948E-09
  -9.52000046       4.65287275E-09
  -9.51000023       4.73107153E-09
  -9.50000000       4.80775242E-09
  -9.48999977       4.88272400E-09
  -9.47999954       4.95579089E-09
  -9.47000027       5.02675501E-09
  -9.46000004       5.09542231E-09
  -9.44999981       5.16160492E-09
  -9.43999958       5.22513810E-09
  -9.43000031       5.28587130E-09
  -9.42000008       5.34368105E-09
  -9.40999985       5.39843104E-09
  -9.39999962       5.44999645E-09
  -9.39000034       5.49825607E-09
  -9.38000011       5.54307666E-09
  -9.36999989       5.58434587E-09
  -9.35999966       5.62197844E-09
  -9.35000038       5.65592995E-09
  -9.34000015       5.68621683E-09
  -9.32999992       5.71290304E-09
  -9.31999969       5.73614267E-09
  -9.31000042       5.75614933E-09
  -9.30000019       5.77321435E-09
  -9.28999996       5.78770498E-09
  -9.27999973       5.80008264E-09
  -9.27000046       5.81088511E-09
  -9.26000023       5.82073900E-09
  -9.25000000       5.83032778E-09
  -9.23999977       5.84039439E-09
  -9.22999954       5.85168047E-09
  -9.22000027       5.86489435E-09
  -9.21000004       5.88069771E-09
  -9.19999981       5.89967497E-09
  -9.18999958       5.92233373E-09
  -9.18000031       5.94910565E-09
  -9.17000008       5.98039929E-09
  -9.15999985       6.01658723E-09
  -9.14999962       6.05806338E-09
  -9.14000034       6.10525053E-09
  -9.13000011       6.15859008E-09
  -9.11999989       6.21849949E-09
  -9.10999966       6.28538910E-09
  -9.10000038       6.35959374E-09
  -9.09000015       6.44139808E-09
  -9.07999992       6.53102417E-09
  -9.06999969       6.62862787E-09
  -9.06000042       6.73434775E-09
  -9.05000019       6.84831836E-09
  -9.03999996       6.97067026E-09
  -9.02999973       7.10152470E-09
  -9.02000046       7.24097982E-09
  -9.01000023       7.38907691E-09
  -9.00000000       7.54575691E-09
  -8.98999977       7.71088970E-09
  -8.97999954       7.88424259E-09
  -8.97000027       8.06554734E-09
  -8.96000004       8.25452684E-09
  -8.94999981       8.45099191E-09
  -8.93999958       8.65482530E-09
  -8.93000031       8.86606255E-09
  -8.92000008       9.08482356E-09
  -8.90999985       9.31127708E-09
  -8.89999962       9.54558121E-09
  -8.89000034       9.78779813E-09
  -8.88000011       1.00378879E-08
  -8.86999989       1.02956568E-08
  -8.85999966       1.05608029E-08
  -8.85000038       1.08329843E-08
  -8.84000015       1.11118421E-08
  -8.82999992       1.13971108E-08
  -8.81999969       1.16886003E-08
  -8.81000042       1.19862191E-08
  -8.80000019       1.22899335E-08
  -8.78999996       1.25997293E-08
  -8.77999973       1.29155380E-08
  -8.77000046       1.32372229E-08
  -8.76000023       1.35645282E-08
  -8.75000000       1.38971252E-08
  -8.73999977       1.42346073E-08
  -8.72999954       1.45765338E-08
  -8.72000027       1.49224793E-08
  -8.71000004       1.52720272E-08
  -8.69999981       1.56247815E-08
  -8.68999958       1.59803246E-08
  -8.68000031       1.63382445E-08
  -8.67000008       1.66981042E-08
  -8.65999985       1.70594294E-08
  -8.64999962       1.74217387E-08
  -8.64000034       1.77845951E-08
  -8.63000011       1.81475706E-08
  -8.61999989       1.85103612E-08
  -8.60999966       1.88726759E-08
  -8.60000038       1.92342711E-08
  -8.59000015       1.95949124E-08
  -8.57999992       1.99543351E-08
  -8.56999969       2.03121768E-08
  -8.56000042       2.06679989E-08
  -8.55000019       2.10212505E-08
  -8.53999996       2.13713029E-08
  -8.52999973       2.17174545E-08
  -8.52000046       2.20590159E-08
  -8.51000023       2.23952608E-08
  -8.50000000       2.27255121E-08
  -8.48999977       2.30491111E-08
  -8.47999954       2.33654749E-08
  -8.47000027       2.36740458E-08
  -8.46000004       2.39742910E-08
  -8.44999981       2.42656775E-08
  -8.43999958       2.45477310E-08
  -8.43000031       2.48199683E-08
  -8.42000008       2.50819401E-08
  -8.40999985       2.53331986E-08
  -8.39999962       2.55733159E-08
  -8.39000034       2.58019153E-08
  -8.38000011       2.60185775E-08
  -8.36999989       2.62229580E-08
  -8.35999966       2.64147584E-08
  -8.35000038       2.65936642E-08
  -8.34000015       2.67594338E-08
  -8.32999992       2.69117830E-08
  -8.31999969       2.70505129E-08
  -8.31000042       2.71754441E-08
  -8.30000019       2.72863723E-08
  -8.28999996       2.73832299E-08
  -8.27999973       2.74660046E-08
  -8.27000046       2.75347514E-08
  -8.26000023       2.75896035E-08
  -8.25000000       2.76308345E-08
  -8.23999977       2.76587375E-08
  -8.22999954       2.76735985E-08
  -8.22000027       2.76758403E-08
  -8.21000004       2.76657914E-08
  -8.19999981       2.76438374E-08
  -8.18999958       2.76104650E-08
  -8.18000031       2.75661769E-08
  -8.17000008       2.75117458E-08
  -8.15999985       2.74480563E-08
  -8.14999962       2.73761103E-08
  -8.14000034       2.72970535E-08
  -8.13000011       2.72121277E-08
  -8.11999989       2.71224785E-08
  -8.10999966       2.70293334E-08
  -8.10000038       2.69337388E-08
  -8.09000015       2.68367870E-08
  -8.07999992       2.67395208E-08
  -8.06999969       2.66430256E-08
  -8.06000042       2.65484790E-08
  -8.05000019       2.64570730E-08
  -8.03999996       2.63698876E-08
  -8.02999973       2.62879620E-08
  -8.02000046       2.62121844E-08
  -8.01000023       2.61432476E-08
  -8.00000000       2.60817394E-08
  -7.98999977       2.60280313E-08
  -7.98000002       2.59825299E-08
  -7.96999979       2.59455888E-08
  -7.96000004       2.59177995E-08
  -7.94999981       2.58998298E-08
  -7.94000006       2.58923798E-08
  -7.92999983       2.58962682E-08
  -7.92000008       2.59120387E-08
  -7.90999985       2.59401052E-08
  -7.90000010       2.59806505E-08
  -7.88999987       2.60336233E-08
  -7.88000011       2.60989967E-08
  -7.86999989       2.61766271E-08
  -7.86000013       2.62666564E-08
  -7.84999990       2.63693600E-08
  -7.84000015       2.64851074E-08
  -7.82999992       2.66144884E-08
  -7.82000017       2.67579150E-08
  -7.80999994       2.69157585E-08
  -7.80000019       2.70881060E-08
  -7.78999996       2.72748490E-08
  -7.78000021       2.74758509E-08
  -7.76999998       2.76908363E-08
  -7.76000023       2.79196914E-08
  -7.75000000       2.81623720E-08
  -7.73999977       2.84191746E-08
  -7.73000002       2.86903727E-08
  -7.71999979       2.89762294E-08
  -7.71000004       2.92768778E-08
  -7.69999981       2.95921758E-08
  -7.69000006       2.99218534E-08
  -7.67999983       3.02653262E-08
  -7.67000008       3.06220755E-08
  -7.65999985       3.09915151E-08
  -7.65000010       3.13733288E-08
  -7.63999987       3.17673425E-08
  -7.63000011       3.21736522E-08
  -7.61999989       3.25924425E-08
  -7.61000013       3.30239089E-08
  -7.59999990       3.34682149E-08
  -7.59000015       3.39253035E-08
  -7.57999992       3.43951072E-08
  -7.57000017       3.48773490E-08
  -7.55999994       3.53717660E-08
  -7.55000019       3.58780774E-08
  -7.53999996       3.63961590E-08
  -7.53000021       3.69257087E-08
  -7.51999998       3.74666023E-08
  -7.51000023       3.80186655E-08
  -7.50000000       3.85814722E-08
  -7.48999977       3.91546422E-08
  -7.48000002       3.97376780E-08
  -7.46999979       4.03300326E-08
  -7.46000004       4.09311944E-08
  -7.44999981       4.15406589E-08
  -7.44000006       4.21581596E-08