  -16.0000000       0.00000000    
  -15.9899998       0.00000000    
  -15.9799995       0.00000000    
  -15.9700003       0.00000000    
  -15.9600000       0.00000000    
  -15.9499998       0.00000000    
  -15.9399996       0.00000000    
  -15.9300003       0.00000000    
  -15.9200001       0.00000000    
  -15.9099998       0.00000000    
  -15.8999996       0.00000000    
  -15.8900003       0.00000000    
  -15.8800001       0.00000000    
  -15.8699999       0.00000000    
  -15.8599997       0.00000000    
  -15.8500004       0.00000000    
  -15.8400002      -0.00000000    
  -15.8299999      -0.00000000    
  -15.8199997      -0.00000000    
  -15.8100004      -2.80259693E-45
  -15.8000002      -1.96181785E-44
  -15.7900000      -1.13505176E-43
  -15.7799997      -5.60519386E-43
  -15.7700005      -2.43405543E-42
  -15.7600002      -9.43494256E-42
  -15.7500000      -3.30244009E-41
  -15.7399998      -1.05143628E-40
  -15.7299995      -3.06293016E-40
  -15.7200003      -8.19800239E-40
  -15.7100000      -2.02132959E-39
  -15.6999998      -4.59571666E-39
  -15.6899996      -9.62578540E-39
  -15.6800003      -1.85065200E-38
  -15.6700001      -3.24102454E-38
  -15.6599998      -5.09267791E-38
  -15.6499996      -6.95787063E-38
  -15.6400003      -7.64070207E-38
  -15.6300001      -4.89730328E-38
  -15.6199999       4.50852058E-38
  -15.6099997       2.39009300E-37
  -15.6000004       5.44260871E-37
  -15.5900002       9.12963752E-37
  -15.5799999       1.19429426E-36
  -15.5699997       1.10981134E-36
  -15.5600004       2.89192870E-37
  -15.5500002      -1.58827822E-36
  -15.5400000      -4.52758574E-36
  -15.5299997      -7.87842659E-36
  -15.5200005      -1.00803727E-35
  -15.5100002      -8.75201677E-36
  -15.5000000      -1.39750317E-36
  -15.4899998       1.31627845E-35
  -15.4799995       3.29246009E-35
  -15.4700003       5.12245541E-35
  -15.4600000       5.69209951E-35
  -15.4499998       3.74304722E-35
  -15.4399996      -1.50969606E-35
  -15.4300003      -9.59766399E-35
  -15.4200001      -1.82188974E-34
  -15.4099998      -2.33450125E-34
  -15.3999996      -2.03966912E-34
  -15.3900003      -6.44716809E-35
  -15.3800001       1.72569424E-34
  -15.3699999       4.38130209E-34
  -15.3599997       6.17612079E-34
  -15.3500004       5.96243382E-34
  -15.3400002       3.30614903E-34
  -15.3299999      -8.49595659E-35
  -15.3199997      -4.07803556E-34
  -15.3100004      -3.43442531E-34
  -15.3000002       2.31257391E-34
  -15.2900000       9.72312081E-34
  -15.2799997       8.60545986E-34
  -15.2700005      -1.65514656E-33
  -15.2600002      -7.87424507E-33
  -15.2500000      -1.72947207E-32
  -15.2399998      -2.56295943E-32
  -15.2299995      -2.34874204E-32
  -15.2200003       2.34924438E-33
  -15.2100000       6.28130461E-32
  -15.1999998       1.54557042E-31
  -15.1899996       2.44571685E-31
  -15.1800003       2.59780796E-31
  -15.1700001       9.60924373E-32
  -15.1599998      -3.37088240E-31
  -15.1499996      -1.03059568E-30
  -15.1400003      -1.76719815E-30
  -15.1300001      -2.05066250E-30
  -15.1199999      -1.16846057E-30
  -15.1099997       1.51376805E-30
  -15.1000004       5.99973784E-30
  -15.0900002       1.09929463E-29
  -15.0799999       1.34839080E-29
  -15.0699997       9.15770285E-30
  -15.0600004      -5.85205437E-30
  -15.0500002      -3.17943499E-29
  -15.0400000      -6.15952660E-29
  -15.0299997      -7.87086341E-29
  -15.0200005      -5.94827977E-29
  -15.0100002       1.74050562E-29
  -15.0000000       1.54437542E-28
  -14.9899998       3.16469916E-28
  -14.9799995       4.20240706E-28
  -14.9700003       3.46411795E-28
  -14.9600000      -1.43209879E-29
  -14.9499998      -6.82074397E-28
  -14.9399996      -1.49894001E-27
  -14.9300003      -2.07933046E-27
  -14.9200001      -1.86318392E-27
  -14.9099998      -3.21863049E-28
  -14.8999996       2.68957677E-27
  -14.8900003       6.53603539E-27
  -14.8800001       9.57068853E-27
  -14.8699999       9.33603015E-27
  -14.8599997       3.40635339E-27
  -14.8500004      -9.14896380E-27
  -14.8400002      -2.60872604E-26
  -14.8299999      -4.09292099E-26
  -14.8199997      -4.35789105E-26
  -14.8100004      -2.34805327E-26
  -14.8000002       2.46965417E-26
  -14.7900000       9.43054493E-26
  -14.7799997       1.61979768E-25
  -14.7700005       1.88948543E-25
  -14.7600002       1.31803225E-25
  -14.7500000      -3.68647797E-26
  -14.7399998      -3.02696332E-25
  -14.7299995      -5.89315088E-25
  -14.7200003      -7.58140985E-25
  -14.7100000      -6.41328385E-25
  -14.6999998      -1.11462126E-25
  -14.6899996       8.25578436E-25
  -14.6800003       1.94880967E-24
  -14.6700001       2.80085045E-24
  -14.6599998       2.77524954E-24
  -14.6499996       1.33352735E-24
  -14.6400003      -1.68079615E-24
  -14.6300001      -5.73238832E-24
  -14.6199999      -9.44665509E-24
  -14.6099997      -1.07926987E-23
  -14.6000004      -7.69655850E-24
  -14.5900002       9.71344844E-25
  -14.5799999       1.43051185E-23
  -14.5699997       2.86396614E-23
  -14.5600004       3.77456848E-23
  -14.5500002       3.43532989E-23
  -14.5400000       1.30013854E-23
  -14.5299997      -2.64183948E-23
  -14.5200005      -7.57115123E-23
  -14.5100002      -1.17706390E-22
  -14.5000000      -1.29350154E-22
  -14.4899998      -8.90963362E-23
  -14.4799995       1.25888790E-23
  -14.4700003       1.62772423E-22
  -14.4600000       3.20362800E-22
  -14.4499998       4.20062677E-22
  -14.4399996       3.88924355E-22
  -14.4300003       1.74328743E-22
  -14.4200001      -2.23342931E-22
  -14.4099998      -7.25258269E-22
  -14.3999996      -1.17020359E-21
  -14.3900003      -1.34379711E-21
  -14.3800001      -1.04362415E-21
  -14.3699999      -1.69156719E-22
  -14.3599997       1.18998867E-21
  -14.3500004       2.70476085E-21
  -14.3400002       3.83365539E-21
  -14.3299999       3.94789961E-21
  -14.3199997       2.54601750E-21
  -14.3100004      -4.90880954E-22
  -14.3000002      -4.68815113E-21
  -14.2900000      -8.91304881E-21
  -14.2799997      -1.15416567E-20
  -14.2700005      -1.08852744E-20
  -14.2600002      -5.81390315E-21
  -14.2500000       3.58612320E-21
  -14.2399998       1.55589749E-20
  -14.2299995       2.66814603E-20
  -14.2200003       3.24923879E-20
  -14.2100000       2.87482163E-20
  -14.1999998       1.30695013E-20
  -14.1899996      -1.34873293E-20
  -14.1800003      -4.55365544E-20
  -14.1700001      -7.37152407E-20
  -14.1599998      -8.65917222E-20
  -14.1499996      -7.39860196E-20
  -14.1400003      -3.10030331E-20
  -14.1300001       3.84081930E-20
  -14.1199999       1.19777433E-19
  -14.1099997       1.89524759E-19
  -14.1000004       2.19976302E-19
  -14.0900002       1.87416664E-19
  -14.0799999       8.13901197E-20
  -14.0699997      -8.75114307E-20
  -14.0600004      -2.84462553E-19
  -14.0500002      -4.54283457E-19
  -14.0400000      -5.33214840E-19
  -14.0299997      -4.67042924E-19
  -14.0200005      -2.31497997E-19
  -14.0100002       1.51050250E-19
  -14.0000000       6.05028231E-19
  -13.9899998       1.01015689E-18
  -13.9799995       1.22644922E-18
  -13.9700003       1.13228236E-18
  -13.9600000       6.67092213E-19
  -13.9499998      -1.33391029E-19
  -13.9399996      -1.12218755E-18
  -13.9300003      -2.05614704E-18
  -13.9200001      -2.64397819E-18
  -13.9099998      -2.62078984E-18
  -13.8999996      -1.83313605E-18
  -13.8900003      -3.11648180E-19
  -13.8800001       1.69320511E-18
  -13.8699999       3.73122108E-18
  -13.8599997       5.23511608E-18
  -13.8500004       5.65549382E-18
  -13.8400002       4.62041997E-18
  -13.8299999       2.07901611E-18
  -13.8199997      -1.61520405E-18
  -13.8100004      -5.71706087E-18
  -13.8000002      -9.21387220E-18
  -13.7900000      -1.10477986E-17
  -13.7799997      -1.03929652E-17
  -13.7700005      -6.92081629E-18
  -13.7600002      -9.78850382E-19
  -13.7500000       6.38080259E-18
  -13.7399998       1.35554024E-17
  -13.7299995       1.87157207E-17
  -13.7200003       2.02394800E-17
  -13.7100000       1.71547647E-17
  -13.6999998       9.47779327E-18
  -13.6899996      -1.65718160E-18
  -13.6800003      -1.41349169E-17
  -13.6700001      -2.52576506E-17
  -13.6599998      -3.23292094E-17
  -13.6499996      -3.32925737E-17
  -13.6400003      -2.72631567E-17
  -13.6300001      -1.48160489E-17
  -13.6199999       2.05809237E-18
  -13.6099997       2.03297552E-17
  -13.6000004       3.65524628E-17
  -13.5900002       4.75743731E-17
  -13.5799999       5.11598139E-17
  -13.5699997       4.63692437E-17
  -13.5600004       3.36221093E-17
  -13.5500002       1.44675295E-17
  -13.5400000      -8.81946587E-18
  -13.5299997      -3.36475004E-17
  -13.5200005      -5.73684166E-17
  -13.5100002      -7.73105301E-17
  -13.5000000      -9.06323467E-17
  -13.4899998      -9.41674585E-17
  -13.4799995      -8.45036795E-17
  -13.4700003      -5.85171918E-17
  -13.4600000      -1.44481652E-17
  -13.4499998       4.66218548E-17
  -13.4399996       1.19284712E-16
  -13.4300003       1.92903680E-16
  -13.4200001       2.51930521E-16
  -13.4099998       2.77907010E-16
  -13.3999996       2.53222697E-16
  -13.3900003       1.66150317E-16
  -13.3800001       1.61046076E-17
  -13.3699999      -1.82344766E-16
  -13.3599997      -3.98266819E-16
  -13.3500004      -5.87172662E-16
  -13.3400002      -6.98223658E-16
  -13.3299999      -6.85110900E-16
  -13.3199997      -5.18666808E-16
  -13.3100004      -1.98326650E-16
  -13.3000002       2.40811096E-16
  -13.2900000       7.28135727E-16
  -13.2799997       1.16640884E-15
  -13.2700005       1.44896399E-15
  -13.2600002       1.48259141E-15
  -13.2500000       1.21155929E-15
  -13.2399998       6.37138501E-16
  -13.2299995      -1.72823309E-16
  -13.2200003      -1.08814829E-15
  -13.2100000      -1.93546901E-15
  -13.1999998      -2.52989365E-15
  -13.1899996      -2.71350753E-15
  -13.1800003      -2.39269041E-15
  -13.1700001      -1.56561557E-15
  -13.1599998      -3.32678225E-16
  -13.1499996       1.11410064E-15
  -13.1400003       2.52211217E-15
  -13.1300001       3.62430279E-15
  -13.1199999       4.19127488E-15
  -13.1099997       4.07832769E-15
  -13.1000004       3.25709198E-15
  -13.0900002       1.82458795E-15
  -13.0799999      -1.24689967E-17
  -13.0699997      -1.97469659E-15
  -13.0600004      -3.76010546E-15
  -13.0500002      -5.09612036E-15
  -13.0400000      -5.78246142E-15
  -13.0299997      -5.71659910E-15
  -13.0200005      -4.89840678E-15
  -13.0100002      -3.41621538E-15
  -13.0000000      -1.42129164E-15
  -12.9899998       8.99837828E-16
  -12.9799995       3.34631907E-15
  -12.9700003       5.71184682E-15
  -12.9600000       7.78167644E-15
  -12.9499998       9.32375498E-15
  -12.9399996       1.00840636E-14
  -12.9300003       9.79720404E-15
  -12.9200001       8.22003293E-15
  -12.9099998       5.18949346E-15
  -12.8999996       6.96804825E-16
  -12.8900003      -5.03833789E-15
  -12.8800001      -1.15155730E-14
  -12.8699999      -1.79463293E-14
  -12.8599997      -2.33078073E-14
  -12.8500004      -2.64640367E-14
  -12.8400002      -2.63446102E-14
  -12.8299999      -2.21560170E-14
  -12.8199997      -1.35886717E-14
  -12.8100004      -9.76973836E-16
  -12.8000002       1.46266479E-14
  -12.7900000       3.14907673E-14
  -12.7799997       4.73649203E-14
  -12.7700005       5.97460585E-14
  -12.7600002       6.62162179E-14
  -12.7500000       6.48013002E-14
  -12.7399998       5.42955133E-14
  -12.7299995       3.45013020E-14
  -12.7200003       6.34964654E-15
  -12.7100000      -2.81139739E-14
  -12.6999998      -6.58699508E-14
  -12.6899996      -1.03165279E-13
  -12.6800003      -1.35818846E-13
  -12.6700001      -1.59554363E-13
  -12.6599998      -1.70333691E-13
  -12.6499996      -1.64676405E-13
  -12.6400003      -1.39967017E-13
  -12.6300001      -9.47589988E-14
  -12.6199999      -2.90861017E-14
  -12.6099997       5.52219369E-14
  -12.6000004       1.54241610E-13
  -12.5900002       2.61724643E-13
  -12.5799999       3.69003710E-13
  -12.5699997       4.65116660E-13
  -12.5600004       5.37225429E-13
  -12.5500002       5.71380454E-13
  -12.5400000       5.53640738E-13
  -12.5299997       4.71504238E-13
  -12.5200005       3.15554765E-13
  -12.5100002       8.11806134E-14
  -12.5000000      -2.29795919E-13
  -12.4899998      -6.07747305E-13
  -12.4799995      -1.03427217E-12
  -12.4700003      -1.48173520E-12
  -12.4600000      -1.91337397E-12
  -12.4499998      -2.28398919E-12
  -12.4399996      -2.54120574E-12
  -12.4300003      -2.62726538E-12
  -12.4200001      -2.48131767E-12
  -12.4099998      -2.04216787E-12
  -12.3999996      -1.25144697E-12
  -12.3900003      -5.71424079E-14
  -12.3800001       1.58260709E-12
  -12.3699999       3.69559505E-12
  -12.3599997       6.29174447E-12
  -12.3500004       9.35967883E-12
  -12.3400002       1.28639512E-11
  -12.3299999       1.67433463E-11
  -12.3199997       2.09104435E-11
  -12.3100004       2.52526403E-11
  -12.3000002       2.96347218E-11
  -12.2900000       3.39029395E-11
  -12.2799997       3.78903124E-11
  -12.2700005       4.14229068E-11
  -12.2600002       4.43267090E-11
  -12.2500000       4.64346096E-11
  -12.2399998       4.75932939E-11
  -12.2299995       4.76693546E-11
  -12.2200003       4.65546490E-11
  -12.2100000       4.41706463E-11
  -12.1999998       4.04711993E-11
  -12.1899996       3.54440921E-11
  -12.1800003       2.91111892E-11
  -12.1700001       2.15269139E-11
  -12.1599998       1.27753849E-11
  -12.1499996       2.96645694E-12
  -12.1400003      -7.76913863E-12
  -12.1300001      -1.92852869E-11
  -12.1199999      -3.14258550E-11
  -12.1099997      -4.40298249E-11
  -12.1000004      -5.69356090E-11
  -12.0900002      -6.99841921E-11
  -12.0799999      -8.30211733E-11
  -12.0699997      -9.58974913E-11
  -12.0600004      -1.08469178E-10
  -12.0500002      -1.20596130E-10
  -12.0400000      -1.32140562E-10
  -12.0299997      -1.42965501E-10
  -12.0200005      -1.52933027E-10
  -12.0100002      -1.61903352E-10
  -12.0000000      -1.69734324E-10
  -11.9899998      -1.76281656E-10
  -11.9799995      -1.81399840E-10
  -11.9700003      -1.84943644E-10
  -11.9600000      -1.86770849E-10
  -11.9499998      -1.86744939E-10
  -11.9399996      -1.84739071E-10
  -11.9300003      -1.80639975E-10
  -11.9200001      -1.74352185E-10
  -11.9099998      -1.65802636E-10
  -11.8999996      -1.54944266E-10
  -11.8900003      -1.41758980E-10
  -11.8800001      -1.26260141E-10
  -11.8699999      -1.08492881E-10
  -11.8599997      -8.85335832E-11
  -11.8500004      -6.64878569E-11
  -11.8400002      -4.24874337E-11
  -11.8299999      -1.66864005E-11
  -11.8199997       1.07425891E-11
  -11.8100004       3.96125945E-11
  -11.8000002       6.97247260E-11
  -11.7900000       1.00870839E-10
  -11.7799997       1.32834369E-10
  -11.7700005       1.65390299E-10
  -11.7600002       1.98304706E-10
  -11.7500000       2.31333674E-10
  -11.7399998       2.64221978E-10
  -11.7299995       2.96703634E-10
  -11.7200003       3.28501643E-10
  -11.7100000       3.59330288E-10
  -11.6999998       3.88897803E-10
  -11.6899996       4.16910145E-10
  -11.6800003       4.43075743E-10
  -11.6700001       4.67109740E-10
  -11.6599998       4.88738550E-10
  -11.6499996       5.07702991E-10
  -11.6400003       5.23760979E-10
  -11.6300001       5.36688971E-10
  -11.6199999       5.46281909E-10
  -11.6099997       5.52353108E-10
  -11.6000004       5.54733093E-10
  -11.5900002       5.53268709E-10
  -11.5799999       5.47822732E-10
  -11.5699997       5.38272205E-10
  -11.5600004       5.24509103E-10
  -11.5500002       5.06440112E-10
  -11.5400000       4.83987184E-10
  -11.5299997       4.57088423E-10
  -11.5200005       4.25697977E-10
  -11.5100002       3.89787841E-10
  -11.5000000       3.49349077E-10
  -11.4899998       3.04394066E-10
  -11.4799995       2.54957527E-10
  -11.4700003       2.01100095E-10
  -11.4600000       1.42910239E-10
  -11.4499998       8.05060602E-11
  -11.4399996       1.40361507E-11
  -11.4300003      -5.63203130E-11
  -11.4200001      -1.30356642E-10
  -11.4099998      -2.07840939E-10
  -11.3999996      -2.88522817E-10
  -11.3900003      -3.72137599E-10
  -11.3800001      -4.58413779E-10
  -11.3699999      -5.47077772E-10
  -11.3599997      -6.37859598E-10
  -11.3500004      -7.30495053E-10
  -11.3400002      -8.24728785E-10
  -11.3299999      -9.20314491E-10
  -11.3199997      -1.01701403E-09
  -11.3100004      -1.11459797E-09
  -11.3000002      -1.21284494E-09
  -11.2900000      -1.31153988E-09
  -11.2799997      -1.41047596E-09
  -11.2700005      -1.50945356E-09
  -11.2600002      -1.60828140E-09
  -11.2500000      -1.70677461E-09
  -11.2399998      -1.80475856E-09
  -11.2299995      -1.90206451E-09
  -11.2200003      -1.99853023E-09
  -11.2100000      -2.09400008E-09
  -11.1999998      -2.18832241E-09
  -11.1899996      -2.28135089E-09
  -11.1800003      -2.37294451E-09
  -11.1700001      -2.46296561E-09
  -11.1599998      -2.55128474E-09
  -11.1499996      -2.63777755E-09
  -11.1400003      -2.72232703E-09
  -11.1300001      -2.80482970E-09
  -11.1199999      -2.88518942E-09
  -11.1099997      -2.96333158E-09
  -11.1000004      -3.03918957E-09
  -11.0900002      -3.11272319E-09
  -11.0799999      -3.18390980E-09
  -11.0699997      -3.25275229E-09
  -11.0600004      -3.31927286E-09
  -11.0500002      -3.38351525E-09
  -11.0400000      -3.44553563E-09
  -11.0299997      -3.50539908E-09
  -11.0200005      -3.56317198E-09
  -11.0100002      -3.61890873E-09
  -11.0000000      -3.67265107E-09
  -10.9899998      -3.72442277E-09
  -10.9799995      -3.77421916E-09
  -10.9700003      -3.82202670E-09
  -10.9600000      -3.86779675E-09
  -10.9499998      -3.91148491E-09
  -10.9399996      -3.95303035E-09
  -10.9300003      -3.99238154E-09
  -10.9200001      -4.02947720E-09
  -10.9099998      -4.06427825E-09
  -10.8999996      -4.09673895E-09
  -10.8900003      -4.12682644E-09
  -10.8800001      -4.15450829E-09
  -10.8699999      -4.17975121E-09
  -10.8599997      -4.20251434E-09
  -10.8500004      -4.22274482E-09
  -10.8400002      -4.24038404E-09
  -10.8299999      -4.25537294E-09
  -10.8199997      -4.26762758E-09
  -10.8100004      -4.27707292E-09
  -10.8000002      -4.28362501E-09
  -10.7900000      -4.28721370E-09
  -10.7799997      -4.28777813E-09
  -10.7700005      -4.28526459E-09
  -10.7600002      -4.27965885E-09
  -10.7500000      -4.27096847E-09
  -10.7399998      -4.25924052E-09
  -10.7299995      -4.24453361E-09
  -10.7200003      -4.22694324E-09
  -10.7100000      -4.20659862E-09
  -10.6999998      -4.18363033E-09
  -10.6899996      -4.15818580E-09
  -10.6800003      -4.13042622E-09
  -10.6700001      -4.10050305E-09
  -10.6599998      -4.06857259E-09
  -10.6499996      -4.03479294E-09
  -10.6400003      -3.99931022E-09
  -10.6300001      -3.96228428E-09
  -10.6199999      -3.92386124E-09
  -10.6099997      -3.88418542E-09
  -10.6000004      -3.84342558E-09
  -10.5900002      -3.80176290E-09
  -10.5799999      -3.75937725E-09
  -10.5699997      -3.71647957E-09
  -10.5600004      -3.67331943E-09
  -10.5500002      -3.63014085E-09
  -10.5400000      -3.58722674E-09
  -10.5299997      -3.54486240E-09
  -10.5200005      -3.50336071E-09
  -10.5100002      -3.46300455E-09
  -10.5000000      -3.42406370E-09
  -10.4899998      -3.38680084E-09
  -10.4799995      -3.35141603E-09
  -10.4700003      -3.31809780E-09
  -10.4600000      -3.28697958E-09
  -10.4499998      -3.25817218E-09
  -10.4399996      -3.23175087E-09
  -10.4300003      -3.20775517E-09
  -10.4200001      -3.18623172E-09
  -10.4099998      -3.16718629E-09
  -10.3999996      -3.15061621E-09
  -10.3900003      -3.13651771E-09
  -10.3800001      -3.12485327E-09
  -10.3699999      -3.11558690E-09
  -10.3599997      -3.10869086E-09
  -10.3500004      -3.10409498E-09
  -10.3400002      -3.10175419E-09
  -10.3299999      -3.10159787E-09
  -10.3199997      -3.10354875E-09
  -10.3100004      -3.10751713E-09
  -10.3000002      -3.11340997E-09
  -10.2900000      -3.12112070E-09
  -10.2799997      -3.13054804E-09
  -10.2700005      -3.14159543E-09
  -10.2600002      -3.15416693E-09
  -10.2500000      -3.16820459E-09
  -10.2399998      -3.18366422E-09
  -10.2299995      -3.20052140E-09
  -10.2200003      -3.21877658E-09
  -10.2100000      -3.23843952E-09
  -10.1999998      -3.25956351E-09
  -10.1899996      -3.28219318E-09
  -10.1800003      -3.30637673E-09
  -10.1700001      -3.33216077E-09
  -10.1599998      -3.35962169E-09
  -10.1499996      -3.38883055E-09
  -10.1400003      -3.41982753E-09
  -10.1300001      -3.45270323E-09
  -10.1199999      -3.48753515E-09
  -10.1099997      -3.52440388E-09
  -10.1000004      -3.56340468E-09
  -10.0900002      -3.60463814E-09
  -10.0799999      -3.64818264E-09
  -10.0699997      -3.69412279E-09
  -10.0600004      -3.74254006E-09
  -10.0500002      -3.79352283E-09
  -10.0400000      -3.84714172E-09
  -10.0299997      -3.90345667E-09
  -10.0200005      -3.96256050E-09
  -10.0100002      -4.02447364E-09
  -10.0000000      -4.08925604E-09
  -9.98999977      -4.15696633E-09
  -9.97999954      -4.22762270E-09
  -9.97000027      -4.30126468E-09
  -9.96000004      -4.37793313E-09
  -9.94999981      -4.45766712E-09
  -9.93999958      -4.54050886E-09
  -9.93000031      -4.62653338E-09
  -9.92000008      -4.71576778E-09
  -9.90999985      -4.80827023E-09
  -9.89999962      -4.90410113E-09
  -9.89000034      -5.00331598E-09
  -9.88000011      -5.10593168E-09
  -9.86999989      -5.21200461E-09
  -9.85999966      -5.32156008E-09
  -9.85000038      -5.43463319E-09
  -9.84000015      -5.55122881E-09
  -9.82999992      -5.67139447E-09
  -9.81999969      -5.79510306E-09
  -9.81000042      -5.92239058E-09
  -9.80000019      -6.05323924E-09
  -9.78999996      -6.18764462E-09
  -9.77999973      -6.32561337E-09
  -9.77000046      -6.46712417E-09
  -9.76000023      -6.61219302E-09
  -9.75000000      -6.76079814E-09
  -9.73999977      -6.91296220E-09
  -9.72999954      -7.06869097E-09
  -9.72000027      -7.22798976E-09
  -9.71000004      -7.39086481E-09
  -9.69999981      -7.55727747E-09
  -9.68999958      -7.72719666E-09
  -9.68000031      -7.90052024E-09
  -9.67000008      -8.07714251E-09
  -9.65999985      -8.25690449E-09
  -9.64999962      -8.43960812E-09
  -9.64000034      -8.62501981E-09
  -9.63000011      -8.81286244E-09
  -9.61999989      -9.00283492E-09
  -9.60999966      -9.19459531E-09
  -9.60000038      -9.38778122E-09
  -9.59000015      -9.58202406E-09
  -9.57999992      -9.77690462E-09
  -9.56999969      -9.97200011E-09
  -9.56000042      -1.01669322E-08
  -9.55000019      -1.03612319E-08
  -9.53999996      -1.05544951E-08
  -9.52999973      -1.07463363E-08
  -9.52000046      -1.09363318E-08
  -9.51000023      -1.11241230E-08
  -9.50000000      -1.13093241E-08
  -9.48999977      -1.14916023E-08
  -9.47999954      -1.16706378E-08
  -9.47000027      -1.18461587E-08
  -9.46000004      -1.20179156E-08
  -9.44999981      -1.21857617E-08
  -9.43999958      -1.23495054E-08
  -9.43000031      -1.25091573E-08
  -9.42000008      -1.26647306E-08
  -9.40999985      -1.28162592E-08
  -9.39999962      -1.29639472E-08
  -9.39000034      -1.31080098E-08
  -9.38000011      -1.32487159E-08
  -9.36999989      -1.33864209E-08
  -9.35999966      -1.35215341E-08
  -9.35000038      -1.36545557E-08
  -9.34000015      -1.37859963E-08
  -9.32999992      -1.39164467E-08
  -9.31999969      -1.40465461E-08
  -9.31000042      -1.41769503E-08
  -9.30000019      -1.43083918E-08
  -9.28999996      -1.44416674E-08
  -9.27999973      -1.45775036E-08
  -9.27000046      -1.47167203E-08
  -9.26000023      -1.48601247E-08
  -9.25000000      -1.50084869E-08
  -9.23999977      -1.51626338E-08
  -9.22999954      -1.53232858E-08
  -9.22000027      -1.54911817E-08
  -9.21000004      -1.56669824E-08
  -9.19999981      -1.58513132E-08
  -9.18999958      -1.60447016E-08
  -9.18000031      -1.62475882E-08
  -9.17000008      -1.64603318E-08
  -9.15999985      -1.66831953E-08
  -9.14999962      -1.69163137E-08
  -9.14000034      -1.71596977E-08
  -9.13000011      -1.74133330E-08
  -9.11999989      -1.76769852E-08
  -9.10999966      -1.79503896E-08
  -9.10000038      -1.82331394E-08
  -9.09000015      -1.85247888E-08
  -9.07999992      -1.88247391E-08
  -9.06999969      -1.91323402E-08
  -9.06000042      -1.94469489E-08
  -9.05000019      -1.97677963E-08
  -9.03999996      -2.00940313E-08
  -9.02999973      -2.04248387E-08
  -9.02000046      -2.07593391E-08
  -9.01000023      -2.10966675E-08
  -9.00000000      -2.14359641E-08
  -8.98999977      -2.17763532E-08
  -8.97999954      -2.21170495E-08
  -8.97000027      -2.24571934E-08
  -8.96000004      -2.27959873E-08
  -8.94999981      -2.31326709E-08
  -8.93999958      -2.34666118E-08
  -8.93000031      -2.37971900E-08
  -8.92000008      -2.41238070E-08
  -8.90999985      -2.44459564E-08
  -8.89999962      -2.47631640E-08
  -8.89000034      -2.50750638E-08
  -8.88000011      -2.53813219E-08
  -8.86999989      -2.56817003E-08
  -8.85999966      -2.59759858E-08
  -8.85000038      -2.62641091E-08
  -8.84000015      -2.65459299E-08
  -8.82999992      -2.68214126E-08
  -8.81999969      -2.70906675E-08
  -8.81000042      -2.73537459E-08
  -8.80000019      -2.76107599E-08
  -8.78999996      -2.78619119E-08
  -8.77999973      -2.81074382E-08
  -8.77000046      -2.83476087E-08
  -8.76000023      -2.85826882E-08
  -8.75000000      -2.88131314E-08
  -8.73999977      -2.90392936E-08
  -8.72999954      -2.92616491E-08
  -8.72000027      -2.94805815E-08
  -8.71000004      -2.96968086E-08
  -8.69999981      -2.99108081E-08
  -8.68999958      -3.01233278E-08
  -8.68000031      -3.03350092E-08
  -8.67000008      -3.05465235E-08
  -8.65999985      -3.07586987E-08
  -8.64999962      -3.09723021E-08
  -8.64000034      -3.11881223E-08
  -8.63000011      -3.14070228E-08
  -8.61999989      -3.16297495E-08
  -8.60999966      -3.18571409E-08
  -8.60000038      -3.20899822E-08
  -8.59000015      -3.23289910E-08
  -8.57999992      -3.25747678E-08
  -8.56999969      -3.28278453E-08
  -8.56000042      -3.30887104E-08
  -8.55000019      -3.33577752E-08
  -8.53999996      -3.36352670E-08
  -8.52999973      -3.39213422E-08
  -8.52000046      -3.42160895E-08
  -8.51000023      -3.45195303E-08
  -8.50000000      -3.48315865E-08
  -8.48999977      -3.51520200E-08
  -8.47999954      -3.54806922E-08
  -8.47000027      -3.58172514E-08
  -8.46000004      -3.61614312E-08
  -8.44999981      -3.65129296E-08
  -8.43999958      -3.68713842E-08
  -8.43000031      -3.72365960E-08
  -8.42000008      -3.76082525E-08
  -8.40999985      -3.79862186E-08
  -8.39999962      -3.83702456E-08
  -8.39000034      -3.87602164E-08
  -8.38000011      -3.91561485E-08
  -8.36999989      -3.95580599E-08
  -8.35999966      -3.99659932E-08
  -8.35000038      -4.03800868E-08
  -8.34000015      -4.08005967E-08
  -8.32999992      -4.12276719E-08
  -8.31999969      -4.16616643E-08
  -8.31000042      -4.21027799E-08
  -8.30000019      -4.25514450E-08
  -8.28999996      -4.30078906E-08
  -8.27999973      -4.34725749E-08
  -8.27000046      -4.39457608E-08
  -8.26000023      -4.44277717E-08
  -8.25000000      -4.49188136E-08
  -8.23999977      -4.54192772E-08
  -8.22999954      -4.59292551E-08
  -8.22000027      -4.64490100E-08
  -8.21000004      -4.69786592E-08
  -8.19999981      -4.75181920E-08
  -8.18999958      -4.80677151E-08
  -8.18000031      -4.86271965E-08
  -8.17000008      -4.91965260E-08
  -8.15999985      -4.97757462E-08
  -8.14999962      -5.03644522E-08
  -8.14000034      -5.09627185E-08
  -8.13000011      -5.15701544E-08
  -8.11999989      -5.21866497E-08
  -8.10999966      -5.28119486E-08
  -8.10000038      -5.34457634E-08
  -8.09000015      -5.40877245E-08
  -8.07999992      -5.47375159E-08
  -8.06999969      -5.53946791E-08
  -8.06000042      -5.60588376E-08
  -8.05000019      -5.67293874E-08
  -8.03999996      -5.74059342E-08
  -8.02999973      -5.80878883E-08
  -8.02000046      -5.87747806E-08
  -8.01000023      -5.94658829E-08
  -8.00000000      -6.01605379E-08
  -7.98999977      -6.08579498E-08
  -7.98000002      -6.15572873E-08
  -7.96999979      -6.22579179E-08
  -7.96000004      -6.29587120E-08
  -7.94999981      -6.36588737E-08
  -7.94000006      -6.43576783E-08
  -7.92999983      -6.50540315E-08
  -7.92000008      -6.57471517E-08
  -7.90999985      -6.64361579E-08
  -7.90000010      -6.71202827E-08
  -7.88999987      -6.77985099E-08
  -7.88000011      -6.84701078E-08
  -7.86999989      -6.91343303E-08
  -7.86000013      -6.97904809E-08
  -7.84999990      -7.04379204E-08
  -7.84000015      -7.10762222E-08
  -7.82999992      -7.17050952E-08
  -7.82000017      -7.23240632E-08
  -7.80999994      -7.29329059E-08
  -7.80000019      -7.35315524E-08
  -7.78999996      -7.41199955E-08
  -7.78000021      -7.46983204E-08
  -7.76999998      -7.52664135E-08
  -7.76000023      -7.58248575E-08
  -7.75000000      -7.63737802E-08
  -7.73999977      -7.69138424E-08
  -7.73000002      -7.74455273E-08
  -7.71999979      -7.79697160E-08
  -7.71000004      -7.84869556E-08
  -7.69999981      -7.89983474E-08
  -7.69000006      -7.95047654E-08
  -7.67999983      -8.00070978E-08
  -7.67000008      -8.05062896E-08
  -7.65999985      -8.10034351E-08
  -7.65000010      -8.14997918E-08
  -7.63999987      -8.19964399E-08
  -7.63000011      -8.24948216E-08
  -7.61999989      -8.29961095E-08
  -7.61000013      -8.35015683E-08
  -7.59999990      -8.40125054E-08
  -7.59000015      -8.45302779E-08
  -7.57999992      -8.50562643E-08
  -7.57000017      -8.55917790E-08
  -7.55999994      -8.61380300E-08
  -7.55000019      -8.66964385E-08
  -7.53999996      -8.72681056E-08
  -7.53000021      -8.78542821E-08
  -7.51999998      -8.84565310E-08
  -7.51000023      -8.90758542E-08
  -7.50000000      -8.97135237E-08
  -7.48999977      -9.03703850E-08
  -7.48000002      -9.10480225E-08
  -7.46999979      -9.17473741E-08
  -7.46000004      -9.24694774E-08
  -7.44999981      -9.32150144E-08
  -7.44000006      -9.39851645E-08