  -16.0000000       0.00000000    
  -15.9899998       0.00000000    
  -15.9799995       0.00000000    
  -15.9700003       0.00000000    
  -15.9600000       0.00000000    
  -15.9499998       0.00000000    
  -15.9399996       0.00000000    
  -15.9300003       0.00000000    
  -15.9200001       0.00000000    
  -15.9099998       0.00000000    
  -15.8999996       0.00000000    
  -15.8900003       0.00000000    
  -15.8800001       0.00000000    
  -15.8699999       7.63707663E-43
  -15.8599997       2.98854923E-41
  -15.8500004       5.81447778E-40
  -15.8400002       6.99720171E-39
  -15.8299999       6.09796943E-38
  -15.8199997       4.14362566E-37
  -15.8100004       2.29573763E-36
  -15.8000002       1.06483308E-35
  -15.7900000       4.20552734E-35
  -15.7799997       1.42868539E-34
  -15.7700005       4.18421117E-34
  -15.7600002       1.04781381E-33
  -15.7500000       2.17887631E-33
  -15.7399998       3.43157768E-33
  -15.7299995       2.50345987E-33
  -15.7200003      -7.74437792E-33
  -15.7100000      -4.38197228E-32
  -15.6999998      -1.35768128E-31
  -15.6899996      -3.24376538E-31
  -15.6800003      -6.37821072E-31
  -15.6700001      -1.02863034E-30
  -15.6599998      -1.25812070E-30
  -15.6499996      -7.51490670E-31
  -15.6400003       1.46997920E-30
  -15.6300001       6.54815053E-30
  -15.6199999       1.49104563E-29
  -15.6099997       2.45291403E-29
  -15.6000004       2.86453852E-29
  -15.5900002       1.44664994E-29
  -15.5799999      -3.41088633E-29
  -15.5699997      -1.25921621E-28
  -15.5600004      -2.42527736E-28
  -15.5500002      -3.14683014E-28
  -15.5400000      -2.14341823E-28
  -15.5299997       2.06143862E-28
  -15.5200005       9.98087868E-28
  -15.5100002       1.93109317E-27
  -15.5000000       2.32820837E-27
  -15.4899998       1.11801995E-27
  -15.4799995      -2.64869236E-27
  -15.4700003      -8.70419570E-27
  -15.4600000      -1.42103909E-26
  -15.4499998      -1.31545129E-26
  -15.4399996       1.91815882E-27
  -15.4300003       3.45000675E-26
  -15.4200001       7.56150541E-26
  -15.4099998       9.65374634E-26
  -15.3999996       5.13141785E-26
  -15.3900003      -1.01109399E-25
  -15.3800001      -3.51995529E-25
  -15.3699999      -5.89616729E-25
  -15.3599997      -5.77239748E-25
  -15.3500004      -1.96288330E-26
  -15.3400002       1.23864800E-24
  -15.3299999       2.90909518E-24
  -15.3199997       3.99957883E-24
  -15.3100004       2.87857750E-24
  -15.3000002      -2.03087290E-24
  -15.2900000      -1.08327397E-23
  -15.2799997      -2.04393813E-23
  -15.2700005      -2.36855282E-23
  -15.2600002      -1.09043848E-23
  -15.2500000       2.47517447E-23
  -15.2399998       7.87272897E-23
  -15.2299995       1.26847079E-22
  -15.2200003       1.24468468E-22
  -15.2100000       2.10933375E-23
  -15.1999998      -2.05732766E-22
  -15.1899996      -5.04801004E-22
  -15.1800003      -7.17869987E-22
  -15.1700001      -5.96002564E-22
  -15.1599998       9.94229230E-23
  -15.1499996       1.40724647E-21
  -15.1400003       2.94739194E-21
  -15.1300001       3.80663631E-21
  -15.1199999       2.70874145E-21
  -15.1099997      -1.39699668E-21
  -15.1000004      -8.37664884E-21
  -15.0900002      -1.59353130E-20
  -15.0799999      -1.92951025E-20
  -15.0699997      -1.23186483E-20
  -15.0600004       9.45767132E-21
  -15.0500002       4.43329614E-20
  -15.0400000       8.03073080E-20
  -15.0299997       9.43644089E-20
  -15.0200005       5.84485498E-20
  -15.0100002      -4.63649338E-20
  -15.0000000      -2.10145700E-19
  -14.9899998      -3.77123118E-19
  -14.9799995      -4.44397201E-19
  -14.9700003      -2.89301560E-19
  -14.9600000       1.69781768E-19
  -14.9499998       8.91503211E-19
  -14.9399996       1.64298470E-18
  -14.9300003       1.99607967E-18
  -14.9200001       1.43795796E-18
  -14.9099998      -3.87553969E-19
  -14.8999996      -3.35726244E-18
  -14.8900003      -6.59613011E-18
  -14.8800001      -8.44785663E-18
  -14.8699999      -6.87227071E-18
  -14.8599997      -3.32669528E-19
  -14.8500004       1.09995103E-17
  -14.8400002       2.41864948E-17
  -14.8299999       3.32953729E-17
  -14.8199997       3.06599987E-17
  -14.8100004       9.89711842E-18
  -14.8000002      -2.98490109E-17
  -14.7900000      -7.99421556E-17
  -14.7799997      -1.20851948E-16
  -14.7700005      -1.25607535E-16
  -14.7600002      -6.92155554E-17
  -14.7500000       5.73091176E-17
  -14.7399998       2.32819102E-16
  -14.7299995       3.98966362E-16
  -14.7200003       4.67796391E-16
  -14.7100000       3.48447464E-16
  -14.6999998      -9.71727943E-18
  -14.6899996      -5.69848192E-16
  -14.6800003      -1.17714212E-15
  -14.6700001      -1.56897120E-15
  -14.6599998      -1.44214527E-15
  -14.6499996      -5.74865856E-16
  -14.6400003       1.02653818E-15
  -14.6300001       3.01260947E-15
  -14.6199999       4.67727528E-15
  -14.6099997       5.10207246E-15
  -14.6000004       3.46839430E-15
  -14.5900002      -5.24547864E-16
  -14.5799999      -6.27569506E-15
  -14.5699997      -1.21206518E-14
  -14.5600004      -1.55669951E-14
  -14.5500002      -1.40011937E-14
  -14.5400000      -5.76590023E-15
  -14.5299997       8.70068516E-15
  -14.5200005       2.61302380E-14
  -14.5100002       4.05818940E-14
  -14.5000000       4.47970416E-14
  -14.4899998       3.26679974E-14
  -14.4799995       2.23088615E-15
  -14.4700003      -4.18556384E-14
  -14.4600000      -8.75759358E-14
  -14.4499998      -1.17529928E-13
  -14.4399996      -1.13824287E-13
  -14.4300003      -6.49716758E-14
  -14.4200001       2.72496344E-14
  -14.4099998       1.43724212E-13
  -14.3999996       2.49286567E-13
  -14.3900003       3.00666122E-13
  -14.3800001       2.60180088E-13
  -14.3699999       1.11730327E-13
  -14.3599997      -1.26320192E-13
  -14.3500004      -3.97240698E-13
  -14.3400002      -6.15122536E-13
  -14.3299999      -6.87491188E-13
  -14.3199997      -5.46643189E-13
  -14.3100004      -1.80483775E-13
  -14.3000002       3.48574712E-13
  -14.2900000       9.06521982E-13
  -14.2799997       1.31662021E-12
  -14.2700005       1.40983351E-12
  -14.2600002       1.08348833E-12
  -14.2500000       3.49124511E-13
  -14.2399998      -6.49442414E-13
  -14.2299995      -1.65950803E-12
  -14.2200003      -2.38302477E-12
  -14.2100000      -2.56433156E-12
  -14.1999998      -2.07490188E-12
  -14.1899996      -9.65371121E-13
  -14.1800003       5.36338877E-13
  -14.1700001       2.08438518E-12
  -14.1599998       3.31375682E-12
  -14.1499996       3.94379104E-12
  -14.1400003       3.84745014E-12
  -14.1300001       3.05943248E-12
  -14.1199999       1.72192859E-12
  -14.1099997      -3.08456259E-15
  -14.1000004      -2.00509141E-12
  -14.0900002      -4.22978536E-12
  -14.0799999      -6.59432318E-12
  -14.0699997      -8.83671782E-12
  -14.0600004      -1.03745467E-11
  -14.0500002      -1.02773432E-11
  -14.0400000      -7.44483815E-12
  -14.0299997      -1.01905116E-12
  -14.0200005       9.04723692E-12
  -14.0100002       2.14534640E-11
  -14.0000000       3.33062918E-11
  -13.9899998       4.04125171E-11
  -13.9799995       3.82302176E-11
  -13.9700003       2.33799351E-11
  -13.9600000      -4.64462887E-12
  -13.9499998      -4.21334634E-11
  -13.9399996      -8.08176095E-11
  -13.9300003      -1.08998907E-10
  -13.9200001      -1.14251386E-10
  -13.9099998      -8.72615244E-11
  -13.8999996      -2.58494753E-11
  -13.8900003       6.21297111E-11
  -13.8800001       1.58291158E-10
  -13.8699999       2.36459186E-10
  -13.8599997       2.68622902E-10
  -13.8500004       2.33033259E-10
  -13.8400002       1.22412386E-10
  -13.8299999      -5.02641331E-11
  -13.8199997      -2.50775539E-10
  -13.8100004      -4.28853481E-10
  -13.8000002      -5.29335742E-10
  -13.7900000      -5.07184628E-10
  -13.7799997      -3.42667922E-10
  -13.7700005      -5.22173658E-11
  -13.7600002       3.09106157E-10
  -13.7500000       6.55851151E-10
  -13.7399998       8.90725993E-10
  -13.7299995       9.29936628E-10
  -13.7200003       7.29181326E-10
  -13.7100000       3.02932512E-10
  -13.6999998      -2.69699402E-10
  -13.6899996      -8.56459514E-10
  -13.6800003      -1.30039202E-09
  -13.6700001      -1.45989221E-09
  -13.6599998      -1.25083155E-09
  -13.6499996      -6.79043988E-10
  -13.6400003       1.47578838E-10
  -13.6300001       1.03412279E-09
  -13.6199999       1.74078862E-09
  -13.6099997       2.04437889E-09
  -13.6000004       1.80460813E-09
  -13.5900002       1.01697184E-09
  -13.5799999      -1.65153544E-10
  -13.5699997      -1.45040946E-09
  -13.5600004      -2.47245624E-09
  -13.5500002      -2.88479063E-09
  -13.5400000      -2.46527865E-09
  -13.5299997      -1.20174803E-09
  -13.5200005       6.69085676E-10
  -13.5100002       2.68836775E-09
  -13.5000000       4.27064739E-09
  -13.4899998       4.85213292E-09
  -13.4799995       4.05797973E-09
  -13.4700003       1.84395832E-09
  -13.4600000      -1.43203083E-09
  -13.4499998      -5.04012876E-09
  -13.4399996      -8.01843836E-09
  -13.4300003      -9.40087386E-09
  -13.4200001      -8.48348325E-09
  -13.4099998      -5.06148901E-09
  -13.3999996       4.32323843E-10
  -13.3900003       6.94008406E-09
  -13.3800001       1.29605162E-08
  -13.3699999       1.68744592E-08
  -13.3599997       1.73471193E-08
  -13.3500004       1.37103768E-08
  -13.3400002       6.22255270E-09
  -13.3299999      -3.87693877E-09
  -13.3199997      -1.45556687E-08
  -13.3100004      -2.33972610E-08
  -13.3000002      -2.81496888E-08
  -13.2900000      -2.72870437E-08
  -13.2799997      -2.04440003E-08
  -13.2700005      -8.60250005E-09
  -13.2600002       6.03658057E-09
  -13.2500000       2.04879083E-08
  -13.2399998       3.16349897E-08
  -13.2299995       3.69528692E-08
  -13.2200003       3.51241738E-08
  -13.2100000       2.63874842E-08
  -13.1999998       1.25195676E-08
  -13.1899996      -3.56017260E-09
  -13.1800003      -1.84756761E-08
  -13.1700001      -2.92033775E-08
  -13.1599998      -3.37993384E-08
  -13.1499996      -3.18503020E-08
  -13.1400003      -2.45232012E-08
  -13.1300001      -1.41920200E-08
  -13.1199999      -3.73560605E-09
  -13.1099997       4.30219460E-09
  -13.1000004       8.45202219E-09
  -13.0900002       8.73682371E-09
  -13.0799999       6.62973010E-09
  -13.0699997       4.54086768E-09
  -13.0600004       4.96289188E-09
  -13.0500002       9.51899803E-09
  -13.0400000       1.82058955E-08
  -13.0299997       2.90938331E-08
  -13.0200005       3.86302084E-08
  -13.0100002       4.25278408E-08
  -13.0000000       3.70390119E-08
  -12.9899998       2.02798827E-08
  -12.9799995      -6.78336409E-09
  -12.9700003      -4.00209323E-08
  -12.9600000      -7.26753768E-08
  -12.9499998      -9.67036371E-08
  -12.9399996      -1.04654696E-07
  -12.9300003      -9.16347389E-08
  -12.9200001      -5.68585428E-08
  -12.9099998      -4.34722391E-09
  -12.8999996       5.74646393E-08
  -12.8900003       1.17187334E-07
  -12.8800001       1.62697120E-07
  -12.8699999       1.83616748E-07
  -12.8599997       1.73477716E-07
  -12.8500004       1.31065349E-07
  -12.8400002       6.06556441E-08
  -12.8299999      -2.88526127E-08
  -12.8199997      -1.25643155E-07
  -12.8100004      -2.17036131E-07
  -12.8000002      -2.91371208E-07
  -12.7900000      -3.39280376E-07
  -12.7799997      -3.54156555E-07
  -12.7700005      -3.31890135E-07
  -12.7600002      -2.70211785E-07
  -12.7500000      -1.68123833E-07
  -12.7399998      -2.58756145E-08
  -12.7299995       1.54249307E-07
  -12.7200003       3.66350832E-07
  -12.7100000       5.98926079E-07
  -12.6999998       8.33124886E-07
  -12.6899996       1.04200569E-06
  -12.6800003       1.19151468E-06
  -12.6700001       1.24353301E-06
  -12.6599998       1.16097192E-06
  -12.6499996       9.14315478E-07
  -12.6400003       4.88595958E-07
  -12.6300001      -1.10481061E-07
  -12.6199999      -8.52573578E-07
  -12.6099997      -1.68194708E-06
  -12.6000004      -2.52046129E-06
  -12.5900002      -3.27418184E-06
  -12.5799999      -3.84287432E-06
  -12.5699997      -4.13105818E-06
  -12.5600004      -4.05906758E-06
  -12.5500002      -3.57253884E-06
  -12.5400000      -2.64911159E-06
  -12.5299997      -1.30171907E-06
  -12.5200005       4.21597463E-07
  -12.5100002       2.44064199E-06
  -12.5000000       4.64774121E-06
  -12.4899998       6.91297373E-06
  -12.4799995       9.08888705E-06
  -12.4700003       1.10141964E-05
  -12.4600000       1.25163870E-05
  -12.4499998       1.34139909E-05
  -12.4399996       1.35193104E-05
  -12.4300003       1.26428949E-05
  -12.4200001       1.06001016E-05
  -12.4099998       7.22037976E-06
  -12.3999996       2.35839070E-06
  -12.3900003      -4.09431414E-06
  -12.3800001      -1.21984394E-05
  -12.3699999      -2.19588310E-05
  -12.3599997      -3.33202879E-05
  -12.3500004      -4.61674535E-05
  -12.3400002      -6.03283988E-05
  -12.3299999      -7.55806905E-05
  -12.3199997      -9.16573699E-05
  -12.3100004      -1.08251908E-04
  -12.3000002      -1.25019767E-04
  -12.2900000      -1.41577635E-04
  -12.2799997      -1.57500399E-04
  -12.2700005      -1.72318105E-04
  -12.2600002      -1.85516183E-04
  -12.2500000      -1.96540510E-04
  -12.2399998      -2.04808384E-04
  -12.2299995      -2.09728678E-04
  -12.2200003      -2.10724698E-04
  -12.2100000      -2.07263234E-04
  -12.1999998      -1.98879512E-04
  -12.1899996      -1.85202138E-04
  -12.1800003      -1.65971622E-04
  -12.1700001      -1.41048862E-04
  -12.1599998      -1.10422727E-04
  -12.1499996      -7.42079283E-05
  -12.1400003      -3.26423542E-05
  -12.1300001       1.39168387E-05
  -12.1199999       6.49994108E-05
  -12.1099997       1.20027435E-04
  -12.1000004       1.78324466E-04
  -12.0900002       2.39127505E-04
  -12.0799999       3.01604305E-04
  -12.0699997       3.64878477E-04
  -12.0600004       4.28051513E-04
  -12.0500002       4.90231847E-04
  -12.0400000       5.50555356E-04
  -12.0299997       6.08200615E-04
  -12.0200005       6.62393402E-04
  -12.0100002       7.12406123E-04
  -12.0000000       7.57546921E-04
  -11.9899998       7.97148095E-04
  -11.9799995       8.30554927E-04
  -11.9700003       8.57128704E-04
  -11.9600000       8.76249396E-04
  -11.9499998       8.87335103E-04
  -11.9399996       8.89863179E-04
  -11.9300003       8.83389381E-04
  -11.9200001       8.67570518E-04
  -11.9099998       8.42165609E-04
  -11.8999996       8.07036588E-04
  -11.8900003       7.62128853E-04
  -11.8800001       7.07454048E-04
  -11.8699999       6.43065898E-04
  -11.8599997       5.69046533E-04
  -11.8500004       4.85499826E-04
  -11.8400002       3.92559887E-04
  -11.8299999       2.90418044E-04
  -11.8199997       1.79341063E-04
  -11.8100004       5.97133876E-05
  -11.8000002      -6.79409568E-05
  -11.7900000      -2.02938929E-04
  -11.7799997      -3.44434753E-04
  -11.7700005      -4.91424464E-04
  -11.7600002      -6.42768224E-04
  -11.7500000      -7.97214569E-04
  -11.7399998      -9.53429728E-04
  -11.7299995      -1.11002359E-03
  -11.7200003      -1.26557227E-03
  -11.7100000      -1.41863537E-03
  -11.6999998      -1.56776689E-03
  -11.6899996      -1.71152561E-03
  -11.6800003      -1.84848742E-03
  -11.6700001      -1.97725347E-03
  -11.6599998      -2.09646951E-03
  -11.6499996      -2.20484752E-03
  -11.6400003      -2.30118260E-03
  -11.6300001      -2.38438300E-03
  -11.6199999      -2.45348015E-03
  -11.6099997      -2.50764773E-03
  -11.6000004      -2.54619354E-03
  -11.5900002      -2.56855879E-03
  -11.5799999      -2.57428642E-03
  -11.5699997      -2.56299949E-03
  -11.5600004      -2.53437320E-03
  -11.5500002      -2.48808973E-03
  -11.5400000      -2.42383638E-03
  -11.5299997      -2.34128069E-03
  -11.5200005      -2.24008621E-03
  -11.5100002      -2.11992324E-03
  -11.5000000      -1.98050472E-03
  -11.4899998      -1.82161946E-03
  -11.4799995      -1.64315326E-03
  -11.4700003      -1.44511333E-03
  -11.4600000      -1.22762995E-03
  -11.4499998      -9.90942237E-04
  -11.4399996      -7.35366310E-04
  -11.4300003      -4.61262011E-04
  -11.4200001      -1.68997649E-04
  -11.4099998       1.41082128E-04
  -11.3999996       4.68662969E-04
  -11.3900003       8.13453982E-04
  -11.3800001       1.17516576E-03
  -11.3699999       1.55346573E-03
  -11.3599997       1.94794347E-03
  -11.3500004       2.35805567E-03
  -11.3400002       2.78311409E-03
  -11.3299999       3.22225178E-03
  -11.3199997       3.67445266E-03
  -11.3100004       4.13855352E-03
  -11.3000002       4.61329753E-03
  -11.2900000       5.09737106E-03
  -11.2799997       5.58945164E-03
  -11.2700005       6.08825730E-03
  -11.2600002       6.59257220E-03
  -11.2500000       7.10130204E-03
  -11.2399998       7.61346379E-03
  -11.2299995       8.12820811E-03
  -11.2200003       8.64483695E-03
  -11.2100000       9.16279107E-03
  -11.1999998       9.68163647E-03
  -11.1899996       1.02010733E-02
  -11.1800003       1.07209170E-02
  -11.1700001       1.12411045E-02
  -11.1599998       1.17616765E-02
  -11.1499996       1.22827599E-02
  -11.1400003       1.28045669E-02
  -11.1300001       1.33273536E-02
  -11.1199999       1.38514088E-02
  -11.1099997       1.43769672E-02
  -11.1000004       1.49041573E-02
  -11.0900002       1.54329538E-02
  -11.0799999       1.59631055E-02
  -11.0699997       1.64940655E-02
  -11.0600004       1.70250162E-02
  -11.0500002       1.75548475E-02
  -11.0400000       1.80822480E-02
  -11.0299997       1.86057277E-02
  -11.0200005       1.91237926E-02
  -11.0100002       1.96349490E-02
  -11.0000000       2.01378800E-02
  -10.9899998       2.06314381E-02
  -10.9799995       2.11146679E-02
  -10.9700003       2.15868130E-02
  -10.9600000       2.20472291E-02
  -10.9499998       2.24953443E-02
  -10.9399996       2.29305755E-02
  -10.9300003       2.33523194E-02
  -10.9200001       2.37598978E-02
  -10.9099998       2.41526142E-02
  -10.8999996       2.45298091E-02
  -10.8900003       2.48908885E-02
  -10.8800001       2.52354741E-02
  -10.8699999       2.55634114E-02
  -10.8599997       2.58747973E-02
  -10.8500004       2.61700060E-02
  -10.8400002       2.64496189E-02
  -10.8299999       2.67143194E-02
  -10.8199997       2.69648042E-02
  -10.8100004       2.72016581E-02
  -10.8000002       2.74252407E-02
  -10.7900000       2.76356265E-02
  -10.7799997       2.78325658E-02
  -10.7700005       2.80155316E-02
  -10.7600002       2.81837899E-02
  -10.7500000       2.83364449E-02
  -10.7399998       2.84726992E-02
  -10.7299995       2.85918340E-02
  -10.7200003       2.86933556E-02
  -10.7100000       2.87770499E-02
  -10.6999998       2.88430043E-02
  -10.6899996       2.88915373E-02
  -10.6800003       2.89232470E-02
  -10.6700001       2.89388802E-02
  -10.6599998       2.89393868E-02
  -10.6499996       2.89259125E-02
  -10.6400003       2.88998000E-02
  -10.6300001       2.88626794E-02
  -10.6199999       2.88165528E-02
  -10.6099997       2.87637357E-02
  -10.6000004       2.87069306E-02
  -10.5900002       2.86490824E-02
  -10.5799999       2.85932794E-02
  -10.5699997       2.85425596E-02
  -10.5600004       2.84997504E-02
  -10.5500002       2.84672026E-02
  -10.5400000       2.84468103E-02
  -10.5299997       2.84398068E-02
  -10.5200005       2.84468886E-02
  -10.5100002       2.84682680E-02
  -10.5000000       2.85038501E-02
  -10.4899998       2.85534393E-02
  -10.4799995       2.86168456E-02
  -10.4700003       2.86940206E-02
  -10.4600000       2.87851244E-02
  -10.4499998       2.88904700E-02
  -10.4399996       2.90103070E-02
  -10.4300003       2.91447230E-02
  -10.4200001       2.92934310E-02
  -10.4099998       2.94555202E-02
  -10.3999996       2.96293814E-02
  -10.3900003       2.98127532E-02
  -10.3800001       3.00027225E-02
  -10.3699999       3.01960725E-02
  -10.3599997       3.03894971E-02
  -10.3500004       3.05799749E-02
  -10.3400002       3.07650678E-02
  -10.3299999       3.09431367E-02
  -10.3199997       3.11134718E-02
  -10.3100004       3.12761217E-02
  -10.3000002       3.14319320E-02
  -10.2900000       3.15820388E-02
  -10.2799997       3.17277052E-02
  -10.2700005       3.18701193E-02
  -10.2600002       3.20100449E-02
  -10.2500000       3.21479402E-02
  -10.2399998       3.22838537E-02
  -10.2299995       3.24177444E-02
  -10.2200003       3.25495861E-02
  -10.2100000       3.26794870E-02
  -10.1999998       3.28080691E-02
  -10.1899996       3.29362825E-02
  -10.1800003       3.30655612E-02
  -10.1700001       3.31976451E-02
  -10.1599998       3.33344899E-02
  -10.1499996       3.34780626E-02
  -10.1400003       3.36302966E-02
  -10.1300001       3.37930210E-02
  -10.1199999       3.39678638E-02
  -10.1099997       3.41564119E-02
  -10.1000004       3.43601666E-02
  -10.0900002       3.45806032E-02
  -10.0799999       3.48191932E-02
  -10.0699997       3.50774825E-02
  -10.0600004       3.53569761E-02
  -10.0500002       3.56591307E-02
  -10.0400000       3.59853245E-02
  -10.0299997       3.63367163E-02
  -10.0200005       3.67142372E-02
  -10.0100002       3.71187106E-02
  -10.0000000       3.75506058E-02
  -9.98999977       3.80102880E-02
  -9.97999954       3.84979397E-02
  -9.97000027       3.90138440E-02
  -9.96000004       3.95582393E-02
  -9.94999981       4.01316173E-02
  -9.93999958       4.07347083E-02
  -9.93000031       4.13685217E-02
  -9.92000008       4.20343466E-02
  -9.90999985       4.27336618E-02
  -9.89999962       4.34678905E-02
  -9.89000034       4.42383625E-02
  -9.88000011       4.50460725E-02
  -9.86999989       4.58916835E-02
  -9.85999966       4.67753299E-02
  -9.85000038       4.76969965E-02
  -9.84000015       4.86564338E-02
  -9.82999992       4.96534370E-02
  -9.81999969       5.06882407E-02
  -9.81000042       5.17615043E-02
  -9.80000019       5.28744012E-02
  -9.78999996       5.40285222E-02
  -9.77999973       5.52257895E-02
  -9.77000046       5.64678498E-02
  -9.76000023       5.77562787E-02
  -9.75000000       5.90919070E-02
  -9.73999977       6.04750365E-02
  -9.72999954       6.19052351E-02
  -9.72000027       6.33816645E-02
  -9.71000004       6.49030656E-02
  -9.69999981       6.64682016E-02
  -9.68999958       6.80757537E-02
  -9.68000031       6.97243139E-02
  -9.67000008       7.14124590E-02
  -9.65999985       7.31383637E-02
  -9.64999962       7.48997629E-02
  -9.64000034       7.66933933E-02
  -9.63000011       7.85154179E-02
  -9.61999989       8.03609043E-02
  -9.60999966       8.22242200E-02
  -9.60000038       8.40991512E-02
  -9.59000015       8.59792456E-02
  -9.57999992       8.78576189E-02
  -9.56999969       8.97276029E-02
  -9.56000042       9.15827528E-02
  -9.55000019       9.34165120E-02
  -9.53999996       9.52225327E-02
  -9.52999973       9.69947055E-02
  -9.52000046       9.87269282E-02
  -9.51000023      0.100413457    
  -9.50000000      0.102048509    
  -9.48999977      0.103626996    
  -9.47999954      0.105144143    
  -9.47000027      0.106595725    
  -9.46000004      0.107978083    
  -9.44999981      0.109288633    
  -9.43999958      0.110525459    
  -9.43000031      0.111688115    
  -9.42000008      0.112777151    
  -9.40999985      0.113794990    
  -9.39999962      0.114745297    
  -9.39000034      0.115633458    
  -9.38000011      0.116466478    
  -9.36999989      0.117252760    
  -9.35999966      0.118001580    
  -9.35000038      0.118723527    
  -9.34000015      0.119429581    
  -9.32999992      0.120131627    
  -9.31999969      0.120842323    
  -9.31000042      0.121574998    
  -9.30000019      0.122343972    
  -9.28999996      0.123164356    
  -9.27999973      0.124052174    
  -9.27000046      0.125023931    
  -9.26000023      0.126096278    
  -9.25000000      0.127286181    
  -9.23999977      0.128609434    
  -9.22999954      0.130080998    
  -9.22000027      0.131714672    
  -9.21000004      0.133522972    
  -9.19999981      0.135516644    
  -9.18999958      0.137705162    
  -9.18000031      0.140096039    
  -9.17000008      0.142695278    
  -9.15999985      0.145506680    
  -9.14999962      0.148532107    
  -9.14000034      0.151771158    
  -9.13000011      0.155220658    
  -9.11999989      0.158874944    
  -9.10999966      0.162725896    
  -9.10000038      0.166763216    
  -9.09000015      0.170974061    
  -9.07999992      0.175343931    
  -9.06999969      0.179856464    
  -9.06000042      0.184494168    
  -9.05000019      0.189237803    
  -9.03999996      0.194067359    
  -9.02999973      0.198961779    
  -9.02000046      0.203899473    
  -9.01000023      0.208858132    
  -9.00000000      0.213815749    
  -8.98999977      0.218749717    
  -8.97999954      0.223637998    
  -8.97000027      0.228458539    
  -8.96000004      0.233189359    
  -8.94999981      0.237809092    
  -8.93999958      0.242296144    
  -8.93000031      0.246629506    
  -8.92000008      0.250788897    
  -8.90999985      0.254753977    
  -8.89999962      0.258505970    
  -8.89000034      0.262026817    
  -8.88000011      0.265299946    
  -8.86999989      0.268309981    
  -8.85999966      0.271043241    
  -8.85000038      0.273487598    
  -8.84000015      0.275632888    
  -8.82999992      0.277470142    
  -8.81999969      0.278992623    
  -8.81000042      0.280195922    
  -8.80000019      0.281076998    
  -8.78999996      0.281635970    
  -8.77999973      0.281874716    
  -8.77000046      0.281797111    
  -8.76000023      0.281409442    
  -8.75000000      0.280719370    
  -8.73999977      0.279736221    
  -8.72999954      0.278470606    
  -8.72000027      0.276934564    
  -8.71000004      0.275141031    
  -8.69999981      0.273104608    
  -8.68999958      0.270841420    
  -8.68000031      0.268368512    
  -8.67000008      0.265704215    
  -8.65999985      0.262868732    
  -8.64999962      0.259881765    
  -8.64000034      0.256764293    
  -8.63000011      0.253536642    
  -8.61999989      0.250219047    
  -8.60999966      0.246830910    
  -8.60000038      0.243390590    
  -8.59000015      0.239915758    
  -8.57999992      0.236423269    
  -8.56999969      0.232928649    
  -8.56000042      0.229447350    
  -8.55000019      0.225993142    
  -8.53999996      0.222579435    
  -8.52999973      0.219218835    
  -8.52000046      0.215922683    
  -8.51000023      0.212701291    
  -8.50000000      0.209563628    
  -8.48999977      0.206517875    
  -8.47999954      0.203570351    
  -8.47000027      0.200726494    
  -8.46000004      0.197990656    
  -8.44999981      0.195366472    
  -8.43999958      0.192856357    
  -8.43000031      0.190462440    
  -8.42000008      0.188186079    
  -8.40999985      0.186028615    
  -8.39999962      0.183990806    
  -8.39000034      0.182073668    
  -8.38000011      0.180278093    
  -8.36999989      0.178604722    
  -8.35999966      0.177054659    
  -8.35000038      0.175629005    
  -8.34000015      0.174329162    
  -8.32999992      0.173156917    
  -8.31999969      0.172114924    
  -8.31000042      0.171205834    
  -8.30000019      0.170434132    
  -8.28999996      0.169804171    
  -8.27999973      0.169321910    
  -8.27000046      0.168993711    
  -8.26000023      0.168828070    
  -8.25000000      0.168833733    
  -8.23999977      0.169020072    
  -8.22999954      0.169398397    
  -8.22000027      0.169979781    
  -8.21000004      0.170776501    
  -8.19999981      0.171800345    
  -8.18999958      0.173064902    
  -8.18000031      0.174582407    
  -8.17000008      0.176365703    
  -8.15999985      0.178426996    
  -8.14999962      0.180778325    
  -8.14000034      0.183431268    
  -8.13000011      0.186396658    
  -8.11999989      0.189684674    
  -8.10999966      0.193305075    
  -8.10000038      0.197265983    
  -8.09000015      0.201575845    
  -8.07999992      0.206239522    
  -8.06999969      0.211263135    
  -8.06000042      0.216649666    
  -8.05000019      0.222400635    
  -8.03999996      0.228517041    
  -8.02999973      0.234996736    
  -8.02000046      0.241837874    
  -8.01000023      0.249036819    
  -8.00000000      0.256588280    
  -7.98999977      0.264486879    
  -7.98000002      0.272725075    
  -7.96999979      0.281294942    
  -7.96000004      0.290186793    
  -7.94999981      0.299390286    
  -7.94000006      0.308893621    
  -7.92999983      0.318682730    
  -7.92000008      0.328742206    
  -7.90999985      0.339056104    
  -7.90000010      0.349606693    
  -7.88999987      0.360376209    
  -7.88000011      0.371344745    
  -7.86999989      0.382493079    
  -7.86000013      0.393801481    
  -7.84999990      0.405249357    
  -7.84000015      0.416816086    
  -7.82999992      0.428482026    
  -7.82000017      0.440225154    
  -7.80999994      0.452026486    
  -7.80000019      0.463864893    
  -7.78999996      0.475721717    
  -7.78000021      0.487576991    
  -7.76999998      0.499413550    
  -7.76000023      0.511213422    
  -7.75000000      0.522960544    
  -7.73999977      0.534639239    
  -7.73000002      0.546236277    
  -7.71999979      0.557738125    
  -7.71000004      0.569132686    
  -7.69999981      0.580410063    
  -7.69000006      0.591560900    
  -7.67999983      0.602578580    
  -7.67000008      0.613455594    
  -7.65999985      0.624187648    
  -7.65000010      0.634770513    
  -7.63999987      0.645200729    
  -7.63000011      0.655477047    
  -7.61999989      0.665598631    
  -7.61000013      0.675566256    
  -7.59999990      0.685381651    
  -7.59000015      0.695049286    
  -7.57999992      0.704574049    
  -7.57000017      0.713961899    
  -7.55999994      0.723219573    
  -7.55000019      0.732357025    
  -7.53999996      0.741382241    
  -7.53000021      0.750303328    
  -7.51999998      0.759132445    
  -7.51000023      0.767877936    
  -7.50000000      0.776550949    
  -7.48999977      0.785162926    
  -7.48000002      0.793726146    
  -7.46999979      0.802252889    
  -7.46000004      0.810755730    
  -7.44999981      0.819246829    
  -7.44000006      0.827739835    