  -16.0000000       0.00000000    
  -15.9899998       0.00000000    
  -15.9799995       0.00000000    
  -15.9700003       0.00000000    
  -15.9600000       0.00000000    
  -15.9499998       0.00000000    
  -15.9399996       0.00000000    
  -15.9300003       0.00000000    
  -15.9200001       0.00000000    
  -15.9099998       0.00000000    
  -15.8999996       0.00000000    
  -15.8900003       0.00000000    
  -15.8800001       0.00000000    
  -15.8699999       3.36311631E-44
  -15.8599997       2.76476187E-42
  -15.8500004       6.92381571E-42
  -15.8400002      -6.39053757E-40
  -15.8299999      -1.24094480E-38
  -15.8199997      -1.31800427E-37
  -15.8100004      -9.97004351E-37
  -15.8000002      -5.92770003E-36
  -15.7900000      -2.91022870E-35
  -15.7799997      -1.21707643E-34
  -15.7700005      -4.42332647E-34
  -15.7600002      -1.41589038E-33
  -15.7500000      -4.02531804E-33
  -15.7399998      -1.02048838E-32
  -15.7299995      -2.30527314E-32
  -15.7200003      -4.60545315E-32
  -15.7100000      -7.97643858E-32
  -15.6999998      -1.13898162E-31
  -15.6899996      -1.13769692E-31
  -15.6800003      -4.33086869E-33
  -15.6700001       3.35547260E-31
  -15.6599998       1.04250221E-30
  -15.6499996       2.16577706E-30
  -15.6400003       3.46661748E-30
  -15.6300001       4.15101850E-30
  -15.6199999       2.68755342E-30
  -15.6099997      -2.97322902E-30
  -15.6000004      -1.43554831E-29
  -15.5900002      -3.03309681E-29
  -15.5799999      -4.43407152E-29
  -15.5699997      -4.27148873E-29
  -15.5600004      -7.34451203E-30
  -15.5500002       7.37170029E-29
  -15.5400000       1.87150641E-28
  -15.5299997       2.74342245E-28
  -15.5200005       2.29968000E-28
  -15.5100002      -5.30348866E-29
  -15.5000000      -5.74832648E-28
  -15.4899998      -1.08443453E-27
  -15.4799995      -1.00882445E-27
  -15.4700003       3.57243947E-28
  -15.4600000       3.23033630E-27
  -15.4499998       6.34868516E-27
  -15.4399996       6.18249705E-27
  -15.4300003      -2.46867549E-27
  -15.4200001      -2.30865321E-26
  -15.4099998      -5.08367667E-26
  -15.3999996      -6.51924081E-26
  -15.3900003      -2.85042408E-26
  -15.3800001       9.94445822E-26
  -15.3699999       3.23240070E-25
  -15.3599997       5.55631467E-25
  -15.3500004       5.74357348E-25
  -15.3400002       5.17207655E-26
  -15.3299999      -1.27478700E-24
  -15.3199997      -3.26709505E-24
  -15.3100004      -4.98489686E-24
  -15.3000002      -4.49935416E-24
  -15.2900000       6.43988128E-25
  -15.2799997       1.19272716E-23
  -15.2700005       2.73817754E-23
  -15.2600002       3.90831701E-23
  -15.2500000       3.26932327E-23
  -15.2399998      -8.23303046E-24
  -15.2299995      -9.13217443E-23
  -15.2200003      -1.99284781E-22
  -15.2100000      -2.75762700E-22
  -15.1999998      -2.26245358E-22
  -15.1899996       5.06973420E-23
  -15.1800003       5.94073048E-22
  -15.1700001       1.28594344E-21
  -15.1599998       1.77624536E-21
  -15.1499996       1.50120993E-21
  -15.1400003      -1.26191466E-22
  -15.1300001      -3.32329464E-21
  -15.1199999      -7.42590247E-21
  -15.1099997      -1.05021484E-20
  -15.1000004      -9.47336836E-21
  -15.0900002      -1.12277752E-21
  -15.0799999       1.58864641E-20
  -15.0699997       3.84275090E-20
  -15.0600004       5.69590172E-20
  -15.0500002       5.60191203E-20
  -15.0400000       1.89259603E-20
  -15.0299997      -6.27665424E-20
  -15.0200005      -1.77050385E-19
  -15.0100002      -2.81805209E-19
  -15.0000000      -3.05689894E-19
  -14.9899998      -1.67409801E-19
  -14.9799995       1.83804482E-19
  -14.9700003       7.14174713E-19
  -14.9600000       1.25923628E-18
  -14.9499998       1.51838328E-18
  -14.9399996       1.12331975E-18
  -14.9300003      -2.04369071E-19
  -14.9200001      -2.43125649E-18
  -14.9099998      -5.00366722E-18
  -14.8999996      -6.77759906E-18
  -14.8900003      -6.22107774E-18
  -14.8800001      -1.96534846E-18
  -14.8699999       6.35527662E-18
  -14.8599997       1.72295832E-17
  -14.8500004       2.67981604E-17
  -14.8400002       2.92901909E-17
  -14.8299999       1.87213869E-17
  -14.8199997      -8.21976985E-18
  -14.8100004      -4.88215431E-17
  -14.8000002      -9.19251506E-17
  -14.7900000      -1.18186851E-16
  -14.7799997      -1.04489581E-16
  -14.7700005      -3.27865477E-17
  -14.7600002       9.83194883E-17
  -14.7500000       2.63227214E-16
  -14.7399998       4.05777354E-16
  -14.7299995       4.47877988E-16
  -14.7200003       3.12948869E-16
  -14.7100000      -3.86411368E-17
  -14.6999998      -5.71878000E-16
  -14.6899996      -1.15284371E-15
  -14.6800003      -1.55548178E-15
  -14.6700001      -1.51201162E-15
  -14.6599998      -8.06475263E-16
  -14.6499996       6.07793521E-16
  -14.6400003       2.50508597E-15
  -14.6300001       4.34902629E-15
  -14.6199999       5.36411100E-15
  -14.6099997       4.73783305E-15
  -14.6000004       1.92905846E-15
  -14.5900002      -2.99457826E-15
  -14.5799999      -9.11121832E-15
  -14.5699997      -1.46247404E-14
  -14.5600004      -1.71718075E-14
  -14.5500002      -1.44696182E-14
  -14.5400000      -5.19679997E-15
  -14.5299997       1.01254776E-14
  -14.5200005       2.85750427E-14
  -14.5100002       4.49074338E-14
  -14.5000000       5.24830762E-14
  -14.4899998       4.50184391E-14
  -14.4799995       1.88686584E-14
  -14.4700003      -2.47436095E-14
  -14.4600000      -7.82966560E-14
  -14.4499998      -1.28055308E-13
  -14.4399996      -1.56177331E-13
  -14.4300003      -1.44839639E-13
  -14.4200001      -8.18471064E-14
  -14.4099998       3.34635409E-14
  -14.3999996       1.85674352E-13
  -14.3900003       3.41833089E-13
  -14.3800001       4.54681025E-13
  -14.3699999       4.71370230E-13
  -14.3599997       3.47204009E-13
  -14.3500004       6.24949311E-14
  -14.3400002      -3.61202171E-13
  -14.3299999      -8.50464013E-13
  -14.3199997      -1.28071490E-12
  -14.3100004      -1.49289739E-12
  -14.3000002      -1.32831604E-12
  -14.2900000      -6.78654886E-13
  -14.2799997       4.57953228E-13
  -14.2700005       1.93008673E-12
  -14.2600002       3.41489922E-12
  -14.2500000       4.44839608E-12
  -14.2399998       4.51477441E-12
  -14.2299995       3.19164356E-12
  -14.2200003       3.26676782E-13
  -14.2100000      -3.80015594E-12
  -14.1999998      -8.39049229E-12
  -14.1899996      -1.21771994E-11
  -14.1800003      -1.36493334E-11
  -14.1700001      -1.14465382E-11
  -14.1599998      -4.85864951E-12
  -14.1499996       5.69916943E-12
  -14.1400003       1.83999448E-11
  -14.1300001       3.00750605E-11
  -14.1199999       3.67445484E-11
  -14.1099997       3.45979773E-11
  -14.1000004       2.12589911E-11
  -14.0900002      -2.98210306E-12
  -14.0799999      -3.43782329E-11
  -14.0699997      -6.57747468E-11
  -14.0600004      -8.77513270E-11
  -14.0500002      -9.08240011E-11
  -14.0400000      -6.83330684E-11
  -14.0299997      -1.93073682E-11
  -14.0200005       4.96074605E-11
  -14.0100002       1.24002308E-10
  -14.0000000       1.83896565E-10
  -13.9899998       2.08185844E-10
  -13.9799995       1.80591833E-10
  -13.9700003       9.56595081E-11
  -13.9600000      -3.69817024E-11
  -13.9499998      -1.91811358E-10
  -13.9399996      -3.31089850E-10
  -13.9300003      -4.12926165E-10
  -13.9200001      -4.02311851E-10
  -13.9099998      -2.82479540E-10
  -13.8999996      -6.33666800E-11
  -13.8900003       2.15935894E-10
  -13.8800001       4.92536234E-10
  -13.8699999       6.92833013E-10
  -13.8599997       7.50953022E-10
  -13.8500004       6.28144925E-10
  -13.8400002       3.27786021E-10
  -13.8299999      -9.91179291E-11
  -13.8199997      -5.60743507E-10
  -13.8100004      -9.43730538E-10
  -13.8000002      -1.14103405E-09
  -13.7900000      -1.08172715E-09
  -13.7799997      -7.54496132E-10
  -13.7700005      -2.17390758E-10
  -13.7600002       4.10743550E-10
  -13.7500000       9.76773329E-10
  -13.7399998       1.33232947E-09
  -13.7299995       1.37549394E-09
  -13.7200003       1.08337295E-09
  -13.7100000       5.25018751E-10
  -13.6999998      -1.51246085E-10
  -13.6899996      -7.55175533E-10
  -13.6800003      -1.10835385E-09
  -13.6700001      -1.09997267E-09
  -13.6599998      -7.28079042E-10
  -13.6499996      -1.11888471E-10
  -13.6400003       5.32368705E-10
  -13.6300001       9.49593959E-10
  -13.6199999       9.24895716E-10
  -13.6099997       3.62349567E-10
  -13.6000004      -6.60794586E-10
  -13.5900002      -1.88483673E-09
  -13.5799999      -2.91362867E-09
  -13.5699997      -3.31114403E-09
  -13.5600004      -2.72871969E-09
  -13.5500002      -1.03041387E-09
  -13.5400000       1.61933900E-09
  -13.5299997       4.73780482E-09
  -13.5200005       7.59232321E-09
  -13.5100002       9.34961530E-09
  -13.5000000       9.27860277E-09
  -13.4899998       6.96023950E-09
  -13.4799995       2.45000309E-09
  -13.4700003      -3.65594555E-09
  -13.4600000      -1.02803881E-08
  -13.4499998      -1.60510023E-08
  -13.4399996      -1.95800816E-08
  -13.4300003      -1.97792378E-08
  -13.4200001      -1.61351803E-08
  -13.4099998      -8.87717277E-09
  -13.3999996       1.01199804E-09
  -13.3900003       1.19511565E-08
  -13.3800001       2.20545644E-08
  -13.3699999       2.94982492E-08
  -13.3599997       3.28745315E-08
  -13.3500004       3.14528599E-08
  -13.3400002       2.52891645E-08
  -13.3299999       1.51661936E-08
  -13.3199997       2.39241604E-09
  -13.3100004      -1.14748682E-08
  -13.3000002      -2.48991476E-08
  -13.2900000      -3.65533879E-08
  -13.2799997      -4.53846631E-08
  -13.2700005      -5.05611482E-08
  -13.2600002      -5.13543910E-08
  -13.2500000      -4.70403840E-08
  -13.2399998      -3.69104427E-08
  -13.2299995      -2.04421404E-08
  -13.2200003       2.36314213E-09
  -13.2100000       3.05604004E-08
  -13.1999998       6.18819556E-08
  -13.1899996       9.25730106E-08
  -13.1800003       1.17581635E-07
  -13.1700001       1.31180272E-07
  -13.1599998       1.27986297E-07
  -13.1499996       1.04227105E-07
  -13.1400003       5.89812892E-08
  -13.1300001      -4.91165553E-09
  -13.1199999      -8.05683058E-08
  -13.1099997      -1.57597441E-07
  -13.1000004      -2.23477144E-07
  -13.0900002      -2.65601471E-07
  -13.0799999      -2.73640353E-07
  -13.0699997      -2.41756396E-07
  -13.0600004      -1.70173564E-07
  -13.0500002      -6.57291679E-08
  -13.0400000       5.87903273E-08
  -13.0299997       1.86471198E-07
  -13.0200005       2.98932719E-07
  -13.0100002       3.79326707E-07
  -13.0000000       4.15095883E-07
  -12.9899998       3.99941314E-07
  -12.9799995       3.34664691E-07
  -12.9700003       2.26778056E-07
  -12.9600000       8.90436525E-08
  -12.9499998      -6.26431458E-08
  -12.9399996      -2.11554521E-07
  -12.9300003      -3.42118938E-07
  -12.9200001      -4.41295697E-07
  -12.9099998      -4.99261091E-07
  -12.8999996      -5.09551683E-07
  -12.8900003      -4.68994955E-07
  -12.8800001      -3.77795772E-07
  -12.8699999      -2.40011616E-07
  -12.8599997      -6.44322284E-08
  -12.8500004       1.34454041E-07
  -12.8400002       3.35917122E-07
  -12.8299999       5.13550219E-07
  -12.8199997       6.37502239E-07
  -12.8100004       6.78558365E-07
  -12.8000002       6.13860664E-07
  -12.7900000       4.33348049E-07
  -12.7799997       1.45606563E-07
  -12.7700005      -2.18384912E-07
  -12.7600002      -6.05207617E-07
  -12.7500000      -9.43503892E-07
  -12.7399998      -1.15324792E-06
  -12.7299995      -1.15891839E-06
  -12.7200003      -9.04687965E-07
  -12.7100000      -3.69105294E-07
  -12.6999998       4.23646640E-07
  -12.6899996       1.39849590E-06
  -12.6800003       2.43199474E-06
  -12.6700001       3.36335120E-06
  -12.6599998       4.01290936E-06
  -12.6499996       4.20612378E-06
  -12.6400003       3.79981407E-06
  -12.6300001       2.70706164E-06
  -12.6199999       9.17286400E-07
  -12.6099997      -1.49139453E-06
  -12.6000004      -4.34930325E-06
  -12.5900002      -7.40234418E-06
  -12.5799999      -1.03287812E-05
  -12.5699997      -1.27639732E-05
  -12.5600004      -1.43311636E-05
  -12.5500002      -1.46760103E-05
  -12.5400000      -1.35022938E-05
  -12.5299997      -1.06069310E-05
  -12.5200005      -5.91144408E-06
  -12.5100002       5.11858957E-07
  -12.5000000       8.42181998E-06
  -12.4899998       1.74005854E-05
  -12.4799995       2.68584081E-05
  -12.4700003       3.60526137E-05
  -12.4600000       4.41209631E-05
  -12.4499998       5.01288341E-05
  -12.4399996       5.31270634E-05
  -12.4300003       5.22161245E-05
  -12.4200001       4.66108431E-05
  -12.4099998       3.56987548E-05
  -12.3999996       1.90872670E-05
  -12.3900003      -3.36689550E-06
  -12.3800001      -3.15467041E-05
  -12.3699999      -6.50836009E-05
  -12.3599997      -1.03382103E-04
  -12.3500004      -1.45656377E-04
  -12.3400002      -1.90971419E-04
  -12.3299999      -2.38284410E-04
  -12.3199997      -2.86479073E-04
  -12.3100004      -3.34391691E-04
  -12.3000002      -3.80825659E-04
  -12.2900000      -4.24556725E-04
  -12.2799997      -4.64337179E-04
  -12.2700005      -4.98890295E-04
  -12.2600002      -5.26917109E-04
  -12.2500000      -5.47098985E-04
  -12.2399998      -5.58117521E-04
  -12.2299995      -5.58680447E-04
  -12.2200003      -5.47552656E-04
  -12.2100000      -5.23594499E-04
  -12.1999998      -4.85807977E-04
  -12.1899996      -4.33380861E-04
  -12.1800003      -3.65739921E-04
  -12.1700001      -2.82585941E-04
  -12.1599998      -1.83945624E-04
  -12.1499996      -7.02094694E-05
  -12.1400003       5.78422441E-05
  -12.1300001       1.99013841E-04
  -12.1199999       3.51701339E-04
  -12.1099997       5.13900537E-04
  -12.1000004       6.83256483E-04
  -12.0900002       8.57121369E-04
  -12.0799999       1.03265047E-03
  -12.0699997       1.20689289E-03
  -12.0600004       1.37690152E-03
  -12.0500002       1.53983873E-03
  -12.0400000       1.69306167E-03
  -12.0299997       1.83418987E-03
  -12.0200005       1.96113484E-03
  -12.0100002       2.07211333E-03
  -12.0000000       2.16561579E-03
  -11.9899998       2.24037003E-03
  -11.9799995       2.29528453E-03
  -11.9700003       2.32939655E-03
  -11.9600000       2.34182435E-03
  -11.9499998       2.33173533E-03
  -11.9399996       2.29833950E-03
  -11.9300003       2.24089506E-03
  -11.9200001       2.15872703E-03
  -11.9099998       2.05126056E-03
  -11.8999996       1.91805349E-03
  -11.8900003       1.75882352E-03
  -11.8800001       1.57348183E-03
  -11.8699999       1.36214483E-03
  -11.8599997       1.12516060E-03
  -11.8500004       8.63106223E-04
  -11.8400002       5.76808932E-04
  -11.8299999       2.67344440E-04
  -11.8199997      -6.39469290E-05
  -11.8100004      -4.15460585E-04
  -11.8000002      -7.85317097E-04
  -11.7900000      -1.17137702E-03
  -11.7799997      -1.57124351E-03
  -11.7700005      -1.98227726E-03
  -11.7600002      -2.40162830E-03
  -11.7500000      -2.82625179E-03
  -11.7399998      -3.25294631E-03
  -11.7299995      -3.67835118E-03
  -11.7200003      -4.09897231E-03
  -11.7100000      -4.51119756E-03
  -11.6999998      -4.91129048E-03
  -11.6899996      -5.29539119E-03
  -11.6800003      -5.65954065E-03
  -11.6700001      -5.99969877E-03
  -11.6599998      -6.31176354E-03
  -11.6499996      -6.59163669E-03
  -11.6400003      -6.83528371E-03
  -11.6300001      -7.03879306E-03
  -11.6199999      -7.19845388E-03
  -11.6099997      -7.31083192E-03
  -11.6000004      -7.37281376E-03
  -11.5900002      -7.38166226E-03
  -11.5799999      -7.33504491E-03
  -11.5699997      -7.23103853E-03
  -11.5600004      -7.06813345E-03
  -11.5500002      -6.84521953E-03
  -11.5400000      -6.56155590E-03
  -11.5299997      -6.21674117E-03
  -11.5200005      -5.81068918E-03
  -11.5100002      -5.34358062E-03
  -11.5000000      -4.81583783E-03
  -11.4899998      -4.22808202E-03
  -11.4799995      -3.58111691E-03
  -11.4700003      -2.87591084E-03
  -11.4600000      -2.11356301E-03
  -11.4499998      -1.29532593E-03
  -11.4399996      -4.22585290E-04
  -11.4300003       5.03110292E-04
  -11.4200001       1.48002245E-03
  -11.4099998       2.50621815E-03
  -11.3999996       3.57953249E-03
  -11.3900003       4.69755009E-03
  -11.3800001       5.85757336E-03
  -11.3699999       7.05663348E-03
  -11.3599997       8.29145219E-03
  -11.3500004       9.55846254E-03
  -11.3400002       1.08537860E-02
  -11.3299999       1.21732615E-02
  -11.3199997       1.35124642E-02
  -11.3100004       1.48667078E-02
  -11.3000002       1.62311010E-02
  -11.2900000       1.76006053E-02
  -11.2799997       1.89700518E-02
  -11.2700005       2.03342624E-02
  -11.2600002       2.16881391E-02
  -11.2500000       2.30266899E-02
  -11.2399998       2.43452135E-02
  -11.2299995       2.56392974E-02
  -11.2200003       2.69049350E-02
  -11.2100000       2.81385556E-02
  -11.1999998       2.93370523E-02
  -11.1899996       3.04977968E-02
  -11.1800003       3.16185914E-02
  -11.1700001       3.26976329E-02
  -11.1599998       3.37334760E-02
  -11.1499996       3.47249396E-02
  -11.1400003       3.56710441E-02
  -11.1300001       3.65709215E-02
  -11.1199999       3.74237709E-02
  -11.1099997       3.82288322E-02
  -11.1000004       3.89852971E-02
  -11.0900002       3.96923162E-02
  -11.0799999       4.03490178E-02
  -11.0699997       4.09544669E-02
  -11.0600004       4.15077135E-02
  -11.0500002       4.20077927E-02
  -11.0400000       4.24538031E-02
  -11.0299997       4.28448766E-02
  -11.0200005       4.31803018E-02
  -11.0100002       4.34595011E-02
  -11.0000000       4.36820760E-02
  -10.9899998       4.38479148E-02
  -10.9799995       4.39571552E-02
  -10.9700003       4.40101922E-02
  -10.9600000       4.40078303E-02
  -10.9499998       4.39511165E-02
  -10.9399996       4.38414514E-02
  -10.9300003       4.36805002E-02
  -10.9200001       4.34701480E-02
  -10.9099998       4.32124734E-02
  -10.8999996       4.29096483E-02
  -10.8900003       4.25638631E-02
  -10.8800001       4.21772972E-02
  -10.8699999       4.17519361E-02
  -10.8599997       4.12895940E-02
  -10.8500004       4.07918394E-02
  -10.8400002       4.02599126E-02
  -10.8299999       3.96947600E-02
  -10.8199997       3.90970446E-02
  -10.8100004       3.84671353E-02
  -10.8000002       3.78051996E-02
  -10.7900000       3.71112414E-02
  -10.7799997       3.63852084E-02
  -10.7700005       3.56270224E-02
  -10.7600002       3.48367095E-02
  -10.7500000       3.40144411E-02
  -10.7399998       3.31605189E-02
  -10.7299995       3.22755240E-02
  -10.7200003       3.13602723E-02
  -10.7100000       3.04158367E-02
  -10.6999998       2.94436496E-02
  -10.6899996       2.84454022E-02
  -10.6800003       2.74231751E-02
  -10.6700001       2.63793729E-02
  -10.6599998       2.53167618E-02
  -10.6499996       2.42384300E-02
  -10.6400003       2.31477786E-02
  -10.6300001       2.20484678E-02
  -10.6199999       2.09443234E-02
  -10.6099997       1.98392924E-02
  -10.6000004       1.87373701E-02
  -10.5900002       1.76425800E-02
  -10.5799999       1.65588371E-02
  -10.5699997       1.54899517E-02
  -10.5600004       1.44396555E-02
  -10.5500002       1.34114567E-02
  -10.5400000       1.24088107E-02
  -10.5299997       1.14349080E-02
  -10.5200005       1.04927579E-02
  -10.5100002       9.58517846E-03
  -10.5000000       8.71467125E-03
  -10.4899998       7.88339041E-03
  -10.4799995       7.09324656E-03
  -10.4700003       6.34567905E-03
  -10.4600000       5.64190559E-03
  -10.4499998       4.98274434E-03
  -10.4399996       4.36883373E-03
  -10.4300003       3.80059495E-03
  -10.4200001       3.27824079E-03
  -10.4099998       2.80202762E-03
  -10.3999996       2.37209979E-03
  -10.3900003       1.98858674E-03
  -10.3800001       1.65160384E-03
  -10.3699999       1.36121328E-03
  -10.3599997       1.11731782E-03
  -10.3500004       9.19726386E-04
  -10.3400002       7.68081227E-04
  -10.3299999       6.61861210E-04
  -10.3199997       6.00351195E-04
  -10.3100004       5.82697219E-04
  -10.3000002       6.07899274E-04
  -10.2900000       6.74839888E-04
  -10.2799997       7.82408984E-04
  -10.2700005       9.29285015E-04
  -10.2600002       1.11423875E-03
  -10.2500000       1.33583578E-03
  -10.2399998       1.59265602E-03
  -10.2299995       1.88309327E-03
  -10.2200003       2.20550178E-03
  -10.2100000       2.55805999E-03
  -10.1999998       2.93888105E-03
  -10.1899996       3.34606413E-03
  -10.1800003       3.77758942E-03
  -10.1700001       4.23150370E-03
  -10.1599998       4.70589753E-03
  -10.1499996       5.19900164E-03
  -10.1400003       5.70909027E-03
  -10.1300001       6.23466400E-03
  -10.1199999       6.77443342E-03
  -10.1099997       7.32730748E-03
  -10.1000004       7.89239258E-03
  -10.0900002       8.46911594E-03
  -10.0799999       9.05698631E-03
  -10.0699997       9.65578016E-03
  -10.0600004       1.02652777E-02
  -10.0500002       1.08854137E-02
  -10.0400000       1.15160663E-02
  -10.0299997       1.21569689E-02
  -10.0200005       1.28079541E-02
  -10.0100002       1.34686744E-02
  -10.0000000       1.41387442E-02
  -9.98999977       1.48176933E-02
  -9.97999954       1.55052627E-02
  -9.97000027       1.62011720E-02
  -9.96000004       1.69053078E-02
  -9.94999981       1.76177882E-02
  -9.93999958       1.83389150E-02
  -9.93000031       1.90692861E-02
  -9.92000008       1.98098291E-02
  -9.90999985       2.05615927E-02
  -9.89999962       2.13261060E-02
  -9.89000034       2.21050587E-02
  -9.88000011       2.29003672E-02
  -9.86999989       2.37141754E-02
  -9.85999966       2.45487802E-02
  -9.85000038       2.54064333E-02
  -9.84000015       2.62893196E-02
  -9.82999992       2.71995012E-02
  -9.81999969       2.81386655E-02
  -9.81000042       2.91082952E-02
  -9.80000019       3.01094484E-02
  -9.78999996       3.11427154E-02
  -9.77999973       3.22086029E-02
  -9.77000046       3.33072245E-02
  -9.76000023       3.44385132E-02
  -9.75000000       3.56023051E-02
  -9.73999977       3.67983505E-02
  -9.72999954       3.80264148E-02
  -9.72000027       3.92861553E-02
  -9.71000004       4.05770689E-02
  -9.69999981       4.18986753E-02
  -9.68999958       4.32501584E-02
  -9.68000031       4.46305722E-02
  -9.67000008       4.60386239E-02
  -9.65999985       4.74726371E-02
  -9.64999962       4.89307381E-02
  -9.64000034       5.04107960E-02
  -9.63000011       5.19104786E-02
  -9.61999989       5.34272306E-02
  -9.60999966       5.49585409E-02
  -9.60000038       5.65018356E-02
  -9.59000015       5.80546036E-02
  -9.57999992       5.96142448E-02
  -9.56999969       6.11783974E-02
  -9.56000042       6.27445206E-02
  -9.55000019       6.43101856E-02
  -9.53999996       6.58728629E-02
  -9.52999973       6.74298853E-02
  -9.52000046       6.89787120E-02
  -9.51000023       7.05165938E-02
  -9.50000000       7.20406920E-02
  -9.48999977       7.35482350E-02
  -9.47999954       7.50366822E-02
  -9.47000027       7.65030831E-02
  -9.46000004       7.79450387E-02
  -9.44999981       7.93599859E-02
  -9.43999958       8.07454512E-02
  -9.43000031       8.20992664E-02
  -9.42000008       8.34192857E-02
  -9.40999985       8.47035870E-02
  -9.39999962       8.59507918E-02
  -9.39000034       8.71594697E-02
  -9.38000011       8.83288980E-02
  -9.36999989       8.94585550E-02
  -9.35999966       9.05484706E-02
  -9.35000038       9.15990323E-02
  -9.34000015       9.26112682E-02
  -9.32999992       9.35863853E-02
  -9.31999969       9.45259854E-02
  -9.31000042       9.54319015E-02
  -9.30000019       9.63064507E-02
  -9.28999996       9.71520767E-02
  -9.27999973       9.79715660E-02
  -9.27000046       9.87677127E-02
  -9.26000023       9.95437428E-02
  -9.25000000      0.100303024    
  -9.23999977      0.101049185    
  -9.22999954      0.101785839    
  -9.22000027      0.102516592    
  -9.21000004      0.103245057    
  -9.19999981      0.103974357    
  -9.18999958      0.104707785    
  -9.18000031      0.105447829    
  -9.17000008      0.106196754    
  -9.15999985      0.106956527    
  -9.14999962      0.107728690    
  -9.14000034      0.108514644    
  -9.13000011      0.109315306    
  -9.11999989      0.110131681    
  -9.10999966      0.110964477    
  -9.10000038      0.111813970    
  -9.09000015      0.112680770    
  -9.07999992      0.113564946    
  -9.06999969      0.114466548    
  -9.06000042      0.115385816    
  -9.05000019      0.116322428    
  -9.03999996      0.117276140    
  -9.02999973      0.118246906    
  -9.02000046      0.119233921    
  -9.01000023      0.120236717    
  -9.00000000      0.121254325    
  -8.98999977      0.122285306    
  -8.97999954      0.123328641    
  -8.97000027      0.124382600    
  -8.96000004      0.125445515    
  -8.94999981      0.126515761    
  -8.93999958      0.127592221    
  -8.93000031      0.128673241    
  -8.92000008      0.129758075    
  -8.90999985      0.130845949    
  -8.89999962      0.131936029    
  -8.89000034      0.133027732    
  -8.88000011      0.134120688    
  -8.86999989      0.135214597    
  -8.85999966      0.136309385    
  -8.85000038      0.137405083    
  -8.84000015      0.138502315    
  -8.82999992      0.139601991    
  -8.81999969      0.140705764    
  -8.81000042      0.141815662    
  -8.80000019      0.142933771    
  -8.78999996      0.144063309    
  -8.77999973      0.145207271    
  -8.77000046      0.146369100    
  -8.76000023      0.147552907    
  -8.75000000      0.148763105    
  -8.73999977      0.150003999    
  -8.72999954      0.151280597    
  -8.72000027      0.152598307    
  -8.71000004      0.153962106    
  -8.69999981      0.155377135    
  -8.68999958      0.156848922    
  -8.68000031      0.158381850    
  -8.67000008      0.159980491    
  -8.65999985      0.161648989    
  -8.64999962      0.163391024    
  -8.64000034      0.165209845    
  -8.63000011      0.167108074    
  -8.61999989      0.169088095    
  -8.60999966      0.171151742    
  -8.60000038      0.173299730    
  -8.59000015      0.175532997    
  -8.57999992      0.177851290    
  -8.56999969      0.180254072    
  -8.56000042      0.182739884    
  -8.55000019      0.185307026    
  -8.53999996      0.187953472    
  -8.52999973      0.190676868    
  -8.52000046      0.193474054    
  -8.51000023      0.196342155    
  -8.50000000      0.199278191    
  -8.48999977      0.202278420    
  -8.47999954      0.205339730    
  -8.47000027      0.208458722    
  -8.46000004      0.211632073    
  -8.44999981      0.214856520    
  -8.43999958      0.218129724    
  -8.43000031      0.221448779    
  -8.42000008      0.224811733    
  -8.40999985      0.228216350    
  -8.39999962      0.231660798    
  -8.39000034      0.235143006    
  -8.38000011      0.238661140    
  -8.36999989      0.242213145    
  -8.35999966      0.245796859    
  -8.35000038      0.249410287    
  -8.34000015      0.253051460    
  -8.32999992      0.256719023    
  -8.31999969      0.260410875    
  -8.31000042      0.264125884    
  -8.30000019      0.267862767    
  -8.28999996      0.271619976    
  -8.27999973      0.275396556    
  -8.27000046      0.279190361    
  -8.26000023      0.282999784    
  -8.25000000      0.286823541    
  -8.23999977      0.290659100    
  -8.22999954      0.294505626    
  -8.22000027      0.298360318    
  -8.21000004      0.302222341    
  -8.19999981      0.306090027    
  -8.18999958      0.309961945    
  -8.18000031      0.313836843    
  -8.17000008      0.317713708    
  -8.15999985      0.321590453    
  -8.14999962      0.325465232    
  -8.14000034      0.329336226    
  -8.13000011      0.333201438    
  -8.11999989      0.337057859    
  -8.10999966      0.340902835    
  -8.10000038      0.344732195    
  -8.09000015      0.348542541    
  -8.07999992      0.352328867    
  -8.06999969      0.356086433    
  -8.06000042      0.359809071    
  -8.05000019      0.363490969    
  -8.03999996      0.367124915    
  -8.02999973      0.370703965    
  -8.02000046      0.374220848    
  -8.01000023      0.377668500    
  -8.00000000      0.381039560    
  -7.98999977      0.384328753    
  -7.98000002      0.387528658    
  -7.96999979      0.390635073    
  -7.96000004      0.393641323    
  -7.94999981      0.396542668    
  -7.94000006      0.399334639    
  -7.92999983      0.402012646    
  -7.92000008      0.404572546    
  -7.90999985      0.407010019    
  -7.90000010      0.409323066    
  -7.88999987      0.411509097    
  -7.88000011      0.413565695    
  -7.86999989      0.415492535    
  -7.86000013      0.417288899    
  -7.84999990      0.418955952    
  -7.84000015      0.420495600    
  -7.82999992      0.421908677    
  -7.82000017      0.423199415    
  -7.80999994      0.424371719    
  -7.80000019      0.425429821    
  -7.78999996      0.426380217    
  -7.78000021      0.427228928    
  -7.76999998      0.427983940    
  -7.76000023      0.428653955    
  -7.75000000      0.429246992    
  -7.73999977      0.429774642    
  -7.73000002      0.430246264    
  -7.71999979      0.430672437    
  -7.71000004      0.431065112    
  -7.69999981      0.431434453    
  -7.69000006      0.431793243    
  -7.67999983      0.432153255    
  -7.67000008      0.432526261    
  -7.65999985      0.432924718    
  -7.65000010      0.433360964    
  -7.63999987      0.433848351    
  -7.63000011      0.434398532    
  -7.61999989      0.435024738    
  -7.61000013      0.435740232    
  -7.59999990      0.436556250    
  -7.59000015      0.437486261    
  -7.57999992      0.438542485    
  -7.57000017      0.439737082    
  -7.55999994      0.441081673    
  -7.55000019      0.442588270    
  -7.53999996      0.444268018    
  -7.53000021      0.446130306    
  -7.51999998      0.448185116    
  -7.51000023      0.450442106    
  -7.50000000      0.452908874    
  -7.48999977      0.455593079    
  -7.48000002      0.458501190    
  -7.46999979      0.461639881    
  -7.46000004      0.465014249    
  -7.44999981      0.468630195    
  -7.44000006      0.472489893    