  -16.0000000       0.00000000    
  -15.9899998       0.00000000    
  -15.9799995       0.00000000    
  -15.9700003       0.00000000    
  -15.9600000       0.00000000    
  -15.9499998       0.00000000    
  -15.9399996       0.00000000    
  -15.9300003       0.00000000    
  -15.9200001       0.00000000    
  -15.9099998       0.00000000    
  -15.8999996       0.00000000    
  -15.8900003       0.00000000    
  -15.8800001       0.00000000    
  -15.8699999       3.88159675E-43
  -15.8599997       4.75460569E-42
  -15.8500004      -4.32777018E-41
  -15.8400002      -1.72063056E-39
  -15.8299999      -2.18196758E-38
  -15.8199997      -1.78085159E-37
  -15.8100004      -1.09737768E-36
  -15.8000002      -5.49843617E-36
  -15.7900000      -2.33661960E-35
  -15.7799997      -8.64434439E-35
  -15.7700005      -2.82898373E-34
  -15.7600002      -8.26074063E-34
  -15.7500000      -2.15764541E-33
  -15.7399998      -5.02199913E-33
  -15.7299995      -1.02893276E-32
  -15.7200003      -1.80381562E-32
  -15.7100000      -2.51755801E-32
  -15.6999998      -2.11265193E-32
  -15.6899996       1.73486113E-32
  -15.6800003       1.27649647E-31
  -15.6700001       3.49677808E-31
  -15.6599998       6.88682079E-31
  -15.6499996       1.04649466E-30
  -15.6400003       1.13847935E-30
  -15.6300001       4.55637644E-31
  -15.6199999      -1.62386871E-30
  -15.6099997      -5.46214985E-30
  -15.6000004      -1.05007155E-29
  -15.5900002      -1.44950152E-29
  -15.5799999      -1.31318375E-29
  -15.5699997      -7.78705668E-31
  -15.5600004       2.68922563E-29
  -15.5500002       6.81770534E-29
  -15.5400000       1.09458146E-28
  -15.5299997       1.20955876E-28
  -15.5200005       5.91018006E-29
  -15.5100002      -1.17781136E-28
  -15.5000000      -4.14748388E-28
  -15.4899998      -7.48086850E-28
  -15.4799995      -8.95659884E-28
  -15.4700003      -4.99049663E-28
  -15.4600000       8.05838796E-28
  -15.4499998       3.06256719E-27
  -15.4399996       5.50381859E-27
  -15.4300003       6.14965301E-27
  -15.4200001       2.03628862E-27
  -15.4099998      -9.24400613E-27
  -15.3999996      -2.64026075E-26
  -15.3900003      -4.06905271E-26
  -15.3800001      -3.45123133E-26
  -15.3699999       1.28995645E-26
  -15.3599997       1.08970830E-25
  -15.3500004       2.22671472E-25
  -15.3400002       2.64746995E-25
  -15.3299999       1.00107805E-25
  -15.3199997      -3.78203214E-25
  -15.3100004      -1.10725779E-24
  -15.3000002      -1.69695025E-24
  -15.2900000      -1.38965855E-24
  -15.2799997       6.78750221E-25
  -15.2700005       4.79159596E-24
  -15.2600002       9.65966805E-24
  -15.2500000       1.16724537E-23
  -15.2399998       5.36373075E-24
  -15.2299995      -1.38964301E-23
  -15.2200003      -4.47761710E-23
  -15.2100000      -7.41064012E-23
  -15.1999998      -7.44590789E-23
  -15.1899996      -1.11047453E-23
  -15.1800003       1.37130468E-22
  -15.1700001       3.45176351E-22
  -15.1599998       5.11094776E-22
  -15.1499996       4.54253423E-22
  -15.1400003      -2.61980533E-23
  -15.1300001      -1.01610939E-21
  -15.1199999      -2.30055771E-21
  -15.1099997      -3.21799269E-21
  -15.1000004      -2.70294614E-21
  -15.0900002       3.30870301E-22
  -15.0799999       6.22030975E-21
  -15.0699997       1.35847371E-20
  -15.0600004       1.86648345E-20
  -15.0500002       1.57162814E-20
  -15.0400000      -8.58549357E-22
  -15.0299997      -3.25481742E-20
  -15.0200005      -7.20146349E-20
  -15.0100002      -1.00129896E-19
  -15.0000000      -8.82433628E-20
  -14.9899998      -8.63478251E-21
  -14.9799995       1.46783471E-19
  -14.9700003       3.44711028E-19
  -14.9600000       4.97001855E-19
  -14.9499998       4.70679159E-19
  -14.9399996       1.33858348E-19
  -14.9300003      -5.62505357E-19
  -14.9200001      -1.48920035E-18
  -14.9099998      -2.27692713E-18
  -14.8999996      -2.35058984E-18
  -14.8900003      -1.11129213E-18
  -14.8800001       1.73173125E-18
  -14.8699999       5.76323327E-18
  -14.8599997       9.58021560E-18
  -14.8500004       1.08707572E-17
  -14.8400002       7.06256320E-18
  -14.8299999      -3.42590375E-18
  -14.8199997      -1.96145633E-17
  -14.8100004      -3.67215683E-17
  -14.8000002      -4.61561223E-17
  -14.7900000      -3.75684589E-17
  -14.7799997      -3.20547563E-18
  -14.7700005       5.62569042E-17
  -14.7600002       1.26547119E-16
  -14.7500000       1.78436172E-16
  -14.7399998       1.73281699E-16
  -14.7299995       7.69003478E-17
  -14.7200003      -1.20237439E-16
  -14.7100000      -3.82931816E-16
  -14.6999998      -6.21514396E-16
  -14.6899996      -7.03461074E-16
  -14.6800003      -4.93118018E-16
  -14.6700001       8.37484636E-17
  -14.6599998       9.67949865E-16
  -14.6499996       1.91820288E-15
  -14.6400003       2.52233410E-15
  -14.6300001       2.29626354E-15
  -14.6199999       8.71839736E-16
  -14.6099997      -1.76686933E-15
  -14.6000004      -5.08348390E-15
  -14.5900002      -7.93763892E-15
  -14.5799999      -8.78340556E-15
  -14.5699997      -6.15648957E-15
  -14.5600004       6.23358545E-16
  -14.5500002       1.07426283E-14
  -14.5400000       2.14919804E-14
  -14.5299997       2.85022995E-14
  -14.5200005       2.68276764E-14
  -14.5100002       1.28090440E-14
  -14.5000000      -1.37193012E-14
  -14.4899998      -4.76733589E-14
  -14.4799995      -7.83773613E-14
  -14.4700003      -9.14342861E-14
  -14.4600000      -7.30265864E-14
  -14.4499998      -1.59320579E-14
  -14.4399996       7.44916281E-14
  -14.4300003       1.76850681E-13
  -14.4200001       2.55309717E-13
  -14.4099998       2.67748551E-13
  -14.3999996       1.79956378E-13
  -14.3900003      -1.73415291E-14
  -14.3800001      -2.94264667E-13
  -14.3699999      -5.77177466E-13
  -14.3599997      -7.59396669E-13
  -14.3500004      -7.29098910E-13
  -14.3400002      -4.10309861E-13
  -14.3299999       1.93820153E-13
  -14.3199997       9.71208465E-13
  -14.3100004       1.70098213E-12
  -14.3000002       2.09464759E-12
  -14.2900000       1.87789194E-12
  -14.2799997       8.97143254E-13
  -14.2700005      -7.79874104E-13
  -14.2600002      -2.80878099E-12
  -14.2500000      -4.59443464E-12
  -14.2399998      -5.41643813E-12
  -14.2299995      -4.64261919E-12
  -14.2200003      -1.98307885E-12
  -14.2100000       2.29259428E-12
  -14.1999998       7.26377899E-12
  -14.1899996       1.14651292E-11
  -14.1800003       1.32158737E-11
  -14.1700001       1.11262631E-11
  -14.1599998       4.66073751E-12
  -14.1499996      -5.41872927E-12
  -14.1400003      -1.69150718E-11
  -14.1300001      -2.64992143E-11
  -14.1199999      -3.04786786E-11
  -14.1099997      -2.59040064E-11
  -14.1000004      -1.17411072E-11
  -14.0900002       1.02605389E-11
  -14.0799999       3.53672300E-11
  -14.0699997       5.65695268E-11
  -14.0600004       6.62027724E-11
  -14.0500002       5.81909035E-11
  -14.0400000       3.03516969E-11
  -14.0299997      -1.39515986E-11
  -14.0200005      -6.54891280E-11
  -14.0100002      -1.10582592E-10
  -14.0000000      -1.34222328E-10
  -13.9899998      -1.24300556E-10
  -13.9799995      -7.59036653E-11
  -13.9700003       5.62959401E-12
  -13.9600000       1.04076490E-10
  -13.9499998       1.94810501E-10
  -13.9399996       2.50280796E-10
  -13.9300003       2.47436016E-10
  -13.9200001       1.75279333E-10
  -13.9099998       4.03329384E-11
  -13.8999996      -1.31961511E-10
  -13.8900003      -3.01040332E-10
  -13.8800001      -4.20020019E-10
  -13.8699999      -4.47784754E-10
  -13.8599997      -3.61435160E-10
  -13.8500004      -1.65570765E-10
  -13.8400002       1.04729496E-10
  -13.8299999       3.89018928E-10
  -13.8199997       6.14429563E-10
  -13.8100004       7.13872517E-10
  -13.8000002       6.45067388E-10
  -13.7900000       4.05155909E-10
  -13.7799997       3.62060208E-11
  -13.7700005      -3.81049026E-10
  -13.7600002      -7.44868001E-10
  -13.7500000      -9.57860347E-10
  -13.7399998      -9.53746748E-10
  -13.7299995      -7.18067106E-10
  -13.7200003      -2.96340119E-10
  -13.7100000       2.13872961E-10
  -13.6999998       6.86246171E-10
  -13.6899996       9.99017757E-10
  -13.6800003       1.06949216E-09
  -13.6700001       8.79696316E-10
  -13.6599998       4.84740248E-10
  -13.6499996      -1.65872117E-13
  -13.6400003      -4.32007680E-10
  -13.6300001      -6.83365475E-10
  -13.6199999      -6.84411416E-10
  -13.6099997      -4.49954574E-10
  -13.6000004      -8.11987907E-11
  -13.5900002       2.61389937E-10
  -13.5799999       4.08907963E-10
  -13.5699997       2.44949810E-10
  -13.5600004      -2.42050407E-10
  -13.5500002      -9.33817357E-10
  -13.5400000      -1.59739022E-09
  -13.5299997      -1.94229655E-09
  -13.5200005      -1.70858816E-09
  -13.5100002      -7.62839347E-10
  -13.5000000       8.27044599E-10
  -13.4899998       2.76569057E-09
  -13.4799995       4.56968863E-09
  -13.4700003       5.67245850E-09
  -13.4600000       5.57442714E-09
  -13.4499998       4.00175759E-09
  -13.4399996       1.02849496E-09
  -13.4300003      -2.87893975E-09
  -13.4200001      -6.91976032E-09
  -13.4099998      -1.01180344E-08
  -13.3999996      -1.15529666E-08
  -13.3900003      -1.06063034E-08
  -13.3800001      -7.16095716E-09
  -13.3699999      -1.69153391E-09
  -13.3599997       4.78982942E-09
  -13.3500004       1.09324434E-08
  -13.3400002       1.53514712E-08
  -13.3299999       1.69657994E-08
  -13.3199997       1.52814987E-08
  -13.3100004       1.05422151E-08
  -13.3000002       3.69709374E-09
  -13.2900000      -3.81559051E-09
  -13.2799997      -1.04199618E-08
  -13.2700005      -1.47993067E-08
  -13.2600002      -1.62307998E-08
  -13.2500000      -1.47607269E-08
  -13.2399998      -1.11651337E-08
  -13.2299995      -6.69768907E-09
  -13.2200003      -2.68987277E-09
  -13.2100000      -1.18580770E-10
  -13.1999998       7.29189431E-10
  -13.1899996       3.80972226E-10
  -13.1800003       3.51937229E-11
  -13.1700001       1.16825782E-09
  -13.1599998       4.98920150E-09
  -13.1499996       1.18972112E-08
  -13.1400003       2.11146993E-08
  -13.1300001       3.06356718E-08
  -13.1199999       3.75566671E-08
  -13.1099997       3.87500556E-08
  -13.1000004       3.17375175E-08
  -13.0900002       1.55443498E-08
  -13.0799999      -8.70574723E-09
  -13.0699997      -3.76574896E-08
  -13.0600004      -6.61487292E-08
  -13.0500002      -8.81546782E-08
  -13.0400000      -9.80714034E-08
  -13.0299997      -9.20483600E-08
  -13.0200005      -6.90457114E-08
  -13.0100002      -3.13308419E-08
  -13.0000000       1.57455542E-08
  -12.9899998       6.46851603E-08
  -12.9799995       1.07302483E-07
  -12.9700003       1.36371327E-07
  -12.9600000       1.47078083E-07
  -12.9499998       1.37921106E-07
  -12.9399996       1.10840894E-07
  -12.9300003       7.05696976E-08
  -12.9200001       2.33808866E-08
  -12.9099998      -2.44074467E-08
  -12.8999996      -6.77629757E-08
  -12.8900003      -1.03730336E-07
  -12.8800001      -1.31493252E-07
  -12.8699999      -1.51699794E-07
  -12.8599997      -1.65330775E-07
  -12.8500004      -1.72485457E-07
  -12.8400002      -1.71558582E-07
  -12.8299999      -1.59148982E-07
  -12.8199997      -1.30848974E-07
  -12.8100004      -8.27602875E-08
  -12.8000002      -1.33417419E-08
  -12.7900000       7.49753326E-08
  -12.7799997       1.74984706E-07
  -12.7700005       2.75085767E-07
  -12.7600002       3.60973530E-07
  -12.7500000       4.18319701E-07
  -12.7399998       4.35851319E-07
  -12.7299995       4.08033259E-07
  -12.7200003       3.36582076E-07
  -12.7100000       2.30296720E-07
  -12.6999998       1.03117301E-07
  -12.6899996      -2.92222992E-08
  -12.6800003      -1.53101780E-07
  -12.6700001      -2.60466777E-07
  -12.6599998      -3.50808136E-07
  -12.6499996      -4.30966139E-07
  -12.6400003      -5.12615770E-07
  -12.6300001      -6.07889831E-07
  -12.6199999      -7.24127403E-07
  -12.6099997      -8.59133252E-07
  -12.6000004      -9.98185328E-07
  -12.5900002      -1.11386555E-06
  -12.5799999      -1.16898946E-06
  -12.5699997      -1.12225780E-06
  -12.5600004      -9.35632158E-07
  -12.5500002      -5.81741915E-07
  -12.5400000      -4.99626793E-08
  -12.5299997       6.50265349E-07
  -12.5200005       1.48931622E-06
  -12.5100002       2.42020201E-06
  -12.5000000       3.38345694E-06
  -12.4899998       4.31226363E-06
  -12.4799995       5.13646228E-06
  -12.4700003       5.78413346E-06
  -12.4600000       6.18019612E-06
  -12.4499998       6.24291852E-06
  -12.4399996       5.87929890E-06
  -12.4300003       4.98173176E-06
  -12.4200001       3.42804083E-06
  -12.4099998       1.08594486E-06
  -12.3999996      -2.17681600E-06
  -12.3900003      -6.47803972E-06
  -12.3800001      -1.19038832E-05
  -12.3699999      -1.84919481E-05
  -12.3599997      -2.62172725E-05
  -12.3500004      -3.49832990E-05
  -12.3400002      -4.46210433E-05
  -12.3299999      -5.48934913E-05
  -12.3199997      -6.55056938E-05
  -12.3100004      -7.61185947E-05
  -12.3000002      -8.63622918E-05
  -12.2900000      -9.58480232E-05
  -12.2799997      -1.04177372E-04
  -12.2700005      -1.10948691E-04
  -12.2600002      -1.15763600E-04
  -12.2500000      -1.18233467E-04
  -12.2399998      -1.17991010E-04
  -12.2299995      -1.14705639E-04
  -12.2200003      -1.08102206E-04
  -12.2100000      -9.79864853E-05
  -12.1999998      -8.42652807E-05
  -12.1899996      -6.69617075E-05
  -12.1800003      -4.62260105E-05
  -12.1700001      -2.23296811E-05
  -12.1599998       4.35140828E-06
  -12.1499996       3.33624012E-05
  -12.1400003       6.42038503E-05
  -12.1300001       9.63658895E-05
  -12.1199999       1.29361288E-04
  -12.1099997       1.62746845E-04
  -12.1000004       1.96134322E-04
  -12.0900002       2.29190729E-04
  -12.0799999       2.61625508E-04
  -12.0699997       2.93173012E-04
  -12.0600004       3.23570828E-04
  -12.0500002       3.52539588E-04
  -12.0400000       3.79766600E-04
  -12.0299997       4.04898194E-04
  -12.0200005       4.27537016E-04
  -12.0100002       4.47245431E-04
  -12.0000000       4.63553006E-04
  -11.9899998       4.75968001E-04
  -11.9799995       4.83987969E-04
  -11.9700003       4.87112760E-04
  -11.9600000       4.84858319E-04
  -11.9499998       4.76771995E-04
  -11.9399996       4.62452444E-04
  -11.9300003       4.41570126E-04
  -11.9200001       4.13892150E-04
  -11.9099998       3.79306934E-04
  -11.8999996       3.37843958E-04
  -11.8900003       2.89686926E-04
  -11.8800001       2.35174870E-04
  -11.8699999       1.74795059E-04
  -11.8599997       1.09154265E-04
  -11.8500004       3.89465131E-05
  -11.8400002      -3.50919217E-05
  -11.8299999      -1.12224647E-04
  -11.8199997      -1.91754909E-04
  -11.8100004      -2.73053651E-04
  -11.8000002      -3.55574826E-04
  -11.7900000      -4.38849267E-04
  -11.7799997      -5.22469927E-04
  -11.7700005      -6.06064801E-04
  -11.7600002      -6.89263630E-04
  -11.7500000      -7.71666586E-04
  -11.7399998      -8.52819707E-04
  -11.7299995      -9.32194700E-04
  -11.7200003      -1.00918510E-03
  -11.7100000      -1.08310475E-03
  -11.6999998      -1.15319761E-03
  -11.6899996      -1.21864746E-03
  -11.6800003      -1.27859262E-03
  -11.6700001      -1.33214041E-03
  -11.6599998      -1.37838442E-03
  -11.6499996      -1.41642196E-03
  -11.6400003      -1.44537992E-03
  -11.6300001      -1.46443828E-03
  -11.6199999      -1.47286011E-03
  -11.6099997      -1.47001760E-03
  -11.6000004      -1.45541539E-03
  -11.5900002      -1.42869679E-03
  -11.5799999      -1.38964562E-03
  -11.5699997      -1.33816490E-03
  -11.5600004      -1.27425045E-03
  -11.5500002      -1.19794917E-03
  -11.5400000      -1.10932917E-03
  -11.5299997      -1.00844423E-03
  -11.5200005      -8.95322009E-04
  -11.5100002      -7.69969134E-04
  -11.5000000      -6.32388867E-04
  -11.4899998      -4.82617470E-04
  -11.4799995      -3.20770108E-04
  -11.4700003      -1.47078521E-04
  -11.4600000       3.80713573E-05
  -11.4499998       2.34122010E-04
  -11.4399996       4.40341712E-04
  -11.4300003       6.55837415E-04
  -11.4200001       8.79585044E-04
  -11.4099998       1.11046049E-03
  -11.3999996       1.34728092E-03
  -11.3900003       1.58884295E-03
  -11.3800001       1.83395203E-03
  -11.3699999       2.08144821E-03
  -11.3599997       2.33022776E-03
  -11.3500004       2.57926295E-03
  -11.3400002       2.82761105E-03
  -11.3299999       3.07442830E-03
  -11.3199997       3.31898034E-03
  -11.3100004       3.56064457E-03
  -11.3000002       3.79891088E-03
  -11.2900000       4.03336948E-03
  -11.2799997       4.26369580E-03
  -11.2700005       4.48962534E-03
  -11.2600002       4.71092295E-03
  -11.2500000       4.92735207E-03
  -11.2399998       5.13864076E-03
  -11.2299995       5.34446118E-03
  -11.2200003       5.54440357E-03
  -11.2100000       5.73799154E-03
  -11.1999998       5.92466770E-03
  -11.1899996       6.10382902E-03
  -11.1800003       6.27484219E-03
  -11.1700001       6.43708603E-03
  -11.1599998       6.58998359E-03
  -11.1499996       6.73302729E-03
  -11.1400003       6.86581898E-03
  -11.1300001       6.98807789E-03
  -11.1199999       7.09966896E-03
  -11.1099997       7.20058568E-03
  -11.1000004       7.29097100E-03
  -11.0900002       7.37108942E-03
  -11.0799999       7.44132418E-03
  -11.0699997       7.50215817E-03
  -11.0600004       7.55415298E-03
  -11.0500002       7.59792933E-03
  -11.0400000       7.63414754E-03
  -11.0299997       7.66347442E-03
  -11.0200005       7.68657308E-03
  -11.0100002       7.70407682E-03
  -11.0000000       7.71658588E-03
  -10.9899998       7.72463577E-03
  -10.9799995       7.72872521E-03
  -10.9700003       7.72929518E-03
  -10.9600000       7.72673544E-03
  -10.9499998       7.72139337E-03
  -10.9399996       7.71356933E-03
  -10.9300003       7.70350220E-03
  -10.9200001       7.69135496E-03
  -10.9099998       7.67720258E-03
  -10.8999996       7.66099710E-03
  -10.8900003       7.64255924E-03
  -10.8800001       7.62157189E-03
  -10.8699999       7.59756984E-03
  -10.8599997       7.56995892E-03
  -10.8500004       7.53804669E-03
  -10.8400002       7.50105828E-03
  -10.8299999       7.45817367E-03
  -10.8199997       7.40857562E-03
  -10.8100004       7.35145668E-03
  -10.8000002       7.28606898E-03
  -10.7900000       7.21175550E-03
  -10.7799997       7.12796161E-03
  -10.7700005       7.03428872E-03
  -10.7600002       6.93050679E-03
  -10.7500000       6.81658927E-03
  -10.7399998       6.69272756E-03
  -10.7299995       6.55932818E-03
  -10.7200003       6.41701417E-03
  -10.7100000       6.26657670E-03
  -10.6999998       6.10894337E-03
  -10.6899996       5.94510557E-03
  -10.6800003       5.77606494E-03
  -10.6700001       5.60276909E-03
  -10.6599998       5.42606087E-03
  -10.6499996       5.24664391E-03
  -10.6400003       5.06508397E-03
  -10.6300001       4.88177082E-03
  -10.6199999       4.69698152E-03
  -10.6099997       4.51088650E-03
  -10.6000004       4.32357844E-03
  -10.5900002       4.13513836E-03
  -10.5799999       3.94564820E-03
  -10.5699997       3.75522906E-03
  -10.5600004       3.56406812E-03
  -10.5500002       3.37239844E-03
  -10.5400000       3.18051921E-03
  -10.5299997       2.98876129E-03
  -10.5200005       2.79746228E-03
  -10.5100002       2.60693789E-03
  -10.5000000       2.41746171E-03
  -10.4899998       2.22921697E-03
  -10.4799995       2.04231380E-03
  -10.4700003       1.85675267E-03
  -10.4600000       1.67244766E-03
  -10.4499998       1.48923136E-03
  -10.4399996       1.30687247E-03
  -10.4300003       1.12511078E-03
  -10.4200001       9.43670515E-04
  -10.4099998       7.62293988E-04
  -10.3999996       5.80753549E-04
  -10.3900003       3.98863602E-04
  -10.3800001       2.16486602E-04
  -10.3699999       3.34908291E-05
  -10.3599997      -1.50247055E-04
  -10.3500004      -3.34902870E-04
  -10.3400002      -5.20735513E-04
  -10.3299999      -7.08123785E-04
  -10.3199997      -8.97592341E-04
  -10.3100004      -1.08980958E-03
  -10.3000002      -1.28557568E-03
  -10.2900000      -1.48575241E-03
  -10.2799997      -1.69122103E-03
  -10.2700005      -1.90279924E-03
  -10.2600002      -2.12117331E-03
  -10.2500000      -2.34684069E-03
  -10.2399998      -2.58006132E-03
  -10.2299995      -2.82086059E-03
  -10.2200003      -3.06903408E-03
  -10.2100000      -3.32418317E-03
  -10.1999998      -3.58572975E-03
  -10.1899996      -3.85299767E-03
  -10.1800003      -4.12520487E-03
  -10.1700001      -4.40152362E-03
  -10.1599998      -4.68106661E-03
  -10.1499996      -4.96290531E-03
  -10.1400003      -5.24605997E-03
  -10.1300001      -5.52950613E-03
  -10.1199999      -5.81213459E-03
  -10.1099997      -6.09280169E-03
  -10.1000004      -6.37028739E-03
  -10.0900002      -6.64331624E-03
  -10.0799999      -6.91056624E-03
  -10.0699997      -7.17066694E-03
  -10.0600004      -7.42221856E-03
  -10.0500002      -7.66375987E-03
  -10.0400000      -7.89383519E-03
  -10.0299997      -8.11096281E-03
  -10.0200005      -8.31369404E-03
  -10.0100002      -8.50063656E-03
  -10.0000000      -8.67052376E-03
  -9.98999977      -8.82225391E-03
  -9.97999954      -8.95492546E-03
  -9.97000027      -9.06784739E-03
  -9.96000004      -9.16056242E-03
  -9.94999981      -9.23276320E-03
  -9.93999958      -9.28424299E-03
  -9.93000031      -9.31482762E-03
  -9.92000008      -9.32426937E-03
  -9.90999985      -9.31222830E-03
  -9.89999962      -9.27824993E-03
  -9.89000034      -9.22179688E-03
  -9.88000011      -9.14232153E-03
  -9.86999989      -9.03937034E-03
  -9.85999966      -8.91267974E-03
  -9.85000038      -8.76227394E-03
  -9.84000015      -8.58849939E-03
  -9.82999992      -8.39204062E-03
  -9.81999969      -8.17389321E-03
  -9.81000042      -7.93531351E-03
  -9.80000019      -7.67774228E-03
  -9.78999996      -7.40274228E-03
  -9.77999973      -7.11195078E-03
  -9.77000046      -6.80702878E-03
  -9.76000023      -6.48964709E-03
  -9.75000000      -6.16145507E-03
  -9.73999977      -5.82408346E-03
  -9.72999954      -5.47908293E-03
  -9.72000027      -5.12794964E-03
  -9.71000004      -4.77206474E-03
  -9.69999981      -4.41272138E-03
  -9.68999958      -4.05110698E-03
  -9.68000031      -3.68831307E-03
  -9.67000008      -3.32538947E-03
  -9.65999985      -2.96328822E-03
  -9.64999962      -2.60293367E-03
  -9.64000034      -2.24517519E-03
  -9.63000011      -1.89075212E-03
  -9.61999989      -1.54030276E-03
  -9.60999966      -1.19431678E-03
  -9.60000038      -8.53177684E-04
  -9.59000015      -5.17149281E-04
  -9.57999992      -1.86422214E-04
  -9.56999969       1.38853415E-04
  -9.56000042       4.58516472E-04
  -9.55000019       7.72398605E-04
  -9.53999996       1.08034199E-03
  -9.52999973       1.38219085E-03
  -9.52000046       1.67781010E-03
  -9.51000023       1.96709880E-03
  -9.50000000       2.24997546E-03
  -9.48999977       2.52634054E-03
  -9.47999954       2.79601128E-03
  -9.47000027       3.05870338E-03
  -9.46000004       3.31399310E-03
  -9.44999981       3.56131070E-03
  -9.43999958       3.79999448E-03
  -9.43000031       4.02929215E-03
  -9.42000008       4.24841233E-03
  -9.40999985       4.45654988E-03
  -9.39999962       4.65286942E-03
  -9.39000034       4.83646337E-03
  -9.38000011       5.00627328E-03
  -9.36999989       5.16107352E-03
  -9.35999966       5.29939728E-03
  -9.35000038       5.41958492E-03
  -9.34000015       5.51981246E-03
  -9.32999992       5.59818605E-03
  -9.31999969       5.65283187E-03
  -9.31000042       5.68202510E-03
  -9.30000019       5.68417041E-03
  -9.28999996       5.65791130E-03
  -9.27999973       5.60207758E-03
  -9.27000046       5.51565131E-03
  -9.26000023       5.39777474E-03
  -9.25000000       5.24771772E-03
  -9.23999977       5.06490329E-03
  -9.22999954       4.84894589E-03
  -9.22000027       4.59969789E-03
  -9.21000004       4.31726594E-03
  -9.19999981       4.00202768E-03
  -9.18999958       3.65461782E-03
  -9.18000031       3.27586988E-03
  -9.17000008       2.86673266E-03
  -9.15999985       2.42823013E-03
  -9.14999962       1.96137256E-03
  -9.14000034       1.46717136E-03
  -9.13000011       9.46608081E-04
  -9.11999989       4.00692952E-04
  -9.10999966      -1.69516294E-04
  -9.10000038      -7.62855634E-04
  -9.09000015      -1.37800269E-03
  -9.07999992      -2.01343838E-03
  -9.06999969      -2.66742008E-03
  -9.06000042      -3.33792088E-03
  -9.05000019      -4.02262248E-03
  -9.03999996      -4.71888669E-03
  -9.02999973      -5.42373210E-03
  -9.02000046      -6.13384089E-03
  -9.01000023      -6.84558833E-03
  -9.00000000      -7.55512482E-03
  -8.98999977      -8.25841725E-03
  -8.97999954      -8.95137712E-03
  -8.97000027      -9.62994434E-03
  -8.96000004      -1.02901421E-02
  -8.94999981      -1.09281559E-02
  -8.93999958      -1.15403254E-02
  -8.93000031      -1.21231489E-02
  -8.92000008      -1.26732411E-02
  -8.90999985      -1.31872930E-02
  -8.89999962      -1.36620384E-02
  -8.89000034      -1.40942484E-02
  -8.88000011      -1.44807119E-02
  -8.86999989      -1.48183024E-02
  -8.85999966      -1.51039734E-02
  -8.85000038      -1.53348306E-02
  -8.84000015      -1.55081628E-02
  -8.82999992      -1.56214572E-02
  -8.81999969      -1.56723950E-02
  -8.81000042      -1.56588554E-02
  -8.80000019      -1.55788790E-02
  -8.78999996      -1.54306646E-02
  -8.77999973      -1.52125591E-02
  -8.77000046      -1.49230538E-02
  -8.76000023      -1.45608392E-02
  -8.75000000      -1.41248126E-02
  -8.73999977      -1.36141218E-02
  -8.72999954      -1.30281877E-02
  -8.72000027      -1.23667307E-02
  -8.71000004      -1.16297584E-02
  -8.69999981      -1.08175706E-02
  -8.68999958      -9.93076991E-03
  -8.68000031      -8.97028763E-03
  -8.67000008      -7.93735590E-03
  -8.65999985      -6.83359336E-03
  -8.64999962      -5.66096511E-03
  -8.64000034      -4.42179199E-03
  -8.63000011      -3.11871804E-03
  -8.61999989      -1.75461604E-03
  -8.60999966      -3.32560157E-04
  -8.60000038       1.14429579E-03
  -8.59000015       2.67271185E-03
  -8.57999992       4.24936321E-03
  -8.56999969       5.87079581E-03
  -8.56000042       7.53333746E-03
  -8.55000019       9.23305564E-03
  -8.53999996       1.09657506E-02
  -8.52999973       1.27269430E-02
  -8.52000046       1.45120732E-02
  -8.51000023       1.63165908E-02
  -8.50000000       1.81361698E-02
  -8.48999977       1.99667998E-02
  -8.47999954       2.18048953E-02
  -8.47000027       2.36471854E-02
  -8.46000004       2.54906844E-02
  -8.44999981       2.73324978E-02
  -8.43999958       2.91697998E-02
  -8.43000031       3.09997015E-02
  -8.42000008       3.28193270E-02
  -8.40999985       3.46259139E-02
  -8.39999962       3.64170223E-02
  -8.39000034       3.81905995E-02
  -8.38000011       3.99450324E-02
  -8.36999989       4.16791774E-02
  -8.35999966       4.33921665E-02
  -8.35000038       4.50831912E-02
  -8.34000015       4.67514209E-02
  -8.32999992       4.83957790E-02
  -8.31999969       5.00149466E-02
  -8.31000042       5.16074896E-02
  -8.30000019       5.31717688E-02
  -8.28999996       5.47063537E-02
  -8.27999973       5.62098138E-02
  -8.27000046       5.76808043E-02
  -8.26000023       5.91179170E-02
  -8.25000000       6.05195612E-02
  -8.23999977       6.18837699E-02
  -8.22999954       6.32081181E-02
  -8.22000027       6.44898042E-02
  -8.21000004       6.57257289E-02
  -8.19999981       6.69126958E-02
  -8.18999958       6.80475906E-02
  -8.18000031       6.91274479E-02
  -8.17000008       7.01494589E-02
  -8.15999985       7.11108074E-02
  -8.14999962       7.20085800E-02
  -8.14000034       7.28395060E-02
  -8.13000011       7.35998750E-02
  -8.11999989       7.42856562E-02
  -8.10999966       7.48925507E-02
  -8.10000038       7.54163265E-02
  -8.09000015       7.58529603E-02
  -8.07999992       7.61988536E-02
  -8.06999969       7.64508620E-02
  -8.06000042       7.66061842E-02
  -8.05000019       7.66622201E-02
  -8.03999996       7.66162276E-02
  -8.02999973       7.64654577E-02
  -8.02000046       7.62068108E-02
  -8.01000023       7.58373216E-02
  -8.00000000       7.53540546E-02
  -7.98999977       7.47545436E-02
  -7.98000002       7.40370080E-02
  -7.96999979       7.32002631E-02
  -7.96000004       7.22438321E-02
  -7.94999981       7.11676255E-02
  -7.94000006       6.99717775E-02
  -7.92999983       6.86564893E-02
  -7.92000008       6.72218651E-02
  -7.90999985       6.56681061E-02
  -7.90000010       6.39955103E-02
  -7.88999987       6.22049347E-02
  -7.88000011       6.02977164E-02
  -7.86999989       5.82761541E-02
  -7.86000013       5.61431274E-02
  -7.84999990       5.39022163E-02
  -7.84000015       5.15574478E-02
  -7.82999992       4.91130725E-02
  -7.82000017       4.65735570E-02
  -7.80999994       4.39435802E-02
  -7.80000019       4.12280783E-02
  -7.78999996       3.84326912E-02
  -7.78000021       3.55636589E-02
  -7.76999998       3.26280817E-02
  -7.76000023       2.96338219E-02
  -7.75000000       2.65893191E-02
  -7.73999977       2.35032905E-02
  -7.73000002       2.03844383E-02
  -7.71999979       1.72412954E-02
  -7.71000004       1.40821077E-02
  -7.69999981       1.09149106E-02
  -7.69000006       7.74763431E-03
  -7.67999983       4.58832411E-03
  -7.67000008       1.44531671E-03
  -7.65999985      -1.67281274E-03
  -7.65000010      -4.75740386E-03
  -7.63999987      -7.79992808E-03
  -7.63000011      -1.07924370E-02
  -7.61999989      -1.37276258E-02
  -7.61000013      -1.65991597E-02
  -7.59999990      -1.94016006E-02
  -7.59000015      -2.21302435E-02
  -7.57999992      -2.47809328E-02
  -7.57000017      -2.73497477E-02
  -7.55999994      -2.98328102E-02
  -7.55000019      -3.22263837E-02
  -7.53999996      -3.45268510E-02
  -7.53000021      -3.67309451E-02
  -7.51999998      -3.88360471E-02
  -7.51000023      -4.08402830E-02
  -7.50000000      -4.27423976E-02
  -7.48999977      -4.45418358E-02
  -7.48000002      -4.62383963E-02
  -7.46999979      -4.78319265E-02
  -7.46000004      -4.93223257E-02
  -7.44999981      -5.07092737E-02
  -7.44000006      -5.19923717E-02