  -16.0000000       0.00000000    
  -15.9899998       0.00000000    
  -15.9799995       0.00000000    
  -15.9700003       0.00000000    
  -15.9600000       0.00000000    
  -15.9499998       0.00000000    
  -15.9399996       0.00000000    
  -15.9300003       0.00000000    
  -15.9200001       0.00000000    
  -15.9099998       0.00000000    
  -15.8999996       0.00000000    
  -15.8900003       0.00000000    
  -15.8800001       1.40129846E-45
  -15.8699999       8.12753109E-44
  -15.8599997       2.14258535E-42
  -15.8500004       3.44873565E-41
  -15.8400002       3.70775166E-40
  -15.8299999       2.93587863E-39
  -15.8199997       1.82707361E-38
  -15.8100004       9.32618274E-38
  -15.8000002       4.01764646E-37
  -15.7900000       1.48865815E-36
  -15.7799997       4.80036909E-36
  -15.7700005       1.35425587E-35
  -15.7600002       3.33526318E-35
  -15.7500000       7.07230092E-35
  -15.7399998       1.24142133E-34
  -15.7299995       1.59287727E-34
  -15.7200003       5.91110191E-35
  -15.7100000      -4.49101703E-34
  -15.6999998      -1.85239855E-33
  -15.6899996      -4.79340552E-33
  -15.6800003      -9.71317300E-33
  -15.6700001      -1.59959831E-32
  -15.6599998      -2.05914416E-32
  -15.6499996      -1.66103361E-32
  -15.6400003       6.71692019E-33
  -15.6300001       6.04132803E-32
  -15.6199999       1.46146250E-31
  -15.6099997       2.40662485E-31
  -15.6000004       2.80150373E-31
  -15.5900002       1.59074996E-31
  -15.5799999      -2.35099082E-31
  -15.5699997      -9.34066525E-31
  -15.5600004      -1.75674716E-30
  -15.5500002      -2.19477660E-30
  -15.5400000      -1.43980538E-30
  -15.5299997       1.29589177E-30
  -15.5200005       6.09258647E-30
  -15.5100002       1.14370033E-29
  -15.5000000       1.36761655E-29
  -15.4899998       7.66821421E-30
  -15.4799995      -1.06020691E-29
  -15.4700003      -3.95462992E-29
  -15.4600000      -6.74651394E-29
  -15.4499998      -7.17934924E-29
  -15.4399996      -2.65421674E-29
  -15.4300003       8.01906372E-29
  -15.4200001       2.23584096E-28
  -15.4099998       3.28526671E-28
  -15.3999996       2.85081808E-28
  -15.3900003       6.58221165E-30
  -15.3800001      -4.80759925E-28
  -15.3699999      -9.66302320E-28
  -15.3599997      -1.08131510E-27
  -15.3500004      -4.88804005E-28
  -15.3400002       7.87078361E-28
  -15.3299999       2.07155740E-27
  -15.3199997       2.10965422E-27
  -15.3100004      -2.07802015E-28
  -15.3000002      -4.50258848E-27
  -15.2900000      -7.64200143E-27
  -15.2799997      -3.90915862E-27
  -15.2700005       1.19433333E-26
  -15.2600002       3.85169503E-26
  -15.2500000       6.09533100E-26
  -15.2399998       4.92934497E-26
  -15.2299995      -3.06515818E-26
  -15.2200003      -1.90060850E-25
  -15.2100000      -3.80155842E-25
  -15.1999998      -4.67684668E-25
  -15.1899996      -2.57055281E-25
  -15.1800003       4.11504435E-25
  -15.1700001       1.49245157E-24
  -15.1599998       2.56180548E-24
  -15.1499996       2.77592185E-24
  -15.1400003       1.12033188E-24
  -15.1300001      -2.97497433E-24
  -15.1199999      -8.79262472E-24
  -15.1099997      -1.36955735E-23
  -15.1000004      -1.33689188E-23
  -15.0900002      -3.51452167E-24
  -15.0799999       1.70179291E-23
  -15.0699997       4.27656643E-23
  -15.0600004       6.01243970E-23
  -15.0500002       5.04769122E-23
  -15.0400000      -5.01055703E-25
  -15.0299997      -8.91393007E-23
  -15.0200005      -1.82132521E-22
  -15.0100002      -2.17131427E-22
  -15.0000000      -1.25001649E-22
  -14.9899998       1.25043503E-22
  -14.9799995       4.71952634E-22
  -14.9700003       7.33337719E-22
  -14.9600000       6.41075527E-22
  -14.9499998      -3.06822337E-23
  -14.9399996      -1.26220400E-21
  -14.9300003      -2.59454307E-21
  -14.9200001      -3.09256234E-21
  -14.9099998      -1.62015945E-21
  -14.8999996       2.50977968E-21
  -14.8900003       8.65752271E-21
  -14.8800001       1.41717445E-20
  -14.8699999       1.45229877E-20
  -14.8599997       4.82550593E-21
  -14.8500004      -1.71561314E-20
  -14.8400002      -4.73179816E-20
  -14.8299999      -7.27071725E-20
  -14.8199997      -7.27185204E-20
  -14.8100004      -2.60868321E-20
  -14.8000002       7.62990492E-20
  -14.7900000       2.16304189E-19
  -14.7799997       3.38693884E-19
  -14.7700005       3.56280648E-19
  -14.7600002       1.77829059E-19
  -14.7500000      -2.41483205E-19
  -14.7399998      -8.40539321E-19
  -14.7299995      -1.41160750E-18
  -14.7200003      -1.61453455E-18
  -14.7100000      -1.07483570E-18
  -14.6999998       4.33031791E-19
  -14.6899996       2.76217217E-18
  -14.6800003       5.22526684E-18
  -14.6700001       6.60821770E-18
  -14.6599998       5.47269972E-18
  -14.6499996       7.67307832E-19
  -14.6400003      -7.38357462E-18
  -14.6300001      -1.70151863E-17
  -14.6199999      -2.41984988E-17
  -14.6099997      -2.38391600E-17
  -14.6000004      -1.15328631E-17
  -14.5900002       1.38456154E-17
  -14.5799999       4.76901817E-17
  -14.5699997       7.86322986E-17
  -14.5600004       9.02197953E-17
  -14.5500002       6.59691097E-17
  -14.5400000      -2.82152775E-18
  -14.5299997      -1.08755874E-16
  -14.5200005      -2.23186749E-16
  -14.5100002      -2.98277041E-16
  -14.5000000      -2.78993780E-16
  -14.4899998      -1.24497961E-16
  -14.4799995       1.66194760E-16
  -14.4700003       5.33844315E-16
  -14.4600000       8.55635361E-16
  -14.4499998       9.68443897E-16
  -14.4399996       7.20904395E-16
  -14.4300003       4.47031630E-17
  -14.4200001      -9.77241817E-16
  -14.4099998      -2.07663193E-15
  -14.3999996      -2.82942377E-15
  -14.3900003      -2.76447519E-15
  -14.3800001      -1.53924299E-15
  -14.3699999       8.62749644E-16
  -14.3599997       3.98577240E-15
  -14.3500004       6.88848316E-15
  -14.3400002       8.32238246E-15
  -14.3299999       7.10592118E-15
  -14.3199997       2.62005290E-15
  -14.3100004      -4.72613934E-15
  -14.3000002      -1.32555786E-14
  -14.2900000      -2.01872007E-14
  -14.2799997      -2.22871190E-14
  -14.2700005      -1.69297373E-14
  -14.2600002      -3.30607166E-15
  -14.2500000       1.66288102E-14
  -14.2399998       3.79141298E-14
  -14.2299995       5.33708074E-14
  -14.2200003       5.54598481E-14
  -14.2100000       3.88699184E-14
  -14.1999998       3.12080163E-15
  -14.1899996      -4.57478327E-14
  -14.1800003      -9.52725176E-14
  -14.1700001      -1.28925475E-13
  -14.1599998      -1.30547984E-13
  -14.1499996      -8.98933028E-14
  -14.1400003      -7.68298101E-15
  -14.1300001       1.01649747E-13
  -14.1199999       2.11014501E-13
  -14.1099997       2.86076474E-13
  -14.1000004       2.94277162E-13
  -14.0900002       2.15381559E-13
  -14.0799999       5.05587698E-14
  -14.0699997      -1.73108151E-13
  -14.0600004      -4.04935281E-13
  -14.0500002      -5.80334175E-13
  -14.0400000      -6.36336524E-13
  -14.0299997      -5.29468288E-13
  -14.0200005      -2.51365335E-13
  -14.0100002       1.62412293E-13
  -14.0000000       6.33562972E-13
  -13.9899998       1.05315377E-12
  -13.9799995       1.30297249E-12
  -13.9700003       1.28219256E-12
  -13.9600000       9.34058495E-13
  -13.9499998       2.67074855E-13
  -13.9399996      -6.34079378E-13
  -13.9300003      -1.61127329E-12
  -13.9200001      -2.45097042E-12
  -13.9099998      -2.91744537E-12
  -13.8999996      -2.79890217E-12
  -13.8900003      -1.96153987E-12
  -13.8800001      -4.03233436E-13
  -13.8699999       1.70514265E-12
  -13.8599997       4.00539931E-12
  -13.8500004       5.97927957E-12
  -13.8400002       7.02700615E-12
  -13.8299999       6.59624352E-12
  -13.8199997       4.34495582E-12
  -13.8100004       3.04215122E-13
  -13.8000002      -5.00683956E-12
  -13.7900000      -1.05653784E-11
  -13.7799997      -1.49682645E-11
  -13.7700005      -1.67049881E-11
  -13.7600002      -1.45478534E-11
  -13.7500000      -7.98019810E-12
  -13.7399998       2.45309892E-12
  -13.7299995       1.49998989E-11
  -13.7200003       2.68613916E-11
  -13.7100000       3.46962563E-11
  -13.6999998       3.54122079E-11
  -13.6899996       2.70880523E-11
  -13.6800003       9.79083307E-12
  -13.6700001      -1.39733182E-11
  -13.6599998      -3.93904319E-11
  -13.6499996      -6.01462144E-11
  -13.6400003      -6.98285180E-11
  -13.6300001      -6.36535616E-11
  -13.6199999      -4.00950627E-11
  -13.6099997      -1.93813216E-12
  -13.6000004       4.36499899E-11
  -13.5900002       8.62392380E-11
  -13.5799999       1.14353998E-10
  -13.5699997       1.18370161E-10
  -13.5600004       9.34071431E-11
  -13.5500002       4.14133831E-11
  -13.5400000      -2.82676365E-11
  -13.5299997      -1.00256997E-10
  -13.5200005      -1.56359661E-10
  -13.5100002      -1.80046686E-10
  -13.5000000      -1.61154770E-10
  -13.4899998      -9.95303354E-11
  -13.4799995      -6.44440404E-12
  -13.4700003       9.69536326E-11
  -13.4600000       1.84152166E-10
  -13.4499998       2.29935029E-10
  -13.4399996       2.17616800E-10
  -13.4300003       1.44886242E-10
  -13.4200001       2.63796346E-11
  -13.4099998      -1.08249201E-10
  -13.3999996      -2.20895260E-10
  -13.3900003      -2.75018480E-10
  -13.3800001      -2.46736270E-10
  -13.3699999      -1.33918085E-10
  -13.3599997       3.97114563E-11
  -13.3500004       2.27499686E-10
  -13.3400002       3.70146247E-10
  -13.3299999       4.11570056E-10
  -13.3199997       3.16658588E-10
  -13.3100004       8.60037874E-11
  -13.3000002      -2.37245612E-10
  -13.2900000      -5.71851566E-10
  -13.2799997      -8.15040313E-10
  -13.2700005      -8.68560168E-10
  -13.2600002      -6.68484046E-10
  -13.2500000      -2.10916673E-10
  -13.2399998       4.34435876E-10
  -13.2299995       1.12886400E-09
  -13.2200003       1.68939740E-09
  -13.2100000       1.93043159E-09
  -13.1999998       1.71378167E-09
  -13.1899996       9.95026506E-10
  -13.1800003      -1.46940266E-10
  -13.1700001      -1.50778978E-09
  -13.1599998      -2.78803736E-09
  -13.1499996      -3.65288599E-09
  -13.1400003      -3.81064647E-09
  -13.1300001      -3.09238679E-09
  -13.1199999      -1.51277424E-09
  -13.1099997       7.05730419E-10
  -13.1000004       3.15612958E-09
  -13.0900002       5.31775646E-09
  -13.0799999       6.66303679E-09
  -13.0699997       6.77824241E-09
  -13.0600004       5.47066925E-09
  -13.0500002       2.83535928E-09
  -13.0400000      -7.38009154E-10
  -13.0299997      -4.62443417E-09
  -13.0200005      -8.07993672E-09
  -13.0100002      -1.03913464E-08
  -13.0000000      -1.10265548E-08
  -12.9899998      -9.75053727E-09
  -12.9799995      -6.67946543E-09
  -12.9700003      -2.25948904E-09
  -12.9600000       2.82489077E-09
  -12.9499998       7.79040565E-09
  -12.9399996       1.19078747E-08
  -12.9300003       1.46305199E-08
  -12.9200001       1.56669930E-08
  -12.9099998       1.49841650E-08
  -12.8999996       1.27452191E-08
  -12.8900003       9.20796328E-09
  -12.8800001       4.62087835E-09
  -12.8699999      -8.43974057E-10
  -12.8599997      -7.09267134E-09
  -12.8500004      -1.40379219E-08
  -12.8400002      -2.14717470E-08
  -12.8299999      -2.89224360E-08
  -12.8199997      -3.55490108E-08
  -12.8100004      -4.01248563E-08
  -12.8000002      -4.11452170E-08
  -12.7900000      -3.70634652E-08
  -12.7799997      -2.66261466E-08
  -12.7700005      -9.24498789E-09
  -12.7600002       1.46750132E-08
  -12.7500000       4.35336602E-08
  -12.7399998       7.45232285E-08
  -12.7299995       1.03834552E-07
  -12.7200003       1.27066954E-07
  -12.7100000       1.39786195E-07
  -12.6999998       1.38144486E-07
  -12.6899996       1.19464758E-07
  -12.6800003       8.27002538E-08
  -12.6700001       2.87061539E-08
  -12.6599998      -3.97029609E-08
  -12.6499996      -1.17899660E-07
  -12.6400003      -1.99753757E-07
  -12.6300001      -2.78050948E-07
  -12.6199999      -3.44964860E-07
  -12.6099997      -3.92542404E-07
  -12.6000004      -4.13183074E-07
  -12.5900002      -4.00113890E-07
  -12.5799999      -3.47875556E-07
  -12.5699997      -2.52835463E-07
  -12.5600004      -1.13732845E-07
  -12.5500002       6.77621870E-08
  -12.5400000       2.86520304E-07
  -12.5299997       5.33523121E-07
  -12.5200005       7.95613346E-07
  -12.5100002       1.05550703E-06
  -12.5000000       1.29213038E-06
  -12.4899998       1.48131210E-06
  -12.4799995       1.59682213E-06
  -12.4700003       1.61170146E-06
  -12.4600000       1.49978973E-06
  -12.4499998       1.23733787E-06
  -12.4399996       8.04578860E-07
  -12.4300003       1.87152480E-07
  -12.4200001      -6.22699076E-07
  -12.4099998      -1.62520223E-06
  -12.3999996      -2.81240273E-06
  -12.3900003      -4.16777402E-06
  -12.3800001      -5.66606877E-06
  -12.3699999      -7.27340466E-06
  -12.3599997      -8.94762252E-06
  -12.3500004      -1.06389807E-05
  -12.3400002      -1.22912761E-05
  -12.3299999      -1.38434807E-05
  -12.3199997      -1.52319508E-05
  -12.3100004      -1.63931454E-05
  -12.3000002      -1.72667533E-05
  -12.2900000      -1.77989623E-05
  -12.2799997      -1.79455456E-05
  -12.2700005      -1.76744270E-05
  -12.2600002      -1.69674076E-05
  -12.2500000      -1.58208968E-05
  -12.2399998      -1.42455501E-05
  -12.2299995      -1.22650699E-05
  -12.2200003      -9.91437992E-06
  -12.2100000      -7.23757830E-06
  -12.1999998      -4.28599515E-06
  -12.1899996      -1.11659779E-06
  -12.1800003       2.20924835E-06
  -12.1700001       5.62677769E-06
  -12.1599998       9.06891182E-06
  -12.1499996       1.24677408E-05
  -12.1400003       1.57566392E-05
  -12.1300001       1.88730955E-05
  -12.1199999       2.17620000E-05
  -12.1099997       2.43789164E-05
  -12.1000004       2.66927109E-05
  -12.0900002       2.86868471E-05
  -12.0799999       3.03589295E-05
  -12.0699997       3.17182530E-05
  -12.0600004       3.27816670E-05
  -12.0500002       3.35684454E-05
  -12.0400000       3.40950101E-05
  -12.0299997       3.43706597E-05
  -12.0200005       3.43950742E-05
  -12.0100002       3.41581544E-05
  -12.0000000       3.36421690E-05
  -11.9899998       3.28257265E-05
  -11.9799995       3.16886362E-05
  -11.9700003       3.02165990E-05
  -11.9600000       2.84046891E-05
  -11.9499998       2.62589856E-05
  -11.9399996       2.37960139E-05
  -11.9300003       2.10403614E-05
  -11.9200001       1.80211609E-05
  -11.9099998       1.47683204E-05
  -11.8999996       1.13095375E-05
  -11.8900003       7.66872654E-06
  -11.8800001       3.86625788E-06
  -11.8699999      -7.90762300E-08
  -11.8599997      -4.14695796E-06
  -11.8500004      -8.31192847E-06
  -11.8400002      -1.25402075E-05
  -11.8299999      -1.67876296E-05
  -11.8199997      -2.09991376E-05
  -11.8100004      -2.51100846E-05
  -11.8000002      -2.90491189E-05
  -11.7900000      -3.27422313E-05
  -11.7799997      -3.61174680E-05
  -11.7700005      -3.91095855E-05
  -11.7600002      -4.16641960E-05
  -11.7500000      -4.37408999E-05
  -11.7399998      -4.53151297E-05
  -11.7299995      -4.63787801E-05
  -11.7200003      -4.69394436E-05
  -11.7100000      -4.70187733E-05
  -11.6999998      -4.66500387E-05
  -11.6899996      -4.58753238E-05
  -11.6800003      -4.47426974E-05
  -11.6700001      -4.33034875E-05
  -11.6599998      -4.16098155E-05
  -11.6499996      -3.97123913E-05
  -11.6400003      -3.76583594E-05
  -11.6300001      -3.54891272E-05
  -11.6199999      -3.32380587E-05
  -11.6099997      -3.09280877E-05
  -11.6000004      -2.85694568E-05
  -11.5900002      -2.61581099E-05
  -11.5799999      -2.36751694E-05
  -11.5699997      -2.10880698E-05
  -11.5600004      -1.83537431E-05
  -11.5500002      -1.54237277E-05
  -11.5400000      -1.22509718E-05
  -11.5299997      -8.79733670E-06
  -11.5200005      -5.04084664E-06
  -11.5100002      -9.81382868E-07
  -11.5000000       3.35622053E-06
  -11.4899998       7.92225273E-06
  -11.4799995       1.26455789E-05
  -11.4700003       1.74399411E-05
  -11.4600000       2.22120580E-05
  -11.4499998       2.68703971E-05
  -11.4399996       3.13330929E-05
  -11.4300003       3.55339471E-05
  -11.4200001       3.94258641E-05
  -11.4099998       4.29814463E-05
  -11.3999996       4.61909694E-05
  -11.3900003       4.90585626E-05
  -11.3800001       5.15972897E-05
  -11.3699999       5.38241366E-05
  -11.3599997       5.57555468E-05
  -11.3500004       5.74043224E-05
  -11.3400002       5.87778886E-05
  -11.3299999       5.98783990E-05
  -11.3199997       6.07042275E-05
  -11.3100004       6.12529693E-05
  -11.3000002       6.15251120E-05
  -11.2900000       6.15279569E-05
  -11.2799997       6.12792355E-05
  -11.2700005       6.08092523E-05
  -11.2600002       6.01611719E-05
  -11.2500000       5.93890909E-05
  -11.2399998       5.85535890E-05
  -11.2299995       5.77155770E-05
  -11.2200003       5.69291988E-05
  -11.2100000       5.62351051E-05
  -11.1999998       5.56557497E-05
  -11.1899996       5.51933263E-05
  -11.1800003       5.48313510E-05
  -11.1700001       5.45392613E-05
  -11.1599998       5.42794696E-05
  -11.1499996       5.40149704E-05
  -11.1400003       5.37159685E-05
  -11.1300001       5.33640559E-05
  -11.1199999       5.29530844E-05
  -11.1099997       5.24870447E-05
  -11.1000004       5.19755122E-05
  -11.0900002       5.14287203E-05
  -11.0799999       5.08535159E-05
  -11.0699997       5.02517796E-05
  -11.0600004       4.96217799E-05
  -11.0500002       4.89620106E-05
  -11.0400000       4.82763571E-05
  -11.0299997       4.75786219E-05
  -11.0200005       4.68948128E-05
  -11.0100002       4.62618591E-05
  -11.0000000       4.57224560E-05
  -10.9899998       4.53169814E-05
  -10.9799995       4.50739753E-05
  -10.9700003       4.50014049E-05
  -10.9600000       4.50808657E-05
  -10.9499998       4.52661807E-05
  -10.9399996       4.54869332E-05
  -10.9300003       4.56564121E-05
  -10.9200001       4.56826492E-05
  -10.9099998       4.54803558E-05
  -10.8999996       4.49818908E-05
  -10.8900003       4.41451375E-05
  -10.8800001       4.29575339E-05
  -10.8699999       4.14354945E-05
  -10.8599997       3.96199102E-05
  -10.8500004       3.75685559E-05
  -10.8400002       3.53470678E-05
  -10.8299999       3.30196672E-05
  -10.8199997       3.06415714E-05
  -10.8100004       2.82536166E-05
  -10.8000002       2.58802283E-05
  -10.7900000       2.35305361E-05
  -10.7799997       2.12020514E-05
  -10.7700005       1.88864269E-05
  -10.7600002       1.65754482E-05
  -10.7500000       1.42665294E-05
  -10.7399998       1.19665756E-05
  -10.7299995       9.69360372E-06
  -10.7200003       7.47651757E-06
  -10.7100000       5.35346499E-06
  -10.6999998       3.37005827E-06
  -10.6899996       1.57782654E-06
  -10.6800003       3.40300481E-08
  -10.6700001      -1.19771073E-06
  -10.6599998      -2.04652861E-06
  -10.6499996      -2.43457657E-06
  -10.6400003      -2.27948021E-06
  -10.6300001      -1.49985397E-06
  -10.6199999      -2.35830289E-08
  -10.6099997       2.20196966E-06
  -10.6000004       5.19995638E-06
  -10.5900002       8.95673020E-06
  -10.5799999       1.34188267E-05
  -10.5699997       1.84960008E-05
  -10.5600004       2.40701083E-05
  -10.5500002       3.00081392E-05
  -10.5400000       3.61774255E-05
  -10.5299997       4.24598438E-05
  -10.5200005       4.87625912E-05
  -10.5100002       5.50233526E-05
  -10.5000000       6.12100266E-05
  -10.4899998       6.73147370E-05
  -10.4799995       7.33450361E-05
  -10.4700003       7.93133659E-05
  -10.4600000       8.52272569E-05
  -10.4499998       9.10822491E-05
  -10.4399996       9.68574677E-05
  -10.4300003       1.02514496E-04
  -10.4200001       1.07998676E-04
  -10.4099998       1.13242044E-04
  -10.3999996       1.18167205E-04
  -10.3900003       1.22690937E-04
  -10.3800001       1.26727959E-04
  -10.3699999       1.30194006E-04
  -10.3599997       1.33008638E-04
  -10.3500004       1.35098177E-04
  -10.3400002       1.36398856E-04
  -10.3299999       1.36859933E-04
  -10.3199997       1.36447547E-04
  -10.3100004       1.35148584E-04
  -10.3000002       1.32974135E-04
  -10.2900000       1.29962151E-04
  -10.2799997       1.26178595E-04
  -10.2700005       1.21716068E-04
  -10.2600002       1.16690062E-04
  -10.2500000       1.11232628E-04
  -10.2399998       1.05483894E-04
  -10.2299995       9.95829323E-05
  -10.2200003       9.36591241E-05
  -10.2100000       8.78254796E-05
  -10.1999998       8.21746071E-05
  -10.1899996       7.67781166E-05
  -10.1800003       7.16888608E-05
  -10.1700001       6.69447327E-05
  -10.1599998       6.25734901E-05
  -10.1499996       5.85970847E-05
  -10.1400003       5.50345176E-05
  -10.1300001       5.19039531E-05
  -10.1199999       4.92237450E-05
  -10.1099997       4.70129562E-05
  -10.1000004       4.52925597E-05
  -10.0900002       4.40863005E-05
  -10.0799999       4.34215763E-05
  -10.0699997       4.33290697E-05
  -10.0600004       4.38401512E-05
  -10.0500002       4.49816871E-05
  -10.0400000       4.67687460E-05
  -10.0299997       4.91960600E-05
  -10.0200005       5.22296759E-05
  -10.0100002       5.58020365E-05
  -10.0000000       5.98112747E-05
  -9.98999977       6.41262450E-05
  -9.97999954       6.85975247E-05
  -9.97000027       7.30722750E-05
  -9.96000004       7.74113505E-05
  -9.94999981       8.15055027E-05
  -9.93999958       8.52889279E-05
  -9.93000031       8.87463320E-05
  -9.92000008       9.19147205E-05
  -9.90999985       9.48784000E-05
  -9.89999962       9.77591772E-05
  -9.89000034       1.00703415E-04
  -9.88000011       1.03866550E-04
  -9.86999989       1.07400054E-04
  -9.85999966       1.11438727E-04
  -9.85000038       1.16092197E-04
  -9.84000015       1.21439582E-04
  -9.82999992       1.27527790E-04
  -9.81999969       1.34373040E-04
  -9.81000042       1.41965618E-04
  -9.80000019       1.50276988E-04
  -9.78999996       1.59268384E-04
  -9.77999973       1.68900573E-04
  -9.77000046       1.79144306E-04
  -9.76000023       1.89988670E-04
  -9.75000000       2.01447518E-04
  -9.73999977       2.13560634E-04
  -9.72999954       2.26389006E-04
  -9.72000027       2.40003399E-04
  -9.71000004       2.54466344E-04
  -9.69999981       2.69810436E-04
  -9.68999958       2.86016148E-04
  -9.68000031       3.02993838E-04
  -9.67000008       3.20574327E-04
  -9.65999985       3.38510552E-04
  -9.64999962       3.56491335E-04
  -9.64000034       3.74166179E-04
  -9.63000011       3.91174253E-04
  -9.61999989       4.07172396E-04
  -9.60999966       4.21857316E-04
  -9.60000038       4.34974645E-04
  -9.59000015       4.46315797E-04
  -9.57999992       4.55703674E-04
  -9.56999969       4.62971831E-04
  -9.56000042       4.67944279E-04
  -9.55000019       4.70421219E-04
  -9.53999996       4.70176310E-04
  -9.52999973       4.66964935E-04
  -9.52000046       4.60543379E-04
  -9.51000023       4.50692925E-04
  -9.50000000       4.37245442E-04
  -9.48999977       4.20104858E-04
  -9.47999954       3.99261829E-04
  -9.47000027       3.74800875E-04
  -9.46000004       3.46901797E-04
  -9.44999981       3.15836282E-04
  -9.43999958       2.81961053E-04
  -9.43000031       2.45710806E-04
  -9.42000008       2.07587567E-04
  -9.40999985       1.68148952E-04
  -9.39999962       1.27994033E-04
  -9.39000034       8.77472194E-05
  -9.38000011       4.80427916E-05
  -9.36999989       9.51053426E-06
  -9.35999966      -2.72342022E-05
  -9.35000038      -6.15959652E-05
  -9.34000015      -9.30021342E-05
  -9.32999992      -1.20903147E-04
  -9.31999969      -1.44775811E-04
  -9.31000042      -1.64128141E-04
  -9.30000019      -1.78509712E-04
  -9.28999996      -1.87524216E-04
  -9.27999973      -1.90843319E-04
  -9.27000046      -1.88215592E-04
  -9.26000023      -1.79472598E-04
  -9.25000000      -1.64529833E-04
  -9.23999977      -1.43383237E-04
  -9.22999954      -1.16106319E-04
  -9.22000027      -8.28500561E-05
  -9.21000004      -4.38469360E-05
  -9.19999981       5.82661187E-07
  -9.18999958       5.00233800E-05
  -9.18000031       1.03964980E-04
  -9.17000008       1.61808624E-04
  -9.15999985       2.22886360E-04
  -9.14999962       2.86487222E-04
  -9.14000034       3.51886090E-04
  -9.13000011       4.18369920E-04
  -9.11999989       4.85252618E-04
  -9.10999966       5.51879348E-04
  -9.10000038       6.17618964E-04
  -9.09000015       6.81851001E-04
  -9.07999992       7.43957120E-04
  -9.06999969       8.03318631E-04
  -9.06000042       8.59328604E-04
  -9.05000019       9.11412528E-04
  -9.03999996       9.59055382E-04
  -9.02999973       1.00182381E-03
  -9.02000046       1.03937846E-03
  -9.01000023       1.07147114E-03
  -9.00000000       1.09793164E-03
  -8.98999977       1.11864461E-03
  -8.97999954       1.13353087E-03
  -8.97000027       1.14253454E-03
  -8.96000004       1.14562490E-03
  -8.94999981       1.14280614E-03
  -8.93999958       1.13413262E-03
  -8.93000031       1.11972133E-03
  -8.92000008       1.09975471E-03
  -8.90999985       1.07447163E-03
  -8.89999962       1.04415172E-03
  -8.89000034       1.00909802E-03
  -8.88000011       9.69624030E-04
  -8.86999989       9.26056236E-04
  -8.85999966       8.78746971E-04
  -8.85000038       8.28095071E-04
  -8.84000015       7.74567481E-04
  -8.82999992       7.18708790E-04
  -8.81999969       6.61136990E-04
  -8.81000042       6.02521410E-04
  -8.80000019       5.43554197E-04
  -8.78999996       4.84917779E-04
  -8.77999973       4.27263352E-04
  -8.77000046       3.71204515E-04
  -8.76000023       3.17322207E-04
  -8.75000000       2.66178889E-04
  -8.73999977       2.18329107E-04
  -8.72999954       1.74317742E-04
  -8.72000027       1.34660222E-04
  -8.71000004       9.98092073E-05
  -8.69999981       7.01178869E-05
  -8.68999958       4.58065588E-05
  -8.68000031       2.69518059E-05
  -8.67000008       1.34973779E-05
  -8.65999985       5.28365763E-06
  -8.64999962       2.08928259E-06
  -8.64000034       3.66833319E-06
  -8.63000011       9.77224499E-06
  -8.61999989       2.01485818E-05
  -8.60999966       3.45220542E-05
  -8.60000038       5.25680807E-05
  -8.59000015       7.38917443E-05
  -8.57999992       9.80237164E-05
  -8.56999969       1.24439088E-04
  -8.56000042       1.52593275E-04
  -8.55000019       1.81964788E-04
  -8.53999996       2.12087965E-04
  -8.52999973       2.42564813E-04
  -8.52000046       2.73050100E-04
  -8.51000023       3.03216657E-04
  -8.50000000       3.32713884E-04
  -8.48999977       3.61137383E-04
  -8.47999954       3.88022891E-04
  -8.47000027       4.12872469E-04
  -8.46000004       4.35204391E-04
  -8.44999981       4.54618625E-04
  -8.43999958       4.70850093E-04
  -8.43000031       4.83803189E-04
  -8.42000008       4.93549567E-04
  -8.40999985       5.00299269E-04
  -8.39999962       5.04349242E-04
  -8.39000034       5.06032025E-04
  -8.38000011       5.05676086E-04
  -8.36999989       5.03589690E-04
  -8.35999966       5.00064692E-04
  -8.35000038       4.95397020E-04
  -8.34000015       4.89905535E-04
  -8.32999992       4.83941869E-04
  -8.31999969       4.77881753E-04
  -8.31000042       4.72102693E-04
  -8.30000019       4.66954836E-04
  -8.28999996       4.62736149E-04
  -8.27999973       4.59685922E-04
  -8.27000046       4.57997725E-04
  -8.26000023       4.57845075E-04
  -8.25000000       4.59416100E-04
  -8.23999977       4.62937984E-04
  -8.22999954       4.68682934E-04
  -8.22000027       4.76954621E-04
  -8.21000004       4.88052116E-04
  -8.19999981       5.02232171E-04
  -8.18999958       5.19672991E-04
  -8.18000031       5.40461624E-04
  -8.17000008       5.64599351E-04
  -8.15999985       5.92026045E-04
  -8.14999962       6.22653053E-04
  -8.14000034       6.56390097E-04
  -8.13000011       6.93154521E-04
  -8.11999989       7.32858898E-04
  -8.10999966       7.75382330E-04
  -8.10000038       8.20533081E-04
  -8.09000015       8.68017494E-04
  -8.07999992       9.17433645E-04
  -8.06999969       9.68287175E-04
  -8.06000042       1.02003163E-03
  -8.05000019       1.07212656E-03
  -8.03999996       1.12408923E-03
  -8.02999973       1.17553445E-03
  -8.02000046       1.22618512E-03
  -8.01000023       1.27585791E-03
  -8.00000000       1.32442592E-03
  -7.98999977       1.37177540E-03
  -7.98000002       1.41776528E-03
  -7.96999979       1.46220496E-03
  -7.96000004       1.50485546E-03
  -7.94999981       1.54544867E-03
  -7.94000006       1.58371509E-03
  -7.92999983       1.61941233E-03
  -7.92000008       1.65234646E-03
  -7.90999985       1.68237113E-03
  -7.90000010       1.70937763E-03
  -7.88999987       1.73327734E-03
  -7.88000011       1.75398530E-03
  -7.86999989       1.77141652E-03
  -7.86000013       1.78549276E-03
  -7.84999990       1.79616339E-03
  -7.84000015       1.80342502E-03
  -7.82999992       1.80733891E-03
  -7.82000017       1.80803356E-03
  -7.80999994       1.80568721E-03
  -7.80000019       1.80050160E-03
  -7.78999996       1.79266988E-03
  -7.78000021       1.78235432E-03
  -7.76999998       1.76967622E-03
  -7.76000023       1.75473106E-03
  -7.75000000       1.73761463E-03
  -7.73999977       1.71845639E-03
  -7.73000002       1.69744319E-03
  -7.71999979       1.67482556E-03
  -7.71000004       1.65090174E-03
  -7.69999981       1.62598537E-03
  -7.69000006       1.60036434E-03
  -7.67999983       1.57427043E-03
  -7.67000008       1.54787255E-03
  -7.65999985       1.52128981E-03
  -7.65000010       1.49463757E-03
  -7.63999987       1.46807253E-03
  -7.63000011       1.44183368E-03
  -7.61999989       1.41626515E-03
  -7.61000013       1.39179931E-03
  -7.59999990       1.36891846E-03
  -7.59000015       1.34810200E-03
  -7.57999992       1.32976647E-03
  -7.57000017       1.31423830E-03
  -7.55999994       1.30173774E-03
  -7.55000019       1.29240425E-03
  -7.53999996       1.28633401E-03
  -7.53000021       1.28361909E-03
  -7.51999998       1.28437637E-03
  -7.51000023       1.28875521E-03
  -7.50000000       1.29691570E-03
  -7.48999977       1.30900089E-03
  -7.48000002       1.32510369E-03
  -7.46999979       1.34524587E-03
  -7.46000004       1.36937492E-03
  -7.44999981       1.39738224E-03
  -7.44000006       1.42912555E-03