  -16.0000000       0.00000000    
  -15.9899998       0.00000000    
  -15.9799995       0.00000000    
  -15.9700003       0.00000000    
  -15.9600000       0.00000000    
  -15.9499998       0.00000000    
  -15.9399996       0.00000000    
  -15.9300003       0.00000000    
  -15.9200001       0.00000000    
  -15.9099998       0.00000000    
  -15.8999996       0.00000000    
  -15.8900003       0.00000000    
  -15.8800001       0.00000000    
  -15.8699999       9.94921910E-44
  -15.8599997       6.61553005E-42
  -15.8500004       1.60440266E-40
  -15.8400002       2.59532527E-39
  -15.8299999       2.86997893E-38
  -15.8199997       2.38885044E-37
  -15.8100004       1.58931604E-36
  -15.8000002       8.79995347E-36
  -15.7900000       4.16830641E-35
  -15.7799997       1.72300197E-34
  -15.7700005       6.30650883E-34
  -15.7600002       2.06568851E-33
  -15.7500000       6.10057250E-33
  -15.7399998       1.63227294E-32
  -15.7299995       3.96519341E-32
  -15.7200003       8.73757470E-32
  -15.7100000       1.73759153E-31
  -15.6999998       3.08076616E-31
  -15.6899996       4.74205330E-31
  -15.6800003       5.93342152E-31
  -15.6700001       4.74613414E-31
  -15.6599998      -2.19947007E-31
  -15.6499996      -1.93608095E-30
  -15.6400003      -5.02297425E-30
  -15.6300001      -9.28168684E-30
  -15.6199999      -1.32861195E-29
  -15.6099997      -1.37353442E-29
  -15.6000004      -5.44488081E-30
  -15.5900002       1.71338070E-29
  -15.5799999       5.61157907E-29
  -15.5699997       1.04350905E-28
  -15.5600004       1.39833588E-28
  -15.5500002       1.25152946E-28
  -15.5400000       1.81193776E-29
  -15.5299997      -2.02719967E-28
  -15.5200005      -5.02252629E-28
  -15.5100002      -7.60535628E-28
  -15.5000000      -7.81912631E-28
  -15.4899998      -3.69911294E-28
  -15.4799995       5.31062134E-28
  -15.4700003       1.68166675E-27
  -15.4600000       2.49795810E-27
  -15.4499998       2.24278567E-27
  -15.4399996       5.12371273E-28
  -15.4300003      -2.13929371E-27
  -15.4200001      -3.87132873E-27
  -15.4099998      -2.10752164E-27
  -15.3999996       4.67453358E-27
  -15.3900003       1.43306290E-26
  -15.3800001       1.91677870E-26
  -15.3699999       7.19396849E-27
  -15.3599997      -3.15572958E-26
  -15.3500004      -9.42199503E-26
  -15.3400002      -1.54650215E-25
  -15.3299999      -1.61997308E-25
  -15.3199997      -5.67346359E-26
  -15.3100004       1.94605218E-25
  -15.3000002       5.58186587E-25
  -15.2900000       9.10008148E-25
  -15.2799997       1.05656854E-24
  -15.2700005       8.02714535E-25
  -15.2600002       3.17589977E-26
  -15.2500000      -1.26575513E-24
  -15.2399998      -3.05488792E-24
  -15.2299995      -5.34729483E-24
  -15.2200003      -8.10665573E-24
  -15.2100000      -1.06876800E-23
  -15.1999998      -1.07425895E-23
  -15.1899996      -3.16374855E-24
  -15.1800003       1.94547251E-23
  -15.1700001       6.27720414E-23
  -15.1599998       1.21803481E-22
  -15.1499996       1.69052311E-22
  -15.1400003       1.46981473E-22
  -15.1300001      -2.23950196E-23
  -15.1199999      -3.97368044E-22
  -15.1099997      -9.42649856E-22
  -15.1000004      -1.44325346E-21
  -15.0900002      -1.46208475E-21
  -15.0799999      -4.24193758E-22
  -15.0699997       2.09927211E-21
  -15.0600004       5.91072731E-21
  -15.0500002       9.66424271E-21
  -15.0400000       1.06437417E-20
  -15.0299997       5.30182504E-21
  -15.0200005      -9.08036306E-21
  -15.0100002      -3.17003787E-20
  -15.0000000      -5.54000984E-20
  -14.9899998      -6.54940736E-20
  -14.9799995      -4.25659291E-20
  -14.9700003       2.90773534E-20
  -14.9600000       1.47867297E-19
  -14.9499998       2.80744480E-19
  -14.9399996       3.56790838E-19
  -14.9300003       2.79385939E-19
  -14.9200001      -3.53960245E-20
  -14.9099998      -5.96587835E-19
  -14.8999996      -1.27143109E-18
  -14.8900003      -1.75079994E-18
  -14.8800001      -1.59313869E-18
  -14.8699999      -3.81367615E-19
  -14.8599997       2.01383676E-18
  -14.8500004       5.13855102E-18
  -14.8400002       7.77541008E-18
  -14.8299999       8.06700861E-18
  -14.8199997       4.09241942E-18
  -14.8100004      -5.10447200E-18
  -14.8000002      -1.82911769E-17
  -14.7900000      -3.11698926E-17
  -14.7799997      -3.65693703E-17
  -14.7700005      -2.63279860E-17
  -14.7600002       5.01221076E-18
  -14.7500000       5.54777364E-17
  -14.7399998       1.11736801E-16
  -14.7299995       1.48563809E-16
  -14.7200003       1.34148552E-16
  -14.7100000       4.21981458E-17
  -14.6999998      -1.31142194E-16
  -14.6899996      -3.51208368E-16
  -14.6800003      -5.38231787E-16
  -14.6700001      -5.79297215E-16
  -14.6599998      -3.63944620E-16
  -14.6499996       1.60229848E-16
  -14.6400003       9.27617544E-16
  -14.6300001       1.71697485E-15
  -14.6199999       2.16703914E-15
  -14.6099997       1.86784148E-15
  -14.6000004       5.26395825E-16
  -14.5900002      -1.83073487E-15
  -14.5799999      -4.69287762E-15
  -14.5699997      -7.03576229E-15
  -14.5600004      -7.51235384E-15
  -14.5500002      -4.89196340E-15
  -14.5400000       1.32383097E-15
  -14.5299997       1.02962640E-14
  -14.5200005       1.95325865E-14
  -14.5100002       2.51423282E-14
  -14.5000000       2.28360116E-14
  -14.4899998       9.58960559E-15
  -14.4799995      -1.44305564E-14
  -14.4700003      -4.43916042E-14
  -14.4600000      -7.06118717E-14
  -14.4499998      -8.03503721E-14
  -14.4399996      -6.17113985E-14
  -14.4300003      -8.98044236E-15
  -14.4200001       7.22024979E-14
  -14.4099998       1.62045792E-13
  -14.3999996       2.28372903E-13
  -14.3900003       2.34187913E-13
  -14.3800001       1.50423700E-13
  -14.3699999      -2.91027510E-14
  -14.3599997      -2.75605195E-13
  -14.3500004      -5.22088883E-13
  -14.3400002      -6.73776519E-13
  -14.3299999      -6.33528386E-13
  -14.3199997      -3.38200225E-13
  -14.3100004       2.03915823E-13
  -14.3000002       8.88520485E-13
  -14.2900000       1.51779132E-12
  -14.2799997       1.83894826E-12
  -14.2700005       1.61744424E-12
  -14.2600002       7.29893956E-13
  -14.2500000      -7.50847952E-13
  -14.2399998      -2.51242603E-12
  -14.2299995      -4.03167517E-12
  -14.2200003      -4.68890595E-12
  -14.2100000      -3.95490455E-12
  -14.1999998      -1.60729676E-12
  -14.1899996       2.09124493E-12
  -14.1800003       6.32781371E-12
  -14.1700001       9.84472486E-12
  -14.1599998       1.12306787E-11
  -14.1499996       9.35222819E-12
  -14.1400003       3.81861123E-12
  -14.1300001      -4.66877622E-12
  -14.1199999      -1.42327036E-11
  -14.1099997      -2.21037320E-11
  -14.1000004      -2.52755664E-11
  -14.0900002      -2.14139678E-11
  -14.0799999      -9.78645723E-12
  -14.0699997       8.08496412E-12
  -14.0600004       2.83276198E-11
  -14.0500002       4.53443325E-11
  -14.0400000       5.31334872E-11
  -14.0299997       4.70453641E-11
  -14.0200005       2.55220012E-11
  -14.0100002      -8.72495652E-12
  -14.0000000      -4.85831583E-11
  -13.9899998      -8.37129185E-11
  -13.9799995      -1.02931642E-10
  -13.9700003      -9.73265149E-11
  -13.9600000      -6.33011907E-11
  -13.9499998      -4.63795929E-12
  -13.9399996       6.72099251E-11
  -13.9300003       1.34985509E-10
  -13.9200001       1.79471257E-10
  -13.9099998       1.84517110E-10
  -13.8999996       1.41995332E-10
  -13.8900003       5.52636617E-11
  -13.8800001      -6.00450800E-11
  -13.8699999      -1.78491943E-10
  -13.8599997      -2.70286321E-10
  -13.8500004      -3.08583770E-10
  -13.8400002      -2.76842410E-10
  -13.8299999      -1.74248463E-10
  -13.8199997      -1.75518679E-11
  -13.8100004       1.61499550E-10
  -13.8000002       3.22822741E-10
  -13.7900000       4.27296337E-10
  -13.7799997       4.46433723E-10
  -13.7700005       3.69906911E-10
  -13.7600002       2.08870490E-10
  -13.7500000      -5.96520359E-12
  -13.7399998      -2.31144007E-10
  -13.7299995      -4.20492891E-10
  -13.7200003      -5.35770539E-10
  -13.7100000      -5.55136992E-10
  -13.6999998      -4.77249906E-10
  -13.6899996      -3.20010435E-10
  -13.6800003      -1.14565961E-10
  -13.6700001       1.03474111E-10
  -13.6599998       3.02787101E-10
  -13.6499996       4.62332922E-10
  -13.6400003       5.72814407E-10
  -13.6300001       6.33393615E-10
  -13.6199999       6.45258846E-10
  -13.6099997       6.04902239E-10
  -13.6000004       5.00430863E-10
  -13.5900002       3.13436527E-10
  -13.5799999       2.71467848E-11
  -13.5699997      -3.60873970E-10
  -13.5600004      -8.25439272E-10
  -13.5500002      -1.30515931E-09
  -13.5400000      -1.70358427E-09
  -13.5299997      -1.90294580E-09
  -13.5200005      -1.79000081E-09
  -13.5100002      -1.28915478E-09
  -13.5000000      -3.94773353E-10
  -13.4899998       8.07196476E-10
  -13.4799995       2.13704765E-09
  -13.4700003       3.34348105E-09
  -13.4600000       4.14887724E-09
  -13.4499998       4.30990799E-09
  -13.4399996       3.67987574E-09
  -13.4300003       2.25700392E-09
  -13.4200001       2.04311498E-10
  -13.4099998      -2.16726348E-09
  -13.3999996      -4.45200543E-09
  -13.3900003      -6.22854479E-09
  -13.3800001      -7.14696746E-09
  -13.3699999      -7.00271752E-09
  -13.3599997      -5.77818016E-09
  -13.3500004      -3.64138275E-09
  -13.3400002      -9.02240727E-10
  -13.3299999       2.06059370E-09
  -13.3199997       4.88097829E-09
  -13.3100004       7.27041094E-09
  -13.3000002       9.04790909E-09
  -13.2900000       1.01269935E-08
  -13.2799997       1.04669695E-08
  -13.2700005       1.00096686E-08
  -13.2600002       8.63062333E-09
  -13.2500000       6.13292261E-09
  -13.2399998       2.30052688E-09
  -13.2299995      -2.99080338E-09
  -13.2200003      -9.62887192E-09
  -13.2100000      -1.71289738E-08
  -13.1999998      -2.45575009E-08
  -13.1899996      -3.05612744E-08
  -13.1800003      -3.35284547E-08
  -13.1700001      -3.18761195E-08
  -13.1599998      -2.44238656E-08
  -13.1499996      -1.07812523E-08
  -13.1400003       8.34227709E-09
  -13.1300001       3.09935082E-08
  -13.1199999       5.40654703E-08
  -13.1099997       7.36452677E-08
  -13.1000004       8.55947278E-08
  -13.0900002       8.62785186E-08
  -13.0799999       7.33213028E-08
  -13.0699997       4.62458267E-08
  -13.0600004       6.85795598E-09
  -13.0500002      -4.07252507E-08
  -13.0400000      -9.04469672E-08
  -13.0299997      -1.35054393E-07
  -13.0200005      -1.67118074E-07
  -13.0100002      -1.80173984E-07
  -13.0000000      -1.69804352E-07
  -12.9899998      -1.34481112E-07
  -12.9799995      -7.60232837E-08
  -12.9700003       4.11190720E-10
  -12.9600000       8.68091377E-08
  -12.9499998       1.73194181E-07
  -12.9399996       2.48796312E-07
  -12.9300003       3.03341920E-07
  -12.9200001       3.28287314E-07
  -12.9099998       3.17853249E-07
  -12.8999996       2.69751467E-07
  -12.8900003       1.85551173E-07
  -12.8800001       7.06755685E-08
  -12.8699999      -6.59455281E-08
  -12.8599997      -2.12517165E-07
  -12.8500004      -3.55262301E-07
  -12.8400002      -4.79498055E-07
  -12.8299999      -5.70845032E-07
  -12.8199997      -6.16527188E-07
  -12.8100004      -6.06660365E-07
  -12.8000002      -5.35461368E-07
  -12.7900000      -4.02215903E-07
  -12.7799997      -2.11903370E-07
  -12.7700005       2.46679424E-08
  -12.7600002       2.91291883E-07
  -12.7500000       5.67383495E-07
  -12.7399998       8.29530222E-07
  -12.7299995       1.05344475E-06
  -12.7200003       1.21609037E-06
  -12.7100000       1.29775412E-06
  -12.6999998       1.28381475E-06
  -12.6899996       1.16600631E-06
  -12.6800003       9.43002135E-07
  -12.6700001       6.20344963E-07
  -12.6599998       2.09720156E-07
  -12.6499996      -2.72209093E-07
  -12.6400003      -8.05185550E-07
  -12.6300001      -1.36660208E-06
  -12.6199999      -1.93232472E-06
  -12.6099997      -2.47680623E-06
  -12.6000004      -2.97230531E-06
  -12.5900002      -3.38724931E-06
  -12.5799999      -3.68407223E-06
  -12.5699997      -3.81692325E-06
  -12.5600004      -3.73017906E-06
  -12.5500002      -3.35861500E-06
  -12.5400000      -2.63019228E-06
  -12.5299997      -1.47224591E-06
  -12.5200005       1.78513204E-07
  -12.5100002       2.36242477E-06
  -12.5000000       5.08051153E-06
  -12.4899998       8.27688109E-06
  -12.4799995       1.18219568E-05
  -12.4700003       1.54989593E-05
  -12.4600000       1.89959228E-05
  -12.4499998       2.19054145E-05
  -12.4399996       2.37332551E-05
  -12.4300003       2.39169676E-05
  -12.4200001       2.18531586E-05
  -12.4099998       1.69328869E-05
  -12.3999996       8.58283784E-06
  -12.3900003      -3.69102190E-06
  -12.3800001      -2.02592473E-05
  -12.3699999      -4.13285743E-05
  -12.3599997      -6.69068031E-05
  -12.3500004      -9.67775195E-05
  -12.3400002      -1.30485758E-04
  -12.3299999      -1.67333987E-04
  -12.3199997      -2.06394019E-04
  -12.3100004      -2.46531214E-04
  -12.3000002      -2.86439375E-04
  -12.2900000      -3.24687659E-04
  -12.2799997      -3.59773490E-04
  -12.2700005      -3.90179572E-04
  -12.2600002      -4.14433016E-04
  -12.2500000      -4.31162072E-04
  -12.2399998      -4.39139549E-04
  -12.2299995      -4.37328999E-04
  -12.2200003      -4.24911850E-04
  -12.2100000      -4.01302503E-04
  -12.1999998      -3.66160937E-04
  -12.1899996      -3.19388259E-04
  -12.1800003      -2.61116977E-04
  -12.1700001      -1.91696570E-04
  -12.1599998      -1.11670393E-04
  -12.1499996      -2.17621182E-05
  -12.1400003       7.71518389E-05
  -12.1300001       1.84050528E-04
  -12.1199999       2.97795486E-04
  -12.1099997       4.17131698E-04
  -12.1000004       5.40701265E-04
  -12.0900002       6.67051354E-04
  -12.0799999       7.94640218E-04
  -12.0699997       9.21843981E-04
  -12.0600004       1.04696979E-03
  -12.0500002       1.16827141E-03
  -12.0400000       1.28396403E-03
  -12.0299997       1.39224820E-03
  -12.0200005       1.49133895E-03
  -12.0100002       1.57948828E-03
  -12.0000000       1.65501365E-03
  -11.9899998       1.71632890E-03
  -11.9799995       1.76196033E-03
  -11.9700003       1.79057592E-03
  -11.9600000       1.80099509E-03
  -11.9499998       1.79220585E-03
  -11.9399996       1.76337792E-03
  -11.9300003       1.71385752E-03
  -11.9200001       1.64318678E-03
  -11.9099998       1.55108876E-03
  -11.8999996       1.43748196E-03
  -11.8900003       1.30246719E-03
  -11.8800001       1.14633434E-03
  -11.8699999       9.69563029E-04
  -11.8599997       7.72817177E-04
  -11.8500004       5.56959421E-04
  -11.8400002       3.23049491E-04
  -11.8299999       7.23604753E-05
  -11.8199997      -1.93626038E-04
  -11.8100004      -4.73212509E-04
  -11.8000002      -7.64493190E-04
  -11.7900000      -1.06535968E-03
  -11.7799997      -1.37353851E-03
  -11.7700005      -1.68660143E-03
  -11.7600002      -2.00201664E-03
  -11.7500000      -2.31717550E-03
  -11.7399998      -2.62943213E-03
  -11.7299995      -2.93613924E-03
  -11.7200003      -3.23466701E-03
  -11.7100000      -3.52243613E-03
  -11.6999998      -3.79690458E-03
  -11.6899996      -4.05558106E-03
  -11.6800003      -4.29603783E-03
  -11.6700001      -4.51588910E-03
  -11.6599998      -4.71279817E-03
  -11.6499996      -4.88447724E-03
  -11.6400003      -5.02869720E-03
  -11.6300001      -5.14328852E-03
  -11.6199999      -5.22615900E-03
  -11.6099997      -5.27529884E-03
  -11.6000004      -5.28881839E-03
  -11.5900002      -5.26493462E-03
  -11.5799999      -5.20203309E-03
  -11.5699997      -5.09866048E-03
  -11.5600004      -4.95356601E-03
  -11.5500002      -4.76573501E-03
  -11.5400000      -4.53439774E-03
  -11.5299997      -4.25906479E-03
  -11.5200005      -3.93953640E-03
  -11.5100002      -3.57591314E-03
  -11.5000000      -3.16859060E-03
  -11.4899998      -2.71823257E-03
  -11.4799995      -2.22576037E-03
  -11.4700003      -1.69231847E-03
  -11.4600000      -1.11923669E-03
  -11.4499998      -5.07995253E-04
  -11.4399996       1.39771044E-04
  -11.4300003       8.22340779E-04
  -11.4200001       1.53785013E-03
  -11.4099998       2.28434126E-03
  -11.3999996       3.05974088E-03
  -11.3900003       3.86184338E-03
  -11.3800001       4.68832674E-03
  -11.3699999       5.53675927E-03
  -11.3599997       6.40462618E-03
  -11.3500004       7.28933653E-03
  -11.3400002       8.18829145E-03
  -11.3299999       9.09890421E-03
  -11.3199997       1.00186560E-02
  -11.3100004       1.09450966E-02
  -11.3000002       1.18758930E-02
  -11.2900000       1.28088249E-02
  -11.2799997       1.37417847E-02
  -11.2700005       1.46727674E-02
  -11.2600002       1.55998245E-02
  -11.2500000       1.65211037E-02
  -11.2399998       1.74347833E-02
  -11.2299995       1.83390547E-02
  -11.2200003       1.92321371E-02
  -11.2100000       2.01123226E-02
  -11.1999998       2.09778845E-02
  -11.1899996       2.18271874E-02
  -11.1800003       2.26586517E-02
  -11.1700001       2.34708134E-02
  -11.1599998       2.42623184E-02
  -11.1499996       2.50319280E-02
  -11.1400003       2.57785786E-02
  -11.1300001       2.65013650E-02
  -11.1199999       2.71995179E-02
  -11.1099997       2.78724693E-02
  -11.1000004       2.85197981E-02
  -11.0900002       2.91412435E-02
  -11.0799999       2.97366884E-02
  -11.0699997       3.03061400E-02
  -11.0600004       3.08497641E-02
  -11.0500002       3.13678458E-02
  -11.0400000       3.18607353E-02
  -11.0299997       3.23289596E-02
  -11.0200005       3.27730514E-02
  -11.0100002       3.31936404E-02
  -11.0000000       3.35913673E-02
  -10.9899998       3.39668542E-02
  -10.9799995       3.43206562E-02
  -10.9700003       3.46532762E-02
  -10.9600000       3.49650532E-02
  -10.9499998       3.52561884E-02
  -10.9399996       3.55267487E-02
  -10.9300003       3.57765667E-02
  -10.9200001       3.60053554E-02
  -10.9099998       3.62126119E-02
  -10.8999996       3.63977440E-02
  -10.8900003       3.65600325E-02
  -10.8800001       3.66987176E-02
  -10.8699999       3.68130170E-02
  -10.8599997       3.69021893E-02
  -10.8500004       3.69656086E-02
  -10.8400002       3.70027311E-02
  -10.8299999       3.70132029E-02
  -10.8199997       3.69968228E-02
  -10.8100004       3.69535275E-02
  -10.8000002       3.68833877E-02
  -10.7900000       3.67865786E-02
  -10.7799997       3.66632901E-02
  -10.7700005       3.65138873E-02
  -10.7600002       3.63386944E-02
  -10.7500000       3.61380912E-02
  -10.7399998       3.59126255E-02
  -10.7299995       3.56628373E-02
  -10.7200003       3.53895202E-02
  -10.7100000       3.50935757E-02
  -10.6999998       3.47761326E-02
  -10.6899996       3.44385095E-02
  -10.6800003       3.40821855E-02
  -10.6700001       3.37088406E-02
  -10.6599998       3.33203264E-02
  -10.6499996       3.29185501E-02
  -10.6400003       3.25055383E-02
  -10.6300001       3.20833474E-02
  -10.6199999       3.16540338E-02
  -10.6099997       3.12195979E-02
  -10.6000004       3.07820514E-02
  -10.5900002       3.03431880E-02
  -10.5799999       2.99047846E-02
  -10.5699997       2.94683818E-02
  -10.5600004       2.90354192E-02
  -10.5500002       2.86072157E-02
  -10.5400000       2.81850398E-02
  -10.5299997       2.77700331E-02
  -10.5200005       2.73633506E-02
  -10.5100002       2.69661509E-02
  -10.5000000       2.65796147E-02
  -10.4899998       2.62049045E-02
  -10.4799995       2.58432850E-02
  -10.4700003       2.54958905E-02
  -10.4600000       2.51638517E-02
  -10.4499998       2.48482022E-02
  -10.4399996       2.45497897E-02
  -10.4300003       2.42693610E-02
  -10.4200001       2.40073539E-02
  -10.4099998       2.37640534E-02
  -10.3999996       2.35394053E-02
  -10.3900003       2.33331099E-02
  -10.3800001       2.31447574E-02
  -10.3699999       2.29736343E-02
  -10.3599997       2.28189323E-02
  -10.3500004       2.26796698E-02
  -10.3400002       2.25548521E-02
  -10.3299999       2.24433932E-02
  -10.3199997       2.23440994E-02
  -10.3100004       2.22559031E-02
  -10.3000002       2.21775789E-02
  -10.2900000       2.21079625E-02
  -10.2799997       2.20458247E-02
  -10.2700005       2.19901409E-02
  -10.2600002       2.19396520E-02
  -10.2500000       2.18933951E-02
  -10.2399998       2.18504891E-02
  -10.2299995       2.18101591E-02
  -10.2200003       2.17718650E-02
  -10.2100000       2.17352919E-02
  -10.1999998       2.17001829E-02
  -10.1899996       2.16666292E-02
  -10.1800003       2.16347929E-02
  -10.1700001       2.16051005E-02
  -10.1599998       2.15780493E-02
  -10.1499996       2.15542968E-02
  -10.1400003       2.15346497E-02
  -10.1300001       2.15201210E-02
  -10.1199999       2.15116981E-02
  -10.1099997       2.15107016E-02
  -10.1000004       2.15185490E-02
  -10.0900002       2.15368271E-02
  -10.0799999       2.15673652E-02
  -10.0699997       2.16121878E-02
  -10.0600004       2.16734577E-02
  -10.0500002       2.17534825E-02
  -10.0400000       2.18546689E-02
  -10.0299997       2.19794121E-02
  -10.0200005       2.21301187E-02
  -10.0100002       2.23089866E-02
  -10.0000000       2.25179885E-02
  -9.98999977       2.27590166E-02
  -9.97999954       2.30335053E-02
  -9.97000027       2.33428143E-02
  -9.96000004       2.36880369E-02
  -9.94999981       2.40701325E-02
  -9.93999958       2.44898833E-02
  -9.93000031       2.49482282E-02
  -9.92000008       2.54458245E-02
  -9.90999985       2.59836409E-02
  -9.89999962       2.65624709E-02
  -9.89000034       2.71832049E-02
  -9.88000011       2.78467089E-02
  -9.86999989       2.85537820E-02
  -9.85999966       2.93053258E-02
  -9.85000038       3.01018842E-02
  -9.84000015       3.09438221E-02
  -9.82999992       3.18314098E-02
  -9.81999969       3.27645466E-02
  -9.81000042       3.37428786E-02
  -9.80000019       3.47658098E-02
  -9.78999996       3.58325280E-02
  -9.77999973       3.69421765E-02
  -9.77000046       3.80935967E-02
  -9.76000023       3.92856337E-02
  -9.75000000       4.05173190E-02
  -9.73999977       4.17876691E-02
  -9.72999954       4.30958048E-02
  -9.72000027       4.44411114E-02
  -9.71000004       4.58230004E-02
  -9.69999981       4.72410321E-02
  -9.68999958       4.86947261E-02
  -9.68000031       5.01835309E-02
  -9.67000008       5.17068505E-02
  -9.65999985       5.32637946E-02
  -9.64999962       5.48529774E-02
  -9.64000034       5.64729907E-02
  -9.63000011       5.81217743E-02
  -9.61999989       5.97967692E-02
  -9.60999966       6.14955164E-02
  -9.60000038       6.32145777E-02
  -9.59000015       6.49505705E-02
  -9.57999992       6.66998103E-02
  -9.56999969       6.84582591E-02
  -9.56000042       7.02217519E-02
  -9.55000019       7.19856694E-02
  -9.53999996       7.37456083E-02
  -9.52999973       7.54967108E-02
  -9.52000046       7.72343501E-02
  -9.51000023       7.89536089E-02
  -9.50000000       8.06500465E-02
  -9.48999977       8.23191702E-02
  -9.47999954       8.39568749E-02
  -9.47000027       8.55595917E-02
  -9.46000004       8.71240795E-02
  -9.44999981       8.86479393E-02
  -9.43999958       9.01290625E-02
  -9.43000031       9.15665179E-02
  -9.42000008       9.29600745E-02
  -9.40999985       9.43100974E-02
  -9.39999962       9.56176966E-02
  -9.39000034       9.68852565E-02
  -9.38000011       9.81155410E-02
  -9.36999989       9.93119702E-02
  -9.35999966      0.100478686    
  -9.35000038      0.101620436    
  -9.34000015      0.102742113    
  -9.32999992      0.103849418    
  -9.31999969      0.104948603    
  -9.31000042      0.106045812    
  -9.30000019      0.107148275    
  -9.28999996      0.108262904    
  -9.27999973      0.109397434    
  -9.27000046      0.110559456    
  -9.26000023      0.111756600    
  -9.25000000      0.112996422    
  -9.23999977      0.114286125    
  -9.22999954      0.115632623    
  -9.22000027      0.117042668    
  -9.21000004      0.118521884    
  -9.19999981      0.120075919    
  -9.18999958      0.121709242    
  -9.18000031      0.123425730    
  -9.17000008      0.125228539    
  -9.15999985      0.127119884    
  -9.14999962      0.129101276    
  -9.14000034      0.131172881    
  -9.13000011      0.133334383    
  -9.11999989      0.135584548    
  -9.10999966      0.137921363    
  -9.10000038      0.140341446    
  -9.09000015      0.142841190    
  -9.07999992      0.145415679    
  -9.06999969      0.148059234    
  -9.06000042      0.150765195    
  -9.05000019      0.153525978    
  -9.03999996      0.156333685    
  -9.02999973      0.159179091    
  -9.02000046      0.162053421    
  -9.01000023      0.164947018    
  -9.00000000      0.167850018    
  -8.98999977      0.170752689    
  -8.97999954      0.173645452    
  -8.97000027      0.176519036    
  -8.96000004      0.179363653    
  -8.94999981      0.182170331    
  -8.93999958      0.184930295    
  -8.93000031      0.187634617    
  -8.92000008      0.190275192    
  -8.90999985      0.192843854    
  -8.89999962      0.195333079    
  -8.89000034      0.197735563    
  -8.88000011      0.200044557    
  -8.86999989      0.202254146    
  -8.85999966      0.204358339    
  -8.85000038      0.206352904    
  -8.84000015      0.208233625    
  -8.82999992      0.209997609    
  -8.81999969      0.211642399    
  -8.81000042      0.213167638    
  -8.80000019      0.214572951    
  -8.78999996      0.215860426    
  -8.77999973      0.217031837    
  -8.77000046      0.218090668    
  -8.76000023      0.219041392    
  -8.75000000      0.219889373    
  -8.73999977      0.220640659    
  -8.72999954      0.221301526    
  -8.72000027      0.221879914    
  -8.71000004      0.222383246    
  -8.69999981      0.222819671    
  -8.68999958      0.223197401    
  -8.68000031      0.223524943    
  -8.67000008      0.223810866    
  -8.65999985      0.224063694    
  -8.64999962      0.224291652    
  -8.64000034      0.224503249    
  -8.63000011      0.224706486    
  -8.61999989      0.224909395    
  -8.60999966      0.225119755    
  -8.60000038      0.225344718    
  -8.59000015      0.225591421    
  -8.57999992      0.225866884    
  -8.56999969      0.226176858    
  -8.56000042      0.226527065    
  -8.55000019      0.226922020    
  -8.53999996      0.227366224    
  -8.52999973      0.227863193    
  -8.52000046      0.228415504    
  -8.51000023      0.229025543    
  -8.50000000      0.229694083    
  -8.48999977      0.230422094    
  -8.47999954      0.231209800    
  -8.47000027      0.232056916    
  -8.46000004      0.232963443    
  -8.44999981      0.233927593    
  -8.43999958      0.234948844    
  -8.43000031      0.236025900    
  -8.42000008      0.237158224    
  -8.40999985      0.238344654    
  -8.39999962      0.239584684    
  -8.39000034      0.240878075    
  -8.38000011      0.242225051    
  -8.36999989      0.243626669    
  -8.35999966      0.245084122    
  -8.35000038      0.246599212    
  -8.34000015      0.248175427    
  -8.32999992      0.249815509    
  -8.31999969      0.251522690    
  -8.31000042      0.253301561    
  -8.30000019      0.255155742    
  -8.28999996      0.257089823    
  -8.27999973      0.259107947    
  -8.27000046      0.261215419    
  -8.26000023      0.263416976    
  -8.25000000      0.265717357    
  -8.23999977      0.268120378    
  -8.22999954      0.270630926    
  -8.22000027      0.273253202    
  -8.21000004      0.275990963    
  -8.19999981      0.278847665    
  -8.18999958      0.281826258    
  -8.18000031      0.284930170    
  -8.17000008      0.288161993    
  -8.15999985      0.291523993    
  -8.14999962      0.295018941    
  -8.14000034      0.298648536    
  -8.13000011      0.302414358    
  -8.11999989      0.306315958    
  -8.10999966      0.310353041    
  -8.10000038      0.314524353    
  -8.09000015      0.318827033    
  -8.07999992      0.323258042    
  -8.06999969      0.327812999    
  -8.06000042      0.332487255    
  -8.05000019      0.337276310    
  -8.03999996      0.342174023    
  -8.02999973      0.347174495    
  -8.02000046      0.352271438    
  -8.01000023      0.357457012    
  -8.00000000      0.362724453    
  -7.98999977      0.368065357    
  -7.98000002      0.373471409    
  -7.96999979      0.378933936    
  -7.96000004      0.384444535    
  -7.94999981      0.389994085    
  -7.94000006      0.395575553    
  -7.92999983      0.401180089    
  -7.92000008      0.406800568    
  -7.90999985      0.412428766    
  -7.90000010      0.418057710    
  -7.88999987      0.423679918    
  -7.88000011      0.429289639    
  -7.86999989      0.434879690    
  -7.86000013      0.440444469    
  -7.84999990      0.445978552    
  -7.84000015      0.451477230    
  -7.82999992      0.456936300    
  -7.82000017      0.462351978    
  -7.80999994      0.467720598    
  -7.80000019      0.473039389    
  -7.78999996      0.478305370    
  -7.78000021      0.483516365    
  -7.76999998      0.488671631    
  -7.76000023      0.493770093    
  -7.75000000      0.498811007    
  -7.73999977      0.503795743    
  -7.73000002      0.508724213    
  -7.71999979      0.513599455    
  -7.71000004      0.518423617    
  -7.69999981      0.523198307    
  -7.69000006      0.527927160    
  -7.67999983      0.532613337    
  -7.67000008      0.537260056    
  -7.65999985      0.541872919    
  -7.65000010      0.546456277    
  -7.63999987      0.551015794    
  -7.63000011      0.555558443    
  -7.61999989      0.560091197    
  -7.61000013      0.564621150    
  -7.59999990      0.569156647    
  -7.59000015      0.573706031    
  -7.57999992      0.578277349    
  -7.57000017      0.582879305    
  -7.55999994      0.587520421    
  -7.55000019      0.592209220    
  -7.53999996      0.596957088    
  -7.53000021      0.601771593    
  -7.51999998      0.606662214    
  -7.51000023      0.611642182    
  -7.50000000      0.616719961    
  -7.48999977      0.621904671    
  -7.48000002      0.627207100    
  -7.46999979      0.632635891    
  -7.46000004      0.638200998    
  -7.44999981      0.643910468    
  -7.44000006      0.649770796    