  -16.0000000       0.00000000    
  -15.9899998       0.00000000    
  -15.9799995       0.00000000    
  -15.9700003       0.00000000    
  -15.9600000       0.00000000    
  -15.9499998       0.00000000    
  -15.9399996       0.00000000    
  -15.9300003       0.00000000    
  -15.9200001       0.00000000    
  -15.9099998       0.00000000    
  -15.8999996       0.00000000    
  -15.8900003       0.00000000    
  -15.8800001       0.00000000    
  -15.8699999       2.65658163E-41
  -15.8599997       8.57506378E-40
  -15.8500004       1.29682242E-38
  -15.8400002       1.26542498E-37
  -15.8299999       9.09967977E-37
  -15.8199997       5.17285351E-36
  -15.8100004       2.41803579E-35
  -15.8000002       9.50630375E-35
  -15.7900000       3.17388273E-34
  -15.7799997       8.96919638E-34
  -15.7700005       2.09446865E-33
  -15.7600002       3.73825277E-33
  -15.7500000       3.53681344E-33
  -15.7399998      -6.91853951E-33
  -15.7299995      -4.88959776E-32
  -15.7200003      -1.62845241E-31
  -15.7100000      -4.02606204E-31
  -15.6999998      -7.93429817E-31
  -15.6899996      -1.22338756E-30
  -15.6800003      -1.26087897E-30
  -15.6700001       2.51562051E-32
  -15.6599998       4.01085406E-30
  -15.6499996       1.18363321E-29
  -15.6400003       2.27296161E-29
  -15.6300001       3.14706432E-29
  -15.6199999       2.63154644E-29
  -15.6099997      -9.69906370E-30
  -15.6000004      -9.02675842E-29
  -15.5900002      -2.08132312E-28
  -15.5799999      -3.12453245E-28
  -15.5699997      -2.95796021E-28
  -15.5600004      -1.48408972E-29
  -15.5500002       6.31818074E-28
  -15.5400000       1.56668758E-27
  -15.5299997       2.37988820E-27
  -15.5200005       2.25755370E-27
  -15.5100002       1.28619392E-28
  -15.5000000      -4.84531695E-27
  -15.4899998      -1.23922999E-26
  -15.4799995      -1.99680602E-26
  -15.4700003      -2.16452909E-26
  -15.4600000      -7.78494395E-27
  -15.4499998       3.31031427E-26
  -15.4399996       1.08025589E-25
  -15.4300003       2.06131992E-25
  -15.4200001       2.78056065E-25
  -15.4099998       2.15522543E-25
  -15.3999996      -1.46481289E-25
  -15.3900003      -9.65644634E-25
  -15.3800001      -2.22381960E-24
  -15.3699999      -3.45020465E-24
  -15.3599997      -3.44056517E-24
  -15.3500004      -2.50416203E-25
  -15.3400002       8.10070929E-24
  -15.3299999       2.18153709E-23
  -15.3199997       3.64824661E-23
  -15.3100004       4.04029407E-23
  -15.3000002       1.47659473E-23
  -15.2900000      -5.95688118E-23
  -15.2799997      -1.85838502E-22
  -15.2700005      -3.27457373E-22
  -15.2600002      -3.87053328E-22
  -15.2500000      -2.09850039E-22
  -15.2399998       3.61451094E-22
  -15.2299995       1.36298726E-21
  -15.2200003       2.53527223E-21
  -15.2100000       3.17714257E-21
  -15.1999998       2.17440115E-21
  -15.1899996      -1.62336124E-21
  -15.1800003      -8.58057552E-21
  -15.1700001      -1.71413213E-20
  -15.1599998      -2.28874898E-20
  -15.1499996      -1.86753181E-20
  -15.1400003       3.13903471E-21
  -15.1300001       4.58497586E-20
  -15.1199999       1.01708642E-19
  -15.1099997       1.46206022E-19
  -15.1000004       1.38169173E-19
  -15.0900002       3.11364838E-20
  -15.0799999      -2.01015927E-19
  -15.0699997      -5.27926209E-19
  -15.0600004      -8.30042192E-19
  -15.0500002      -8.93482344E-19
  -15.0400000      -4.60050405E-19
  -15.0299997       6.51067553E-19
  -15.0200005       2.36421909E-18
  -15.0100002       4.17245617E-18
  -15.0000000       5.07705221E-18
  -14.9899998       3.77178271E-18
  -14.9799995      -8.39435087E-19
  -14.9700003      -8.83034412E-18
  -14.9600000      -1.83877006E-17
  -14.9499998      -2.53535804E-17
  -14.9399996      -2.37492504E-17
  -14.9300003      -7.72715319E-18
  -14.9200001       2.50768472E-17
  -14.9099998       6.96230312E-17
  -14.8999996       1.10725411E-16
  -14.8900003       1.23830089E-16
  -14.8800001       8.13917731E-17
  -14.8699999      -3.46511153E-17
  -14.8599997      -2.16713499E-16
  -14.8500004      -4.17700851E-16
  -14.8400002      -5.48225611E-16
  -14.8299999      -4.93704112E-16
  -14.8199997      -1.55597835E-16
  -14.8100004       4.88507882E-16
  -14.8000002       1.32421161E-15
  -14.7900000       2.06891143E-15
  -14.7799997       2.30350970E-15
  -14.7700005       1.59037784E-15
  -14.7600002      -3.27499360E-16
  -14.7500000      -3.29380239E-15
  -14.7399998      -6.56416483E-15
  -14.7299995      -8.80630170E-15
  -14.7200003      -8.37552531E-15
  -14.7100000      -3.89340812E-15
  -14.6999998       4.96908109E-15
  -14.6899996       1.67508846E-14
  -14.6800003       2.78641127E-14
  -14.6700001       3.30314796E-14
  -14.6599998       2.67126765E-14
  -14.6499996       5.40222748E-15
  -14.6400003      -2.97673127E-14
  -14.6300001      -7.11052988E-14
  -14.6199999      -1.04306741E-13
  -14.6099997      -1.11211685E-13
  -14.6000004      -7.55725303E-14
  -14.5900002       9.17530059E-15
  -14.5799999       1.32475994E-13
  -14.5699997       2.62832616E-13
  -14.5600004       3.50875633E-13
  -14.5500002       3.41193274E-13
  -14.5400000       1.92007136E-13
  -14.5299997      -1.01868350E-13
  -14.5200005      -4.90661982E-13
  -14.5100002      -8.65259958E-13
  -14.5000000      -1.07448707E-12
  -14.4899998      -9.66273069E-13
  -14.4799995      -4.46266206E-13
  -14.4700003       4.61966294E-13
  -14.4600000       1.57801311E-12
  -14.4499998       2.57036580E-12
  -14.4399996       3.02198110E-12
  -14.4300003       2.55339912E-12
  -14.4200001       9.78326469E-13
  -14.4099998      -1.55501740E-12
  -14.3999996      -4.49489794E-12
  -14.3900003      -6.94095606E-12
  -14.3800001      -7.84619678E-12
  -14.3699999      -6.34255582E-12
  -14.3599997      -2.11304563E-12
  -14.3500004       4.30927950E-12
  -14.3400002       1.14473838E-11
  -14.3299999       1.70910092E-11
  -14.3199997       1.88331416E-11
  -14.3100004       1.48427191E-11
  -14.3000002       4.67262123E-12
  -14.2900000      -1.01698702E-11
  -14.2799997      -2.61588442E-11
  -14.2700005      -3.83593990E-11
  -14.2600002      -4.16892701E-11
  -14.2500000      -3.25793836E-11
  -14.2399998      -1.05725975E-11
  -14.2299995       2.06991282E-11
  -14.2200003       5.36507991E-11
  -14.2100000       7.82288123E-11
  -14.1999998       8.45795725E-11
  -14.1899996       6.62973426E-11
  -14.1800003       2.33072537E-11
  -14.1700001      -3.66541276E-11
  -14.1599998      -9.87681464E-11
  -14.1499996      -1.44317808E-10
  -14.1400003      -1.55813376E-10
  -14.1300001      -1.22793276E-10
  -14.1199999      -4.65503434E-11
  -14.1099997       5.79656462E-11
  -14.1000004       1.64237554E-10
  -14.0900002       2.40349518E-10
  -14.0799999       2.58010641E-10
  -14.0699997       2.02045422E-10
  -14.0600004       7.73982128E-11
  -14.0500002      -8.90348420E-11
  -14.0400000      -2.53205457E-10
  -14.0299997      -3.64919844E-10
  -14.0200005      -3.82554488E-10
  -14.0100002      -2.87383228E-10
  -14.0000000      -9.28989177E-11
  -13.9899998       1.54605245E-10
  -13.9799995       3.85706911E-10
  -13.9700003       5.26246990E-10
  -13.9600000       5.19902732E-10
  -13.9499998       3.48433060E-10
  -13.9399996       4.28768861E-11
  -13.9300003      -3.19091475E-10
  -13.9200001      -6.30757058E-10
  -13.9099998      -7.85487009E-10
  -13.8999996      -7.09906522E-10
  -13.8900003      -3.91423588E-10
  -13.8800001       1.09114537E-10
  -13.8699999       6.65451305E-10
  -13.8599997       1.11484588E-09
  -13.8500004       1.30181399E-09
  -13.8400002       1.12545040E-09
  -13.8299999       5.76719617E-10
  -13.8199997      -2.46416582E-10
  -13.8100004      -1.15291243E-09
  -13.8000002      -1.90080085E-09
  -13.7900000      -2.25849672E-09
  -13.7799997      -2.06989625E-09
  -13.7700005      -1.30543809E-09
  -13.7600002      -8.37682840E-11
  -13.7500000       1.34437250E-09
  -13.7399998       2.64857647E-09
  -13.7299995       3.49615870E-09
  -13.7200003       3.63560715E-09
  -13.7100000       2.96458902E-09
  -13.6999998       1.56419588E-09
  -13.6899996      -3.10826143E-10
  -13.6800003      -2.28473085E-09
  -13.6700001      -3.94416588E-09
  -13.6599998      -4.93178032E-09
  -13.6499996      -5.02677411E-09
  -13.6400003      -4.19261026E-09
  -13.6300001      -2.58047006E-09
  -13.6199999      -4.89100760E-10
  -13.6099997       1.70720171E-09
  -13.6000004       3.64246944E-09
  -13.5900002       5.03262054E-09
  -13.5799999       5.72030645E-09
  -13.5699997       5.68191361E-09
  -13.5600004       4.99914332E-09
  -13.5500002       3.80836163E-09
  -13.5400000       2.24741892E-09
  -13.5299997       4.19872997E-10
  -13.5200005      -1.60990310E-09
  -13.5100002      -3.78828169E-09
  -13.5000000      -6.02152861E-09
  -13.4899998      -8.12331979E-09
  -13.4799995      -9.78591519E-09
  -13.4700003      -1.05962421E-08
  -13.4600000      -1.01062829E-08
  -13.4499998      -7.94960542E-09
  -13.4399996      -3.97894340E-09
  -13.4300003       1.61352720E-09
  -13.4200001       8.23443536E-09
  -13.4099998       1.49178607E-08
  -13.3999996       2.04566497E-08
  -13.3900003       2.36216167E-08
  -13.3800001       2.34275408E-08
  -13.3699999       1.93849630E-08
  -13.3599997       1.16740280E-08
  -13.3500004       1.18700516E-09
  -13.3400002      -1.05844506E-08
  -13.3299999      -2.18036806E-08
  -13.3199997      -3.06351922E-08
  -13.3100004      -3.56047529E-08
  -13.3000002      -3.58883874E-08
  -13.2900000      -3.14582707E-08
  -13.2799997      -2.30501165E-08
  -13.2700005      -1.19608528E-08
  -13.2600002       2.67867090E-10
  -13.2500000       1.21930626E-08
  -13.2399998       2.27444215E-08
  -13.2299995       3.13525241E-08
  -13.2200003       3.78964664E-08
  -13.2100000       4.24922959E-08
  -13.1999998       4.51950122E-08
  -13.1899996       4.57226292E-08
  -13.1800003       4.33126388E-08
  -13.1700001       3.67912385E-08
  -13.1599998       2.48782683E-08
  -13.1499996       6.67601041E-09
  -13.1400003      -1.77745534E-08
  -13.1300001      -4.70295767E-08
  -13.1199999      -7.80334517E-08
  -13.1099997      -1.06280062E-07
  -13.1000004      -1.26388173E-07
  -13.0900002      -1.33024372E-07
  -13.0799999      -1.22017710E-07
  -13.0699997      -9.14398655E-08
  -13.0600004      -4.24023874E-08
  -13.0500002       2.06444017E-08
  -13.0400000       9.02256261E-08
  -13.0299997       1.56780899E-07
  -13.0200005       2.10092693E-07
  -13.0100002       2.40966273E-07
  -13.0000000       2.42859670E-07
  -12.9899998       2.13149292E-07
  -12.9799995       1.53790893E-07
  -12.9700003       7.12288966E-08
  -12.9600000      -2.44482710E-08
  -12.9499998      -1.20961630E-07
  -12.9399996      -2.05676301E-07
  -12.9300003      -2.67493590E-07
  -12.9200001      -2.98500566E-07
  -12.9099998      -2.95106503E-07
  -12.8999996      -2.58518384E-07
  -12.8900003      -1.94466978E-07
  -12.8800001      -1.12280794E-07
  -12.8699999      -2.34468160E-08
  -12.8599997       6.01131163E-08
  -12.8500004       1.27791495E-07
  -12.8400002       1.71826557E-07
  -12.8299999       1.88412201E-07
  -12.8199997       1.78231687E-07
  -12.8100004       1.46366105E-07
  -12.8000002       1.01560602E-07
  -12.7900000       5.49893109E-08
  -12.7799997       1.86247444E-08
  -12.7700005       3.46182305E-09
  -12.7600002       1.78001525E-08
  -12.7500000       6.58083863E-08
  -12.7399998       1.46533594E-07
  -12.7299995       2.53472734E-07
  -12.7200003       3.74742399E-07
  -12.7100000       4.93781670E-07
  -12.6999998       5.90541731E-07
  -12.6899996       6.43009400E-07
  -12.6800003       6.29010401E-07
  -12.6700001       5.28195926E-07
  -12.6599998       3.24219911E-07
  -12.6499996       7.09215264E-09
  -12.6400003      -4.24342176E-07
  -12.6300001      -9.59892418E-07
  -12.6199999      -1.57571890E-06
  -12.6099997      -2.23258940E-06
  -12.6000004      -2.87519310E-06
  -12.5900002      -3.43301963E-06
  -12.5799999      -3.82322060E-06
  -12.5699997      -3.95580355E-06
  -12.5600004      -3.74106071E-06
  -12.5500002      -3.09890424E-06
  -12.5400000      -1.96939345E-06
  -12.5299997      -3.23478417E-07
  -12.5200005       1.82714882E-06
  -12.5100002       4.42219471E-06
  -12.5000000       7.34795321E-06
  -12.4899998       1.04357614E-05
  -12.4799995       1.34643669E-05
  -12.4700003       1.61658245E-05
  -12.4600000       1.82346466E-05
  -12.4499998       1.93392843E-05
  -12.4399996       1.91359486E-05
  -12.4300003       1.72840719E-05
  -12.4200001       1.34621223E-05
  -12.4099998       7.38471954E-06
  -12.3999996      -1.18019511E-06
  -12.3900003      -1.23940927E-05
  -12.3800001      -2.63323200E-05
  -12.3699999      -4.29696265E-05
  -12.3599997      -6.21685904E-05
  -12.3500004      -8.36725230E-05
  -12.3400002      -1.07102896E-04
  -12.3299999      -1.31962224E-04
  -12.3199997      -1.57642789E-04
  -12.3100004      -1.83440599E-04
  -12.3000002      -2.08574289E-04
  -12.2900000      -2.32206105E-04
  -12.2799997      -2.53466162E-04
  -12.2700005      -2.71478377E-04
  -12.2600002      -2.85381626E-04
  -12.2500000      -2.94357073E-04
  -12.2399998      -2.97646038E-04
  -12.2299995      -2.94574362E-04
  -12.2200003      -2.84568232E-04
  -12.2100000      -2.67173047E-04
  -12.1999998      -2.42067021E-04
  -12.1899996      -2.09072314E-04
  -12.1800003      -1.68165468E-04
  -12.1700001      -1.19479962E-04
  -12.1599998      -6.33027594E-05
  -12.1499996      -7.40744781E-08
  -12.1400003       6.96293937E-05
  -12.1300001       1.45103360E-04
  -12.1199999       2.25531810E-04
  -12.1099997       3.10004601E-04
  -12.1000004       3.97528085E-04
  -12.0900002       4.87038400E-04
  -12.0799999       5.77411090E-04
  -12.0699997       6.67467015E-04
  -12.0600004       7.55977351E-04
  -12.0500002       8.41672299E-04
  -12.0400000       9.23249754E-04
  -12.0299997       9.99387819E-04
  -12.0200005       1.06875901E-03
  -12.0100002       1.13005505E-03
  -12.0000000       1.18200714E-03
  -11.9899998       1.22341211E-03
  -11.9799995       1.25315750E-03
  -11.9700003       1.27024122E-03
  -11.9600000       1.27379224E-03
  -11.9499998       1.26307877E-03
  -11.9399996       1.23752188E-03
  -11.9300003       1.19669456E-03
  -11.9200001       1.14032114E-03
  -11.9099998       1.06827659E-03
  -11.8999996       9.80583252E-04
  -11.8900003       8.77403596E-04
  -11.8800001       7.59041461E-04
  -11.8699999       6.25942543E-04
  -11.8599997       4.78687434E-04
  -11.8500004       3.17996601E-04
  -11.8400002       1.44727062E-04
  -11.8299999      -4.01264260E-05
  -11.8199997      -2.35438551E-04
  -11.8100004      -4.39954747E-04
  -11.8000002      -6.52291114E-04
  -11.7900000      -8.70945107E-04
  -11.7799997      -1.09430018E-03
  -11.7700005      -1.32063008E-03
  -11.7600002      -1.54809980E-03
  -11.7500000      -1.77478639E-03
  -11.7399998      -1.99868204E-03
  -11.7299995      -2.21771188E-03
  -11.7200003      -2.42974889E-03
  -11.7100000      -2.63264868E-03
  -11.6999998      -2.82426155E-03
  -11.6899996      -3.00247199E-03
  -11.6800003      -3.16521665E-03
  -11.6700001      -3.31051857E-03
  -11.6599998      -3.43650300E-03
  -11.6499996      -3.54141486E-03
  -11.6400003      -3.62363248E-03
  -11.6300001      -3.68166948E-03
  -11.6199999      -3.71418358E-03
  -11.6099997      -3.71997315E-03
  -11.6000004      -3.69797903E-03
  -11.5900002      -3.64728691E-03
  -11.5799999      -3.56712379E-03
  -11.5699997      -3.45686032E-03
  -11.5600004      -3.31601477E-03
  -11.5500002      -3.14424606E-03
  -11.5400000      -2.94136931E-03
  -11.5299997      -2.70734006E-03
  -11.5200005      -2.44226726E-03
  -11.5100002      -2.14641844E-03
  -11.5000000      -1.82022178E-03
  -11.4899998      -1.46427657E-03
  -11.4799995      -1.07936817E-03
  -11.4700003      -6.66465319E-04
  -11.4600000      -2.26758290E-04
  -11.4499998       2.38371867E-04
  -11.4399996       7.27325503E-04
  -11.4300003       1.23832107E-03
  -11.4200001       1.76939578E-03
  -11.4099998       2.31844885E-03
  -11.3999996       2.88326759E-03
  -11.3900003       3.46157816E-03
  -11.3800001       4.05107997E-03
  -11.3699999       4.64948686E-03
  -11.3599997       5.25454851E-03
  -11.3500004       5.86409681E-03
  -11.3400002       6.47605164E-03
  -11.3299999       7.08843954E-03
  -11.3199997       7.69941043E-03
  -11.3100004       8.30722600E-03
  -11.3000002       8.91027693E-03
  -11.2900000       9.50706005E-03
  -11.2799997       1.00961905E-02
  -11.2700005       1.06763784E-02
  -11.2600002       1.12464214E-02
  -11.2500000       1.18051907E-02
  -11.2399998       1.23516126E-02
  -11.2299995       1.28846439E-02
  -11.2200003       1.34033058E-02
  -11.2100000       1.39066288E-02
  -11.1999998       1.43936835E-02
  -11.1899996       1.48635954E-02
  -11.1800003       1.53155308E-02
  -11.1700001       1.57487299E-02
  -11.1599998       1.61625072E-02
  -11.1499996       1.65562481E-02
  -11.1400003       1.69294588E-02
  -11.1300001       1.72817241E-02
  -11.1199999       1.76127441E-02
  -11.1099997       1.79223325E-02
  -11.1000004       1.82104204E-02
  -11.0900002       1.84770841E-02
  -11.0799999       1.87225398E-02
  -11.0699997       1.89471729E-02
  -11.0600004       1.91514995E-02
  -11.0500002       1.93361733E-02
  -11.0400000       1.95019841E-02
  -11.0299997       1.96497943E-02
  -11.0200005       1.97805259E-02
  -11.0100002       1.98951196E-02
  -11.0000000       1.99944731E-02
  -10.9899998       2.00794265E-02
  -10.9799995       2.01507378E-02
  -10.9700003       2.02090479E-02
  -10.9600000       2.02548709E-02
  -10.9499998       2.02886164E-02
  -10.9399996       2.03105491E-02
  -10.9300003       2.03208160E-02
  -10.9200001       2.03194544E-02
  -10.9099998       2.03064196E-02
  -10.8999996       2.02815533E-02
  -10.8900003       2.02446226E-02
  -10.8800001       2.01953594E-02
  -10.8699999       2.01334003E-02
  -10.8599997       2.00583823E-02
  -10.8500004       1.99699178E-02
  -10.8400002       1.98676232E-02
  -10.8299999       1.97511557E-02
  -10.8199997       1.96202435E-02
  -10.8100004       1.94746815E-02
  -10.8000002       1.93144176E-02
  -10.7900000       1.91395525E-02
  -10.7799997       1.89503729E-02
  -10.7700005       1.87473539E-02
  -10.7600002       1.85311828E-02
  -10.7500000       1.83027051E-02
  -10.7399998       1.80629678E-02
  -10.7299995       1.78130884E-02
  -10.7200003       1.75543483E-02
  -10.7100000       1.72880124E-02
  -10.6999998       1.70154497E-02
  -10.6899996       1.67380199E-02
  -10.6800003       1.64571106E-02
  -10.6700001       1.61741581E-02
  -10.6599998       1.58906206E-02
  -10.6499996       1.56080443E-02
  -10.6400003       1.53279891E-02
  -10.6300001       1.50521463E-02
  -10.6199999       1.47821708E-02
  -10.6099997       1.45197986E-02
  -10.6000004       1.42667573E-02
  -10.5900002       1.40247308E-02
  -10.5799999       1.37953451E-02
  -10.5699997       1.35801751E-02
  -10.5600004       1.33806746E-02
  -10.5500002       1.31982220E-02
  -10.5400000       1.30340206E-02
  -10.5299997       1.28891813E-02
  -10.5200005       1.27646020E-02
  -10.5100002       1.26609867E-02
  -10.5000000       1.25788730E-02
  -10.4899998       1.25185335E-02
  -10.4799995       1.24800233E-02
  -10.4700003       1.24631319E-02
  -10.4600000       1.24674523E-02
  -10.4499998       1.24923922E-02
  -10.4399996       1.25371478E-02
  -10.4300003       1.26008354E-02
  -10.4200001       1.26824621E-02
  -10.4099998       1.27810054E-02
  -10.3999996       1.28953457E-02
  -10.3900003       1.30243637E-02
  -10.3800001       1.31669100E-02
  -10.3699999       1.33217480E-02
  -10.3599997       1.34875914E-02
  -10.3500004       1.36630787E-02
  -10.3400002       1.38467429E-02
  -10.3299999       1.40371025E-02
  -10.3199997       1.42325694E-02
  -10.3100004       1.44315837E-02
  -10.3000002       1.46326516E-02
  -10.2900000       1.48343882E-02
  -10.2799997       1.50354914E-02
  -10.2700005       1.52349183E-02
  -10.2600002       1.54316919E-02
  -10.2500000       1.56250410E-02
  -10.2399998       1.58142839E-02
  -10.2299995       1.59988627E-02
  -10.2200003       1.61782391E-02
  -10.2100000       1.63519401E-02
  -10.1999998       1.65194701E-02
  -10.1899996       1.66804679E-02
  -10.1800003       1.68345887E-02
  -10.1700001       1.69817340E-02
  -10.1599998       1.71218831E-02
  -10.1499996       1.72553062E-02
  -10.1400003       1.73825100E-02
  -10.1300001       1.75042469E-02
  -10.1199999       1.76215488E-02
  -10.1099997       1.77355986E-02
  -10.1000004       1.78478789E-02
  -10.0900002       1.79599505E-02
  -10.0799999       1.80735141E-02
  -10.0699997       1.81904677E-02
  -10.0600004       1.83128137E-02
  -10.0500002       1.84426028E-02
  -10.0400000       1.85819883E-02
  -10.0299997       1.87333021E-02
  -10.0200005       1.88988112E-02
  -10.0100002       1.90808922E-02
  -10.0000000       1.92818679E-02
  -9.98999977       1.95040852E-02
  -9.97999954       1.97497178E-02
  -9.97000027       2.00209655E-02
  -9.96000004       2.03197431E-02
  -9.94999981       2.06479989E-02
  -9.93999958       2.10073981E-02
  -9.93000031       2.13994887E-02
  -9.92000008       2.18257587E-02
  -9.90999985       2.22874526E-02
  -9.89999962       2.27856766E-02
  -9.89000034       2.33214740E-02
  -9.88000011       2.38956884E-02
  -9.86999989       2.45090537E-02
  -9.85999966       2.51620766E-02
  -9.85000038       2.58552115E-02
  -9.84000015       2.65886951E-02
  -9.82999992       2.73624957E-02
  -9.81999969       2.81764753E-02
  -9.81000042       2.90303230E-02
  -9.80000019       2.99235154E-02
  -9.78999996       3.08552850E-02
  -9.77999973       3.18247415E-02
  -9.77000046       3.28308344E-02
  -9.76000023       3.38723324E-02
  -9.75000000       3.49477269E-02
  -9.73999977       3.60553935E-02
  -9.72999954       3.71934511E-02
  -9.72000027       3.83597352E-02
  -9.71000004       3.95517312E-02
  -9.69999981       4.07667942E-02
  -9.68999958       4.20018323E-02
  -9.68000031       4.32536751E-02
  -9.67000008       4.45188917E-02
  -9.65999985       4.57941219E-02
  -9.64999962       4.70758229E-02
  -9.64000034       4.83606383E-02
  -9.63000011       4.96450365E-02
  -9.61999989       5.09257168E-02
  -9.60999966       5.21993861E-02
  -9.60000038       5.34626581E-02
  -9.59000015       5.47120571E-02
  -9.57999992       5.59441559E-02
  -9.56999969       5.71553335E-02
  -9.56000042       5.83420023E-02
  -9.55000019       5.95004074E-02
  -9.53999996       6.06270880E-02
  -9.52999973       6.17185123E-02
  -9.52000046       6.27713352E-02
  -9.51000023       6.37824982E-02
  -9.50000000       6.47491291E-02
  -9.48999977       6.56686276E-02
  -9.47999954       6.65388703E-02
  -9.47000027       6.73581213E-02
  -9.46000004       6.81250766E-02
  -9.44999981       6.88391700E-02
  -9.43999958       6.95003122E-02
  -9.43000031       7.01093003E-02
  -9.42000008       7.06673339E-02
  -9.40999985       7.11766332E-02
  -9.39999962       7.16399476E-02
  -9.39000034       7.20608234E-02
  -9.38000011       7.24433139E-02
  -9.36999989       7.27922544E-02
  -9.35999966       7.31128529E-02
  -9.35000038       7.34110698E-02
  -9.34000015       7.36934841E-02
  -9.32999992       7.39672333E-02
  -9.31999969       7.42400587E-02
  -9.31000042       7.45200813E-02
  -9.30000019       7.48159587E-02
  -9.28999996       7.51364753E-02
  -9.27999973       7.54906237E-02
  -9.27000046       7.58874193E-02
  -9.26000023       7.63355568E-02
  -9.25000000       7.68435299E-02
  -9.23999977       7.74196014E-02
  -9.22999954       7.80713558E-02
  -9.22000027       7.88060352E-02
  -9.21000004       7.96301886E-02
  -9.19999981       8.05495232E-02
  -9.18999958       8.15691650E-02
  -9.18000031       8.26931149E-02
  -9.17000008       8.39244574E-02
  -9.15999985       8.52651149E-02
  -9.14999962       8.67161155E-02
  -9.14000034       8.82771835E-02
  -9.13000011       8.99469703E-02
  -9.11999989       9.17230323E-02
  -9.10999966       9.36018899E-02
  -9.10000038       9.55786705E-02
  -9.09000015       9.76474732E-02
  -9.07999992       9.98015553E-02
  -9.06999969      0.102032743    
  -9.06000042      0.104331903    
  -9.05000019      0.106689095    
  -9.03999996      0.109093338    
  -9.02999973      0.111532852    
  -9.02000046      0.113995612    
  -9.01000023      0.116468720    
  -9.00000000      0.118939251    
  -8.98999977      0.121393777    
  -8.97999954      0.123819329    
  -8.97000027      0.126202613    
  -8.96000004      0.128530622    
  -8.94999981      0.130790651    
  -8.93999958      0.132970423    
  -8.93000031      0.135058179    
  -8.92000008      0.137043342    
  -8.90999985      0.138915837    
  -8.89999962      0.140666217    
  -8.89000034      0.142286658    
  -8.88000011      0.143770263    
  -8.86999989      0.145111114    
  -8.85999966      0.146304592    
  -8.85000038      0.147347271    
  -8.84000015      0.148236826    
  -8.82999992      0.148971900    
  -8.81999969      0.149552971    
  -8.81000042      0.149981141    
  -8.80000019      0.150258765    
  -8.78999996      0.150389224    
  -8.77999973      0.150377274    
  -8.77000046      0.150228307    
  -8.76000023      0.149948955    
  -8.75000000      0.149546668    
  -8.73999977      0.149029329    
  -8.72999954      0.148406044    
  -8.72000027      0.147685975    
  -8.71000004      0.146879196    
  -8.69999981      0.145996183    
  -8.68999958      0.145047337    
  -8.68000031      0.144043997    
  -8.67000008      0.142997101    
  -8.65999985      0.141918004    
  -8.64999962      0.140817747    
  -8.64000034      0.139707625    
  -8.63000011      0.138598129    
  -8.61999989      0.137499630    
  -8.60999966      0.136421710    
  -8.60000038      0.135373607    
  -8.59000015      0.134364069    
  -8.57999992      0.133400872    
  -8.56999969      0.132491633    
  -8.56000042      0.131642848    
  -8.55000019      0.130861655    
  -8.53999996      0.130153418    
  -8.52999973      0.129524186    
  -8.52000046      0.128978848    
  -8.51000023      0.128521830    
  -8.50000000      0.128157690    
  -8.48999977      0.127889931    
  -8.47999954      0.127721623    
  -8.47000027      0.127655447    
  -8.46000004      0.127693057    
  -8.44999981      0.127836436    
  -8.43999958      0.128086150    
  -8.43000031      0.128443047    
  -8.42000008      0.128906965    
  -8.40999985      0.129477322    
  -8.39999962      0.130153432    
  -8.39000034      0.130934343    
  -8.38000011      0.131818593    
  -8.36999989      0.132804736    
  -8.35999966      0.133891419    
  -8.35000038      0.135076568    
  -8.34000015      0.136358947    
  -8.32999992      0.137737051    
  -8.31999969      0.139209554    
  -8.31000042      0.140775278    
  -8.30000019      0.142433405    
  -8.28999996      0.144182488    
  -8.27999973      0.146022767    
  -8.27000046      0.147953734    
  -8.26000023      0.149975374    
  -8.25000000      0.152088583    
  -8.23999977      0.154293925    
  -8.22999954      0.156592727    
  -8.22000027      0.158986449    
  -8.21000004      0.161477596    
  -8.19999981      0.164067551    
  -8.18999958      0.166758835    
  -8.18000031      0.169554189    
  -8.17000008      0.172455892    
  -8.15999985      0.175466225    
  -8.14999962      0.178587765    
  -8.14000034      0.181822106    
  -8.13000011      0.185170919    
  -8.11999989      0.188635468    
  -8.10999966      0.192216396    
  -8.10000038      0.195913151    
  -8.09000015      0.199725255    
  -8.07999992      0.203651577    
  -8.06999969      0.207689121    
  -8.06000042      0.211834580    
  -8.05000019      0.216084376    
  -8.03999996      0.220433518    
  -8.02999973      0.224876538    
  -8.02000046      0.229406893    
  -8.01000023      0.234018102    
  -8.00000000      0.238701671    
  -7.98999977      0.243449986    
  -7.98000002      0.248253971    
  -7.96999979      0.253104806    
  -7.96000004      0.257993013    
  -7.94999981      0.262908787    
  -7.94000006      0.267842531    
  -7.92999983      0.272784323    
  -7.92000008      0.277724892    
  -7.90999985      0.282654047    
  -7.90000010      0.287563264    
  -7.88999987      0.292442650    
  -7.88000011      0.297283590    
  -7.86999989      0.302077442    
  -7.86000013      0.306815892    
  -7.84999990      0.311491877    
  -7.84000015      0.316097438    
  -7.82999992      0.320626944    
  -7.82000017      0.325074613    
  -7.80999994      0.329436302    
  -7.80000019      0.333708137    
  -7.78999996      0.337886393    
  -7.78000021      0.341969401    
  -7.76999998      0.345955640    
  -7.76000023      0.349843502    
  -7.75000000      0.353633165    
  -7.73999977      0.357324988    
  -7.73000002      0.360920817    
  -7.71999979      0.364423245    
  -7.71000004      0.367835015    
  -7.69999981      0.371160597    
  -7.69000006      0.374404788    
  -7.67999983      0.377572060    
  -7.67000008      0.380667955    
  -7.65999985      0.383699566    
  -7.65000010      0.386672586    
  -7.63999987      0.389593095    
  -7.63000011      0.392469227    
  -7.61999989      0.395308554    
  -7.61000013      0.398118496    
  -7.59999990      0.400908977    
  -7.59000015      0.403688252    
  -7.57999992      0.406465799    
  -7.57000017      0.409251362    
  -7.55999994      0.412054181    
  -7.55000019      0.414884627    
  -7.53999996      0.417751431    
  -7.53000021      0.420663357    
  -7.51999998      0.423631012    
  -7.51000023      0.426663250    
  -7.50000000      0.429769307    
  -7.48999977      0.432956725    
  -7.48000002      0.436235249    
  -7.46999979      0.439612448    
  -7.46000004      0.443094969    
  -7.44999981      0.446691304    
  -7.44000006      0.450406373    