  -16.0000000       0.00000000    
  -15.9899998       0.00000000    
  -15.9799995       0.00000000    
  -15.9700003       0.00000000    
  -15.9600000       0.00000000    
  -15.9499998       0.00000000    
  -15.9399996       0.00000000    
  -15.9300003       0.00000000    
  -15.9200001       0.00000000    
  -15.9099998       0.00000000    
  -15.8999996       0.00000000    
  -15.8900003       0.00000000    
  -15.8800001       0.00000000    
  -15.8699999       0.00000000    
  -15.8599997      -0.00000000    
  -15.8500004      -0.00000000    
  -15.8400002      -4.20389539E-45
  -15.8299999      -4.48415509E-44
  -15.8199997      -4.31599927E-43
  -15.8100004      -3.28884750E-42
  -15.8000002      -2.06789614E-41
  -15.7900000      -1.10611494E-40
  -15.7799997      -5.14548388E-40
  -15.7700005      -2.11614986E-39
  -15.7600002      -7.78949586E-39
  -15.7500000      -2.59018418E-38
  -15.7399998      -7.83383239E-38
  -15.7299995      -2.16522204E-37
  -15.7200003      -5.48442166E-37
  -15.7100000      -1.27402917E-36
  -15.6999998      -2.70945618E-36
  -15.6899996      -5.24731057E-36
  -15.6800003      -9.15132468E-36
  -15.6700001      -1.40460339E-35
  -15.6599998      -1.79964784E-35
  -15.6499996      -1.62860567E-35
  -15.6400003      -4.94060216E-37
  -15.6300001       4.07652286E-35
  -15.6199999       1.17369770E-34
  -15.6099997       2.27533921E-34
  -15.6000004       3.42132452E-34
  -15.5900002       3.88707054E-34
  -15.5799999       2.47761057E-34
  -15.5699997      -2.19828762E-34
  -15.5600004      -1.09749745E-33
  -15.5500002      -2.29162991E-33
  -15.5400000      -3.40446270E-33
  -15.5299997      -3.68888090E-33
  -15.5200005      -2.19772095E-33
  -15.5100002       1.80144105E-33
  -15.5000000       8.21348686E-33
  -15.4899998       1.55792660E-32
  -15.4799995       2.10439952E-32
  -15.4700003       2.11694454E-32
  -15.4600000       1.34514214E-32
  -15.4499998      -2.35599153E-33
  -15.4399996      -2.45336221E-32
  -15.4300003      -5.21763386E-32
  -15.4200001      -8.90510086E-32
  -15.4099998      -1.43634219E-31
  -15.3999996      -2.18206711E-31
  -15.3900003      -2.83137774E-31
  -15.3800001      -2.44838546E-31
  -15.3699999       6.41380575E-32
  -15.3599997       8.27714849E-31
  -15.3500004       2.08408020E-30
  -15.3400002       3.47499301E-30
  -15.3299999       4.02692767E-30
  -15.3199997       2.20059595E-30
  -15.3100004      -3.51595890E-30
  -15.3000002      -1.33515123E-29
  -15.2900000      -2.46352169E-29
  -15.2799997      -3.07275773E-29
  -15.2700005      -2.18860317E-29
  -15.2600002       1.06983204E-29
  -15.2500000       6.77024741E-29
  -15.2399998       1.33686477E-28
  -15.2299995       1.73360923E-28
  -15.2200003       1.38365741E-28
  -15.2100000      -1.15042371E-29
  -15.1999998      -2.75686688E-28
  -15.1899996      -5.82141022E-28
  -15.1800003      -7.80349547E-28
  -15.1700001      -6.79297014E-28
  -15.1599998      -1.35980019E-28
  -15.1499996       8.30190399E-28
  -15.1400003       1.95458547E-27
  -15.1300001       2.74712779E-27
  -15.1199999       2.65719206E-27
  -15.1099997       1.34966888E-27
  -15.1000004      -1.03948910E-27
  -15.0900002      -3.85603762E-27
  -15.0799999      -6.21696388E-27
  -15.0699997      -7.55656101E-27
  -15.0600004      -8.05816561E-27
  -15.0500002      -8.42017881E-27
  -15.0400000      -8.59380140E-27
  -15.0299997      -5.84997022E-27
  -15.0200005       6.37178438E-27
  -15.0100002       3.65354827E-26
  -15.0000000       8.81065248E-26
  -14.9899998       1.48300562E-25
  -14.9799995       1.77699054E-25
  -14.9700003       1.10827007E-25
  -14.9600000      -1.20684983E-25
  -14.9499998      -5.36916284E-25
  -14.9399996      -1.04132903E-24
  -14.9300003      -1.36967730E-24
  -14.9200001      -1.11038118E-24
  -14.9099998       1.50575773E-25
  -14.8999996       2.54678931E-24
  -14.8900003       5.58037838E-24
  -14.8800001       7.87900467E-24
  -14.8699999       7.31493441E-24
  -14.8599997       1.71447321E-24
  -14.8500004      -9.80785320E-24
  -14.8400002      -2.52254178E-23
  -14.8299999      -3.84664165E-23
  -14.8199997      -3.98536347E-23
  -14.8100004      -1.90630920E-23
  -14.8000002       2.92621453E-23
  -14.7900000       9.85896271E-23
  -14.7799997       1.65363686E-22
  -14.7700005       1.89932892E-22
  -14.7600002       1.27329029E-22
  -14.7500000      -5.13005366E-23
  -14.7399998      -3.31279146E-22
  -14.7299995      -6.32183840E-22
  -14.7200003      -8.06576727E-22
  -14.7100000      -6.74294169E-22
  -14.6999998      -9.70298219E-23
  -14.6899996       9.20735325E-22
  -14.6800003       2.14130282E-21
  -14.6700001       3.06808620E-21
  -14.6599998       3.03834385E-21
  -14.6499996       1.45890891E-21
  -14.6400003      -1.84954838E-21
  -14.6300001      -6.31017315E-21
  -14.6199999      -1.04235016E-20
  -14.6099997      -1.19628581E-20
  -14.6000004      -8.64260438E-21
  -14.5900002       8.01441987E-22
  -14.5799999       1.54164720E-20
  -14.5699997       3.12381850E-20
  -14.5600004       4.14989308E-20
  -14.5500002       3.82806230E-20
  -14.5400000       1.55998186E-20
  -14.5299997      -2.67711092E-20
  -14.5200005      -8.01463309E-20
  -14.5100002      -1.26234469E-19
  -14.5000000      -1.40478869E-19
  -14.4899998      -9.99254666E-20
  -14.4799995       5.70540194E-21
  -14.4700003       1.63150312E-19
  -14.4600000       3.29875828E-19
  -14.4499998       4.38464971E-19
  -14.4399996       4.13928623E-19
  -14.4300003       2.02378254E-19
  -14.4200001      -1.96148331E-19
  -14.4099998      -7.02910581E-19
  -14.3999996      -1.15784875E-18
  -14.3900003      -1.34991492E-18
  -14.3800001      -1.08184119E-18
  -14.3699999      -2.57046944E-19
  -14.3599997       1.03789898E-18
  -14.3500004       2.49084700E-18
  -14.3400002       3.59515152E-18
  -14.3299999       3.77114371E-18
  -14.3199997       2.56501449E-18
  -14.3100004      -1.23803567E-19
  -14.3000002      -3.86535048E-18
  -14.2900000      -7.65996875E-18
  -14.2799997      -1.01033213E-17
  -14.2700005      -9.76619558E-18
  -14.2600002      -5.72086383E-18
  -14.2500000       1.93365772E-18
  -14.2399998       1.17446396E-17
  -14.2299995       2.09652301E-17
  -14.2200003       2.61062668E-17
  -14.2100000       2.39380792E-17
  -14.1999998       1.27222885E-17
  -14.1899996      -6.69696177E-18
  -14.1800003      -3.03728677E-17
  -14.1700001      -5.16593781E-17
  -14.1599998      -6.26647481E-17
  -14.1499996      -5.65497724E-17
  -14.1400003      -3.01170439E-17
  -14.1300001       1.41067646E-17
  -14.1199999       6.71247803E-17
  -14.1099997       1.14644229E-16
  -14.1000004       1.40256493E-16
  -14.0900002       1.30069281E-16
  -14.0799999       7.76436457E-17
  -14.0699997      -1.22523241E-17
  -14.0600004      -1.22488482E-16
  -14.0500002      -2.25894184E-16
  -14.0400000      -2.91027233E-16
  -14.0299997      -2.90315408E-16
  -14.0200005      -2.08617981E-16
  -14.0100002      -4.98428266E-17
  -14.0000000       1.60515046E-16
  -13.9899998       3.78178691E-16
  -13.9799995       5.48198876E-16
  -13.9700003       6.16941212E-16
  -13.9600000       5.45436278E-16
  -13.9499998       3.21094282E-16
  -13.9399996      -3.49860110E-17
  -13.9300003      -4.67040573E-16
  -13.9200001      -8.90737200E-16
  -13.9099998      -1.20587411E-15
  -13.8999996      -1.31420285E-15
  -13.8900003      -1.14016649E-15
  -13.8800001      -6.51774489E-16
  -13.8699999       1.21725742E-16
  -13.8599997       1.07932845E-15
  -13.8500004       2.04930431E-15
  -13.8400002       2.80596372E-15
  -13.8299999       3.10472791E-15
  -13.8199997       2.73462596E-15
  -13.8100004       1.58196553E-15
  -13.8000002      -3.07375869E-16
  -13.7900000      -2.68500000E-15
  -13.7799997      -5.09639777E-15
  -13.7700005      -6.93304302E-15
  -13.7600002      -7.54586162E-15
  -13.7500000      -6.40896892E-15
  -13.7399998      -3.30302361E-15
  -13.7299995       1.52926431E-15
  -13.7200003       7.31033733E-15
  -13.7100000       1.27850823E-14
  -13.6999998       1.64308078E-14
  -13.6899996       1.68031872E-14
  -13.6800003       1.29557594E-14
  -13.6700001       4.83125358E-15
  -13.6599998      -6.49595412E-15
  -13.6499996      -1.88342858E-14
  -13.6400003      -2.92058620E-14
  -13.6300001      -3.44751896E-14
  -13.6199999      -3.21657238E-14
  -13.6099997      -2.12748029E-14
  -13.6000004      -2.85590139E-15
  -13.5900002       1.98453348E-14
  -13.5799999       4.18311490E-14
  -13.5699997       5.73589163E-14
  -13.5600004       6.13429798E-14
  -13.5500002       5.08329612E-14
  -13.5400000       2.61694963E-14
  -13.5299997      -8.56204535E-15
  -13.5200005      -4.60269504E-14
  -13.5100002      -7.71056667E-14
  -13.5000000      -9.30758766E-14
  -13.4899998      -8.80153426E-14
  -13.4799995      -6.07862149E-14
  -13.4700003      -1.59800457E-14
  -13.4600000       3.65965701E-14
  -13.4499998       8.39624187E-14
  -13.4399996       1.13167078E-13
  -13.4300003       1.14911498E-13
  -13.4200001       8.66029863E-14
  -13.4099998       3.38842656E-14
  -13.3999996      -3.00209110E-14
  -13.3900003      -8.72625540E-14
  -13.3800001      -1.20079863E-13
  -13.3699999      -1.16140929E-13
  -13.3599997      -7.30168286E-14
  -13.3500004      -3.31143719E-16
  -13.3400002       8.14084179E-14
  -13.3299999       1.45462825E-13
  -13.3199997       1.66160637E-13
  -13.3100004       1.27093079E-13
  -13.3000002       2.79144553E-14
  -13.2900000      -1.12499467E-13
  -13.2799997      -2.58076736E-13
  -13.2700005      -3.63041465E-13
  -13.2600002      -3.83622875E-13
  -13.2500000      -2.91320109E-13
  -13.2399998      -8.42019664E-14
  -13.2299995       2.07278679E-13
  -13.2200003       5.22479195E-13
  -13.2100000       7.81453515E-13
  -13.1999998       9.02923786E-13
  -13.1899996       8.25569647E-13
  -13.1800003       5.27440396E-13
  -13.1700001       3.80983866E-14
  -13.1599998      -5.60676234E-13
  -13.1499996      -1.14730697E-12
  -13.1400003      -1.58443148E-12
  -13.1300001      -1.74979486E-12
  -13.1199999      -1.56704402E-12
  -13.1099997      -1.02876106E-12
  -13.1000004      -2.05314471E-13
  -13.0900002       7.63877026E-13
  -13.0799999       1.69592801E-12
  -13.0699997       2.40189964E-12
  -13.0600004       2.72773167E-12
  -13.0500002       2.58900605E-12
  -13.0400000       1.99089421E-12
  -13.0299997       1.02799605E-12
  -13.0200005      -1.36320398E-13
  -13.0100002      -1.30621902E-12
  -13.0000000      -2.29626756E-12
  -12.9899998      -2.96986632E-12
  -12.9799995      -3.26317966E-12
  -12.9700003      -3.18831940E-12
  -12.9600000      -2.81527384E-12
  -12.9499998      -2.23830221E-12
  -12.9399996      -1.53743641E-12
  -12.9300003      -7.47907920E-13
  -12.9200001       1.51209625E-13
  -12.9099998       1.22289440E-12
  -12.8999996       2.53386288E-12
  -12.8900003       4.10137549E-12
  -12.8800001       5.84074542E-12
  -12.8699999       7.53174606E-12
  -12.8599997       8.81970018E-12
  -12.8500004       9.25976917E-12
  -12.8400002       8.40224938E-12
  -12.8299999       5.90488986E-12
  -12.8199997       1.64867555E-12
  -12.8100004      -4.17131824E-12
  -12.8000002      -1.10064449E-11
  -12.7900000      -1.79840136E-11
  -12.7799997      -2.40093223E-11
  -12.7700005      -2.79273497E-11
  -12.7600002      -2.87165743E-11
  -12.7500000      -2.56782044E-11
  -12.7399998      -1.85830518E-11
  -12.7299995      -7.74593670E-12
  -12.7200003       5.98748048E-12
  -12.7100000       2.13377701E-11
  -12.6999998       3.67511889E-11
  -12.6899996       5.05875862E-11
  -12.6800003       6.12990630E-11
  -12.6700001       6.75678888E-11
  -12.6599998       6.83863036E-11
  -12.6499996       6.30796040E-11
  -12.6400003       5.12913462E-11
  -12.6300001       3.29610748E-11
  -12.6199999       8.32685136E-12
  -12.6099997      -2.20249079E-11
  -12.6000004      -5.70568211E-11
  -12.5900002      -9.51424980E-11
  -12.5799999      -1.33930700E-10
  -12.5699997      -1.70260972E-10
  -12.5600004      -2.00181857E-10
  -12.5500002      -2.19109272E-10
  -12.5400000      -2.22140722E-10
  -12.5299997      -2.04513115E-10
  -12.5200005      -1.62163880E-10
  -12.5100002      -9.23384633E-11
  -12.5000000       5.82188594E-12
  -12.4899998       1.30769798E-10
  -12.4799995       2.78164186E-10
  -12.4700003       4.40624537E-10
  -12.4600000       6.07632389E-10
  -12.4499998       7.65569441E-10
  -12.4399996       8.97883878E-10
  -12.4300003       9.85380999E-10
  -12.4200001       1.00665520E-09
  -12.4099998       9.38690126E-10
  -12.3999996       7.57662766E-10
  -12.3900003       4.39978748E-10
  -12.3800001      -3.64475602E-11
  -12.3699999      -6.90703994E-10
  -12.3599997      -1.53724433E-09
  -12.3500004      -2.58421573E-09
  -12.3400002      -3.83189924E-09
  -12.3299999      -5.27139443E-09
  -12.3199997      -6.88370871E-09
  -12.3100004      -8.63935679E-09
  -12.3000002      -1.04985389E-08
  -12.2900000      -1.24118946E-08
  -12.2799997      -1.43218024E-08
  -12.2700005      -1.61641580E-08
  -12.2600002      -1.78704784E-08
  -12.2500000      -1.93702494E-08
  -12.2399998      -2.05933581E-08
  -12.2299995      -2.14724736E-08
  -12.2200003      -2.19453664E-08
  -12.2100000      -2.19569767E-08
  -12.1999998      -2.14611671E-08
  -12.1899996      -2.04222133E-08
  -12.1800003      -1.88158378E-08
  -12.1700001      -1.66298566E-08
  -12.1599998      -1.38644536E-08
  -12.1499996      -1.05319362E-08
  -12.1400003      -6.65625643E-09
  -12.1300001      -2.27217556E-09
  -12.1199999       2.57576627E-09
  -12.1099997       7.83438292E-09
  -12.1000004       1.34430174E-08
  -12.0900002       1.93346601E-08
  -12.0799999       2.54370178E-08
  -12.0699997       3.16734088E-08
  -12.0600004       3.79636802E-08
  -12.0500002       4.42250538E-08
  -12.0400000       5.03730213E-08
  -12.0299997       5.63222819E-08
  -12.0200005       6.19879330E-08
  -12.0100002       6.72865994E-08
  -12.0000000       7.21377802E-08
  -11.9899998       7.64651560E-08
  -11.9799995       8.01977436E-08
  -11.9700003       8.32709119E-08
  -11.9600000       8.56269580E-08
  -11.9499998       8.72154260E-08
  -11.9399996       8.79928024E-08
  -11.9300003       8.79221034E-08
  -11.9200001       8.69719372E-08
  -11.9099998       8.51157935E-08
  -11.8999996       8.23312973E-08
  -11.8900003       7.85998751E-08
  -11.8800001       7.39065982E-08
  -11.8699999       6.82410644E-08
  -11.8599997       6.15982572E-08
  -11.8500004       5.39800311E-08
  -11.8400002       4.53968383E-08
  -11.8299999       3.58692560E-08
  -11.8199997       2.54295465E-08
  -11.8100004       1.41225778E-08
  -11.8000002       2.00638350E-09
  -11.7900000      -1.08478249E-08
  -11.7799997      -2.43561953E-08
  -11.7700005      -3.84231491E-08
  -11.7600002      -5.29428128E-08
  -11.7500000      -6.78004142E-08
  -11.7399998      -8.28744149E-08
  -11.7299995      -9.80381287E-08
  -11.7200003      -1.13161903E-07
  -11.7100000      -1.28115246E-07
  -11.6999998      -1.42768641E-07
  -11.6899996      -1.56995554E-07
  -11.6800003      -1.70673800E-07
  -11.6700001      -1.83686893E-07
  -11.6599998      -1.95924471E-07
  -11.6499996      -2.07282525E-07
  -11.6400003      -2.17663157E-07
  -11.6300001      -2.26973611E-07
  -11.6199999      -2.35125611E-07
  -11.6099997      -2.42034105E-07
  -11.6000004      -2.47616470E-07
  -11.5900002      -2.51791590E-07
  -11.5799999      -2.54479602E-07
  -11.5699997      -2.55601577E-07
  -11.5600004      -2.55079527E-07
  -11.5500002      -2.52836912E-07
  -11.5400000      -2.48799154E-07
  -11.5299997      -2.42894259E-07
  -11.5200005      -2.35054202E-07
  -11.5100002      -2.25216439E-07
  -11.5000000      -2.13325336E-07
  -11.4899998      -1.99334323E-07
  -11.4799995      -1.83207959E-07
  -11.4700003      -1.64924074E-07
  -11.4600000      -1.44475024E-07
  -11.4499998      -1.21869078E-07
  -11.4399996      -9.71306306E-08
  -11.4300003      -7.02995138E-08
  -11.4200001      -4.14296153E-08
  -11.4099998      -1.05868496E-08
  -11.3999996       2.21534560E-08
  -11.3900003       5.67084300E-08
  -11.3800001       9.29900636E-08
  -11.3699999       1.30907182E-07
  -11.3599997       1.70366206E-07
  -11.3500004       2.11271882E-07
  -11.3400002       2.53527446E-07
  -11.3299999       2.97034404E-07
  -11.3199997       3.41693067E-07
  -11.3100004       3.87402480E-07
  -11.3000002       4.34061320E-07
  -11.2900000       4.81569145E-07
  -11.2799997       5.29827389E-07
  -11.2700005       5.78741094E-07
  -11.2600002       6.28220505E-07
  -11.2500000       6.78181777E-07
  -11.2399998       7.28548287E-07
  -11.2299995       7.79250627E-07
  -11.2200003       8.30226725E-07
  -11.2100000       8.81421215E-07
  -11.1999998       9.32783962E-07
  -11.1899996       9.84269604E-07
  -11.1800003       1.03583579E-06
  -11.1700001       1.08744212E-06
  -11.1599998       1.13904798E-06
  -11.1499996       1.19061121E-06
  -11.1400003       1.24208748E-06
  -11.1300001       1.29343016E-06
  -11.1199999       1.34458867E-06
  -11.1099997       1.39550843E-06
  -11.1000004       1.44613307E-06
  -11.0900002       1.49640471E-06
  -11.0799999       1.54626605E-06
  -11.0699997       1.59566139E-06
  -11.0600004       1.64454093E-06
  -11.0500002       1.69285954E-06
  -11.0400000       1.74058437E-06
  -11.0299997       1.78768914E-06
  -11.0200005       1.83415932E-06
  -11.0100002       1.87998933E-06
  -11.0000000       1.92518269E-06
  -10.9899998       1.96974452E-06
  -10.9799995       2.01368584E-06
  -10.9700003       2.05701281E-06
  -10.9600000       2.09972791E-06
  -10.9499998       2.14182387E-06
  -10.9399996       2.18328569E-06
  -10.9300003       2.22408812E-06
  -10.9200001       2.26419752E-06
  -10.9099998       2.30357136E-06
  -10.8999996       2.34216577E-06
  -10.8900003       2.37993663E-06
  -10.8800001       2.41684052E-06
  -10.8699999       2.45284264E-06
  -10.8599997       2.48791002E-06
  -10.8500004       2.52202062E-06
  -10.8400002       2.55515511E-06
  -10.8299999       2.58729688E-06
  -10.8199997       2.61843275E-06
  -10.8100004       2.64854566E-06
  -10.8000002       2.67761584E-06
  -10.7900000       2.70561895E-06
  -10.7799997       2.73252749E-06
  -10.7700005       2.75831303E-06
  -10.7600002       2.78294874E-06
  -10.7500000       2.80641120E-06
  -10.7399998       2.82869428E-06
  -10.7299995       2.84979569E-06
  -10.7200003       2.86974046E-06
  -10.7100000       2.88856563E-06
  -10.6999998       2.90632897E-06
  -10.6899996       2.92310142E-06
  -10.6800003       2.93897233E-06
  -10.6700001       2.95403765E-06
  -10.6599998       2.96839949E-06
  -10.6499996       2.98216605E-06
  -10.6400003       2.99545036E-06
  -10.6300001       3.00836768E-06
  -10.6199999       3.02103604E-06
  -10.6099997       3.03358320E-06
  -10.6000004       3.04614036E-06
  -10.5900002       3.05885283E-06
  -10.5799999       3.07186565E-06
  -10.5699997       3.08533322E-06
  -10.5600004       3.09940378E-06
  -10.5500002       3.11422150E-06
  -10.5400000       3.12992347E-06
  -10.5299997       3.14663384E-06
  -10.5200005       3.16446040E-06
  -10.5100002       3.18349294E-06
  -10.5000000       3.20380263E-06
  -10.4899998       3.22544543E-06
  -10.4799995       3.24846633E-06
  -10.4700003       3.27289558E-06
  -10.4600000       3.29875752E-06
  -10.4499998       3.32606191E-06
  -10.4399996       3.35480945E-06
  -10.4300003       3.38499376E-06
  -10.4200001       3.41661166E-06
  -10.4099998       3.44963019E-06
  -10.3999996       3.48402023E-06
  -10.3900003       3.51973313E-06
  -10.3800001       3.55671273E-06
  -10.3699999       3.59488808E-06
  -10.3599997       3.63418826E-06
  -10.3500004       3.67452481E-06
  -10.3400002       3.71581700E-06
  -10.3299999       3.75797345E-06
  -10.3199997       3.80090933E-06
  -10.3100004       3.84454961E-06
  -10.3000002       3.88881563E-06
  -10.2900000       3.93364598E-06
  -10.2799997       3.97899112E-06
  -10.2700005       4.02480191E-06
  -10.2600002       4.07104608E-06
  -10.2500000       4.11771180E-06
  -10.2399998       4.16478179E-06
  -10.2299995       4.21227787E-06
  -10.2200003       4.26022643E-06
  -10.2100000       4.30866703E-06
  -10.1999998       4.35766287E-06
  -10.1899996       4.40729082E-06
  -10.1800003       4.45765727E-06
  -10.1700001       4.50886637E-06
  -10.1599998       4.56103908E-06
  -10.1499996       4.61430318E-06
  -10.1400003       4.66879146E-06
  -10.1300001       4.72464535E-06
  -10.1199999       4.78200946E-06
  -10.1099997       4.84104430E-06
  -10.1000004       4.90190405E-06
  -10.0900002       4.96475241E-06
  -10.0799999       5.02976400E-06
  -10.0699997       5.09711481E-06
  -10.0600004       5.16697764E-06
  -10.0500002       5.23953258E-06
  -10.0400000       5.31496244E-06
  -10.0299997       5.39342500E-06
  -10.0200005       5.47508080E-06
  -10.0100002       5.56007171E-06
  -10.0000000       5.64852235E-06
  -9.98999977       5.74053502E-06
  -9.97999954       5.83617839E-06
  -9.97000027       5.93552704E-06
  -9.96000004       6.03861145E-06
  -9.94999981       6.14546298E-06
  -9.93999958       6.25609800E-06
  -9.93000031       6.37051971E-06
  -9.92000008       6.48873265E-06
  -9.90999985       6.61073955E-06
  -9.89999962       6.73655541E-06
  -9.89000034       6.86618705E-06
  -9.88000011       6.99964357E-06
  -9.86999989       7.13694317E-06
  -9.85999966       7.27811039E-06
  -9.85000038       7.42316433E-06
  -9.84000015       7.57211956E-06
  -9.82999992       7.72499880E-06
  -9.81999969       7.88183752E-06
  -9.81000042       8.04267438E-06
  -9.80000019       8.20754576E-06
  -9.78999996       8.37651896E-06
  -9.77999973       8.54968403E-06
  -9.77000046       8.72712462E-06
  -9.76000023       8.90895899E-06
  -9.75000000       9.09533901E-06
  -9.73999977       9.28639838E-06
  -9.72999954       9.48228535E-06
  -9.72000027       9.68317363E-06
  -9.71000004       9.88919965E-06
  -9.69999981       1.01005144E-05
  -9.68999958       1.03172106E-05
  -9.68000031       1.05394047E-05
  -9.67000008       1.07671494E-05
  -9.65999985       1.10004239E-05
  -9.64999962       1.12391781E-05
  -9.64000034       1.14832765E-05
  -9.63000011       1.17325117E-05
  -9.61999989       1.19865772E-05
  -9.60999966       1.22450801E-05
  -9.60000038       1.25075449E-05
  -9.59000015       1.27734065E-05
  -9.57999992       1.30420040E-05
  -9.56999969       1.33126023E-05
  -9.56000042       1.35844011E-05
  -9.55000019       1.38565183E-05
  -9.53999996       1.41279934E-05
  -9.52999973       1.43978259E-05
  -9.52000046       1.46649563E-05
  -9.51000023       1.49282887E-05
  -9.50000000       1.51867134E-05
  -9.48999977       1.54391364E-05
  -9.47999954       1.56844599E-05
  -9.47000027       1.59216415E-05
  -9.46000004       1.61497064E-05
  -9.44999981       1.63678087E-05
  -9.43999958       1.65752117E-05
  -9.43000031       1.67713461E-05
  -9.42000008       1.69558207E-05
  -9.40999985       1.71283973E-05
  -9.39999962       1.72891014E-05
  -9.39000034       1.74381184E-05
  -9.38000011       1.75758923E-05
  -9.36999989       1.77031125E-05
  -9.35999966       1.78206774E-05
  -9.35000038       1.79297240E-05
  -9.34000015       1.80316383E-05
  -9.32999992       1.81280320E-05
  -9.31999969       1.82206750E-05
  -9.31000042       1.83115662E-05
  -9.30000019       1.84028722E-05
  -9.28999996       1.84968849E-05
  -9.27999973       1.85960034E-05
  -9.27000046       1.87027472E-05
  -9.26000023       1.88196173E-05
  -9.25000000       1.89491529E-05
  -9.23999977       1.90938590E-05
  -9.22999954       1.92561783E-05
  -9.22000027       1.94384556E-05
  -9.21000004       1.96428900E-05
  -9.19999981       1.98715479E-05
  -9.18999958       2.01262628E-05
  -9.18000031       2.04086700E-05
  -9.17000008       2.07201756E-05
  -9.15999985       2.10619182E-05
  -9.14999962       2.14347183E-05
  -9.14000034       2.18391579E-05
  -9.13000011       2.22754097E-05
  -9.11999989       2.27434211E-05
  -9.10999966       2.32427483E-05
  -9.10000038       2.37726981E-05
  -9.09000015       2.43322465E-05
  -9.07999992       2.49200457E-05
  -9.06999969       2.55344730E-05
  -9.06000042       2.61737096E-05
  -9.05000019       2.68356453E-05
  -9.03999996       2.75179118E-05
  -9.02999973       2.82179790E-05
  -9.02000046       2.89331183E-05
  -9.01000023       2.96604940E-05
  -9.00000000       3.03971192E-05
  -8.98999977       3.11398580E-05
  -8.97999954       3.18855855E-05
  -8.97000027       3.26311201E-05
  -8.96000004       3.33732241E-05
  -8.94999981       3.41086416E-05
  -8.93999958       3.48341491E-05
  -8.93000031       3.55465127E-05
  -8.92000008       3.62425599E-05
  -8.90999985       3.69191730E-05
  -8.89999962       3.75733616E-05
  -8.89000034       3.82021681E-05
  -8.88000011       3.88027838E-05
  -8.86999989       3.93725641E-05
  -8.85999966       3.99090495E-05
  -8.85000038       4.04099337E-05
  -8.84000015       4.08731212E-05
  -8.82999992       4.12968329E-05
  -8.81999969       4.16793991E-05
  -8.81000042       4.20195174E-05
  -8.80000019       4.23161546E-05
  -8.78999996       4.25684702E-05
  -8.77999973       4.27759624E-05
  -8.77000046       4.29384490E-05
  -8.76000023       4.30559667E-05
  -8.75000000       4.31288790E-05
  -8.73999977       4.31578846E-05
  -8.72999954       4.31438457E-05
  -8.72000027       4.30879518E-05
  -8.71000004       4.29916581E-05
  -8.69999981       4.28566018E-05
  -8.68999958       4.26847109E-05
  -8.68000031       4.24780410E-05
  -8.67000008       4.22388439E-05
  -8.65999985       4.19695170E-05
  -8.64999962       4.16724761E-05
  -8.64000034       4.13503440E-05
  -8.63000011       4.10057182E-05
  -8.61999989       4.06412655E-05
  -8.60999966       4.02595542E-05
  -8.60000038       3.98632765E-05
  -8.59000015       3.94549206E-05
  -8.57999992       3.90369678E-05
  -8.56999969       3.86117863E-05
  -8.56000042       3.81816317E-05
  -8.55000019       3.77486467E-05
  -8.53999996       3.73146941E-05
  -8.52999973       3.68815963E-05
  -8.52000046       3.64510015E-05
  -8.51000023       3.60244267E-05
  -8.50000000       3.56031996E-05
  -8.48999977       3.51884191E-05
  -8.47999954       3.47812020E-05
  -8.47000027       3.43824504E-05
  -8.46000004       3.39928774E-05
  -8.44999981       3.36131889E-05
  -8.43999958       3.32440104E-05
  -8.43000031       3.28857968E-05
  -8.42000008       3.25390865E-05
  -8.40999985       3.22041888E-05
  -8.39999962       3.18816346E-05
  -8.39000034       3.15718171E-05
  -8.38000011       3.12750926E-05
  -8.36999989       3.09921015E-05
  -8.35999966       3.07233640E-05
  -8.35000038       3.04695841E-05
  -8.34000015       3.02314529E-05
  -8.32999992       3.00096599E-05
  -8.31999969       2.98051109E-05
  -8.31000042       2.96187663E-05
  -8.30000019       2.94517340E-05
  -8.28999996       2.93050944E-05
  -8.27999973       2.91801243E-05
  -8.27000046       2.90780954E-05
  -8.26000023       2.90004082E-05
  -8.25000000       2.89484524E-05
  -8.23999977       2.89237796E-05
  -8.22999954       2.89276977E-05
  -8.22000027       2.89616710E-05
  -8.21000004       2.90272037E-05
  -8.19999981       2.91256074E-05
  -8.18999958       2.92582627E-05
  -8.18000031       2.94265392E-05
  -8.17000008       2.96316066E-05
  -8.15999985       2.98747582E-05
  -8.14999962       3.01570453E-05
  -8.14000034       3.04794667E-05
  -8.13000011       3.08429335E-05
  -8.11999989       3.12483135E-05
  -8.10999966       3.16963415E-05
  -8.10000038       3.21875996E-05
  -8.09000015       3.27225680E-05
  -8.07999992       3.33017088E-05
  -8.06999969       3.39253493E-05
  -8.06000042       3.45936205E-05
  -8.05000019       3.53065916E-05
  -8.03999996       3.60642771E-05
  -8.02999973       3.68665642E-05
  -8.02000046       3.77132747E-05
  -8.01000023       3.86040338E-05
  -8.00000000       3.95384777E-05
  -7.98999977       4.05158935E-05
  -7.98000002       4.15357754E-05
  -7.96999979       4.25973776E-05
  -7.96000004       4.36997616E-05
  -7.94999981       4.48419378E-05
  -7.94000006       4.60228875E-05
  -7.92999983       4.72412212E-05
  -7.92000008       4.84957600E-05
  -7.90999985       4.97849833E-05
  -7.90000010       5.11074213E-05
  -7.88999987       5.24613497E-05
  -7.88000011       5.38450076E-05
  -7.86999989       5.52564779E-05
  -7.86000013       5.66939161E-05
  -7.84999990       5.81553686E-05
  -7.84000015       5.96386562E-05
  -7.82999992       6.11416472E-05
  -7.82000017       6.26621331E-05
  -7.80999994       6.41977895E-05
  -7.80000019       6.57462588E-05
  -7.78999996       6.73052127E-05
  -7.78000021       6.88724176E-05
  -7.76999998       7.04453196E-05
  -7.76000023       7.20215176E-05
  -7.75000000       7.35987924E-05
  -7.73999977       7.51748448E-05
  -7.73000002       7.67473102E-05
  -7.71999979       7.83139840E-05
  -7.71000004       7.98729452E-05
  -7.69999981       8.14219675E-05
  -7.69000006       8.29594937E-05
  -7.67999983       8.44836468E-05
  -7.67000008       8.59930951E-05
  -7.65999985       8.74863108E-05
  -7.65000010       8.89622097E-05
  -7.63999987       9.04198023E-05
  -7.63000011       9.18584337E-05
  -7.61999989       9.32774637E-05
  -7.61000013       9.46764703E-05
  -7.59999990       9.60555044E-05
  -7.59000015       9.74145150E-05
  -7.57999992       9.87535968E-05
  -7.57000017       1.00073441E-04
  -7.55999994       1.01374368E-04
  -7.55000019       1.02657330E-04
  -7.53999996       1.03923419E-04
  -7.53000021       1.05173618E-04
  -7.51999998       1.06409090E-04
  -7.51000023       1.07631495E-04
  -7.50000000       1.08842170E-04
  -7.48999977       1.10042638E-04
  -7.48000002       1.11234796E-04
  -7.46999979       1.12420312E-04
  -7.46000004       1.13601178E-04
  -7.44999981       1.14779155E-04
  -7.44000006       1.15956107E-04