  -16.0000000       0.00000000    
  -15.9899998       0.00000000    
  -15.9799995       0.00000000    
  -15.9700003       0.00000000    
  -15.9600000       0.00000000    
  -15.9499998       0.00000000    
  -15.9399996       0.00000000    
  -15.9300003       0.00000000    
  -15.9200001       0.00000000    
  -15.9099998       0.00000000    
  -15.8999996       0.00000000    
  -15.8900003       0.00000000    
  -15.8800001       0.00000000    
  -15.8699999       0.00000000    
  -15.8599997      -0.00000000    
  -15.8500004      -0.00000000    
  -15.8400002      -5.60519386E-45
  -15.8299999      -8.12753109E-44
  -15.8199997      -7.44089485E-43
  -15.8100004      -5.45525492E-42
  -15.8000002      -3.32261879E-41
  -15.7900000      -1.72900612E-40
  -15.7799997      -7.84870072E-40
  -15.7700005      -3.15742952E-39
  -15.7600002      -1.13926350E-38
  -15.7500000      -3.72101074E-38
  -15.7399998      -1.10778484E-37
  -15.7299995      -3.02127976E-37
  -15.7200003      -7.57351284E-37
  -15.7100000      -1.74762339E-36
  -15.6999998      -3.71073698E-36
  -15.6899996      -7.22841280E-36
  -15.6800003      -1.28302783E-35
  -15.6700001      -2.04710849E-35
  -15.6599998      -2.85513171E-35
  -15.6499996      -3.25394285E-35
  -15.6400003      -2.37020829E-35
  -15.6300001       1.08454004E-35
  -15.6199999       8.48426364E-35
  -15.6099997       2.04317219E-34
  -15.6000004       3.53181341E-34
  -15.5900002       4.76285469E-34
  -15.5799999       4.69329941E-34
  -15.5699997       1.91158007E-34
  -15.5600004      -4.84834803E-34
  -15.5500002      -1.57364494E-33
  -15.5400000      -2.85552814E-33
  -15.5299997      -3.78485855E-33
  -15.5200005      -3.52308624E-33
  -15.5100002      -1.18750533E-33
  -15.5000000       3.65927424E-33
  -15.4899998       1.03973607E-32
  -15.4799995       1.69128041E-32
  -15.4700003       1.97465477E-32
  -15.4600000       1.51468266E-32
  -15.4499998       9.50472865E-34
  -15.4399996      -2.14062370E-32
  -15.4300003      -4.59939730E-32
  -15.4200001      -6.38300309E-32
  -15.4099998      -6.68246615E-32
  -15.3999996      -5.24298751E-32
  -15.3900003      -2.52449255E-32
  -15.3800001       8.23889223E-33
  -15.3699999       5.19257879E-32
  -15.3599997       1.32046290E-31
  -15.3500004       2.93138669E-31
  -15.3400002       5.60887882E-31
  -15.3299999       8.68368992E-31
  -15.3199997       9.75237227E-31
  -15.3100004       4.52401226E-31
  -15.3000002      -1.17015657E-30
  -15.2900000      -4.02878477E-30
  -15.2799997      -7.38803428E-30
  -15.2700005      -9.21190273E-30
  -15.2600002      -6.32166192E-30
  -15.2500000       4.35550674E-30
  -15.2399998       2.32913812E-29
  -15.2299995       4.52786882E-29
  -15.2200003       5.75429951E-29
  -15.2100000       4.16415755E-29
  -15.1999998      -1.86050114E-29
  -15.1899996      -1.23260166E-28
  -15.1800003      -2.41059046E-28
  -15.1700001      -3.02566435E-28
  -15.1599998      -2.14200315E-28
  -15.1499996       9.81330580E-29
  -15.1400003       6.20316179E-28
  -15.1300001       1.18231520E-27
  -15.1199999       1.43938014E-27
  -15.1099997       9.56952700E-28
  -15.1000004      -5.71104673E-28
  -15.0900002      -3.00784516E-27
  -15.0799999      -5.49513034E-27
  -15.0699997      -6.42940627E-27
  -15.0600004      -3.91469027E-27
  -15.0500002       3.22266955E-27
  -15.0400000       1.40783183E-26
  -15.0299997       2.45939328E-26
  -15.0200005       2.76852491E-26
  -15.0100002       1.54331222E-26
  -15.0000000      -1.64767421E-26
  -14.9899998      -6.31851947E-26
  -14.9799995      -1.06654943E-25
  -14.9700003      -1.16954878E-25
  -14.9600000      -6.19988342E-26
  -14.9499998       7.40580276E-26
  -14.9399996       2.68812661E-25
  -14.9300003       4.46954340E-25
  -14.9200001       4.87292397E-25
  -14.9099998       2.62817737E-25
  -14.8999996      -2.86872645E-25
  -14.8900003      -1.07143985E-24
  -14.8800001      -1.79601382E-24
  -14.8699999      -1.99078674E-24
  -14.8599997      -1.16404976E-24
  -14.8500004       9.26539221E-25
  -14.8400002       3.96207638E-24
  -14.8299999       6.86268282E-24
  -14.8199997       7.88898218E-24
  -14.8100004       5.18541505E-24
  -14.8000002      -2.25341608E-24
  -14.7900000      -1.34624415E-23
  -14.7799997      -2.47577463E-23
  -14.7700005      -3.00105155E-23
  -14.7600002      -2.24349943E-23
  -14.7500000       2.14348674E-24
  -14.7399998       4.14000167E-23
  -14.7299995       8.37166897E-23
  -14.7200003       1.08640043E-22
  -14.7100000       9.22937787E-23
  -14.6999998       1.78305000E-23
  -14.6899996      -1.11593160E-22
  -14.6800003      -2.62600612E-22
  -14.6700001      -3.71005777E-22
  -14.6599998      -3.56642930E-22
  -14.6499996      -1.54765384E-22
  -14.6400003       2.42614992E-22
  -14.6300001       7.50721386E-22
  -14.6199999       1.18223002E-21
  -14.6099997       1.28278507E-21
  -14.6000004       8.18646223E-22
  -14.5900002      -2.98672432E-22
  -14.5799999      -1.89181921E-21
  -14.5699997      -3.46129769E-21
  -14.5600004      -4.25348913E-21
  -14.5500002      -3.48400517E-21
  -14.5400000      -6.89249306E-22
  -14.5299997       3.89459533E-21
  -14.5200005       9.08797813E-21
  -14.5100002       1.28383391E-20
  -14.5000000       1.27235209E-20
  -14.4899998       6.86553608E-21
  -14.4799995      -4.96500380E-21
  -14.4700003      -2.04606679E-20
  -14.4600000      -3.46005256E-20
  -14.4499998      -4.05870708E-20
  -14.4399996      -3.19861372E-20
  -14.4300003      -5.67121369E-21
  -14.4200001       3.53488106E-20
  -14.4099998       8.04839304E-20
  -14.3999996       1.12707094E-19
  -14.3900003       1.12898043E-19
  -14.3800001       6.68960672E-20
  -14.3699999      -2.65641137E-20
  -14.3599997      -1.49959224E-19
  -14.3500004      -2.66365780E-19
  -14.3400002      -3.26464665E-19
  -14.3299999      -2.83294651E-19
  -14.3199997      -1.11804834E-19
  -14.3100004       1.72766041E-19
  -14.3000002       5.05387554E-19
  -14.2900000       7.77599562E-19
  -14.2799997       8.62990916E-19
  -14.2700005       6.58758575E-19
  -14.2600002       1.33053643E-19
  -14.2500000      -6.37893357E-19
  -14.2399998      -1.46032316E-18
  -14.2299995      -2.05392338E-18
  -14.2200003      -2.12495069E-18
  -14.2100000      -1.46812254E-18
  -14.1999998      -6.91691272E-20
  -14.1899996       1.82887814E-18
  -14.1800003       3.73045966E-18
  -14.1700001       4.98274080E-18
  -14.1599998       4.95412076E-18
  -14.1499996       3.25729332E-18
  -14.1400003      -4.80081346E-20
  -14.1300001      -4.34779034E-18
  -14.1199999      -8.52406478E-18
  -14.1099997      -1.11866169E-17
  -14.1000004      -1.10549430E-17
  -14.0900002      -7.40116627E-18
  -14.0799999      -4.23577013E-19
  -14.0699997       8.58643337E-18
  -14.0600004       1.73844678E-17
  -14.0500002       2.32433864E-17
  -14.0400000       2.36767033E-17
  -14.0299997       1.72431688E-17
  -14.0200005       4.20264372E-18
  -14.0100002      -1.32028837E-17
  -14.0000000      -3.09953708E-17
  -13.9899998      -4.42540073E-17
  -13.9799995      -4.83181938E-17
  -13.9700003      -4.01242386E-17
  -13.9600000      -1.93237961E-17
  -13.9499998       1.11517090E-17
  -13.9399996       4.53049204E-17
  -13.9300003       7.51056173E-17
  -13.9200001       9.21762760E-17
  -13.9099998       8.97861542E-17
  -13.8999996       6.47114180E-17
  -13.8900003       1.85233102E-17
  -13.8800001      -4.20280444E-17
  -13.8699999      -1.05693764E-16
  -13.8599997      -1.58429188E-16
  -13.8500004      -1.85896905E-16
  -13.8400002      -1.76408561E-16
  -13.8299999      -1.23854944E-16
  -13.8199997      -3.01277311E-17
  -13.8100004       9.34803891E-17
  -13.8000002       2.26383822E-16
  -13.7900000       3.40716780E-16
  -13.7799997       4.05439202E-16
  -13.7700005       3.92362443E-16
  -13.7600002       2.83410183E-16
  -13.7500000       7.78380993E-17
  -13.7399998      -2.02378022E-16
  -13.7299995      -5.10999625E-16
  -13.7200003      -7.81567571E-16
  -13.7100000      -9.37855949E-16
  -13.6999998      -9.10073480E-16
  -13.6899996      -6.54307117E-16
  -13.6800003      -1.71000705E-16
  -13.6700001       4.82774369E-16
  -13.6599998       1.19230200E-15
  -13.6499996       1.79882524E-15
  -13.6400003       2.12803835E-15
  -13.6300001       2.02977639E-15
  -13.6199999       1.42131705E-15
  -13.6099997       3.23991902E-16
  -13.6000004      -1.11772276E-15
  -13.5900002      -2.64324530E-15
  -13.5799999      -3.91275139E-15
  -13.5699997      -4.57082738E-15
  -13.5600004      -4.32674594E-15
  -13.5500002      -3.03544230E-15
  -13.5400000      -7.60456810E-16
  -13.5299997       2.19869276E-15
  -13.5200005       5.32690720E-15
  -13.5100002       7.96515563E-15
  -13.5000000       9.42637641E-15
  -13.4899998       9.13841146E-15
  -13.4799995       6.78879035E-15
  -13.4700003       2.44218996E-15
  -13.4600000      -3.39777314E-15
  -13.4499998      -9.80462913E-15
  -13.4399996      -1.55344386E-14
  -13.4300003      -1.92172446E-14
  -13.4200001      -1.96145471E-14
  -13.4099998      -1.59059557E-14
  -13.3999996      -7.95389941E-15
  -13.3900003       3.51261641E-15
  -13.3800001       1.68527522E-14
  -13.3699999       2.96506933E-14
  -13.3599997       3.90505906E-14
  -13.3500004       4.22665409E-14
  -13.3400002       3.71991900E-14
  -13.3299999       2.30484492E-14
  -13.3199997       7.84334827E-16
  -13.3100004      -2.66635909E-14
  -13.3000002      -5.46062863E-14
  -13.2900000      -7.72270567E-14
  -13.2799997      -8.85966105E-14
  -13.2700005      -8.39232858E-14
  -13.2600002      -6.08064489E-14
  -13.2500000      -2.02157644E-14
  -13.2399998       3.30684102E-14
  -13.2299995       9.07422873E-14
  -13.2200003       1.42050420E-13
  -13.2100000       1.75536791E-13
  -13.1999998       1.81209797E-13
  -13.1899996       1.52737401E-13
  -13.1800003       8.92401997E-14
  -13.1700001      -3.71215238E-15
  -13.1599998      -1.14175244E-13
  -13.1499996      -2.25069556E-13
  -13.1400003      -3.16475822E-13
  -13.1300001      -3.68687096E-13
  -13.1199999      -3.65578417E-13
  -13.1099997      -2.97784800E-13
  -13.1000004      -1.65180939E-13
  -13.0900002       2.17688738E-14
  -13.0799999       2.42099093E-13
  -13.0699997       4.66010856E-13
  -13.0600004       6.58075157E-13
  -13.0500002       7.81724240E-13
  -13.0400000       8.04577650E-13
  -13.0299997       7.03972416E-13
  -13.0200005       4.71921872E-13
  -13.0100002       1.18689157E-13
  -13.0000000      -3.25767001E-13
  -12.9899998      -8.12995992E-13
  -12.9799995      -1.28007479E-12
  -12.9700003      -1.65617953E-12
  -12.9600000      -1.87101094E-12
  -12.9499998      -1.86404993E-12
  -12.9399996      -1.59347871E-12
  -12.9300003      -1.04369410E-12
  -12.9200001      -2.30614681E-13
  -12.9099998       7.95638457E-13
  -12.8999996       1.95077331E-12
  -12.8900003       3.11901655E-12
  -12.8800001       4.15848909E-12
  -12.8699999       4.90959877E-12
  -12.8599997       5.20708303E-12
  -12.8500004       4.89645130E-12
  -12.8400002       3.85517182E-12
  -12.8299999       2.01796045E-12
  -12.8199997      -5.96074080E-13
  -12.8100004      -3.85852678E-12
  -12.8000002      -7.51472322E-12
  -12.7900000      -1.11810847E-11
  -12.7799997      -1.43625294E-11
  -12.7700005      -1.64931940E-11
  -12.7600002      -1.69998408E-11
  -12.7500000      -1.53825945E-11
  -12.7399998      -1.13030401E-11
  -12.7299995      -4.66662733E-12
  -12.7200003       4.31456390E-12
  -12.7100000       1.50905313E-11
  -12.6999998       2.67808657E-11
  -12.6899996       3.82221269E-11
  -12.6800003       4.80500813E-11
  -12.6700001       5.48071519E-11
  -12.6599998       5.70636802E-11
  -12.6499996       5.35431109E-11
  -12.6400003       4.32451401E-11
  -12.6300001       2.55658186E-11
  -12.6199999       4.17542980E-13
  -12.6099997      -3.16483957E-11
  -12.6000004      -6.93176350E-11
  -12.5900002      -1.10396671E-10
  -12.5799999      -1.51725896E-10
  -12.5699997      -1.89153318E-10
  -12.5600004      -2.17607696E-10
  -12.5500002      -2.31308805E-10
  -12.5400000      -2.24143232E-10
  -12.5299997      -1.90214858E-10
  -12.5200005      -1.24554769E-10
  -12.5100002      -2.39453232E-11
  -12.5000000       1.12209624E-10
  -12.4899998       2.81057400E-10
  -12.4799995       4.75605944E-10
  -12.4700003       6.84261037E-10
  -12.4600000       8.90665597E-10
  -12.4499998       1.07389209E-09
  -12.4399996       1.20900889E-09
  -12.4300003       1.26801714E-09
  -12.4200001       1.22112120E-09
  -12.4099998       1.03827791E-09
  -12.3999996       6.90950519E-10
  -12.3900003       1.53976776E-10
  -12.3800001      -5.92548954E-10
  -12.3699999      -1.56148949E-09
  -12.3599997      -2.75707945E-09
  -12.3500004      -4.17365031E-09
  -12.3400002      -5.79476112E-09
  -12.3299999      -7.59279217E-09
  -12.3199997      -9.52907175E-09
  -12.3100004      -1.15545093E-08
  -12.3000002      -1.36107658E-08
  -12.2900000      -1.56318531E-08
  -12.2799997      -1.75461690E-08
  -12.2700005      -1.92787812E-08
  -12.2600002      -2.07539959E-08
  -12.2500000      -2.18980105E-08
  -12.2399998      -2.26416059E-08
  -12.2299995      -2.29227446E-08
  -12.2200003      -2.26889725E-08
  -12.2100000      -2.18994654E-08
  -12.1999998      -2.05266417E-08
  -12.1899996      -1.85571380E-08
  -12.1800003      -1.59922244E-08
  -12.1700001      -1.28473658E-08
  -12.1599998      -9.15130105E-09
  -12.1499996      -4.94442176E-09
  -12.1400003      -2.76846157E-10
  -12.1300001       4.79377604E-09
  -12.1199999       1.02044062E-08
  -12.1099997       1.58886184E-08
  -12.1000004       2.17782627E-08
  -12.0900002       2.78047647E-08
  -12.0799999       3.39000401E-08
  -12.0699997       3.99970723E-08
  -12.0600004       4.60301912E-08
  -12.0500002       5.19350962E-08
  -12.0400000       5.76486912E-08
  -12.0299997       6.31087005E-08
  -12.0200005       6.82532004E-08
  -12.0100002       7.30199616E-08
  -12.0000000       7.73457458E-08
  -11.9899998       8.11655951E-08
  -11.9799995       8.44125694E-08
  -11.9700003       8.70176251E-08
  -11.9600000       8.89102552E-08
  -11.9499998       9.00195758E-08
  -11.9399996       9.02763304E-08
  -11.9300003       8.96151846E-08
  -11.9200001       8.79773339E-08
  -11.9099998       8.53133031E-08
  -11.8999996       8.15850711E-08
  -11.8900003       7.67680746E-08
  -11.8800001       7.08519394E-08
  -11.8699999       6.38408508E-08
  -11.8599997       5.57528885E-08
  -11.8500004       4.66190642E-08
  -11.8400002       3.64820316E-08
  -11.8299999       2.53946908E-08
  -11.8199997       1.34192311E-08
  -11.8100004       6.26368457E-10
  -11.8000002      -1.29051863E-08
  -11.7900000      -2.70885661E-08
  -11.7799997      -4.18288195E-08
  -11.7700005      -5.70226319E-08
  -11.7600002      -7.25583931E-08
  -11.7500000      -8.83163978E-08
  -11.7399998      -1.04169708E-07
  -11.7299995      -1.19985188E-07
  -11.7200003      -1.35625243E-07
  -11.7100000      -1.50950029E-07
  -11.6999998      -1.65819898E-07
  -11.6899996      -1.80097700E-07
  -11.6800003      -1.93651687E-07
  -11.6700001      -2.06357171E-07
  -11.6599998      -2.18098037E-07
  -11.6499996      -2.28767291E-07
  -11.6400003      -2.38266651E-07
  -11.6300001      -2.46505238E-07
  -11.6199999      -2.53397758E-07
  -11.6099997      -2.58862684E-07
  -11.6000004      -2.62819754E-07
  -11.5900002      -2.65188504E-07
  -11.5799999      -2.65888332E-07
  -11.5699997      -2.64837894E-07
  -11.5600004      -2.61956956E-07
  -11.5500002      -2.57167954E-07
  -11.5400000      -2.50398529E-07
  -11.5299997      -2.41583592E-07
  -11.5200005      -2.30667695E-07
  -11.5100002      -2.17606058E-07
  -11.5000000      -2.02366451E-07
  -11.4899998      -1.84928794E-07
  -11.4799995      -1.65285726E-07
  -11.4700003      -1.43442620E-07
  -11.4600000      -1.19417351E-07
  -11.4499998      -9.32399118E-08
  -11.4399996      -6.49523741E-08
  -11.4300003      -3.46083517E-08
  -11.4200001      -2.27267405E-09
  -11.4099998       3.19800115E-08
  -11.3999996       6.80660150E-08
  -11.3900003       1.05894443E-07
  -11.3800001       1.45368432E-07
  -11.3699999       1.86386742E-07
  -11.3599997       2.28845266E-07
  -11.3500004       2.72638260E-07
  -11.3400002       3.17659072E-07
  -11.3299999       3.63801377E-07
  -11.3199997       4.10960240E-07
  -11.3100004       4.59033004E-07
  -11.3000002       5.07920447E-07
  -11.2900000       5.57528097E-07
  -11.2799997       6.07766538E-07
  -11.2700005       6.58552779E-07
  -11.2600002       7.09809967E-07
  -11.2500000       7.61466652E-07
  -11.2399998       8.13456495E-07
  -11.2299995       8.65715720E-07
  -11.2200003       9.18182479E-07
  -11.2100000       9.70794304E-07
  -11.1999998       1.02348804E-06
  -11.1899996       1.07619701E-06
  -11.1800003       1.12885186E-06
  -11.1700001       1.18137893E-06
  -11.1599998       1.23370398E-06
  -11.1499996       1.28574936E-06
  -11.1400003       1.33743788E-06
  -11.1300001       1.38869461E-06
  -11.1199999       1.43944976E-06
  -11.1099997       1.48963966E-06
  -11.1000004       1.53921144E-06
  -11.0900002       1.58812327E-06
  -11.0799999       1.63634684E-06
  -11.0699997       1.68386680E-06
  -11.0600004       1.73067940E-06
  -11.0500002       1.77678976E-06
  -11.0400000       1.82220776E-06
  -11.0299997       1.86694308E-06
  -11.0200005       1.91100003E-06
  -11.0100002       1.95437656E-06
  -11.0000000       1.99706005E-06
  -10.9899998       2.03902687E-06
  -10.9799995       2.08024267E-06
  -10.9700003       2.12066720E-06
  -10.9600000       2.16025933E-06
  -10.9499998       2.19897902E-06
  -10.9399996       2.23679012E-06
  -10.9300003       2.27366718E-06
  -10.9200001       2.30959154E-06
  -10.9099998       2.34455570E-06
  -10.8999996       2.37855511E-06
  -10.8900003       2.41158727E-06
  -10.8800001       2.44365287E-06
  -10.8699999       2.47474100E-06
  -10.8599997       2.50483595E-06
  -10.8500004       2.53391499E-06
  -10.8400002       2.56194289E-06
  -10.8299999       2.58888235E-06
  -10.8199997       2.61468904E-06
  -10.8100004       2.63932839E-06
  -10.8000002       2.66275947E-06
  -10.7900000       2.68496592E-06
  -10.7799997       2.70593569E-06
  -10.7700005       2.72567854E-06
  -10.7600002       2.74421063E-06
  -10.7500000       2.76157061E-06
  -10.7399998       2.77780100E-06
  -10.7299995       2.79295114E-06
  -10.7200003       2.80707604E-06
  -10.7100000       2.82023439E-06
  -10.6999998       2.83248323E-06
  -10.6899996       2.84389262E-06
  -10.6800003       2.85453530E-06
  -10.6700001       2.86449995E-06
  -10.6599998       2.87389094E-06
  -10.6499996       2.88282217E-06
  -10.6400003       2.89143622E-06
  -10.6300001       2.89988338E-06
  -10.6199999       2.90833259E-06
  -10.6099997       2.91695460E-06
  -10.6000004       2.92592449E-06
  -10.5900002       2.93541552E-06
  -10.5799999       2.94558390E-06
  -10.5699997       2.95657901E-06
  -10.5600004       2.96854159E-06
  -10.5500002       2.98158807E-06
  -10.5400000       2.99582052E-06
  -10.5299997       3.01133446E-06
  -10.5200005       3.02820217E-06
  -10.5100002       3.04649257E-06
  -10.5000000       3.06625975E-06
  -10.4899998       3.08754556E-06
  -10.4799995       3.11038139E-06
  -10.4700003       3.13478768E-06
  -10.4600000       3.16076739E-06
  -10.4499998       3.18831894E-06
  -10.4399996       3.21741254E-06
  -10.4300003       3.24801772E-06
  -10.4200001       3.28007832E-06
  -10.4099998       3.31354317E-06
  -10.3999996       3.34834749E-06
  -10.3900003       3.38440532E-06
  -10.3800001       3.42164662E-06
  -10.3699999       3.45997023E-06
  -10.3599997       3.49929132E-06
  -10.3500004       3.53950759E-06
  -10.3400002       3.58051807E-06
  -10.3299999       3.62221999E-06
  -10.3199997       3.66450513E-06
  -10.3100004       3.70727321E-06
  -10.3000002       3.75043851E-06
  -10.2900000       3.79392350E-06
  -10.2799997       3.83765382E-06
  -10.2700005       3.88157468E-06
  -10.2600002       3.92564016E-06
  -10.2500000       3.96980886E-06
  -10.2399998       4.01403668E-06
  -10.2299995       4.05829678E-06
  -10.2200003       4.10255416E-06
  -10.2100000       4.14676379E-06
  -10.1999998       4.19090657E-06
  -10.1899996       4.23496249E-06
  -10.1800003       4.27893383E-06
  -10.1700001       4.32284423E-06
  -10.1599998       4.36673281E-06
  -10.1499996       4.41068551E-06
  -10.1400003       4.45478327E-06
  -10.1300001       4.49914887E-06
  -10.1199999       4.54389919E-06
  -10.1099997       4.58916520E-06
  -10.1000004       4.63508422E-06
  -10.0900002       4.68178814E-06
  -10.0799999       4.72942338E-06
  -10.0699997       4.77812273E-06
  -10.0600004       4.82804990E-06
  -10.0500002       4.87935586E-06
  -10.0400000       4.93220568E-06
  -10.0299997       4.98678082E-06
  -10.0200005       5.04326090E-06
  -10.0100002       5.10181826E-06
  -10.0000000       5.16261935E-06
  -9.98999977       5.22582650E-06
  -9.97999954       5.29158024E-06
  -9.97000027       5.36000562E-06
  -9.96000004       5.43120541E-06
  -9.94999981       5.50527739E-06
  -9.93999958       5.58231022E-06
  -9.93000031       5.66236531E-06
  -9.92000008       5.74552587E-06
  -9.90999985       5.83186693E-06
  -9.89999962       5.92144943E-06
  -9.89000034       6.01435477E-06
  -9.88000011       6.11064297E-06
  -9.86999989       6.21037043E-06
  -9.85999966       6.31359262E-06
  -9.85000038       6.42036503E-06
  -9.84000015       6.53072721E-06
  -9.82999992       6.64473964E-06
  -9.81999969       6.76248737E-06
  -9.81000042       6.88404225E-06
  -9.80000019       7.00954070E-06
  -9.78999996       7.13915415E-06
  -9.77999973       7.27307133E-06
  -9.77000046       7.41154372E-06
  -9.76000023       7.55481869E-06
  -9.75000000       7.70317001E-06
  -9.73999977       7.85686007E-06
  -9.72999954       8.01614715E-06
  -9.72000027       8.18125682E-06
  -9.71000004       8.35240280E-06
  -9.69999981       8.52972516E-06
  -9.68999958       8.71334123E-06
  -9.68000031       8.90329738E-06
  -9.67000008       9.09958908E-06
  -9.65999985       9.30217175E-06
  -9.64999962       9.51090624E-06
  -9.64000034       9.72559155E-06
  -9.63000011       9.94594666E-06
  -9.61999989       1.01715850E-05
  -9.60999966       1.04020628E-05
  -9.60000038       1.06367961E-05
  -9.59000015       1.08751410E-05
  -9.57999992       1.11163445E-05
  -9.56999969       1.13595843E-05
  -9.56000042       1.16039528E-05
  -9.55000019       1.18484995E-05
  -9.53999996       1.20922205E-05
  -9.52999973       1.23340806E-05
  -9.52000046       1.25730130E-05
  -9.51000023       1.28079528E-05
  -9.50000000       1.30378694E-05
  -9.48999977       1.32617697E-05
  -9.47999954       1.34787088E-05
  -9.47000027       1.36878416E-05
  -9.46000004       1.38884425E-05
  -9.44999981       1.40799120E-05
  -9.43999958       1.42618001E-05
  -9.43000031       1.44338555E-05
  -9.42000008       1.45960212E-05
  -9.40999985       1.47484452E-05
  -9.39999962       1.48914887E-05
  -9.39000034       1.50257156E-05
  -9.38000011       1.51519107E-05
  -9.36999989       1.52711109E-05
  -9.35999966       1.53844812E-05
  -9.35000038       1.54934351E-05
  -9.34000015       1.55995058E-05
  -9.32999992       1.57044324E-05
  -9.31999969       1.58100302E-05
  -9.31000042       1.59182564E-05
  -9.30000019       1.60311429E-05
  -9.28999996       1.61507087E-05
  -9.27999973       1.62790384E-05
  -9.27000046       1.64182165E-05
  -9.26000023       1.65702604E-05
  -9.25000000       1.67371072E-05
  -9.23999977       1.69206887E-05
  -9.22999954       1.71227293E-05
  -9.22000027       1.73449025E-05
  -9.21000004       1.75886817E-05
  -9.19999981       1.78553437E-05
  -9.18999958       1.81460400E-05
  -9.18000031       1.84616365E-05
  -9.17000008       1.88028371E-05
  -9.15999985       1.91700565E-05
  -9.14999962       1.95634821E-05
  -9.14000034       1.99831229E-05
  -9.13000011       2.04286862E-05
  -9.11999989       2.08996826E-05
  -9.10999966       2.13954081E-05
  -9.10000038       2.19148205E-05
  -9.09000015       2.24567721E-05
  -9.07999992       2.30198639E-05
  -9.06999969       2.36024462E-05
  -9.06000042       2.42026981E-05
  -9.05000019       2.48185934E-05
  -9.03999996       2.54479291E-05
  -9.02999973       2.60883735E-05
  -9.02000046       2.67374471E-05
  -9.01000023       2.73925234E-05
  -9.00000000       2.80508775E-05
  -8.98999977       2.87097519E-05
  -8.97999954       2.93662997E-05
  -8.97000027       3.00176634E-05
  -8.96000004       3.06609509E-05
  -8.94999981       3.12933007E-05
  -8.93999958       3.19119063E-05
  -8.93000031       3.25140209E-05
  -8.92000008       3.30969269E-05
  -8.90999985       3.36581215E-05
  -8.89999962       3.41950872E-05
  -8.89000034       3.47055793E-05
  -8.88000011       3.51874405E-05
  -8.86999989       3.56386845E-05
  -8.85999966       3.60574995E-05
  -8.85000038       3.64423940E-05
  -8.84000015       3.67919783E-05
  -8.82999992       3.71051028E-05
  -8.81999969       3.73809089E-05
  -8.81000042       3.76187272E-05
  -8.80000019       3.78180666E-05
  -8.78999996       3.79787816E-05
  -8.77999973       3.81008722E-05
  -8.77000046       3.81846185E-05
  -8.76000023       3.82305261E-05
  -8.75000000       3.82393227E-05
  -8.73999977       3.82119615E-05
  -8.72999954       3.81495811E-05
  -8.72000027       3.80535203E-05
  -8.71000004       3.79253870E-05
  -8.69999981       3.77669021E-05
  -8.68999958       3.75798554E-05
  -8.68000031       3.73663133E-05
  -8.67000008       3.71282476E-05
  -8.65999985       3.68679102E-05
  -8.64999962       3.65874403E-05
  -8.64000034       3.62890605E-05
  -8.63000011       3.59750265E-05
  -8.61999989       3.56474739E-05
  -8.60999966       3.53085161E-05
  -8.60000038       3.49602524E-05
  -8.59000015       3.46045999E-05
  -8.57999992       3.42433486E-05
  -8.56999969       3.38782520E-05
  -8.56000042       3.35107543E-05
  -8.55000019       3.31424089E-05
  -8.53999996       3.27743328E-05
  -8.52999973       3.24076900E-05
  -8.52000046       3.20434228E-05
  -8.51000023       3.16823462E-05
  -8.50000000       3.13251585E-05
  -8.48999977       3.09724855E-05
  -8.47999954       3.06247930E-05
  -8.47000027       3.02824974E-05
  -8.46000004       2.99459807E-05
  -8.44999981       2.96156250E-05
  -8.43999958       2.92917666E-05
  -8.43000031       2.89747823E-05
  -8.42000008       2.86651029E-05
  -8.40999985       2.83632653E-05
  -8.39999962       2.80697732E-05
  -8.39000034       2.77852942E-05
  -8.38000011       2.75105322E-05
  -8.36999989       2.72463822E-05
  -8.35999966       2.69937227E-05
  -8.35000038       2.67536234E-05
  -8.34000015       2.65272156E-05
  -8.32999992       2.63156871E-05
  -8.31999969       2.61203022E-05
  -8.31000042       2.59422923E-05
  -8.30000019       2.57829452E-05
  -8.28999996       2.56436670E-05
  -8.27999973       2.55256728E-05
  -8.27000046       2.54302322E-05
  -8.26000023       2.53585749E-05
  -8.25000000       2.53119379E-05
  -8.23999977       2.52914706E-05
  -8.22999954       2.52982190E-05
  -8.22000027       2.53331727E-05
  -8.21000004       2.53972667E-05
  -8.19999981       2.54914812E-05
  -8.18999958       2.56166823E-05
  -8.18000031       2.57735846E-05
  -8.17000008       2.59630579E-05
  -8.15999985       2.61857767E-05
  -8.14999962       2.64424598E-05
  -8.14000034       2.67338364E-05
  -8.13000011       2.70605688E-05
  -8.11999989       2.74233571E-05
  -8.10999966       2.78227108E-05
  -8.10000038       2.82594137E-05
  -8.09000015       2.87339626E-05
  -8.07999992       2.92469249E-05
  -8.06999969       2.97988900E-05
  -8.06000042       3.03902507E-05
  -8.05000019       3.10214273E-05
  -8.03999996       3.16927726E-05
  -8.02999973       3.24045541E-05
  -8.02000046       3.31567571E-05
  -8.01000023       3.39494145E-05
  -8.00000000       3.47822206E-05
  -7.98999977       3.56548553E-05
  -7.98000002       3.65666638E-05
  -7.96999979       3.75169111E-05
  -7.96000004       3.85047606E-05
  -7.94999981       3.95290081E-05
  -7.94000006       4.05883111E-05
  -7.92999983       4.16812327E-05
  -7.92000008       4.28060994E-05
  -7.90999985       4.39609321E-05
  -7.90000010       4.51438573E-05
  -7.88999987       4.63526085E-05
  -7.88000011       4.75850466E-05
  -7.86999989       4.88387304E-05
  -7.86000013       5.01114337E-05
  -7.84999990       5.14005296E-05
  -7.84000015       5.27038137E-05
  -7.82999992       5.40187284E-05
  -7.82000017       5.53430145E-05
  -7.80999994       5.66743074E-05
  -7.80000019       5.80103188E-05
  -7.78999996       5.93489167E-05
  -7.78000021       6.06881295E-05
  -7.76999998       6.20260180E-05
  -7.76000023       6.33606760E-05
  -7.75000000       6.46905974E-05
  -7.73999977       6.60139121E-05
  -7.73000002       6.73294999E-05
  -7.71999979       6.86360872E-05
  -7.71000004       6.99325174E-05
  -7.69999981       7.12178589E-05
  -7.69000006       7.24912607E-05
  -7.67999983       7.37520095E-05
  -7.67000008       7.49995743E-05
  -7.65999985       7.62335112E-05
  -7.65000010       7.74534783E-05
  -7.63999987       7.86593300E-05
  -7.63000011       7.98509063E-05
  -7.61999989       8.10284109E-05
  -7.61000013       8.21919093E-05
  -7.59999990       8.33417653E-05
  -7.59000015       8.44784008E-05
  -7.57999992       8.56023180E-05
  -7.57000017       8.67143390E-05
  -7.55999994       8.78151477E-05
  -7.55000019       8.89057555E-05
  -7.53999996       8.99872175E-05
  -7.53000021       9.10606977E-05
  -7.51999998       9.21274914E-05
  -7.51000023       9.31888644E-05
  -7.50000000       9.42464103E-05
  -7.48999977       9.53017880E-05
  -7.48000002       9.63564016E-05
  -7.46999979       9.74118011E-05
  -7.46000004       9.84697617E-05
  -7.44999981       9.95321170E-05
  -7.44000006       1.00600439E-04