  -16.0000000       0.00000000    
  -15.9899998       0.00000000    
  -15.9799995       0.00000000    
  -15.9700003       0.00000000    
  -15.9600000       0.00000000    
  -15.9499998       0.00000000    
  -15.9399996       0.00000000    
  -15.9300003       0.00000000    
  -15.9200001       0.00000000    
  -15.9099998       0.00000000    
  -15.8999996       0.00000000    
  -15.8900003       0.00000000    
  -15.8800001       0.00000000    
  -15.8699999      -1.40129846E-45
  -15.8599997      -3.36311631E-44
  -15.8500004      -3.53127213E-43
  -15.8400002      -2.52373853E-42
  -15.8299999      -1.33894068E-41
  -15.8199997      -5.62355087E-41
  -15.8100004      -1.95647890E-40
  -15.8000002      -5.88202037E-40
  -15.7900000      -1.60420928E-39
  -15.7799997      -4.17909802E-39
  -15.7700005      -1.07131089E-38
  -15.7600002      -2.64272923E-38
  -15.7500000      -5.78635933E-38
  -15.7399998      -9.45309442E-38
  -15.7299995      -3.69555111E-38
  -15.7200003       4.93759061E-37
  -15.7100000       2.52256503E-36
  -15.6999998       8.18141485E-36
  -15.6899996       2.07791887E-35
  -15.6800003       4.33027553E-35
  -15.6700001       7.35751270E-35
  -15.6599998       9.49557105E-35
  -15.6499996       6.52885289E-35
  -15.6400003      -8.47297074E-35
  -15.6300001      -4.21447740E-34
  -15.6199999      -9.20093775E-34
  -15.6099997      -1.31552512E-33
  -15.6000004      -9.64192996E-34
  -15.5900002       1.07701345E-33
  -15.5799999       5.41377046E-33
  -15.5699997       1.08065392E-32
  -15.5600004       1.19559604E-32
  -15.5500002      -2.05022506E-33
  -15.5400000      -4.53898424E-32
  -15.5299997      -1.24451503E-31
  -15.5200005      -2.14411086E-31
  -15.5100002      -2.27358545E-31
  -15.5000000       6.97167259E-33
  -15.4899998       7.02249165E-31
  -15.4799995       1.95509311E-30
  -15.4700003       3.42109556E-30
  -15.4600000       3.89040896E-30
  -15.4499998       1.04567275E-30
  -15.4399996      -8.02200754E-30
  -15.4300003      -2.47851701E-29
  -15.4200001      -4.52997110E-29
  -15.4099998      -5.51107923E-29
  -15.3999996      -2.63669319E-29
  -15.3900003       7.64513058E-29
  -15.3800001       2.74216457E-28
  -15.3699999       5.30054680E-28
  -15.3599997       6.94679368E-28
  -15.3500004       4.73843959E-28
  -15.3400002      -5.19757503E-28
  -15.3299999      -2.55528456E-27
  -15.3199997      -5.37533018E-27
  -15.3100004      -7.67312522E-27
  -15.3000002      -6.74884371E-27
  -15.2900000       1.12402876E-27
  -15.2799997       1.89927631E-26
  -15.2700005       4.58469904E-26
  -15.2600002       7.21715592E-26
  -15.2500000       7.66335352E-26
  -15.2399998       2.78876782E-26
  -15.2299995      -1.03727998E-25
  -15.2200003      -3.21792560E-25
  -15.2100000      -5.70200199E-25
  -15.1999998      -7.04651187E-25
  -15.1899996      -4.95722165E-25
  -15.1800003       3.03776258E-25
  -15.1700001       1.80497509E-24
  -15.1599998       3.75769751E-24
  -15.1499996       5.33399542E-24
  -15.1400003       5.07694786E-24
  -15.1300001       1.21745988E-24
  -15.1199999      -7.48222578E-24
  -15.1099997      -2.03913381E-23
  -15.1000004      -3.35658706E-23
  -15.0900002      -3.90175242E-23
  -15.0799999      -2.58306382E-23
  -15.0699997       1.58563598E-23
  -15.0600004       8.78461683E-23
  -15.0500002       1.75409786E-22
  -15.0400000       2.41158187E-22
  -15.0299997       2.26965531E-22
  -15.0200005       6.97392483E-23
  -15.0100002      -2.66428923E-22
  -15.0000000      -7.46615927E-22
  -14.9899998      -1.22541264E-21
  -14.9799995      -1.43694601E-21
  -14.9700003      -1.04393081E-21
  -14.9600000       2.34859643E-22
  -14.9499998       2.42765009E-21
  -14.9399996       5.09700131E-21
  -14.9300003       7.21400449E-21
  -14.9200001       7.25118642E-21
  -14.9099998       3.60597271E-21
  -14.8999996      -4.62700076E-21
  -14.8900003      -1.66852766E-20
  -14.8800001      -2.93280699E-20
  -14.8699999      -3.67095486E-20
  -14.8599997      -3.14689490E-20
  -14.8500004      -7.31675098E-21
  -14.8400002       3.71650214E-20
  -14.8299999       9.45740022E-20
  -14.8199997       1.46414833E-19
  -14.8100004       1.64672312E-19
  -14.8000002       1.18908105E-19
  -14.7900000      -1.10430171E-20
  -14.7799997      -2.19305510E-19
  -14.7700005      -4.60614955E-19
  -14.7600002      -6.47007802E-19
  -14.7500000      -6.61985717E-19
  -14.7399998      -3.95869668E-19
  -14.7299995       2.01463121E-19
  -14.7200003       1.06424561E-18
  -14.7100000       1.97390689E-18
  -14.6999998       2.56852339E-18
  -14.6899996       2.41962985E-18
  -14.6800003       1.17905901E-18
  -14.6700001      -1.23054014E-18
  -14.6599998      -4.44024142E-18
  -14.6499996      -7.55658027E-18
  -14.6400003      -9.26249470E-18
  -14.6300001      -8.14438061E-18
  -14.6199999      -3.22040831E-18
  -14.6099997       5.45032283E-18
  -14.6000004       1.62883956E-17
  -14.5900002       2.60999687E-17
  -14.5799999       3.05837558E-17
  -14.5699997       2.55095817E-17
  -14.5600004       8.40089924E-18
  -14.5500002      -1.97207915E-17
  -14.5400000      -5.31866976E-17
  -14.5299997      -8.18287627E-17
  -14.5200005      -9.29138498E-17
  -14.5100002      -7.48605932E-17
  -14.5000000      -2.20467638E-17
  -14.4899998       6.06791904E-17
  -14.4799995       1.55599701E-16
  -14.4700003       2.33560838E-16
  -14.4600000       2.60165746E-16
  -14.4499998       2.06223975E-16
  -14.4399996       6.01852709E-17
  -14.4300003      -1.61265795E-16
  -14.4200001      -4.08958968E-16
  -14.4099998      -6.07086883E-16
  -14.3999996      -6.70524410E-16
  -14.3900003      -5.31310628E-16
  -14.3800001      -1.67926413E-16
  -14.3699999       3.72060890E-16
  -14.3599997       9.66058335E-16
  -14.3500004       1.43452441E-15
  -14.3400002       1.58415998E-15
  -14.3299999       1.26884752E-15
  -14.3199997       4.52611367E-16
  -14.3100004      -7.46389181E-16
  -14.3000002      -2.05122263E-15
  -14.2900000      -3.07343067E-15
  -14.2799997      -3.41035158E-15
  -14.2700005      -2.77312764E-15
  -14.2600002      -1.11051610E-15
  -14.2500000       1.31392386E-15
  -14.2399998       3.92866502E-15
  -14.2299995       5.96344864E-15
  -14.2200003       6.64946995E-15
  -14.2100000       5.46599763E-15
  -14.1999998       2.36313489E-15
  -14.1899996      -2.11760545E-15
  -14.1800003      -6.88694241E-15
  -14.1700001      -1.05370077E-14
  -14.1599998      -1.17210573E-14
  -14.1499996      -9.59186378E-15
  -14.1400003      -4.16897970E-15
  -14.1300001       3.49791975E-15
  -14.1199999       1.14622743E-14
  -14.1099997       1.73247206E-14
  -14.1000004       1.89044015E-14
  -14.0900002       1.49647242E-14
  -14.0799999       5.77176043E-15
  -14.0699997      -6.72276201E-15
  -14.0600004      -1.91982982E-14
  -14.0500002      -2.77684624E-14
  -14.0400000      -2.90993493E-14
  -14.0299997      -2.15436799E-14
  -14.0200005      -5.93726982E-15
  -14.0100002       1.42462929E-14
  -14.0000000       3.35334415E-14
  -13.9899998       4.58073554E-14
  -13.9799995       4.60755193E-14
  -13.9700003       3.21675737E-14
  -13.9600000       5.83491859E-15
  -13.9499998      -2.71675382E-14
  -13.9399996      -5.81850852E-14
  -13.9300003      -7.77834286E-14
  -13.9200001      -7.83900600E-14
  -13.9099998      -5.67438518E-14
  -13.8999996      -1.54119576E-14
  -13.8900003       3.71768893E-14
  -13.8800001       8.83597327E-14
  -13.8699999       1.24239594E-13
  -13.8599997       1.33345510E-13
  -13.8500004       1.09982763E-13
  -13.8400002       5.63076841E-14
  -13.8299999      -1.75546968E-14
  -13.8199997      -9.55287282E-14
  -13.8100004      -1.59329635E-13
  -13.8000002      -1.93004711E-13
  -13.7900000      -1.87073542E-13
  -13.7799997      -1.41117397E-13
  -13.7700005      -6.40556740E-14
  -13.7600002       2.80281593E-14
  -13.7500000       1.15954081E-13
  -13.7399998       1.82290313E-13
  -13.7299995       2.15602818E-13
  -13.7200003       2.12883598E-13
  -13.7100000       1.79450625E-13
  -13.6999998       1.26373291E-13
  -13.6899996       6.62581697E-14
  -13.6800003       8.79280508E-15
  -13.6700001      -4.24029301E-14
  -13.6599998      -9.04054934E-14
  -13.6499996      -1.42651258E-13
  -13.6400003      -2.06184923E-13
  -13.6300001      -2.81977078E-13
  -13.6199999      -3.60359393E-13
  -13.6099997      -4.19603290E-13
  -13.6000004      -4.28973019E-13
  -13.5900002      -3.56341367E-13
  -13.5799999      -1.78966691E-13
  -13.5699997       1.05289644E-13
  -13.5600004       4.69755148E-13
  -13.5500002       8.57009667E-13
  -13.5400000       1.18529817E-12
  -13.5299997       1.36335940E-12
  -13.5200005       1.31136248E-12
  -13.5100002       9.83507655E-13
  -13.5000000       3.86599769E-13
  -13.4899998      -4.10975588E-13
  -13.4799995      -1.28379501E-12
  -13.4700003      -2.06843397E-12
  -13.4600000      -2.59437870E-12
  -13.4499998      -2.72080058E-12
  -13.4399996      -2.37098145E-12
  -13.4300003      -1.55585505E-12
  -13.4200001      -3.79978248E-13
  -13.4099998       9.72976257E-13
  -13.3999996       2.27328377E-12
  -13.3900003       3.29013184E-12
  -13.3800001       3.83847598E-12
  -13.3699999       3.81683747E-12
  -13.3599997       3.22690767E-12
  -13.3500004       2.17018374E-12
  -13.3400002       8.22586465E-13
  -13.3299999      -6.06236686E-13
  -13.3199997      -1.91820431E-12
  -13.3100004      -2.96472959E-12
  -13.3000002      -3.66749686E-12
  -13.2900000      -4.01729518E-12
  -13.2799997      -4.05269351E-12
  -13.2700005      -3.82660700E-12
  -13.2600002      -3.37284801E-12
  -13.2500000      -2.68527063E-12
  -13.2399998      -1.71859586E-12
  -13.2299995      -4.13355981E-13
  -13.2200003       1.26078987E-12
  -13.2100000       3.25630712E-12
  -13.1999998       5.41052619E-12
  -13.1899996       7.43602055E-12
  -13.1800003       8.94886942E-12
  -13.1700001       9.53528229E-12
  -13.1599998       8.84570282E-12
  -13.1499996       6.69577111E-12
  -13.1400003       3.14820500E-12
  -13.1300001      -1.44912196E-12
  -13.1199999      -6.48571431E-12
  -13.1099997      -1.11750019E-11
  -13.1000004      -1.46926464E-11
  -13.0900002      -1.63402156E-11
  -13.0799999      -1.56990029E-11
  -13.0699997      -1.27378750E-11
  -13.0600004      -7.84703986E-12
  -13.0500002      -1.78478337E-12
  -13.0400000       4.45652196E-12
  -13.0299997       9.83996218E-12
  -13.0200005       1.34902809E-11
  -13.0100002       1.48726153E-11
  -13.0000000       1.39042779E-11
  -12.9899998       1.09740151E-11
  -12.9799995       6.86277511E-12
  -12.9700003       2.58155281E-12
  -12.9600000      -8.40572403E-13
  -12.9499998      -2.57448425E-12
  -12.9399996      -2.17066989E-12
  -12.9300003       3.35228942E-13
  -12.9200001       4.41080679E-12
  -12.9099998       9.10983355E-12
  -12.8999996       1.32319268E-11
  -12.8900003       1.55279296E-11
  -12.8800001       1.49138410E-11
  -12.8699999       1.06578817E-11
  -12.8599997       2.51376264E-12
  -12.8500004      -9.21462386E-12
  -12.8400002      -2.36789130E-11
  -12.8299999      -3.95533675E-11
  -12.8199997      -5.51479071E-11
  -12.8100004      -6.85495410E-11
  -12.8000002      -7.77772360E-11
  -12.7900000      -8.09397271E-11
  -12.7799997      -7.63909977E-11
  -12.7700005      -6.28820190E-11
  -12.7600002      -3.97084622E-11
  -12.7500000      -6.85235072E-12
  -12.7399998       3.48885920E-11
  -12.7299995       8.37957689E-11
  -12.7200003       1.37165640E-10
  -12.7100000       1.91307636E-10
  -12.6999998       2.41625192E-10
  -12.6899996       2.82798035E-10
  -12.6800003       3.09076542E-10
  -12.6700001       3.14686832E-10
  -12.6599998       2.94333447E-10
  -12.6499996       2.43768755E-10
  -12.6400003       1.60385913E-10
  -12.6300001       4.37801427E-11
  -12.6199999      -1.03782191E-10
  -12.6099997      -2.77047663E-10
  -12.6000004      -4.67663797E-10
  -12.5900002      -6.64307831E-10
  -12.5799999      -8.53071724E-10
  -12.5699997      -1.01809461E-09
  -12.5600004      -1.14241283E-09
  -12.5500002      -1.20897514E-09
  -12.5400000      -1.20176313E-09
  -12.5299997      -1.10694565E-09
  -12.5200005      -9.14008369E-10
  -12.5100002      -6.16801665E-10
  -12.5000000      -2.14468901E-10
  -12.4899998       2.87765034E-10
  -12.4799995       8.77955930E-10
  -12.4700003       1.53695079E-09
  -12.4600000       2.23804153E-09
  -12.4499998       2.94675639E-09
  -12.4399996       3.62078967E-09
  -12.4300003       4.21008828E-09
  -12.4200001       4.65711070E-09
  -12.4099998       4.89730745E-09
  -12.3999996       4.85986051E-09
  -12.3900003       4.46876225E-09
  -12.3800001       3.64428732E-09
  -12.3699999       2.30493336E-09
  -12.3599997       3.69899916E-10
  -12.3500004      -2.23786167E-09
  -12.3400002      -5.58801050E-09
  -12.3299999      -9.73864278E-09
  -12.3199997      -1.47316808E-08
  -12.3100004      -2.05880255E-08
  -12.3000002      -2.73027503E-08
  -12.2900000      -3.48406211E-08
  -12.2799997      -4.31324345E-08
  -12.2700005      -5.20724441E-08
  -12.2600002      -6.15173406E-08
  -12.2500000      -7.12869976E-08
  -12.2399998      -8.11671583E-08
  -12.2299995      -9.09140283E-08
  -12.2200003      -1.00260543E-07
  -12.2100000      -1.08924006E-07
  -12.1999998      -1.16614501E-07
  -12.1899996      -1.23043620E-07
  -12.1800003      -1.27932793E-07
  -12.1700001      -1.31020883E-07
  -12.1599998      -1.32070525E-07
  -12.1499996      -1.30873048E-07
  -12.1400003      -1.27252108E-07
  -12.1300001      -1.21066037E-07
  -12.1199999      -1.12209072E-07
  -12.1099997      -1.00612006E-07
  -12.1000004      -8.62424230E-08
  -12.0900002      -6.91046793E-08
  -12.0799999      -4.92397874E-08
  -12.0699997      -2.67252442E-08
  -12.0600004      -1.67476988E-09
  -12.0500002       2.57623149E-08
  -12.0400000       5.54019302E-08
  -12.0299997       8.70264003E-08
  -12.0200005       1.20385877E-07
  -12.0100002       1.55199842E-07
  -12.0000000       1.91158577E-07
  -11.9899998       2.27924332E-07
  -11.9799995       2.65132229E-07
  -11.9700003       3.02391129E-07
  -11.9600000       3.39284441E-07
  -11.9499998       3.75371400E-07
  -11.9399996       4.10189585E-07
  -11.9300003       4.43258671E-07
  -11.9200001       4.74085738E-07
  -11.9099998       5.02172895E-07
  -11.8999996       5.27025236E-07
  -11.8900003       5.48161324E-07
  -11.8800001       5.65121923E-07
  -11.8699999       5.77479909E-07
  -11.8599997       5.84847044E-07
  -11.8500004       5.86880276E-07
  -11.8400002       5.83285214E-07
  -11.8299999       5.73817715E-07
  -11.8199997       5.58284398E-07
  -11.8100004       5.36542927E-07
  -11.8000002       5.08501159E-07
  -11.7900000       4.74117712E-07
  -11.7799997       4.33403699E-07
  -11.7700005       3.86423949E-07
  -11.7600002       3.33299795E-07
  -11.7500000       2.74210862E-07
  -11.7399998       2.09396248E-07
  -11.7299995       1.39154750E-07
  -11.7200003       6.38426982E-08
  -11.7100000      -1.61285776E-08
  -11.6999998      -1.00297179E-07
  -11.6899996      -1.88154971E-07
  -11.6800003      -2.79152403E-07
  -11.6700001      -3.72702459E-07
  -11.6599998      -4.68184140E-07
  -11.6499996      -5.64945253E-07
  -11.6400003      -6.62305069E-07
  -11.6300001      -7.59556769E-07
  -11.6199999      -8.55970256E-07
  -11.6099997      -9.50796220E-07
  -11.6000004      -1.04327069E-06
  -11.5900002      -1.13262035E-06
  -11.5799999      -1.21806795E-06
  -11.5699997      -1.29883745E-06
  -11.5600004      -1.37415884E-06
  -11.5500002      -1.44327214E-06
  -11.5400000      -1.50543087E-06
  -11.5299997      -1.55990529E-06
  -11.5200005      -1.60598290E-06
  -11.5100002      -1.64297410E-06
  -11.5000000      -1.67021392E-06
  -11.4899998      -1.68706595E-06
  -11.4799995      -1.69292878E-06
  -11.4700003      -1.68723966E-06
  -11.4600000      -1.66948132E-06
  -11.4499998      -1.63918503E-06
  -11.4399996      -1.59593708E-06
  -11.4300003      -1.53938004E-06
  -11.4200001      -1.46921491E-06
  -11.4099998      -1.38520272E-06
  -11.3999996      -1.28716351E-06
  -11.3900003      -1.17497643E-06
  -11.3800001      -1.04857781E-06
  -11.3699999      -9.07959986E-07
  -11.3599997      -7.53168024E-07
  -11.3500004      -5.84297197E-07
  -11.3400002      -4.01488563E-07
  -11.3299999      -2.04923282E-07
  -11.3199997       5.18370147E-09
  -11.3100004       2.28591418E-07
  -11.3000002       4.65040642E-07
  -11.2900000       7.14261546E-07
  -11.2799997       9.75980470E-07
  -11.2700005       1.24992539E-06
  -11.2600002       1.53582891E-06
  -11.2500000       1.83342797E-06
  -11.2399998       2.14246438E-06
  -11.2299995       2.46267905E-06
  -11.2200003       2.79380879E-06
  -11.2100000       3.13557985E-06
  -11.1999998       3.48770482E-06
  -11.1899996       3.84987970E-06
  -11.1800003       4.22177891E-06
  -11.1700001       4.60305955E-06
  -11.1599998       4.99336284E-06
  -11.1499996       5.39231769E-06
  -11.1400003       5.79954485E-06
  -11.1300001       6.21466143E-06
  -11.1199999       6.63728451E-06
  -11.1099997       7.06703850E-06
  -11.1000004       7.50355093E-06
  -11.0900002       7.94645985E-06
  -11.0799999       8.39541372E-06
  -11.0699997       8.85007375E-06
  -11.0600004       9.31011436E-06
  -11.0500002       9.77522723E-06
  -11.0400000       1.02451304E-05
  -11.0299997       1.07195610E-05
  -11.0200005       1.11982808E-05
  -11.0100002       1.16810816E-05
  -11.0000000       1.21677667E-05
  -10.9899998       1.26581617E-05
  -10.9799995       1.31520919E-05
  -10.9700003       1.36493836E-05
  -10.9600000       1.41498476E-05
  -10.9499998       1.46532666E-05
  -10.9399996       1.51594004E-05
  -10.9300003       1.56679762E-05
  -10.9200001       1.61786829E-05
  -10.9099998       1.66911868E-05
  -10.8999996       1.72051114E-05
  -10.8900003       1.77200691E-05
  -10.8800001       1.82356453E-05
  -10.8699999       1.87514088E-05
  -10.8599997       1.92669031E-05
  -10.8500004       1.97816644E-05
  -10.8400002       2.02952051E-05
  -10.8299999       2.08070360E-05
  -10.8199997       2.13166422E-05
  -10.8100004       2.18235109E-05
  -10.8000002       2.23271272E-05
  -10.7900000       2.28269801E-05
  -10.7799997       2.33225746E-05
  -10.7700005       2.38134326E-05
  -10.7600002       2.42990973E-05
  -10.7500000       2.47791359E-05
  -10.7399998       2.52531408E-05
  -10.7299995       2.57207321E-05
  -10.7200003       2.61815549E-05
  -10.7100000       2.66352727E-05
  -10.6999998       2.70815908E-05
  -10.6899996       2.75202510E-05
  -10.6800003       2.79510186E-05
  -10.6700001       2.83737245E-05
  -10.6599998       2.87882467E-05
  -10.6499996       2.91945180E-05
  -10.6400003       2.95925529E-05
  -10.6300001       2.99824205E-05
  -10.6199999       3.03642610E-05
  -10.6099997       3.07382834E-05
  -10.6000004       3.11047515E-05
  -10.5900002       3.14639947E-05
  -10.5799999       3.18164020E-05
  -10.5699997       3.21623993E-05
  -10.5600004       3.25024666E-05
  -10.5500002       3.28371316E-05
  -10.5400000       3.31669617E-05
  -10.5299997       3.34925498E-05
  -10.5200005       3.38145219E-05
  -10.5100002       3.41335253E-05
  -10.5000000       3.44502077E-05
  -10.4899998       3.47651912E-05
  -10.4799995       3.50790870E-05
  -10.4700003       3.53924625E-05
  -10.4600000       3.57057979E-05
  -10.4499998       3.60195409E-05
  -10.4399996       3.63340441E-05
  -10.4300003       3.66495988E-05
  -10.4200001       3.69663867E-05
  -10.4099998       3.72845498E-05
  -10.3999996       3.76041571E-05
  -10.3900003       3.79251942E-05
  -10.3800001       3.82476283E-05
  -10.3699999       3.85713465E-05
  -10.3599997       3.88962289E-05
  -10.3500004       3.92220936E-05
  -10.3400002       3.95487441E-05
  -10.3299999       3.98759512E-05
  -10.3199997       4.02034675E-05
  -10.3100004       4.05310275E-05
  -10.3000002       4.08583292E-05
  -10.2900000       4.11850997E-05
  -10.2799997       4.15110189E-05
  -10.2700005       4.18357959E-05
  -10.2600002       4.21591503E-05
  -10.2500000       4.24807768E-05
  -10.2399998       4.28004059E-05
  -10.2299995       4.31177577E-05
  -10.2200003       4.34325884E-05
  -10.2100000       4.37446397E-05
  -10.1999998       4.40536896E-05
  -10.1899996       4.43595090E-05
  -10.1800003       4.46619124E-05
  -10.1700001       4.49607287E-05
  -10.1599998       4.52558270E-05
  -10.1499996       4.55471345E-05
  -10.1400003       4.58346149E-05
  -10.1300001       4.61183045E-05
  -10.1199999       4.63983088E-05
  -10.1099997       4.66747952E-05
  -10.1000004       4.69480219E-05
  -10.0900002       4.72183128E-05
  -10.0799999       4.74860717E-05
  -10.0699997       4.77517788E-05
  -10.0600004       4.80160015E-05
  -10.0500002       4.82793839E-05
  -10.0400000       4.85426317E-05
  -10.0299997       4.88065270E-05
  -10.0200005       4.90719103E-05
  -10.0100002       4.93396874E-05
  -10.0000000       4.96107787E-05
  -9.98999977       4.98861482E-05
  -9.97999954       5.01667491E-05
  -9.97000027       5.04535747E-05
  -9.96000004       5.07476070E-05
  -9.94999981       5.10497812E-05
  -9.93999958       5.13611012E-05
  -9.93000031       5.16825057E-05
  -9.92000008       5.20150061E-05
  -9.90999985       5.23595882E-05
  -9.89999962       5.27172779E-05
  -9.89000034       5.30890829E-05
  -9.88000011       5.34760948E-05
  -9.86999989       5.38793793E-05
  -9.85999966       5.43000133E-05
  -9.85000038       5.47390991E-05
  -9.84000015       5.51977428E-05
  -9.82999992       5.56770137E-05
  -9.81999969       5.61779743E-05
  -9.81000042       5.67016614E-05
  -9.80000019       5.72490862E-05
  -9.78999996       5.78211911E-05
  -9.77999973       5.84188820E-05
  -9.77000046       5.90429736E-05
  -9.76000023       5.96942518E-05
  -9.75000000       6.03733715E-05
  -9.73999977       6.10809439E-05
  -9.72999954       6.18175036E-05
  -9.72000027       6.25834728E-05
  -9.71000004       6.33791933E-05
  -9.69999981       6.42049272E-05
  -9.68999958       6.50608417E-05
  -9.68000031       6.59470024E-05
  -9.67000008       6.68633875E-05
  -9.65999985       6.78098877E-05
  -9.64999962       6.87862557E-05
  -9.64000034       6.97921641E-05
  -9.63000011       7.08271982E-05
  -9.61999989       7.18908268E-05
  -9.60999966       7.29824387E-05
  -9.60000038       7.41013209E-05
  -9.59000015       7.52467386E-05
  -9.57999992       7.64178112E-05
  -9.56999969       7.76136512E-05
  -9.56000042       7.88332545E-05
  -9.55000019       8.00755661E-05
  -9.53999996       8.13394654E-05
  -9.52999973       8.26237883E-05
  -9.52000046       8.39272761E-05
  -9.51000023       8.52486264E-05
  -9.50000000       8.65864858E-05
  -9.48999977       8.79394793E-05
  -9.47999954       8.93061806E-05
  -9.47000027       9.06851492E-05
  -9.46000004       9.20749662E-05
  -9.44999981       9.34741838E-05
  -9.43999958       9.48814632E-05
  -9.43000031       9.62954655E-05
  -9.42000008       9.77149612E-05
  -9.40999985       9.91388079E-05
  -9.39999962       1.00566001E-04
  -9.39000034       1.01995669E-04
  -9.38000011       1.03427097E-04
  -9.36999989       1.04859755E-04
  -9.35999966       1.06293344E-04
  -9.35000038       1.07727748E-04
  -9.34000015       1.09163127E-04
  -9.32999992       1.10599845E-04
  -9.31999969       1.12038550E-04
  -9.31000042       1.13480150E-04
  -9.30000019       1.14925831E-04
  -9.28999996       1.16377072E-04
  -9.27999973       1.17835560E-04
  -9.27000046       1.19303295E-04
  -9.26000023       1.20782519E-04
  -9.25000000       1.22275669E-04
  -9.23999977       1.23785459E-04
  -9.22999954       1.25314764E-04
  -9.22000027       1.26866624E-04
  -9.21000004       1.28444211E-04
  -9.19999981       1.30050816E-04
  -9.18999958       1.31689798E-04
  -9.18000031       1.33364607E-04
  -9.17000008       1.35078575E-04
  -9.15999985       1.36835108E-04
  -9.14999962       1.38637508E-04
  -9.14000034       1.40488963E-04
  -9.13000011       1.42392513E-04
  -9.11999989       1.44351026E-04
  -9.10999966       1.46367151E-04
  -9.10000038       1.48443272E-04
  -9.09000015       1.50581531E-04
  -9.07999992       1.52783745E-04
  -9.06999969       1.55051443E-04
  -9.06000042       1.57385686E-04
  -9.05000019       1.59787291E-04
  -9.03999996       1.62256591E-04
  -9.02999973       1.64793557E-04
  -9.02000046       1.67397608E-04
  -9.01000023       1.70067899E-04
  -9.00000000       1.72802975E-04
  -8.98999977       1.75601046E-04
  -8.97999954       1.78459828E-04
  -8.97000027       1.81376570E-04
  -8.96000004       1.84348159E-04
  -8.94999981       1.87370970E-04
  -8.93999958       1.90441118E-04
  -8.93000031       1.93554268E-04
  -8.92000008       1.96705878E-04
  -8.90999985       1.99891074E-04
  -8.89999962       2.03104835E-04
  -8.89000034       2.06341909E-04
  -8.88000011       2.09596867E-04
  -8.86999989       2.12864295E-04
  -8.85999966       2.16138680E-04
  -8.85000038       2.19414535E-04
  -8.84000015       2.22686431E-04
  -8.82999992       2.25948999E-04
  -8.81999969       2.29196914E-04
  -8.81000042       2.32425184E-04
  -8.80000019       2.35629021E-04
  -8.78999996       2.38803696E-04
  -8.77999973       2.41944974E-04
  -8.77000046       2.45048839E-04
  -8.76000023       2.48111697E-04
  -8.75000000       2.51130143E-04
  -8.73999977       2.54101324E-04
  -8.72999954       2.57022708E-04
  -8.72000027       2.59891967E-04
  -8.71000004       2.62707501E-04
  -8.69999981       2.65467825E-04
  -8.68999958       2.68171891E-04
  -8.68000031       2.70819088E-04
  -8.67000008       2.73409183E-04
  -8.65999985       2.75942148E-04
  -8.64999962       2.78418447E-04
  -8.64000034       2.80838780E-04
  -8.63000011       2.83204165E-04
  -8.61999989       2.85515911E-04
  -8.60999966       2.87775532E-04
  -8.60000038       2.89984688E-04
  -8.59000015       2.92145385E-04
  -8.57999992       2.94259575E-04
  -8.56999969       2.96329526E-04
  -8.56000042       2.98357598E-04
  -8.55000019       3.00346117E-04
  -8.53999996       3.02297616E-04
  -8.52999973       3.04214569E-04
  -8.52000046       3.06099508E-04
  -8.51000023       3.07955197E-04
  -8.50000000       3.09784198E-04
  -8.48999977       3.11589130E-04
  -8.47999954       3.13372671E-04
  -8.47000027       3.15137469E-04
  -8.46000004       3.16886144E-04
  -8.44999981       3.18621343E-04
  -8.43999958       3.20345629E-04
  -8.43000031       3.22061678E-04
  -8.42000008       3.23771848E-04
  -8.40999985       3.25478642E-04
  -8.39999962       3.27184476E-04
  -8.39000034       3.28891678E-04
  -8.38000011       3.30602546E-04
  -8.36999989       3.32319323E-04
  -8.35999966       3.34044074E-04
  -8.35000038       3.35778925E-04
  -8.34000015       3.37525969E-04
  -8.32999992       3.39287188E-04
  -8.31999969       3.41064500E-04
  -8.31000042       3.42859974E-04
  -8.30000019       3.44675354E-04
  -8.28999996       3.46512621E-04
  -8.27999973       3.48373695E-04
  -8.27000046       3.50260612E-04
  -8.26000023       3.52175382E-04
  -8.25000000       3.54119926E-04
  -8.23999977       3.56096425E-04
  -8.22999954       3.58107034E-04
  -8.22000027       3.60154110E-04
  -8.21000004       3.62239924E-04
  -8.19999981       3.64367035E-04
  -8.18999958       3.66538065E-04
  -8.18000031       3.68755718E-04
  -8.17000008       3.71022936E-04
  -8.15999985       3.73342744E-04
  -8.14999962       3.75718315E-04
  -8.14000034       3.78152938E-04
  -8.13000011       3.80650075E-04
  -8.11999989       3.83213279E-04
  -8.10999966       3.85846331E-04
  -8.10000038       3.88552959E-04
  -8.09000015       3.91336769E-04
  -8.07999992       3.94201896E-04
  -8.06999969       3.97151860E-04
  -8.06000042       4.00190649E-04
  -8.05000019       4.03321901E-04
  -8.03999996       4.06549225E-04
  -8.02999973       4.09875938E-04
  -8.02000046       4.13305446E-04
  -8.01000023       4.16840630E-04
  -8.00000000       4.20484401E-04
  -7.98999977       4.24239290E-04
  -7.98000002       4.28107509E-04
  -7.96999979       4.32091008E-04
  -7.96000004       4.36191389E-04
  -7.94999981       4.40409960E-04
  -7.94000006       4.44747595E-04
  -7.92999983       4.49204876E-04
  -7.92000008       4.53782035E-04
  -7.90999985       4.58478840E-04
  -7.90000010       4.63294651E-04
  -7.88999987       4.68228711E-04
  -7.88000011       4.73279739E-04
  -7.86999989       4.78446163E-04
  -7.86000013       4.83726093E-04
  -7.84999990       4.89117345E-04
  -7.84000015       4.94617736E-04
  -7.82999992       5.00224240E-04
  -7.82000017       5.05934120E-04
  -7.80999994       5.11744351E-04
  -7.80000019       5.17651672E-04
  -7.78999996       5.23652707E-04
  -7.78000021       5.29744138E-04
  -7.76999998       5.35922300E-04
  -7.76000023       5.42183989E-04
  -7.75000000       5.48525597E-04
  -7.73999977       5.54943690E-04
  -7.73000002       5.61435008E-04
  -7.71999979       5.67996292E-04
  -7.71000004       5.74624166E-04
  -7.69999981       5.81316068E-04
  -7.69000006       5.88069088E-04
  -7.67999983       5.94880781E-04
  -7.67000008       6.01748761E-04
  -7.65999985       6.08670816E-04
  -7.65000010       6.15645200E-04
  -7.63999987       6.22670515E-04
  -7.63000011       6.29745307E-04
  -7.61999989       6.36868528E-04
  -7.61000013       6.44039479E-04
  -7.59999990       6.51257753E-04
  -7.59000015       6.58523291E-04
  -7.57999992       6.65836269E-04
  -7.57000017       6.73197384E-04
  -7.55999994       6.80607220E-04
  -7.55000019       6.88066881E-04
  -7.53999996       6.95577823E-04
  -7.53000021       7.03141501E-04
  -7.51999998       7.10759836E-04
  -7.51000023       7.18434807E-04
  -7.50000000       7.26168568E-04
  -7.48999977       7.33963854E-04
  -7.48000002       7.41822936E-04
  -7.46999979       7.49749132E-04
  -7.46000004       7.57745176E-04
  -7.44999981       7.65814271E-04
  -7.44000006       7.73959560E-04