  -16.0000000       0.00000000    
  -15.9899998       0.00000000    
  -15.9799995       0.00000000    
  -15.9700003       0.00000000    
  -15.9600000       0.00000000    
  -15.9499998       0.00000000    
  -15.9399996       0.00000000    
  -15.9300003       0.00000000    
  -15.9200001       0.00000000    
  -15.9099998       0.00000000    
  -15.8999996       0.00000000    
  -15.8900003       0.00000000    
  -15.8800001       0.00000000    
  -15.8699999      -7.00649232E-45
  -15.8599997      -3.78350585E-44
  -15.8500004       2.29112299E-42
  -15.8400002       4.43328795E-41
  -15.8299999       5.43904190E-40
  -15.8199997       4.53487929E-39
  -15.8100004       2.90374237E-38
  -15.8000002       1.51708551E-37
  -15.7900000       6.70967713E-37
  -15.7799997       2.56322358E-36
  -15.7700005       8.57134550E-36
  -15.7600002       2.52321613E-35
  -15.7500000       6.53103858E-35
  -15.7399998       1.47029651E-34
  -15.7299995       2.79451581E-34
  -15.7200003       4.12548834E-34
  -15.7100000       3.23867474E-34
  -15.6999998      -5.65513618E-34
  -15.6899996      -3.36353345E-33
  -15.6800003      -9.59028756E-33
  -15.6700001      -2.02237573E-32
  -15.6599998      -3.32310872E-32
  -15.6499996      -3.93973221E-32
  -15.6400003      -1.80113006E-32
  -15.6300001       6.27718979E-32
  -15.6199999       2.32465058E-31
  -15.6099997       4.83014061E-31
  -15.6000004       7.12263860E-31
  -15.5900002       6.70523607E-31
  -15.5799999      -2.97195682E-32
  -15.5699997      -1.75390979E-30
  -15.5600004      -4.47176972E-30
  -15.5500002      -7.22874182E-30
  -15.5400000      -7.75599599E-30
  -15.5299997      -2.77415839E-30
  -15.5200005       1.03913144E-29
  -15.5100002       3.07254347E-29
  -15.5000000       5.00080168E-29
  -15.4899998       5.15932919E-29
  -15.4799995       1.53598270E-29
  -15.4700003      -6.84789128E-29
  -15.4600000      -1.79166831E-28
  -15.4499998      -2.50248259E-28
  -15.4399996      -1.79608928E-28
  -15.4300003       1.15358690E-28
  -15.4200001       5.97001835E-28
  -15.4099998       1.00353228E-27
  -15.3999996       8.37759304E-28
  -15.3900003      -4.30057364E-28
  -15.3800001      -2.88154018E-27
  -15.3699999      -5.51298756E-27
  -15.3599997      -5.85229366E-27
  -15.3500004      -4.91532133E-28
  -15.3400002       1.28595667E-26
  -15.3299999       3.18560338E-26
  -15.3199997       4.59558593E-26
  -15.3100004       3.59032076E-26
  -15.3000002      -1.97837148E-26
  -15.2900000      -1.28875910E-25
  -15.2799997      -2.62831296E-25
  -15.2700005      -3.38865802E-25
  -15.2600002      -2.26482607E-25
  -15.2500000       2.00358196E-25
  -15.2399998       9.58217509E-25
  -15.2299995       1.82306347E-24
  -15.2200003       2.24743514E-24
  -15.2100000       1.43843994E-24
  -15.1999998      -1.30029826E-24
  -15.1899996      -5.95552158E-24
  -15.1800003      -1.11060571E-23
  -15.1700001      -1.35655487E-23
  -15.1599998      -8.94712549E-24
  -15.1499996       6.38742805E-24
  -15.1400003       3.20890472E-23
  -15.1300001       6.03769020E-23
  -15.1199999       7.45834223E-23
  -15.1099997       5.24473763E-23
  -15.1000004      -2.39271058E-23
  -15.0900002      -1.52394358E-22
  -15.0799999      -2.94960116E-22
  -15.0699997      -3.72194471E-22
  -15.0600004      -2.80008539E-22
  -15.0500002       6.38177428E-23
  -15.0400000       6.49399233E-22
  -15.0299997       1.30701211E-21
  -15.0200005       1.68711332E-21
  -15.0100002       1.33815377E-21
  -15.0000000      -9.13331607E-23
  -14.9899998      -2.55821579E-21
  -14.9799995      -5.35173093E-21
  -14.9700003      -7.02800921E-21
  -14.9600000      -5.74684013E-21
  -14.9499998      -1.00180419E-22
  -14.9399996       9.71616122E-21
  -14.9300003       2.08537257E-20
  -14.9200001       2.76114569E-20
  -14.9099998       2.28128868E-20
  -14.8999996       1.05115218E-21
  -14.8900003      -3.68251761E-20
  -14.8800001      -7.97932540E-20
  -14.8699999      -1.06025439E-19
  -14.8599997      -8.81983590E-20
  -14.8500004      -5.71051608E-21
  -14.8400002       1.38607657E-19
  -14.8299999       3.03943328E-19
  -14.8199997       4.08977327E-19
  -14.8100004       3.50902630E-19
  -14.8000002       4.95079423E-20
  -14.7900000      -4.92046061E-19
  -14.7799997      -1.13295092E-18
  -14.7700005      -1.58150471E-18
  -14.7600002      -1.45677290E-18
  -14.7500000      -4.39342558E-19
  -14.7399998       1.51437135E-18
  -14.7299995       3.97001819E-18
  -14.7200003       5.94147001E-18
  -14.7100000       6.06387371E-18
  -14.6999998       3.07361311E-18
  -14.6899996      -3.46955779E-18
  -14.6800003      -1.24471541E-17
  -14.6700001      -2.08035295E-17
  -14.6599998      -2.39269023E-17
  -14.6499996      -1.70390653E-17
  -14.6400003       2.52248893E-18
  -14.6300001       3.27555979E-17
  -14.6199999       6.52829270E-17
  -14.6099997       8.57800787E-17
  -14.6000004       7.75099667E-17
  -14.5900002       2.79514785E-17
  -14.5799999      -6.29719696E-17
  -14.5699997      -1.76099301E-16
  -14.5600004      -2.71605164E-16
  -14.5500002      -2.96374102E-16
  -14.5400000      -2.01275026E-16
  -14.5299997       3.45592553E-17
  -14.5200005       3.79948593E-16
  -14.5100002       7.39308250E-16
  -14.5000000       9.62768141E-16
  -14.4899998       8.85079708E-16
  -14.4799995       3.89886777E-16
  -14.4700003      -5.16742296E-16
  -14.4600000      -1.65094885E-15
  -14.4499998      -2.64589672E-15
  -14.4399996      -3.02153000E-15
  -14.4300003      -2.33324839E-15
  -14.4200001      -3.71869937E-16
  -14.4099998       2.64570042E-15
  -14.3999996       5.97767880E-15
  -14.3900003       8.42958634E-15
  -14.3800001       8.63949720E-15
  -14.3699999       5.54948713E-15
  -14.3599997      -1.04914104E-15
  -14.3500004      -1.00829252E-14
  -14.3400002      -1.90902507E-14
  -14.3299999      -2.46116366E-14
  -14.3199997      -2.31174383E-14
  -14.3100004      -1.23225786E-14
  -14.3000002       7.46622528E-15
  -14.2900000       3.24667864E-14
  -14.2799997       5.55038837E-14
  -14.2700005       6.73782455E-14
  -14.2600002       5.94800088E-14
  -14.2500000       2.71334536E-14
  -14.2399998      -2.72846880E-14
  -14.2299995      -9.26545421E-14
  -14.2200003      -1.49944889E-13
  -14.2100000      -1.76128507E-13
  -14.1999998      -1.50841579E-13
  -14.1899996      -6.43716918E-14
  -14.1800003       7.53508177E-14
  -14.1700001       2.39489608E-13
  -14.1599998       3.81079337E-13
  -14.1499996       4.44831590E-13
  -14.1400003       3.82897083E-13
  -14.1300001       1.73185468E-13
  -14.1199999      -1.65019433E-13
  -14.1099997      -5.64136628E-13
  -14.1000004      -9.14948347E-13
  -14.0900002      -1.08880071E-12
  -14.0799999      -9.72848755E-13
  -14.0699997      -5.10914932E-13
  -14.0600004       2.61357721E-13
  -14.0500002       1.19988232E-12
  -14.0400000       2.06459372E-12
  -14.0299997       2.56548623E-12
  -14.0200005       2.43747579E-12
  -14.0100002       1.52904664E-12
  -14.0000000      -1.18669180E-13
  -13.9899998      -2.22925541E-12
  -13.9799995      -4.30774904E-12
  -13.9700003      -5.72777025E-12
  -13.9600000      -5.88169574E-12
  -13.9499998      -4.36562505E-12
  -13.9399996      -1.15305172E-12
  -13.9300003       3.29700308E-12
  -13.9200001       8.04599009E-12
  -13.9099998       1.18227208E-11
  -13.8999996       1.33029681E-11
  -13.8900003       1.14730066E-11
  -13.8800001       5.99214124E-12
  -13.8699999      -2.54959226E-12
  -13.8599997      -1.25755005E-11
  -13.8500004      -2.17290873E-11
  -13.8400002      -2.73423003E-11
  -13.8299999      -2.70904636E-11
  -13.8199997      -1.96914290E-11
  -13.8100004      -5.46638733E-12
  -13.8000002       1.34161102E-11
  -13.7900000       3.31379472E-11
  -13.7799997       4.88972682E-11
  -13.7700005       5.59481281E-11
  -13.7600002       5.08048222E-11
  -13.7500000       3.23271063E-11
  -13.7399998       2.39409404E-12
  -13.7299995      -3.40606050E-11
  -13.7200003      -6.97444671E-11
  -13.7100000      -9.63536334E-11
  -13.6999998      -1.06325636E-10
  -13.6899996      -9.46309558E-11
  -13.6800003      -6.01999076E-11
  -13.6700001      -6.63914323E-12
  -13.6599998       5.79663817E-11
  -13.6499996       1.22175770E-10
  -13.6400003       1.73059275E-10
  -13.6300001       1.98479053E-10
  -13.6199999       1.89386146E-10
  -13.6099997       1.41746975E-10
  -13.6000004       5.78047402E-11
  -13.5900002      -5.35080626E-11
  -13.5799999      -1.77070067E-10
  -13.5699997      -2.92974422E-10
  -13.5600004      -3.78774873E-10
  -13.5500002      -4.12489626E-10
  -13.5400000      -3.76213116E-10
  -13.5299997      -2.60075544E-10
  -13.5200005      -6.60829100E-11
  -13.5100002       1.88867824E-10
  -13.5000000       4.71720107E-10
  -13.4899998       7.34720562E-10
  -13.4799995       9.20415688E-10
  -13.4700003       9.70432401E-10
  -13.4600000       8.37470482E-10
  -13.4499998       4.98823760E-10
  -13.4399996      -3.12271320E-11
  -13.4300003      -6.93523960E-10
  -13.4200001      -1.38401346E-09
  -13.4099998      -1.96406180E-09
  -13.3999996      -2.28175923E-09
  -13.3900003      -2.20231322E-09
  -13.3800001      -1.64276781E-09
  -13.3699999      -6.03972206E-10
  -13.3599997       8.08548006E-10
  -13.3500004       2.38257170E-09
  -13.3400002       3.82112253E-09
  -13.3299999       4.78885864E-09
  -13.3199997       4.97770491E-09
  -13.3100004       4.18067136E-09
  -13.3000002       2.35853759E-09
  -13.2900000      -3.17357252E-10
  -13.2799997      -3.46084139E-09
  -13.2700005      -6.51339072E-09
  -13.2600002      -8.83234641E-09
  -13.2500000      -9.81311210E-09
  -13.2399998      -9.02368313E-09
  -13.2299995      -6.32379438E-09
  -13.2200003      -1.93997529E-09
  -13.2100000       3.52634655E-09
  -13.1999998       9.16864096E-09
  -13.1899996       1.39182053E-08
  -13.1800003       1.67386407E-08
  -13.1700001       1.68366761E-08
  -13.1599998       1.38467406E-08
  -13.1499996       7.94854405E-09
  -13.1400003      -1.12812371E-10
  -13.1300001      -9.11614340E-09
  -13.1199999      -1.75527362E-08
  -13.1099997      -2.38830555E-08
  -13.1000004      -2.68144600E-08
  -13.0900002      -2.55475303E-08
  -13.0799999      -1.99423500E-08
  -13.0699997      -1.05728351E-08
  -13.0600004       1.34265743E-09
  -13.0500002       1.41194336E-08
  -13.0400000       2.58610733E-08
  -13.0299997       3.47429996E-08
  -13.0200005       3.92770900E-08
  -13.0100002       3.85178289E-08
  -13.0000000       3.21853761E-08
  -12.9899998       2.07010906E-08
  -12.9799995       5.14491960E-09
  -12.9700003      -1.28452404E-08
  -12.9600000      -3.12129380E-08
  -12.9499998      -4.76492410E-08
  -12.9399996      -5.97835808E-08
  -12.9300003      -6.54066596E-08
  -12.9200001      -6.27325889E-08
  -12.9099998      -5.06977393E-08
  -12.8999996      -2.92707867E-08
  -12.8900003       2.75104217E-10
  -12.8800001       3.52027847E-08
  -12.8699999       7.13469035E-08
  -12.8599997       1.03414159E-07
  -12.8500004       1.25579177E-07
  -12.8400002       1.32343885E-07
  -12.8299999       1.19557583E-07
  -12.8199997       8.54279492E-08
  -12.8100004       3.13143680E-08
  -12.8000002      -3.79015077E-08
  -12.7900000      -1.14021923E-07
  -12.7799997      -1.86367956E-07
  -12.7700005      -2.43174895E-07
  -12.7600002      -2.73349997E-07
  -12.7500000      -2.68302017E-07
  -12.7399998      -2.23518683E-07
  -12.7299995      -1.39592075E-07
  -12.7200003      -2.25046204E-08
  -12.7100000       1.16875043E-07
  -12.6999998       2.63981207E-07
  -12.6899996       4.02189926E-07
  -12.6800003       5.14609212E-07
  -12.6700001       5.85746307E-07
  -12.6599998       6.02830028E-07
  -12.6499996       5.56740929E-07
  -12.6400003       4.42591045E-07
  -12.6300001       2.60108521E-07
  -12.6199999       1.40110537E-08
  -12.6099997      -2.85521054E-07
  -12.6000004      -6.22265304E-07
  -12.5900002      -9.73438773E-07
  -12.5799999      -1.30950116E-06
  -12.5699997      -1.59466435E-06
  -12.5600004      -1.78836694E-06
  -12.5500002      -1.84796636E-06
  -12.5400000      -1.73256353E-06
  -12.5299997      -1.40774455E-06
  -12.5200005      -8.50777099E-07
  -12.5100002      -5.56908653E-08
  -12.5000000       9.62380341E-07
  -12.4899998       2.16402213E-06
  -12.4799995       3.48392177E-06
  -12.4700003       4.83084614E-06
  -12.4600000       6.08918117E-06
  -12.4499998       7.12179644E-06
  -12.4399996       7.77405967E-06
  -12.4300003       7.87880981E-06
  -12.4200001       7.26211192E-06
  -12.4099998       5.75015929E-06
  -12.3999996       3.17710874E-06
  -12.3900003      -6.05683795E-07
  -12.3800001      -5.71916871E-06
  -12.3699999      -1.22451193E-05
  -12.3599997      -2.02139599E-05
  -12.3500004      -2.95927966E-05
  -12.3400002      -4.02747064E-05
  -12.3299999      -5.20711365E-05
  -12.3199997      -6.47072593E-05
  -12.3100004      -7.78235262E-05
  -12.3000002      -9.09820956E-05
  -12.2900000      -1.03680097E-04
  -12.2799997      -1.15368079E-04
  -12.2700005      -1.25473438E-04
  -12.2600002      -1.33426540E-04
  -12.2500000      -1.38689007E-04
  -12.2399998      -1.40778910E-04
  -12.2299995      -1.39293654E-04
  -12.2200003      -1.33929469E-04
  -12.2100000      -1.24492552E-04
  -12.1999998      -1.10904308E-04
  -12.1899996      -9.32003750E-05
  -12.1800003      -7.15247152E-05
  -12.1700001      -4.61196905E-05
  -12.1599998      -1.73109602E-05
  -12.1499996       1.45065433E-05
  -12.1400003       4.88864607E-05
  -12.1300001       8.53441597E-05
  -12.1199999       1.23374644E-04
  -12.1099997       1.62464130E-04
  -12.1000004       2.02103067E-04
  -12.0900002       2.41794420E-04
  -12.0799999       2.81060464E-04
  -12.0699997       3.19445244E-04
  -12.0600004       3.56514443E-04
  -12.0500002       3.91848938E-04
  -12.0400000       4.25039500E-04
  -12.0299997       4.55674541E-04
  -12.0200005       4.83332726E-04
  -12.0100002       5.07573423E-04
  -12.0000000       5.27931959E-04
  -11.9899998       5.43920323E-04
  -11.9799995       5.55035193E-04
  -11.9700003       5.60766202E-04
  -11.9600000       5.60617947E-04
  -11.9499998       5.54127328E-04
  -11.9399996       5.40886365E-04
  -11.9300003       5.20563277E-04
  -11.9200001       4.92918713E-04
  -11.9099998       4.57820774E-04
  -11.8999996       4.15249058E-04
  -11.8900003       3.65300599E-04
  -11.8800001       3.08183633E-04
  -11.8699999       2.44216499E-04
  -11.8599997       1.73810928E-04
  -11.8500004       9.74670693E-05
  -11.8400002       1.57567429E-05
  -11.8299999      -7.06905703E-05
  -11.8199997      -1.61200951E-04
  -11.8100004      -2.55073479E-04
  -11.8000002      -3.51593917E-04
  -11.7900000      -4.50042484E-04
  -11.7799997      -5.49705117E-04
  -11.7700005      -6.49870548E-04
  -11.7600002      -7.49833474E-04
  -11.7500000      -8.48880969E-04
  -11.7399998      -9.46287822E-04
  -11.7299995      -1.04130735E-03
  -11.7200003      -1.13316451E-03
  -11.7100000      -1.22105842E-03
  -11.6999998      -1.30416406E-03
  -11.6899996      -1.38164405E-03
  -11.6800003      -1.45265856E-03
  -11.6700001      -1.51637499E-03
  -11.6599998      -1.57197507E-03
  -11.6499996      -1.61865843E-03
  -11.6400003      -1.65564218E-03
  -11.6300001      -1.68215646E-03
  -11.6199999      -1.69744634E-03
  -11.6099997      -1.70077488E-03
  -11.6000004      -1.69144105E-03
  -11.5900002      -1.66879361E-03
  -11.5799999      -1.63225830E-03
  -11.5699997      -1.58135919E-03
  -11.5600004      -1.51573715E-03
  -11.5500002      -1.43516320E-03
  -11.5400000      -1.33953150E-03
  -11.5299997      -1.22885301E-03
  -11.5200005      -1.10323518E-03
  -11.5100002      -9.62865597E-04
  -11.5000000      -8.07997712E-04
  -11.4899998      -6.38944912E-04
  -11.4799995      -4.56086884E-04
  -11.4700003      -2.59881606E-04
  -11.4600000      -5.08773664E-05
  -11.4499998       1.70267202E-04
  -11.4399996       4.02775826E-04
  -11.4300003       6.45752531E-04
  -11.4200001       8.98191240E-04
  -11.4099998       1.15898764E-03
  -11.3999996       1.42696686E-03
  -11.3900003       1.70089607E-03
  -11.3800001       1.97952008E-03
  -11.3699999       2.26157787E-03
  -11.3599997       2.54582963E-03
  -11.3500004       2.83107627E-03
  -11.3400002       3.11617972E-03
  -11.3299999       3.40008410E-03
  -11.3199997       3.68182338E-03
  -11.3100004       3.96052748E-03
  -11.3000002       4.23542969E-03
  -11.2900000       4.50585084E-03
  -11.2799997       4.77119675E-03
  -11.2700005       5.03094587E-03
  -11.2600002       5.28464420E-03
  -11.2500000       5.53190615E-03
  -11.2399998       5.77239413E-03
  -11.2299995       6.00582920E-03
  -11.2200003       6.23196922E-03
  -11.2100000       6.45057904E-03
  -11.1999998       6.66140579E-03
  -11.1899996       6.86413469E-03
  -11.1800003       7.05835363E-03
  -11.1700001       7.24354340E-03
  -11.1599998       7.41906418E-03
  -11.1499996       7.58420071E-03
  -11.1400003       7.73820700E-03
  -11.1300001       7.88036920E-03
  -11.1199999       8.01008847E-03
  -11.1099997       8.12693033E-03
  -11.1000004       8.23066290E-03
  -11.0900002       8.32128711E-03
  -11.0799999       8.39902181E-03
  -11.0699997       8.46428145E-03
  -11.0600004       8.51764157E-03
  -11.0500002       8.55983514E-03
  -11.0400000       8.59170407E-03
  -11.0299997       8.61418899E-03
  -11.0200005       8.62830598E-03
  -11.0100002       8.63509066E-03
  -11.0000000       8.63556098E-03
  -10.9899998       8.63064919E-03
  -10.9799995       8.62113386E-03
  -10.9700003       8.60759337E-03
  -10.9600000       8.59037042E-03
  -10.9499998       8.56957771E-03
  -10.9399996       8.54510628E-03
  -10.9300003       8.51668324E-03
  -10.9200001       8.48391652E-03
  -10.9099998       8.44634790E-03
  -10.8999996       8.40348192E-03
  -10.8900003       8.35481659E-03
  -10.8800001       8.29984900E-03
  -10.8699999       8.23807903E-03
  -10.8599997       8.16904567E-03
  -10.8500004       8.09234288E-03
  -10.8400002       8.00766423E-03
  -10.8299999       7.91480113E-03
  -10.8199997       7.81368185E-03
  -10.8100004       7.70433340E-03
  -10.8000002       7.58682098E-03
  -10.7900000       7.46119674E-03
  -10.7799997       7.32742390E-03
  -10.7700005       7.18532456E-03
  -10.7600002       7.03459000E-03
  -10.7500000       6.87479042E-03
  -10.7399998       6.70546433E-03
  -10.7299995       6.52620429E-03
  -10.7200003       6.33673416E-03
  -10.7100000       6.13696966E-03
  -10.6999998       5.92703791E-03
  -10.6899996       5.70726069E-03
  -10.6800003       5.47810970E-03
  -10.6700001       5.24017401E-03
  -10.6599998       4.99413116E-03
  -10.6499996       4.74072946E-03
  -10.6400003       4.48079128E-03
  -10.6300001       4.21521766E-03
  -10.6199999       3.94496601E-03
  -10.6099997       3.67102912E-03
  -10.6000004       3.39435902E-03
  -10.5900002       3.11581744E-03
  -10.5799999       2.83612544E-03
  -10.5699997       2.55586253E-03
  -10.5600004       2.27550534E-03
  -10.5500002       1.99551205E-03
  -10.5400000       1.71641540E-03
  -10.5299997       1.43890455E-03
  -10.5200005       1.16383203E-03
  -10.5100002       8.92190612E-04
  -10.5000000       6.24962850E-04
  -10.4899998       3.63014929E-04
  -10.4799995       1.06930282E-04
  -10.4700003      -1.43064302E-04
  -10.4600000      -3.87090666E-04
  -10.4499998      -6.25544926E-04
  -10.4399996      -8.58930347E-04
  -10.4300003      -1.08772179E-03
  -10.4200001      -1.31222210E-03
  -10.4099998      -1.53252447E-03
  -10.3999996      -1.74855324E-03
  -10.3900003      -1.96016300E-03
  -10.3800001      -2.16730661E-03
  -10.3699999      -2.37016333E-03
  -10.3599997      -2.56922375E-03
  -10.3500004      -2.76528648E-03
  -10.3400002      -2.95941764E-03
  -10.3299999      -3.15282331E-03
  -10.3199997      -3.34675121E-03
  -10.3100004      -3.54238506E-03
  -10.3000002      -3.74077656E-03
  -10.2900000      -3.94280115E-03
  -10.2799997      -4.14914591E-03
  -10.2700005      -4.36026091E-03
  -10.2600002      -4.57630493E-03
  -10.2500000      -4.79713501E-03
  -10.2399998      -5.02222730E-03
  -10.2299995      -5.25074080E-03
  -10.2200003      -5.48159890E-03
  -10.2100000      -5.71364583E-03
  -10.1999998      -5.94585482E-03
  -10.1899996      -6.17750036E-03
  -10.1800003      -6.40829792E-03
  -10.1700001      -6.63839746E-03
  -10.1599998      -6.86829118E-03
  -10.1499996      -7.09860399E-03
  -10.1400003      -7.32986676E-03
  -10.1300001      -7.56227085E-03
  -10.1199999      -7.79554900E-03
  -10.1099997      -8.02895892E-03
  -10.1000004      -8.26136023E-03
  -10.0900002      -8.49138293E-03
  -10.0799999      -8.71759932E-03
  -10.0699997      -8.93865246E-03
  -10.0600004      -9.15330555E-03
  -10.0500002      -9.36042797E-03
  -10.0400000      -9.55891144E-03
  -10.0299997      -9.74760205E-03
  -10.0200005      -9.92528070E-03
  -10.0100002      -1.00906687E-02
  -10.0000000      -1.02425227E-02
  -9.98999977      -1.03797466E-02
  -9.97999954      -1.05014453E-02
  -9.97000027      -1.06069855E-02
  -9.96000004      -1.06958989E-02
  -9.94999981      -1.07678073E-02
  -9.93999958      -1.08222729E-02
  -9.93000031      -1.08587164E-02
  -9.92000008      -1.08763911E-02
  -9.90999985      -1.08744344E-02
  -9.89999962      -1.08519951E-02
  -9.89000034      -1.08083719E-02
  -9.88000011      -1.07431430E-02
  -9.86999989      -1.06561817E-02
  -9.85999966      -1.05476566E-02
  -9.85000038      -1.04179094E-02
  -9.84000015      -1.02673704E-02
  -9.82999992      -1.00964587E-02
  -9.81999969      -9.90562234E-03
  -9.81000042      -9.69538745E-03
  -9.80000019      -9.46650095E-03
  -9.78999996      -9.22007859E-03
  -9.77999973      -8.95768590E-03
  -9.77000046      -8.68131220E-03
  -9.76000023      -8.39329418E-03
  -9.75000000      -8.09610449E-03
  -9.73999977      -7.79213058E-03
  -9.72999954      -7.48352194E-03
  -9.72000027      -7.17207277E-03
  -9.71000004      -6.85922755E-03
  -9.69999981      -6.54616766E-03
  -9.68999958      -6.23394828E-03
  -9.68000031      -5.92362136E-03
  -9.67000008      -5.61630586E-03
  -9.65999985      -5.31318132E-03
  -9.64999962      -5.01542678E-03
  -9.64000034      -4.72411374E-03
  -9.63000011      -4.44013020E-03
  -9.61999989      -4.16410621E-03
  -9.60999966      -3.89644178E-03
  -9.60000038      -3.63731897E-03
  -9.59000015      -3.38677480E-03
  -9.57999992      -3.14470567E-03
  -9.56999969      -2.91083846E-03
  -9.56000042      -2.68469541E-03
  -9.55000019      -2.46549654E-03
  -9.53999996      -2.25209491E-03
  -9.52999973      -2.04302208E-03
  -9.52000046      -1.83657708E-03
  -9.51000023      -1.63101696E-03
  -9.50000000      -1.42478058E-03
  -9.48999977      -1.21671590E-03
  -9.47999954      -1.00623548E-03
  -9.47000027      -7.93349871E-04
  -9.46000004      -5.78603183E-04
  -9.44999981      -3.62929277E-04
  -9.43999958      -1.47446073E-04
  -9.43000031       6.66824708E-05
  -9.42000008       2.78336811E-04
  -9.40999985       4.86427394E-04
  -9.39999962       6.89770270E-04
  -9.39000034       8.86938127E-04
  -9.38000011       1.07612857E-03
  -9.36999989       1.25506567E-03
  -9.35999966       1.42104854E-03
  -9.35000038       1.57104339E-03
  -9.34000015       1.70186057E-03
  -9.32999992       1.81037153E-03
  -9.31999969       1.89364271E-03
  -9.31000042       1.94902520E-03
  -9.30000019       1.97417149E-03
  -9.28999996       1.96695933E-03
  -9.27999973       1.92539743E-03
  -9.27000046       1.84753060E-03
  -9.26000023       1.73141272E-03
  -9.25000000       1.57508592E-03
  -9.23999977       1.37662713E-03
  -9.22999954       1.13420666E-03
  -9.22000027       8.46123148E-04
  -9.21000004       5.10801328E-04
  -9.19999981       1.26744562E-04
  -9.18999958      -3.07507202E-04
  -9.18000031      -7.93421175E-04
  -9.17000008      -1.33248651E-03
  -9.15999985      -1.92613562E-03
  -9.14999962      -2.57559144E-03
  -9.14000034      -3.28170415E-03
  -9.13000011      -4.04478284E-03
  -9.11999989      -4.86443099E-03
  -9.10999966      -5.73952077E-03
  -9.10000038      -6.66821422E-03
  -9.09000015      -7.64803821E-03
  -9.07999992      -8.67602695E-03
  -9.06999969      -9.74879041E-03
  -9.06000042      -1.08625563E-02
  -9.05000019      -1.20131336E-02
  -9.03999996      -1.31958276E-02
  -9.02999973      -1.44053139E-02
  -9.02000046      -1.56356264E-02
  -9.01000023      -1.68800969E-02
  -9.00000000      -1.81315336E-02
  -8.98999977      -1.93823539E-02
  -8.97999954      -2.06247903E-02
  -8.97000027      -2.18511131E-02
  -8.96000004      -2.30537038E-02
  -8.94999981      -2.42251419E-02
  -8.93999958      -2.53581535E-02
  -8.93000031      -2.64455192E-02
  -8.92000008      -2.74800900E-02
  -8.90999985      -2.84547415E-02
  -8.89999962      -2.93625016E-02
  -8.89000034      -3.01967300E-02
  -8.88000011      -3.09512541E-02
  -8.86999989      -3.16205956E-02
  -8.85999966      -3.22000049E-02
  -8.85000038      -3.26855145E-02
  -8.84000015      -3.30738463E-02
  -8.82999992      -3.33622918E-02
  -8.81999969      -3.35486494E-02
  -8.81000042      -3.36311460E-02
  -8.80000019      -3.36085111E-02
  -8.78999996      -3.34800184E-02
  -8.77999973      -3.32455635E-02
  -8.77000046      -3.29056904E-02
  -8.76000023      -3.24615054E-02
  -8.75000000      -3.19145583E-02
  -8.73999977      -3.12665291E-02
  -8.72999954      -3.05190384E-02
  -8.72000027      -2.96734069E-02
  -8.71000004      -2.87306383E-02
  -8.69999981      -2.76914090E-02
  -8.68999958      -2.65562888E-02
  -8.68000031      -2.53258608E-02
  -8.67000008      -2.40010004E-02
  -8.65999985      -2.25828812E-02
  -8.64999962      -2.10730322E-02
  -8.64000034      -1.94732212E-02
  -8.63000011      -1.77853350E-02
  -8.61999989      -1.60113387E-02
  -8.60999966      -1.41532356E-02
  -8.60000038      -1.22132190E-02
  -8.59000015      -1.01938387E-02
  -8.57999992      -8.09822697E-03
  -8.56999969      -5.93025377E-03
  -8.56000042      -3.69456806E-03
  -8.55000019      -1.39655510E-03
  -8.53999996       9.57856828E-04
  -8.52999973       3.36236507E-03
  -8.52000046       5.81051689E-03
  -8.51000023       8.29582848E-03
  -8.50000000       1.08117927E-02
  -8.48999977       1.33518651E-02
  -8.47999954       1.59094464E-02
  -8.47000027       1.84778534E-02
  -8.46000004       2.10503917E-02
  -8.44999981       2.36205999E-02
  -8.43999958       2.61823907E-02
  -8.43000031       2.87303030E-02
  -8.42000008       3.12596411E-02
  -8.40999985       3.37664671E-02
  -8.39999962       3.62475775E-02
  -8.39000034       3.87002379E-02
  -8.38000011       4.11220603E-02
  -8.36999989       4.35107872E-02
  -8.35999966       4.58642468E-02
  -8.35000038       4.81803641E-02
  -8.34000015       5.04572205E-02
  -8.32999992       5.26931174E-02
  -8.31999969       5.48866093E-02
  -8.31000042       5.70364520E-02
  -8.30000019       5.91414832E-02
  -8.28999996       6.12003841E-02
  -8.27999973       6.32116199E-02
  -8.27000046       6.51732758E-02
  -8.26000023       6.70830682E-02
  -8.25000000       6.89383894E-02
  -8.23999977       7.07364231E-02
  -8.22999954       7.24742487E-02
  -8.22000027       7.41488114E-02
  -8.21000004       7.57568479E-02
  -8.19999981       7.72949010E-02
  -8.18999958       7.87590370E-02
  -8.18000031       8.01448226E-02
  -8.17000008       8.14473182E-02
  -8.15999985       8.26611817E-02
  -8.14999962       8.37807506E-02
  -8.14000034       8.48003477E-02
  -8.13000011       8.57143775E-02
  -8.11999989       8.65173861E-02
  -8.10999966       8.72041211E-02
  -8.10000038       8.77693817E-02
  -8.09000015       8.82079974E-02
  -8.07999992       8.85147303E-02
  -8.06999969       8.86843354E-02
  -8.06000042       8.87116119E-02
  -8.05000019       8.85916054E-02
  -8.03999996       8.83196369E-02
  -8.02999973       8.78916308E-02
  -8.02000046       8.73039588E-02
  -8.01000023       8.65535215E-02
  -8.00000000       8.56377482E-02
  -7.98999977       8.45544189E-02
  -7.98000002       8.33018348E-02
  -7.96999979       8.18788186E-02
  -7.96000004       8.02849010E-02
  -7.94999981       7.85203576E-02
  -7.94000006       7.65864477E-02
  -7.92999983       7.44853169E-02
  -7.92000008       7.22199306E-02
  -7.90999985       6.97938800E-02
  -7.90000010       6.72113299E-02
  -7.88999987       6.44767433E-02
  -7.88000011       6.15949407E-02
  -7.86999989       5.85711524E-02
  -7.86000013       5.54112270E-02
  -7.84999990       5.21216914E-02
  -7.84000015       4.87099476E-02
  -7.82999992       4.51841839E-02
  -7.82000017       4.15532365E-02
  -7.80999994       3.78263444E-02
  -7.80000019       3.40128765E-02
  -7.78999996       3.01220808E-02
  -7.78000021       2.61629596E-02
  -7.76999998       2.21443325E-02
  -7.76000023       1.80749353E-02
  -7.75000000       1.39635941E-02
  -7.73999977       9.81936790E-03
  -7.73000002       5.65156108E-03
  -7.71999979       1.46967568E-03
  -7.71000004      -2.71678553E-03
  -7.69999981      -6.89853169E-03
  -7.69000006      -1.10666156E-02
  -7.67999983      -1.52125079E-02
  -7.67000008      -1.93279926E-02
  -7.65999985      -2.34049931E-02
  -7.65000010      -2.74353754E-02
  -7.63999987      -3.14107910E-02
  -7.63000011      -3.53226624E-02
  -7.61999989      -3.91623266E-02
  -7.61000013      -4.29212414E-02
  -7.59999990      -4.65913229E-02
  -7.59000015      -5.01651503E-02
  -7.57999992      -5.36361858E-02
  -7.57000017      -5.69986738E-02
  -7.55999994      -6.02475964E-02
  -7.55000019      -6.33784309E-02
  -7.53999996      -6.63870648E-02
  -7.53000021      -6.92696646E-02
  -7.51999998      -7.20228627E-02
  -7.51000023      -7.46438131E-02
  -7.50000000      -7.71305859E-02
  -7.48999977      -7.94822201E-02
  -7.48000002      -8.16990361E-02
  -7.46999979      -8.37822706E-02
  -7.46000004      -8.57341439E-02
  -7.44999981      -8.75573158E-02
  -7.44000006      -8.92547220E-02