  -16.0000000       0.00000000    
  -15.9899998       0.00000000    
  -15.9799995       0.00000000    
  -15.9700003       0.00000000    
  -15.9600000       0.00000000    
  -15.9499998       0.00000000    
  -15.9399996       0.00000000    
  -15.9300003       0.00000000    
  -15.9200001       0.00000000    
  -15.9099998       0.00000000    
  -15.8999996       0.00000000    
  -15.8900003       0.00000000    
  -15.8800001       0.00000000    
  -15.8699999       0.00000000    
  -15.8599997       0.00000000    
  -15.8500004       0.00000000    
  -15.8400002       0.00000000    
  -15.8299999       0.00000000    
  -15.8199997       5.60519386E-45
  -15.8100004       3.64337601E-44
  -15.8000002       2.21405157E-43
  -15.7900000       1.13084786E-42
  -15.7799997       5.03486538E-42
  -15.7700005       1.98746161E-41
  -15.7600002       7.03507881E-41
  -15.7500000       2.25262932E-40
  -15.7399998       6.56795597E-40
  -15.7299995       1.75203226E-39
  -15.7200003       4.28869077E-39
  -15.7100000       9.64490752E-39
  -15.6999998       1.99099176E-38
  -15.6899996       3.75846605E-38
  -15.6800003       6.43507139E-38
  -15.6700001       9.82974775E-38
  -15.6599998       1.29335880E-37
  -15.6499996       1.33687853E-37
  -15.6400003       7.05550806E-38
  -15.6300001      -1.13065538E-37
  -15.6199999      -4.61542021E-37
  -15.6099997      -9.67911781E-37
  -15.6000004      -1.51311697E-36
  -15.5900002      -1.80995153E-36
  -15.5799999      -1.39901890E-36
  -15.5699997       2.39097122E-37
  -15.5600004       3.40436552E-36
  -15.5500002       7.74639011E-36
  -15.5400000       1.18258699E-35
  -15.5299997       1.29684463E-35
  -15.5200005       7.80536787E-36
  -15.5100002      -6.20524771E-36
  -15.5000000      -2.83977309E-35
  -15.4899998      -5.25036389E-35
  -15.4799995      -6.58761211E-35
  -15.4700003      -5.22961308E-35
  -15.4600000       4.77969050E-37
  -15.4499998       8.96200968E-35
  -15.4399996       1.87385750E-34
  -15.4300003       2.40481257E-34
  -15.4200001       1.86712974E-34
  -15.4099998      -8.91117701E-36
  -15.3999996      -3.09136992E-34
  -15.3900003      -5.76801027E-34
  -15.3800001      -6.00398433E-34
  -15.3699999      -1.98807502E-34
  -15.3599997       6.08262720E-34
  -15.3500004       1.44235352E-33
  -15.3400002       1.56155957E-33
  -15.3299999       1.57604933E-34
  -15.3199997      -3.00154805E-33
  -15.3100004      -6.78089426E-33
  -15.3000002      -8.25160300E-33
  -15.2900000      -3.34789791E-33
  -15.2799997       1.08427996E-32
  -15.2700005       3.23850486E-32
  -15.2600002       5.09828651E-32
  -15.2500000       4.76637569E-32
  -15.2399998       1.11506063E-33
  -15.2299995      -9.77093415E-32
  -15.2200003      -2.25964785E-31
  -15.2100000      -3.14563346E-31
  -15.1999998      -2.55239320E-31
  -15.1899996       5.57152701E-32
  -15.1800003       6.35058472E-31
  -15.1700001       1.31669849E-30
  -15.1599998       1.70090798E-30
  -15.1499996       1.22803566E-30
  -15.1400003      -5.62751181E-31
  -15.1300001      -3.60934807E-30
  -15.1199999      -6.89474645E-30
  -15.1099997      -8.31139356E-30
  -15.1000004      -5.18333989E-30
  -15.0900002       4.34334555E-30
  -15.0799999       1.92641173E-29
  -15.0699997       3.39057469E-29
  -15.0600004       3.78104405E-29
  -15.0500002       1.88603190E-29
  -15.0400000      -2.97433729E-29
  -15.0299997      -1.00174568E-28
  -15.0200005      -1.62767803E-28
  -15.0100002      -1.67594965E-28
  -15.0000000      -6.11622508E-29
  -14.9899998       1.80384175E-28
  -14.9799995       5.10054909E-28
  -14.9700003       7.81611801E-28
  -14.9600000       7.63224033E-28
  -14.9499998       2.18560765E-28
  -14.9399996      -9.42705634E-28
  -14.9300003      -2.48610554E-27
  -14.9200001      -3.73687186E-27
  -14.9099998      -3.65084788E-27
  -14.8999996      -1.17357783E-27
  -14.8900003       4.11154997E-27
  -14.8800001       1.12223707E-26
  -14.8699999       1.72819379E-26
  -14.8599997       1.77870970E-26
  -14.8500004       8.05225840E-27
  -14.8400002      -1.41576820E-26
  -14.8299999      -4.54797232E-26
  -14.8199997      -7.47475043E-26
  -14.8100004      -8.36719063E-26
  -14.8000002      -5.20637289E-26
  -14.7900000       3.21730572E-26
  -14.7799997       1.60567522E-25
  -14.7700005       2.94350998E-25
  -14.7600002       3.64674151E-25
  -14.7500000       2.89308500E-25
  -14.7399998       7.71833219E-27
  -14.7299995      -4.72260308E-25
  -14.7200003      -1.03341134E-24
  -14.7100000      -1.43900062E-24
  -14.6999998      -1.37828939E-24
  -14.6899996      -5.78923867E-25
  -14.6800003       1.03019761E-24
  -14.6700001       3.15769562E-24
  -14.6599998       5.07246831E-24
  -14.6499996       5.69931651E-24
  -14.6400003       3.94182948E-24
  -14.6300001      -7.94047025E-25
  -14.6199999      -8.01615603E-24
  -14.6099997      -1.57510342E-23
  -14.6000004      -2.06344682E-23
  -14.5900002      -1.87153211E-23
  -14.5799999      -6.98480401E-24
  -14.5699997       1.46930029E-23
  -14.5600004       4.19352115E-23
  -14.5500002       6.53942908E-23
  -14.5400000       7.23516338E-23
  -14.5299997       5.06879104E-23
  -14.5200005      -5.34318960E-24
  -14.5100002      -8.92148546E-23
  -14.5000000      -1.78676313E-22
  -14.4899998      -2.37507136E-22
  -14.4799995      -2.24283606E-22
  -14.4700003      -1.07759573E-22
  -14.4600000       1.14609145E-22
  -14.4499998       4.01469717E-22
  -14.4399996       6.63788915E-22
  -14.4300003       7.79451322E-22
  -14.4200001       6.28635405E-22
  -14.4099998       1.44726782E-22
  -14.3999996      -6.33302634E-22
  -14.3900003      -1.52798949E-21
  -14.3800001      -2.23210326E-21
  -14.3699999      -2.37385569E-21
  -14.3599997      -1.63699164E-21
  -14.3500004       8.85430165E-23
  -14.3400002       2.57216436E-21
  -14.3299999       5.18433954E-21
  -14.3199997       6.96927697E-21
  -14.3100004       6.87486609E-21
  -14.3000002       4.11588392E-21
  -14.2900000      -1.41424004E-21
  -14.2799997      -8.82022687E-21
  -14.2700005      -1.61278070E-20
  -14.2600002      -2.05793166E-20
  -14.2500000      -1.93384180E-20
  -14.2399998      -1.05028544E-20
  -14.2299995       5.82791272E-21
  -14.2200003       2.67985839E-20
  -14.2100000       4.67496439E-20
  -14.1999998       5.81576859E-20
  -14.1899996       5.35967348E-20
  -14.1800003       2.84015113E-20
  -14.1700001      -1.66501861E-20
  -14.1599998      -7.35698056E-20
  -14.1499996      -1.27251540E-19
  -14.1400003      -1.58060153E-19
  -14.1300001      -1.46907070E-19
  -14.1199999      -8.19495523E-20
  -14.1099997       3.47989455E-20
  -14.1000004       1.83220351E-19
  -14.0900002       3.25445682E-19
  -14.0799999       4.12258184E-19
  -14.0699997       3.95455612E-19
  -14.0600004       2.44063491E-19
  -14.0500002      -3.96747940E-20
  -14.0400000      -4.09852897E-19
  -14.0299997      -7.77226865E-19
  -14.0200005      -1.02367395E-18
  -14.0100002      -1.03061989E-18
  -14.0000000      -7.16693168E-19
  -13.9899998      -7.54100821E-20
  -13.9799995       7.99139707E-19
  -13.9700003       1.71044014E-18
  -13.9600000       2.38933064E-18
  -13.9499998       2.55549592E-18
  -13.9399996       2.00072946E-18
  -13.9300003       6.74309364E-19
  -13.9200001      -1.25544996E-18
  -13.9099998      -3.38927226E-18
  -13.8999996      -5.15214242E-18
  -13.8900003      -5.91718895E-18
  -13.8800001      -5.17899560E-18
  -13.8699999      -2.73678372E-18
  -13.8599997       1.16529741E-18
  -13.8500004       5.79402424E-18
  -13.8400002       1.00164649E-17
  -13.8299999       1.25291525E-17
  -13.8199997       1.21927969E-17
  -13.8100004       8.39874609E-18
  -13.8000002       1.36691607E-18
  -13.7900000      -7.72714326E-18
  -13.7799997      -1.68703866E-17
  -13.7700005      -2.35937040E-17
  -13.7600002      -2.55614211E-17
  -13.7500000      -2.12422529E-17
  -13.7399998      -1.04867526E-17
  -13.7299995       5.16943256E-18
  -13.7200003       2.26109291E-17
  -13.7100000       3.76977009E-17
  -13.6999998       4.61897687E-17
  -13.6899996       4.48437010E-17
  -13.6800003       3.24053630E-17
  -13.6700001       1.02128814E-17
  -13.6599998      -1.78048261E-17
  -13.6499996      -4.58058279E-17
  -13.6400003      -6.72807601E-17
  -13.6300001      -7.65875941E-17
  -13.6199999      -7.03902776E-17
  -13.6099997      -4.86108668E-17
  -13.6000004      -1.46140464E-17
  -13.5900002       2.54563775E-17
  -13.5799999       6.40309924E-17
  -13.5699997       9.37951743E-17
  -13.5600004       1.09231681E-16
  -13.5500002       1.07601772E-16
  -13.5400000       8.91238009E-17
  -13.5299997       5.63822386E-17
  -13.5200005       1.32737400E-17
  -13.5100002      -3.60280269E-17
  -13.5000000      -8.76095574E-17
  -13.4899998      -1.37582476E-16
  -13.4799995      -1.81161647E-16
  -13.4700003      -2.11539464E-16
  -13.4600000      -2.19321143E-16
  -13.4499998      -1.93309065E-16
  -13.4399996      -1.23109079E-16
  -13.4300003      -3.40580223E-18
  -13.4200001       1.61024868E-16
  -13.4099998       3.51192195E-16
  -13.3999996       5.32599971E-16
  -13.3900003       6.58451491E-16
  -13.3800001       6.78070309E-16
  -13.3699999       5.49757523E-16
  -13.3599997       2.55619747E-16
  -13.3500004      -1.85484585E-16
  -13.3400002      -7.11314182E-16
  -13.3299999      -1.21971908E-15
  -13.3199997      -1.58406427E-15
  -13.3100004      -1.67947660E-15
  -13.3000002      -1.41541471E-15
  -13.2900000      -7.67209833E-16
  -13.2799997       2.02161830E-16
  -13.2700005       1.33806726E-15
  -13.2600002       2.41281634E-15
  -13.2500000       3.16662526E-15
  -13.2399998       3.36471577E-15
  -13.2299995       2.85888549E-15
  -13.2200003       1.63865819E-15
  -13.2100000      -1.42730531E-16
  -13.1999998      -2.17814353E-15
  -13.1899996      -4.05528162E-15
  -13.1800003      -5.33800841E-15
  -13.1700001      -5.66473443E-15
  -13.1599998      -4.84195203E-15
  -13.1499996      -2.90938813E-15
  -13.1400003      -1.57484124E-16
  -13.1300001       2.91236376E-15
  -13.1199999       5.68116263E-15
  -13.1099997       7.54189242E-15
  -13.1000004       8.03720002E-15
  -13.0900002       6.97264181E-15
  -13.0799999       4.47625954E-15
  -13.0699997       9.86490993E-16
  -13.0600004      -2.83288073E-15
  -13.0500002      -6.23368561E-15
  -13.0400000      -8.54799901E-15
  -13.0299997      -9.33649689E-15
  -13.0200005      -8.48294942E-15
  -13.0100002      -6.20988229E-15
  -13.0000000      -3.01062085E-15
  -12.9899998       4.84504752E-16
  -12.9799995       3.67088197E-15
  -12.9700003       6.11491423E-15
  -12.9600000       7.63879130E-15
  -12.9499998       8.31808631E-15
  -12.9399996       8.39142920E-15
  -12.9300003       8.10996269E-15
  -12.9200001       7.57712052E-15
  -12.9099998       6.63863639E-15
  -12.8999996       4.87410922E-15
  -12.8900003       1.71517459E-15
  -12.8800001      -3.32344134E-15
  -12.8699999      -1.03544950E-14
  -12.8599997      -1.88561935E-14
  -12.8500004      -2.75336886E-14
  -12.8400002      -3.43833509E-14
  -12.8299999      -3.69954379E-14
  -12.8199997      -3.30688541E-14
  -12.8100004      -2.10460125E-14
  -12.8000002      -7.24115391E-16
  -12.7900000       2.63210576E-14
  -12.7799997       5.66425230E-14
  -12.7700005       8.52435933E-14
  -12.7600002       1.06304973E-13
  -12.7500000       1.14209125E-13
  -12.7399998       1.04669542E-13
  -12.7299995       7.57290145E-14
  -12.7200003       2.84015365E-14
  -12.7100000      -3.31996359E-14
  -12.6999998      -1.02295437E-13
  -12.6899996      -1.70355212E-13
  -12.6800003      -2.28302593E-13
  -12.6700001      -2.67758092E-13
  -12.6599998      -2.82067663E-13
  -12.6499996      -2.66935372E-13
  -12.6400003      -2.20600109E-13
  -12.6300001      -1.43631905E-13
  -12.6199999      -3.85388031E-14
  -12.6099997       9.05744799E-14
  -12.6000004       2.38081581E-13
  -12.5900002       3.96538000E-13
  -12.5799999       5.56070381E-13
  -12.5699997       7.03676754E-13
  -12.5600004       8.22792355E-13
  -12.5500002       8.93513508E-13
  -12.5400000       8.93791551E-13
  -12.5299997       8.01732053E-13
  -12.5200005       5.98876688E-13
  -12.5100002       2.74075413E-13
  -12.5000000      -1.72649492E-13
  -12.4899998      -7.26950184E-13
  -12.4799995      -1.35835700E-12
  -12.4700003      -2.02030146E-12
  -12.4600000      -2.65210922E-12
  -12.4499998      -3.18277956E-12
  -12.4399996      -3.53605860E-12
  -12.4300003      -3.63611528E-12
  -12.4200001      -3.41307625E-12
  -12.4099998      -2.80776812E-12
  -12.3999996      -1.77525052E-12
  -12.3900003      -2.86985876E-13
  -12.3800001       1.66820507E-12
  -12.3699999       4.08405731E-12
  -12.3599997       6.93723117E-12
  -12.3500004       1.01877526E-11
  -12.3400002       1.37793006E-11
  -12.3299999       1.76392390E-11
  -12.3199997       2.16786190E-11
  -12.3100004       2.57924602E-11
  -12.3000002       2.98606626E-11
  -12.2900000       3.37498293E-11
  -12.2799997       3.73163861E-11
  -12.2700005       4.04107754E-11
  -12.2600002       4.28827598E-11
  -12.2500000       4.45873997E-11
  -12.2399998       4.53912671E-11
  -12.2299995       4.51783680E-11
  -12.2200003       4.38553222E-11
  -12.2100000       4.13553011E-11
  -12.1999998       3.76408106E-11
  -12.1899996       3.27047070E-11
  -12.1800003       2.65698158E-11
  -12.1700001       1.92870858E-11
  -12.1599998       1.09330565E-11
  -12.1499996       1.60658737E-12
  -12.1400003      -8.57524989E-12
  -12.1300001      -1.94806497E-11
  -12.1199999      -3.09670380E-11
  -12.1099997      -4.28848207E-11
  -12.1000004      -5.50807212E-11
  -12.0900002      -6.74013900E-11
  -12.0799999      -7.96962218E-11
  -12.0699997      -9.18205234E-11
  -12.0600004      -1.03637543E-10
  -12.0500002      -1.15019716E-10
  -12.0400000      -1.25848568E-10
  -12.0299997      -1.36013048E-10
  -12.0200005      -1.45406326E-10
  -12.0100002      -1.53921292E-10
  -12.0000000      -1.61445676E-10
  -11.9899998      -1.67857353E-10
  -11.9799995      -1.73021333E-10
  -11.9700003      -1.76788945E-10
  -11.9600000      -1.79000412E-10
  -11.9499998      -1.79489659E-10
  -11.9399996      -1.78092902E-10
  -11.9300003      -1.74657400E-10
  -11.9200001      -1.69052466E-10
  -11.9099998      -1.61177446E-10
  -11.8999996      -1.50968973E-10
  -11.8900003      -1.38403913E-10
  -11.8800001      -1.23500751E-10
  -11.8699999      -1.06316574E-10
  -11.8599997      -8.69430361E-11
  -11.8500004      -6.55004731E-11
  -11.8400002      -4.21324642E-11
  -11.8299999      -1.69998685E-11
  -11.8199997       9.72263242E-12
  -11.8100004       3.78505248E-11
  -11.8000002       6.71900938E-11
  -11.7900000       9.75394696E-11
  -11.7799997       1.28687644E-10
  -11.7700005       1.60413058E-10
  -11.7600002       1.92481309E-10
  -11.7500000       2.24642804E-10
  -11.7399998       2.56631966E-10
  -11.7299995       2.88165880E-10
  -11.7200003       3.18948756E-10
  -11.7100000       3.48674478E-10
  -11.6999998       3.77035569E-10
  -11.6899996       4.03732880E-10
  -11.6800003       4.28485580E-10
  -11.6700001       4.51040066E-10
  -11.6599998       4.71175765E-10
  -11.6499996       4.88706742E-10
  -11.6400003       5.03477482E-10
  -11.6300001       5.15353815E-10
  -11.6199999       5.24210897E-10
  -11.6099997       5.29920385E-10
  -11.6000004       5.32338951E-10
  -11.5900002       5.31302613E-10
  -11.5799999       5.26626576E-10
  -11.5699997       5.18112386E-10
  -11.5600004       5.05559483E-10
  -11.5500002       4.88781238E-10
  -11.5400000       4.67618722E-10
  -11.5299997       4.41953585E-10
  -11.5200005       4.11716439E-10
  -11.5100002       3.76885523E-10
  -11.5000000       3.37486761E-10
  -11.4899998       2.93582381E-10
  -11.4799995       2.45266141E-10
  -11.4700003       1.92655752E-10
  -11.4600000       1.35885220E-10
  -11.4499998       7.51071913E-11
  -11.4399996       1.04911696E-11
  -11.4300003      -5.77719088E-11
  -11.4200001      -1.29469976E-10
  -11.4099998      -2.04369591E-10
  -11.3999996      -2.82219997E-10
  -11.3900003      -3.62758212E-10
  -11.3800001      -4.45716158E-10
  -11.3699999      -5.30831601E-10
  -11.3599997      -6.17849771E-10
  -11.3500004      -7.06531944E-10
  -11.3400002      -7.96655020E-10
  -11.3299999      -8.88009000E-10
  -11.3199997      -9.80396431E-10
  -11.3100004      -1.07362630E-09
  -11.3000002      -1.16751320E-09
  -11.2900000      -1.26187472E-09
  -11.2799997      -1.35653133E-09
  -11.2700005      -1.45130774E-09
  -11.2600002      -1.54603441E-09
  -11.2500000      -1.64054681E-09
  -11.2399998      -1.73468595E-09
  -11.2299995      -1.82829851E-09
  -11.2200003      -1.92123051E-09
  -11.2100000      -2.01332551E-09
  -11.1999998      -2.10442219E-09
  -11.1899996      -2.19435314E-09
  -11.1800003      -2.28293939E-09
  -11.1700001      -2.36999909E-09
  -11.1599998      -2.45534659E-09
  -11.1499996      -2.53880184E-09
  -11.1400003      -2.62019784E-09
  -11.1300001      -2.69939271E-09
  -11.1199999      -2.77627232E-09
  -11.1099997      -2.85076718E-09
  -11.1000004      -2.92285618E-09
  -11.0900002      -2.99256175E-09
  -11.0799999      -3.05994985E-09
  -11.0699997      -3.12511972E-09
  -11.0600004      -3.18817861E-09
  -11.0500002      -3.24923799E-09
  -11.0400000      -3.30838423E-09
  -11.0299997      -3.36566863E-09
  -11.0200005      -3.42108830E-09
  -11.0100002      -3.47459328E-09
  -11.0000000      -3.52608875E-09
  -10.9899998      -3.57544772E-09
  -10.9799995      -3.62255004E-09
  -10.9700003      -3.66727093E-09
  -10.9600000      -3.70954045E-09
  -10.9499998      -3.74933151E-09
  -10.9399996      -3.78667053E-09
  -10.9300003      -3.82164256E-09
  -10.9200001      -3.85437371E-09
  -10.9099998      -3.88501409E-09
  -10.8999996      -3.91371291E-09
  -10.8900003      -3.94057054E-09
  -10.8800001      -3.96565980E-09
  -10.8699999      -3.98897138E-09
  -10.8599997      -4.01041556E-09
  -10.8500004      -4.02984401E-09
  -10.8400002      -4.04703249E-09
  -10.8299999      -4.06170431E-09
  -10.8199997      -4.07359391E-09
  -10.8100004      -4.08241396E-09
  -10.8000002      -4.08794687E-09
  -10.7900000      -4.09001677E-09
  -10.7799997      -4.08857170E-09
  -10.7700005      -4.08362766E-09
  -10.7600002      -4.07531919E-09
  -10.7500000      -4.06385592E-09
  -10.7399998      -4.04950296E-09
  -10.7299995      -4.03258182E-09
  -10.7200003      -4.01337719E-09
  -10.7100000      -3.99213063E-09
  -10.6999998      -3.96906685E-09
  -10.6899996      -3.94429556E-09
  -10.6800003      -3.91786292E-09
  -10.6700001      -3.88974764E-09
  -10.6599998      -3.85988796E-09
  -10.6499996      -3.82819820E-09
  -10.6400003      -3.79457399E-09
  -10.6300001      -3.75899578E-09
  -10.6199999      -3.72146314E-09
  -10.6099997      -3.68205533E-09
  -10.6000004      -3.64094110E-09
  -10.5900002      -3.59839136E-09
  -10.5799999      -3.55473428E-09
  -10.5699997      -3.51037599E-09
  -10.5600004      -3.46575102E-09
  -10.5500002      -3.42131079E-09
  -10.5400000      -3.37750738E-09
  -10.5299997      -3.33474159E-09
  -10.5200005      -3.29334848E-09
  -10.5100002      -3.25359828E-09
  -10.5000000      -3.21564242E-09
  -10.4899998      -3.17960769E-09
  -10.4799995      -3.14549342E-09
  -10.4700003      -3.11329851E-09
  -10.4600000      -3.08298032E-09
  -10.4499998      -3.05449221E-09
  -10.4399996      -3.02781156E-09
  -10.4300003      -3.00295833E-09
  -10.4200001      -2.97997582E-09
  -10.4099998      -2.95897484E-09
  -10.3999996      -2.94006819E-09
  -10.3900003      -2.92340352E-09
  -10.3800001      -2.90910429E-09
  -10.3699999      -2.89732016E-09
  -10.3599997      -2.88817681E-09
  -10.3500004      -2.88173041E-09
  -10.3400002      -2.87799762E-09
  -10.3299999      -2.87694313E-09
  -10.3199997      -2.87850677E-09
  -10.3100004      -2.88250401E-09
  -10.3000002      -2.88877944E-09
  -10.2900000      -2.89714097E-09
  -10.2799997      -2.90737789E-09
  -10.2700005      -2.91926883E-09
  -10.2600002      -2.93265967E-09
  -10.2500000      -2.94742786E-09
  -10.2399998      -2.96343505E-09
  -10.2299995      -2.98059688E-09
  -10.2200003      -2.99893332E-09
  -10.2100000      -3.01844416E-09
  -10.1999998      -3.03917425E-09
  -10.1899996      -3.06116266E-09
  -10.1800003      -3.08448334E-09
  -10.1700001      -3.10926929E-09
  -10.1599998      -3.13561643E-09
  -10.1499996      -3.16367488E-09
  -10.1400003      -3.19357474E-09
  -10.1300001      -3.22546190E-09
  -10.1199999      -3.25945293E-09
  -10.1099997      -3.29564931E-09
  -10.1000004      -3.33410832E-09
  -10.0900002      -3.37489481E-09
  -10.0799999      -3.41803497E-09
  -10.0699997      -3.46352724E-09
  -10.0600004      -3.51132856E-09
  -10.0500002      -3.56143603E-09
  -10.0400000      -3.61374930E-09
  -10.0299997      -3.66827879E-09
  -10.0200005      -3.72495235E-09
  -10.0100002      -3.78373999E-09
  -10.0000000      -3.84467480E-09
  -9.98999977      -3.90778210E-09
  -9.97999954      -3.97316535E-09
  -9.97000027      -4.04094624E-09
  -9.96000004      -4.11129042E-09
  -9.94999981      -4.18436796E-09
  -9.93999958      -4.26038005E-09
  -9.93000031      -4.33947944E-09
  -9.92000008      -4.42181580E-09
  -9.90999985      -4.50742821E-09
  -9.89999962      -4.59636906E-09
  -9.89000034      -4.68856109E-09
  -9.88000011      -4.78394835E-09
  -9.86999989      -4.88237006E-09
  -9.85999966      -4.98363706E-09
  -9.85000038      -5.08762499E-09
  -9.84000015      -5.19413579E-09
  -9.82999992      -5.30303979E-09
  -9.81999969      -5.41418110E-09
  -9.81000042      -5.52747048E-09
  -9.80000019      -5.64291369E-09
  -9.78999996      -5.76049652E-09
  -9.77999973      -5.88036331E-09
  -9.77000046      -6.00276362E-09
  -9.76000023      -6.12795237E-09
  -9.75000000      -6.25626129E-09
  -9.73999977      -6.38803499E-09
  -9.72999954      -6.52360210E-09
  -9.72000027      -6.66317401E-09
  -9.71000004      -6.80691103E-09
  -9.69999981      -6.95483893E-09
  -9.68999958      -7.10685200E-09
  -9.68000031      -7.26271354E-09
  -9.67000008      -7.42216910E-09
  -9.65999985      -7.58486607E-09
  -9.64999962      -7.75042341E-09
  -9.64000034      -7.91849608E-09
  -9.63000011      -8.08865153E-09
  -9.61999989      -8.26059576E-09
  -9.60999966      -8.43401526E-09
  -9.60000038      -8.60861871E-09
  -9.59000015      -8.78412454E-09
  -9.57999992      -8.96027963E-09
  -9.56999969      -9.13680065E-09
  -9.56000042      -9.31347177E-09
  -9.55000019      -9.48999457E-09
  -9.53999996      -9.66603508E-09
  -9.52999973      -9.84124870E-09
  -9.52000046      -1.00152739E-08
  -9.51000023      -1.01876498E-08
  -9.50000000      -1.03580513E-08
  -9.48999977      -1.05260325E-08
  -9.47999954      -1.06912452E-08
  -9.47000027      -1.08533413E-08
  -9.46000004      -1.10121512E-08
  -9.44999981      -1.11675726E-08
  -9.43999958      -1.13195338E-08
  -9.43000031      -1.14680576E-08
  -9.42000008      -1.16131949E-08
  -9.40999985      -1.17550911E-08
  -9.39999962      -1.18939028E-08
  -9.39000034      -1.20298758E-08
  -9.38000011      -1.21632855E-08
  -9.36999989      -1.22945130E-08
  -9.35999966      -1.24239232E-08
  -9.35000038      -1.25520225E-08
  -9.34000015      -1.26792985E-08
  -9.32999992      -1.28062849E-08
  -9.31999969      -1.29336382E-08
  -9.31000042      -1.30619071E-08
  -9.30000019      -1.31917384E-08
  -9.28999996      -1.33238327E-08
  -9.27999973      -1.34587221E-08
  -9.27000046      -1.35971092E-08
  -9.26000023      -1.37395508E-08
  -9.25000000      -1.38866758E-08
  -9.23999977      -1.40391681E-08
  -9.22999954      -1.41975960E-08
  -9.22000027      -1.43625147E-08
  -9.21000004      -1.45344661E-08
  -9.19999981      -1.47139056E-08
  -9.18999958      -1.49012340E-08
  -9.18000031      -1.50966581E-08
  -9.17000008      -1.53004702E-08
  -9.15999985      -1.55126525E-08
  -9.14999962      -1.57332618E-08
  -9.14000034      -1.59621703E-08
  -9.13000011      -1.61992357E-08
  -9.11999989      -1.64442273E-08
  -9.10999966      -1.66968785E-08
  -9.10000038      -1.69567880E-08
  -9.09000015      -1.72234991E-08
  -9.07999992      -1.74966566E-08
  -9.06999969      -1.77755481E-08
  -9.06000042      -1.80596853E-08
  -9.05000019      -1.83485565E-08
  -9.03999996      -1.86414653E-08
  -9.02999973      -1.89379374E-08
  -9.02000046      -1.92373832E-08
  -9.01000023      -1.95394367E-08
  -9.00000000      -1.98433057E-08
  -8.98999977      -2.01487236E-08
  -8.97999954      -2.04549568E-08
  -8.97000027      -2.07615241E-08
  -8.96000004      -2.10677822E-08
  -8.94999981      -2.13731557E-08
  -8.93999958      -2.16770051E-08
  -8.93000031      -2.19786820E-08
  -8.92000008      -2.22775896E-08
  -8.90999985      -2.25733690E-08
  -8.89999962      -2.28656081E-08
  -8.89000034      -2.31539481E-08
  -8.88000011      -2.34381101E-08
  -8.86999989      -2.37177673E-08
  -8.85999966      -2.39927989E-08
  -8.85000038      -2.42630485E-08
  -8.84000015      -2.45284255E-08
  -8.82999992      -2.47887311E-08
  -8.81999969      -2.50440344E-08
  -8.81000042      -2.52941632E-08
  -8.80000019      -2.55391548E-08
  -8.78999996      -2.57788209E-08
  -8.77999973      -2.60133621E-08
  -8.77000046      -2.62426116E-08
  -8.76000023      -2.64669762E-08
  -8.75000000      -2.66864184E-08
  -8.73999977      -2.69014659E-08
  -8.72999954      -2.71126446E-08
  -8.72000027      -2.73203611E-08
  -8.71000004      -2.75254521E-08
  -8.69999981      -2.77286869E-08
  -8.68999958      -2.79309571E-08
  -8.68000031      -2.81331882E-08
  -8.67000008      -2.83363324E-08
  -8.65999985      -2.85412636E-08
  -8.64999962      -2.87493034E-08
  -8.64000034      -2.89611997E-08
  -8.63000011      -2.91780644E-08
  -8.61999989      -2.94006295E-08
  -8.60999966      -2.96297014E-08
  -8.60000038      -2.98658946E-08
  -8.59000015      -3.01096428E-08
  -8.57999992      -3.03615231E-08
  -8.56999969      -3.06215746E-08
  -8.56000042      -3.08899750E-08
  -8.55000019      -3.11668913E-08
  -8.53999996      -3.14521600E-08
  -8.52999973      -3.17457562E-08
  -8.52000046      -3.20474349E-08
  -8.51000023      -3.23571037E-08
  -8.50000000      -3.26743859E-08
  -8.48999977      -3.29989938E-08
  -8.47999954      -3.33303447E-08
  -8.47000027      -3.36682788E-08
  -8.46000004      -3.40123272E-08
  -8.44999981      -3.43620989E-08
  -8.43999958      -3.47171358E-08
  -8.43000031      -3.50772282E-08
  -8.42000008      -3.54419747E-08
  -8.40999985      -3.58109702E-08
  -8.39999962      -3.61841614E-08
  -8.39000034      -3.65614170E-08
  -8.38000011      -3.69423603E-08
  -8.36999989      -3.73272080E-08
  -8.35999966      -3.77162372E-08
  -8.35000038      -3.81093130E-08
  -8.34000015      -3.85069434E-08
  -8.32999992      -3.89092953E-08
  -8.31999969      -3.93168520E-08
  -8.31000042      -3.97300823E-08
  -8.30000019      -4.01491178E-08
  -8.28999996      -4.05745872E-08
  -8.27999973      -4.10068957E-08
  -8.27000046      -4.14463202E-08
  -8.26000023      -4.18932302E-08
  -8.25000000      -4.23480913E-08
  -8.23999977      -4.28111768E-08
  -8.22999954      -4.32827250E-08
  -8.22000027      -4.37628103E-08
  -8.21000004      -4.42515464E-08
  -8.19999981      -4.47486563E-08
  -8.18999958      -4.52543034E-08
  -8.18000031      -4.57683704E-08
  -8.17000008      -4.62904559E-08
  -8.15999985      -4.68204711E-08
  -8.14999962      -4.73582737E-08
  -8.14000034      -4.79033417E-08
  -8.13000011      -4.84554299E-08
  -8.11999989      -4.90145204E-08
  -8.10999966      -4.95800272E-08
  -8.10000038      -5.01517903E-08
  -8.09000015      -5.07296640E-08
  -8.07999992      -5.13131901E-08
  -8.06999969      -5.19023615E-08
  -8.06000042      -5.24970041E-08
  -8.05000019      -5.30966702E-08
  -8.03999996      -5.37014131E-08
  -8.02999973      -5.43104726E-08
  -8.02000046      -5.49236852E-08
  -8.01000023      -5.55403474E-08
  -8.00000000      -5.61602675E-08
  -7.98999977      -5.67824721E-08
  -7.98000002      -5.74062931E-08
  -7.96999979      -5.80312154E-08
  -7.96000004      -5.86565641E-08
  -7.94999981      -5.92815077E-08
  -7.94000006      -5.99052825E-08
  -7.92999983      -6.05269150E-08
  -7.92000008      -6.11455349E-08
  -7.90999985      -6.17606091E-08
  -7.90000010      -6.23712282E-08
  -7.88999987      -6.29766390E-08
  -7.88000011      -6.35758752E-08
  -7.86999989      -6.41684323E-08
  -7.86000013      -6.47535998E-08
  -7.84999990      -6.53310153E-08
  -7.84000015      -6.59005366E-08
  -7.82999992      -6.64613111E-08
  -7.82000017      -6.70132749E-08
  -7.80999994      -6.75566127E-08
  -7.80000019      -6.80909196E-08
  -7.78999996      -6.86163091E-08
  -7.78000021      -6.91329376E-08
  -7.76999998      -6.96407554E-08
  -7.76000023      -7.01402669E-08
  -7.75000000      -7.06319554E-08
  -7.73999977      -7.11162258E-08
  -7.73000002      -7.15935045E-08
  -7.71999979      -7.20647009E-08
  -7.71000004      -7.25303693E-08
  -7.69999981      -7.29914476E-08
  -7.69000006      -7.34488594E-08
  -7.67999983      -7.39036423E-08
  -7.67000008      -7.43566702E-08
  -7.65999985      -7.48086535E-08
  -7.65000010      -7.52610916E-08
  -7.63999987      -7.57143326E-08
  -7.63000011      -7.61703660E-08
  -7.61999989      -7.66299237E-08
  -7.61000013      -7.70936452E-08
  -7.59999990      -7.75631150E-08
  -7.59000015      -7.80390010E-08
  -7.57999992      -7.85227954E-08
  -7.57000017      -7.90156065E-08
  -7.55999994      -7.95180526E-08
  -7.55000019      -8.00318531E-08
  -7.53999996      -8.05581379E-08
  -7.53000021      -8.10980865E-08
  -7.51999998      -8.16521677E-08
  -7.51000023      -8.22221153E-08
  -7.50000000      -8.28087536E-08
  -7.48999977      -8.34131697E-08
  -7.48000002      -8.40367420E-08
  -7.46999979      -8.46803445E-08
  -7.46000004      -8.53455617E-08
  -7.44999981      -8.60328981E-08
  -7.44000006      -8.67434906E-08