  -16.0000000       0.00000000    
  -15.9899998       0.00000000    
  -15.9799995       0.00000000    
  -15.9700003       0.00000000    
  -15.9600000       0.00000000    
  -15.9499998       0.00000000    
  -15.9399996       0.00000000    
  -15.9300003       0.00000000    
  -15.9200001       0.00000000    
  -15.9099998       0.00000000    
  -15.8999996       0.00000000    
  -15.8900003       0.00000000    
  -15.8800001       0.00000000    
  -15.8699999      -3.12489558E-43
  -15.8599997      -1.93701487E-41
  -15.8500004      -4.07315425E-40
  -15.8400002      -5.36461613E-39
  -15.8299999      -5.13234755E-38
  -15.8199997      -3.86708602E-37
  -15.8100004      -2.39749674E-36
  -15.8000002      -1.25859313E-35
  -15.7900000      -5.70811505E-35
  -15.7799997      -2.27082527E-34
  -15.7700005      -8.01697249E-34
  -15.7600002      -2.53413862E-33
  -15.7500000      -7.21885187E-33
  -15.7399998      -1.86107057E-32
  -15.7299995      -4.35005232E-32
  -15.7200003      -9.20727991E-32
  -15.7100000      -1.75481229E-31
  -15.6999998      -2.97185896E-31
  -15.6899996      -4.34167005E-31
  -15.6800003      -5.06979476E-31
  -15.6700001      -3.46750309E-31
  -15.6599998       3.15655945E-31
  -15.6499996       1.79143101E-30
  -15.6400003       4.24701219E-30
  -15.6300001       7.35106771E-30
  -15.6199999       9.80602278E-30
  -15.6099997       8.98712714E-30
  -15.6000004       1.13451304E-30
  -15.5900002      -1.73059220E-29
  -15.5799999      -4.67429667E-29
  -15.5699997      -8.01563557E-29
  -15.5600004      -9.91164258E-29
  -15.5500002      -7.35572711E-29
  -15.5400000       2.99724352E-29
  -15.5299997       2.27766759E-28
  -15.5200005       4.87242220E-28
  -15.5100002       6.94967583E-28
  -15.5000000       6.48103545E-28
  -15.4899998       1.02202710E-28
  -15.4799995      -1.09674103E-27
  -15.4700003      -2.79974381E-27
  -15.4600000      -4.32964690E-27
  -15.4499998      -4.39597785E-27
  -15.4399996      -1.36775712E-27
  -15.4300003       5.90230814E-27
  -15.4200001       1.67045287E-26
  -15.4099998       2.69624676E-26
  -15.3999996       2.85562902E-26
  -15.3900003       1.08960165E-26
  -15.3800001      -3.39580738E-26
  -15.3699999      -1.02556669E-25
  -15.3599997      -1.70258087E-25
  -15.3500004      -1.86491118E-25
  -15.3400002      -8.40679822E-26
  -15.3299999       1.89291390E-25
  -15.3199997       6.16897807E-25
  -15.3100004       1.05259949E-24
  -15.3000002       1.19164451E-24
  -15.2900000       6.26832129E-25
  -15.2799997      -9.63427935E-25
  -15.2700005      -3.49784633E-24
  -15.2600002      -6.14554910E-24
  -15.2500000      -7.17044981E-24
  -15.2399998      -4.26595940E-24
  -15.2299995       4.38259328E-24
  -15.2200003       1.83629385E-23
  -15.2100000       3.32136568E-23
  -15.1999998       3.97093458E-23
  -15.1899996       2.57726427E-23
  -15.1800003      -1.79147724E-23
  -15.1700001      -8.91315257E-23
  -15.1599998      -1.65352554E-22
  -15.1499996      -2.00972034E-22
  -15.1400003      -1.37585155E-22
  -15.1300001       6.83859606E-23
  -15.1199999       4.04481348E-22
  -15.1099997       7.63415812E-22
  -15.1000004       9.34353008E-22
  -15.0900002       6.54618590E-22
  -15.0799999      -2.62961949E-22
  -15.0699997      -1.74923557E-21
  -15.0600004      -3.31895376E-21
  -15.0500002      -4.05153428E-21
  -15.0400000      -2.83427803E-21
  -15.0299997       1.08417347E-21
  -15.0200005       7.34357862E-21
  -15.0100002       1.38491118E-20
  -15.0000000       1.67626875E-20
  -14.9899998       1.15732996E-20
  -14.9799995      -4.61896281E-21
  -14.9700003      -3.01236302E-20
  -14.9600000      -5.63093056E-20
  -14.9499998      -6.77734602E-20
  -14.9399996      -4.67421896E-20
  -14.9300003       1.79399804E-20
  -14.9200001       1.19374079E-19
  -14.9099998       2.23830550E-19
  -14.8999996       2.71682690E-19
  -14.8900003       1.94221930E-19
  -14.8800001      -5.25789085E-20
  -14.8699999      -4.45430556E-19
  -14.8599997      -8.60793665E-19
  -14.8500004      -1.07701459E-18
  -14.8400002      -8.33561846E-19
  -14.8299999       4.84581984E-20
  -14.8199997       1.51203136E-18
  -14.8100004       3.14010189E-18
  -14.8000002       4.14929470E-18
  -14.7900000       3.57964933E-18
  -14.7799997       7.00497075E-19
  -14.7700005      -4.45165817E-18
  -14.7600002      -1.06094467E-17
  -14.7500000      -1.51761537E-17
  -14.7399998      -1.47647620E-17
  -14.7299995      -6.47422685E-18
  -14.7200003       1.03222429E-17
  -14.7100000       3.22955829E-17
  -14.6999998       5.15054166E-17
  -14.6899996       5.66912931E-17
  -14.6800003       3.69642664E-17
  -14.6700001      -1.25902026E-17
  -14.6599998      -8.51095728E-17
  -14.6499996      -1.58686210E-16
  -14.6400003      -1.98604172E-16
  -14.6300001      -1.66954786E-16
  -14.6199999      -3.89461977E-17
  -14.6099997       1.78340365E-16
  -14.6000004       4.32331016E-16
  -14.5900002       6.25505456E-16
  -14.5799999       6.37052315E-16
  -14.5699997       3.66256067E-16
  -14.5600004      -2.11476347E-16
  -14.5500002      -9.95233432E-16
  -14.5400000      -1.74139778E-15
  -14.5299997      -2.10180786E-15
  -14.5200005      -1.72663219E-15
  -14.5100002      -4.16891008E-16
  -14.5000000       1.71716215E-15
  -14.4899998       4.15819401E-15
  -14.4799995       6.01409783E-15
  -14.4700003       6.22530210E-15
  -14.4600000       3.93624046E-15
  -14.4499998      -1.05392106E-15
  -14.4399996      -7.91616240E-15
  -14.4300003      -1.46809834E-14
  -14.4200001      -1.85500893E-14
  -14.4099998      -1.66796119E-14
  -14.3999996      -7.31058805E-15
  -14.3900003       9.06803488E-15
  -14.3800001       2.89786675E-14
  -14.3699999       4.61002459E-14
  -14.3599997       5.25925705E-14
  -14.3500004       4.15401491E-14
  -14.3400002       9.99527931E-15
  -14.3299999      -3.83293251E-14
  -14.3199997      -9.18837489E-14
  -14.3100004      -1.32635669E-13
  -14.3000002      -1.40373092E-13
  -14.2900000      -9.94161960E-14
  -14.2799997      -6.10035670E-15
  -14.2700005       1.25463875E-13
  -14.2600002       2.62069988E-13
  -14.2500000       3.56561162E-13
  -14.2399998       3.59795825E-13
  -14.2299995       2.37452554E-13
  -14.2200003      -1.26943032E-14
  -14.2100000      -3.48967274E-13
  -14.1999998      -6.85408110E-13
  -14.1899996      -9.06621674E-13
  -14.1800003      -8.97609027E-13
  -14.1700001      -5.83079104E-13
  -14.1599998       3.42052165E-14
  -14.1499996       8.49302562E-13
  -14.1400003       1.65765372E-12
  -14.1300001       2.19154621E-12
  -14.1199999       2.18852020E-12
  -14.1099997       1.47869249E-12
  -14.1000004       6.79474313E-14
  -14.0900002      -1.81120418E-12
  -14.0799999      -3.70675192E-12
  -14.0699997      -5.02646015E-12
  -14.0600004      -5.18427965E-12
  -14.0500002      -3.78608776E-12
  -14.0400000      -8.07085572E-13
  -14.0299997       3.29694627E-12
  -14.0200005       7.59698120E-12
  -14.0100002       1.08458425E-11
  -14.0000000       1.17720061E-11
  -13.9899998       9.45824148E-12
  -13.9799995       3.71123791E-12
  -13.9700003      -4.69220019E-12
  -13.9600000      -1.39874327E-11
  -13.9499998      -2.16946495E-11
  -13.9399996      -2.51707509E-11
  -13.9300003      -2.23436252E-11
  -13.9200001      -1.24538817E-11
  -13.9099998       3.41262717E-12
  -13.8999996       2.22061310E-11
  -13.8900003       3.93357187E-11
  -13.8800001       4.96304040E-11
  -13.8699999       4.86767363E-11
  -13.8599997       3.42274091E-11
  -13.8500004       7.29082853E-12
  -13.8400002      -2.74746042E-11
  -13.8299999      -6.23118779E-11
  -13.8199997      -8.78906323E-11
  -13.8100004      -9.55596782E-11
  -13.8000002      -7.98285257E-11
  -13.7900000      -4.04258953E-11
  -13.7799997       1.67100101E-11
  -13.7700005       7.99629390E-11
  -13.7600002       1.34190020E-10
  -13.7500000       1.64154842E-10
  -13.7399998       1.58498270E-10
  -13.7299995       1.13243213E-10
  -13.7200003       3.38263896E-11
  -13.7100000      -6.50796153E-11
  -13.6999998      -1.62170818E-10
  -13.6899996      -2.34123582E-10
  -13.6800003      -2.61199729E-10
  -13.6700001      -2.32456818E-10
  -13.6599998      -1.49158574E-10
  -13.6499996      -2.53513009E-11
  -13.6400003       1.14736158E-10
  -13.6300001       2.41959841E-10
  -13.6199999       3.28932270E-10
  -13.6099997       3.56390750E-10
  -13.6000004       3.17564641E-10
  -13.5900002       2.19382623E-10
  -13.5799999       8.02304403E-11
  -13.5699997      -7.50113721E-11
  -13.5600004      -2.21098390E-10
  -13.5500002      -3.37819744E-10
  -13.5400000      -4.13008711E-10
  -13.5299997      -4.42360454E-10
  -13.5200005      -4.26412461E-10
  -13.5100002      -3.66202541E-10
  -13.5000000      -2.59806676E-10
  -13.4899998      -1.01884327E-10
  -13.4799995       1.12572902E-10
  -13.4700003       3.80720067E-10
  -13.4600000       6.82823631E-10
  -13.4499998       9.75401093E-10
  -13.4399996       1.19063637E-09
  -13.4300003       1.24515931E-09
  -13.4200001       1.05885434E-09
  -13.4099998       5.81004800E-10
  -13.3999996      -1.82343571E-10
  -13.3900003      -1.14825160E-09
  -13.3800001      -2.15266494E-09
  -13.3699999      -2.96843505E-09
  -13.3599997      -3.34673067E-09
  -13.3500004      -3.07652592E-09
  -13.3400002      -2.04999306E-09
  -13.3299999      -3.17099236E-10
  -13.3199997       1.88830596E-09
  -13.3100004       4.16444701E-09
  -13.3000002       6.00470962E-09
  -13.2900000       6.90081858E-09
  -13.2799997       6.46698828E-09
  -13.2700005       4.55666793E-09
  -13.2600002       1.34037204E-09
  -13.2500000      -2.68213629E-09
  -13.2399998      -6.74878020E-09
  -13.2299995      -9.97660088E-09
  -13.2200003      -1.15524594E-08
  -13.2100000      -1.09320561E-08
  -13.1999998      -7.99842947E-09
  -13.1899996      -3.13582871E-09
  -13.1800003       2.80869816E-09
  -13.1700001       8.67792149E-09
  -13.1599998       1.32440734E-08
  -13.1499996       1.54839235E-08
  -13.1400003       1.48240291E-08
  -13.1300001       1.12939409E-08
  -13.1199999       5.54367441E-09
  -13.1099997      -1.28596711E-09
  -13.1000004      -7.81443088E-09
  -13.0900002      -1.27362609E-08
  -13.0799999      -1.51223869E-08
  -13.0699997      -1.46317278E-08
  -13.0600004      -1.15775087E-08
  -13.0500002      -6.82971857E-09
  -13.0400000      -1.57777824E-09
  -13.0299997       2.98390446E-09
  -13.0200005       5.96383254E-09
  -13.0100002       6.99018576E-09
  -13.0000000       6.27760288E-09
  -12.9899998       4.52491689E-09
  -12.9799995       2.67424549E-09
  -12.9700003       1.60135594E-09
  -12.9600000       1.83059956E-09
  -12.9499998       3.36216521E-09
  -12.9399996       5.66834624E-09
  -12.9300003       7.86750043E-09
  -12.9200001       9.02646935E-09
  -12.9099998       8.50078496E-09
  -12.8999996       6.19986285E-09
  -12.8900003       2.67857825E-09
  -12.8800001      -9.98748084E-10
  -12.8699999      -3.60919628E-09
  -12.8599997      -4.25257385E-09
  -12.8500004      -2.82269430E-09
  -12.8400002      -3.07817827E-10
  -12.8299999       1.22010868E-09
  -12.8199997      -1.00407160E-09
  -12.8100004      -9.69373382E-09
  -12.8000002      -2.65478182E-08
  -12.7900000      -5.12940765E-08
  -12.7799997      -8.10029448E-08
  -12.7700005      -1.09918552E-07
  -12.7600002      -1.29963212E-07
  -12.7500000      -1.31937128E-07
  -12.7399998      -1.07266395E-07
  -12.7299995      -5.00142896E-08
  -12.7200003       4.12414138E-08
  -12.7100000       1.62051734E-07
  -12.6999998       3.01612062E-07
  -12.6899996       4.43307442E-07
  -12.6800003       5.66282552E-07
  -12.6700001       6.47820286E-07
  -12.6599998       6.66164851E-07
  -12.6499996       6.03359183E-07
  -12.6400003       4.47714314E-07
  -12.6300001       1.95620558E-07
  -12.6199999      -1.47371537E-07
  -12.6099997      -5.66164033E-07
  -12.6000004      -1.03621608E-06
  -12.5900002      -1.52393204E-06
  -12.5799999      -1.98726593E-06
  -12.5699997      -2.37654717E-06
  -12.5600004      -2.63582433E-06
  -12.5500002      -2.70509827E-06
  -12.5400000      -2.52395944E-06
  -12.5299997      -2.03691388E-06
  -12.5200005      -1.20050436E-06
  -12.5100002       8.15225043E-09
  -12.5000000       1.58208582E-06
  -12.4899998       3.47577179E-06
  -12.4799995       5.59823502E-06
  -12.4700003       7.80929986E-06
  -12.4600000       9.92025980E-06
  -12.4499998       1.16991287E-05
  -12.4399996       1.28808852E-05
  -12.4300003       1.31815232E-05
  -12.4200001       1.23150312E-05
  -12.4099998       1.00115167E-05
  -12.3999996       6.03533454E-06
  -12.3900003       2.01220260E-07
  -12.3800001      -7.61120828E-06
  -12.3699999      -1.74465040E-05
  -12.3599997      -2.92642544E-05
  -12.3500004      -4.29338761E-05
  -12.3400002      -5.82303910E-05
  -12.3299999      -7.48339953E-05
  -12.3199997      -9.23318803E-05
  -12.3100004      -1.10224391E-04
  -12.3000002      -1.27934836E-04
  -12.2900000      -1.44824866E-04
  -12.2799997      -1.60214753E-04
  -12.2700005      -1.73407418E-04
  -12.2600002      -1.83715922E-04
  -12.2500000      -1.90493127E-04
  -12.2399998      -1.93158048E-04
  -12.2299995      -1.91218482E-04
  -12.2200003      -1.84291086E-04
  -12.2100000      -1.72112646E-04
  -12.1999998      -1.54546098E-04
  -12.1899996      -1.31579887E-04
  -12.1800003      -1.03325612E-04
  -12.1700001      -7.00097589E-05
  -12.1599998      -3.19657338E-05
  -12.1499996       1.03757984E-05
  -12.1400003       5.64996299E-05
  -12.1300001       1.05814586E-04
  -12.1199999       1.57671224E-04
  -12.1099997       2.11377759E-04
  -12.1000004       2.66215939E-04
  -12.0900002       3.21460568E-04
  -12.0799999       3.76396201E-04
  -12.0699997       4.30329907E-04
  -12.0600004       4.82596341E-04
  -12.0500002       5.32563776E-04
  -12.0400000       5.79624320E-04
  -12.0299997       6.23187691E-04
  -12.0200005       6.62667095E-04
  -12.0100002       6.97469921E-04
  -12.0000000       7.26988888E-04
  -11.9899998       7.50598847E-04
  -11.9799995       7.67666555E-04
  -11.9700003       7.77557143E-04
  -11.9600000       7.79652910E-04
  -11.9499998       7.73370441E-04
  -11.9399996       7.58183538E-04
  -11.9300003       7.33637135E-04
  -11.9200001       6.99367607E-04
  -11.9099998       6.55114651E-04
  -11.8999996       6.00731524E-04
  -11.8900003       5.36194595E-04
  -11.8800001       4.61610121E-04
  -11.8699999       3.77217482E-04
  -11.8599997       2.83398083E-04
  -11.8500004       1.80669478E-04
  -11.8400002       6.96866846E-05
  -11.8299999      -4.87693615E-05
  -11.8199997      -1.73802953E-04
  -11.8100004      -3.04423185E-04
  -11.8000002      -4.39564348E-04
  -11.7900000      -5.78109757E-04
  -11.7799997      -7.18916534E-04
  -11.7700005      -8.60831933E-04
  -11.7600002      -1.00271124E-03
  -11.7500000      -1.14342547E-03
  -11.7399998      -1.28186378E-03
  -11.7299995      -1.41692907E-03
  -11.7200003      -1.54753088E-03
  -11.7100000      -1.67257374E-03
  -11.6999998      -1.79094751E-03
  -11.6899996      -1.90152368E-03
  -11.6800003      -2.00314983E-03
  -11.6700001      -2.09466205E-03
  -11.6599998      -2.17489013E-03
  -11.6499996      -2.24268576E-03
  -11.6400003      -2.29692925E-03
  -11.6300001      -2.33656261E-03
  -11.6199999      -2.36059260E-03
  -11.6099997      -2.36811163E-03
  -11.6000004      -2.35829037E-03
  -11.5900002      -2.33038748E-03
  -11.5799999      -2.28373962E-03
  -11.5699997      -2.21776962E-03
  -11.5600004      -2.13198224E-03
  -11.5500002      -2.02598330E-03
  -11.5400000      -1.89949526E-03
  -11.5299997      -1.75237784E-03
  -11.5200005      -1.58464944E-03
  -11.5100002      -1.39650051E-03
  -11.5000000      -1.18830020E-03
  -11.4899998      -9.60586884E-04
  -11.4799995      -7.14055903E-04
  -11.4700003      -4.49530227E-04
  -11.4600000      -1.67936640E-04
  -11.4499998       1.29721026E-04
  -11.4399996       4.42378718E-04
  -11.4300003       7.68919999E-04
  -11.4200001       1.10818178E-03
  -11.4099998       1.45894964E-03
  -11.3999996       1.81996496E-03
  -11.3900003       2.18991842E-03
  -11.3800001       2.56747170E-03
  -11.3699999       2.95127556E-03
  -11.3599997       3.33998236E-03
  -11.3500004       3.73227173E-03
  -11.3400002       4.12686681E-03
  -11.3299999       4.52253642E-03
  -11.3199997       4.91809240E-03
  -11.3100004       5.31238317E-03
  -11.3000002       5.70427207E-03
  -11.2900000       6.09264243E-03
  -11.2799997       6.47637947E-03
  -11.2700005       6.85437769E-03
  -11.2600002       7.22555909E-03
  -11.2500000       7.58888759E-03
  -11.2399998       7.94337597E-03
  -11.2299995       8.28810874E-03
  -11.2200003       8.62225518E-03
  -11.2100000       8.94505624E-03
  -11.1999998       9.25583765E-03
  -11.1899996       9.55400057E-03
  -11.1800003       9.83901415E-03
  -11.1700001       1.01104164E-02
  -11.1599998       1.03678089E-02
  -11.1499996       1.06108654E-02
  -11.1400003       1.08393086E-02
  -11.1300001       1.10529317E-02
  -11.1199999       1.12515874E-02
  -11.1099997       1.14351725E-02
  -11.1000004       1.16036488E-02
  -11.0900002       1.17570292E-02
  -11.0799999       1.18954033E-02
  -11.0699997       1.20189292E-02
  -11.0600004       1.21278623E-02
  -11.0500002       1.22225424E-02
  -11.0400000       1.23034185E-02
  -11.0299997       1.23710195E-02
  -11.0200005       1.24259694E-02
  -11.0100002       1.24689518E-02
  -11.0000000       1.25007108E-02
  -10.9899998       1.25220288E-02
  -10.9799995       1.25336964E-02
  -10.9700003       1.25364959E-02
  -10.9600000       1.25311809E-02
  -10.9499998       1.25183938E-02
  -10.9399996       1.24986591E-02
  -10.9300003       1.24723138E-02
  -10.9200001       1.24394828E-02
  -10.9099998       1.24000469E-02
  -10.8999996       1.23536605E-02
  -10.8900003       1.22997761E-02
  -10.8800001       1.22376960E-02
  -10.8699999       1.21666361E-02
  -10.8599997       1.20857945E-02
  -10.8500004       1.19943907E-02
  -10.8400002       1.18917217E-02
  -10.8299999       1.17771616E-02
  -10.8199997       1.16501711E-02
  -10.8100004       1.15102967E-02
  -10.8000002       1.13571836E-02
  -10.7900000       1.11905765E-02
  -10.7799997       1.10103386E-02
  -10.7700005       1.08164912E-02
  -10.7600002       1.06091900E-02
  -10.7500000       1.03887450E-02
  -10.7399998       1.01555800E-02
  -10.7299995       9.91019048E-03
  -10.7200003       9.65309050E-03
  -10.7100000       9.38475598E-03
  -10.6999998       9.10559855E-03
  -10.6899996       8.81594513E-03
  -10.6800003       8.51604342E-03
  -10.6700001       8.20611138E-03
  -10.6599998       7.88632873E-03
  -10.6499996       7.55689526E-03
  -10.6400003       7.21805263E-03
  -10.6300001       6.87010214E-03
  -10.6199999       6.51341025E-03
  -10.6099997       6.14846917E-03
  -10.6000004       5.77590242E-03
  -10.5900002       5.39656030E-03
  -10.5799999       5.01152687E-03
  -10.5699997       4.62216558E-03
  -10.5600004       4.23011463E-03
  -10.5500002       3.83721455E-03
  -10.5400000       3.44542833E-03
  -10.5299997       3.05668358E-03
  -10.5200005       2.67274049E-03
  -10.5100002       2.29511596E-03
  -10.5000000       1.92495622E-03
  -10.4899998       1.56306569E-03
  -10.4799995       1.20991946E-03
  -10.4700003       8.65785230E-04
  -10.4600000       5.30772959E-04
  -10.4499998       2.04946249E-04
  -10.4399996      -1.11624759E-04
  -10.4300003      -4.18822718E-04
  -10.4200001      -7.16536189E-04
  -10.4099998      -1.00463373E-03
  -10.3999996      -1.28299673E-03
  -10.3900003      -1.55158376E-03
  -10.3800001      -1.81041891E-03
  -10.3699999      -2.05962313E-03
  -10.3599997      -2.29944009E-03
  -10.3500004      -2.53027282E-03
  -10.3400002      -2.75271991E-03
  -10.3299999      -2.96759559E-03
  -10.3199997      -3.17597808E-03
  -10.3100004      -3.37912887E-03
  -10.3000002      -3.57848383E-03
  -10.2900000      -3.77553236E-03
  -10.2799997      -3.97170614E-03
  -10.2700005      -4.16824687E-03
  -10.2600002      -4.36611427E-03
  -10.2500000      -4.56592767E-03
  -10.2399998      -4.76793898E-03
  -10.2299995      -4.97205555E-03
  -10.2200003      -5.17785689E-03
  -10.2100000      -5.38471714E-03
  -10.1999998      -5.59177995E-03
  -10.1899996      -5.79809630E-03
  -10.1800003      -6.00264175E-03
  -10.1700001      -6.20439555E-03
  -10.1599998      -6.40241941E-03
  -10.1499996      -6.59593195E-03
  -10.1400003      -6.78437855E-03
  -10.1300001      -6.96744584E-03
  -10.1199999      -7.14504253E-03
  -10.1099997      -7.31726270E-03
  -10.1000004      -7.48423068E-03
  -10.0900002      -7.64597021E-03
  -10.0799999      -7.80228060E-03
  -10.0699997      -7.95264915E-03
  -10.0600004      -8.09620600E-03
  -10.0500002      -8.23180936E-03
  -10.0400000      -8.35815165E-03
  -10.0299997      -8.47391039E-03
  -10.0200005      -8.57794005E-03
  -10.0100002      -8.66934471E-03
  -10.0000000      -8.74756370E-03
  -9.98999977      -8.81235767E-03
  -9.97999954      -8.86372663E-03
  -9.97000027      -8.90180748E-03
  -9.96000004      -8.92679859E-03
  -9.94999981      -8.93880054E-03
  -9.93999958      -8.93782638E-03
  -9.93000031      -8.92373733E-03
  -9.92000008      -8.89625680E-03
  -9.90999985      -8.85498710E-03
  -9.89999962      -8.79943091E-03
  -9.89000034      -8.72902386E-03
  -9.88000011      -8.64318106E-03
  -9.86999989      -8.54129344E-03
  -9.85999966      -8.42283014E-03
  -9.85000038      -8.28734878E-03
  -9.84000015      -8.13457649E-03
  -9.82999992      -7.96447787E-03
  -9.81999969      -7.77726667E-03
  -9.81000042      -7.57341180E-03
  -9.80000019      -7.35363271E-03
  -9.78999996      -7.11882766E-03
  -9.77999973      -6.87001832E-03
  -9.77000046      -6.60829805E-03
  -9.76000023      -6.33476768E-03
  -9.75000000      -6.05052430E-03
  -9.73999977      -5.75664127E-03
  -9.72999954      -5.45420730E-03
  -9.72000027      -5.14435908E-03
  -9.71000004      -4.82827099E-03
  -9.69999981      -4.50724643E-03
  -9.68999958      -4.18262091E-03
  -9.68000031      -3.85584193E-03
  -9.67000008      -3.52839474E-03
  -9.65999985      -3.20177595E-03
  -9.64999962      -2.87747476E-03
  -9.64000034      -2.55693169E-03
  -9.63000011      -2.24149320E-03
  -9.61999989      -1.93238049E-03
  -9.60999966      -1.63065945E-03
  -9.60000038      -1.33721135E-03
  -9.59000015      -1.05268054E-03
  -9.57999992      -7.77433685E-04
  -9.56999969      -5.11577877E-04
  -9.56000042      -2.54913000E-04
  -9.55000019      -6.93367338E-06
  -9.53999996       2.33120954E-04
  -9.52999973       4.66289843E-04
  -9.52000046       6.93785492E-04
  -9.51000023       9.16981196E-04
  -9.50000000       1.13732961E-03
  -9.48999977       1.35631161E-03
  -9.47999954       1.57538895E-03
  -9.47000027       1.79593568E-03
  -9.46000004       2.01915670E-03
  -9.44999981       2.24606437E-03
  -9.43999958       2.47736112E-03
  -9.43000031       2.71339784E-03
  -9.42000008       2.95413099E-03
  -9.40999985       3.19906278E-03
  -9.39999962       3.44724604E-03
  -9.39000034       3.69730615E-03
  -9.38000011       3.94746661E-03
  -9.36999989       4.19564731E-03
  -9.35999966       4.43946617E-03
  -9.35000038       4.67633549E-03
  -9.34000015       4.90345620E-03
  -9.32999992       5.11780242E-03
  -9.31999969       5.31611172E-03
  -9.31000042       5.49487816E-03
  -9.30000019       5.65029960E-03
  -9.28999996       5.77837648E-03
  -9.27999973       5.87497838E-03
  -9.27000046       5.93593158E-03
  -9.26000023       5.95717644E-03
  -9.25000000       5.93489408E-03
  -9.23999977       5.86560089E-03
  -9.22999954       5.74623421E-03
  -9.22000027       5.57414908E-03
  -9.21000004       5.34713035E-03
  -9.19999981       5.06336382E-03
  -9.18999958       4.72141569E-03
  -9.18000031       4.32023033E-03
  -9.17000008       3.85913113E-03
  -9.15999985       3.33784660E-03
  -9.14999962       2.75648036E-03
  -9.14000034       2.11553904E-03
  -9.13000011       1.41592487E-03
  -9.11999989       6.58900826E-04
  -9.10999966      -1.53858055E-04
  -9.10000038      -1.02026504E-03
  -9.09000015      -1.93772849E-03
  -9.07999992      -2.90309591E-03
  -9.06999969      -3.91263980E-03
  -9.06000042      -4.96192835E-03
  -9.05000019      -6.04599435E-03
  -9.03999996      -7.15938210E-03
  -9.02999973      -8.29629973E-03
  -9.02000046      -9.45082586E-03
  -9.01000023      -1.06170205E-02
  -9.00000000      -1.17890034E-02
  -8.98999977      -1.29609481E-02
  -8.97999954      -1.41270263E-02
  -8.97000027      -1.52812311E-02
  -8.96000004      -1.64173190E-02
  -8.94999981      -1.75287090E-02
  -8.93999958      -1.86085217E-02
  -8.93000031      -1.96496155E-02
  -8.92000008      -2.06447300E-02
  -8.90999985      -2.15865895E-02
  -8.89999962      -2.24680044E-02
  -8.89000034      -2.32818555E-02
  -8.88000011      -2.40211543E-02
  -8.86999989      -2.46790051E-02
  -8.85999966      -2.52485629E-02
  -8.85000038      -2.57231966E-02
  -8.84000015      -2.60964762E-02
  -8.82999992      -2.63624731E-02
  -8.81999969      -2.65158508E-02
  -8.81000042      -2.65520085E-02
  -8.80000019      -2.64672078E-02
  -8.78999996      -2.62584463E-02
  -8.77999973      -2.59234700E-02
  -8.77000046      -2.54606660E-02
  -8.76000023      -2.48689391E-02
  -8.75000000      -2.41477620E-02
  -8.73999977      -2.32971851E-02
  -8.72999954      -2.23179217E-02
  -8.72000027      -2.12114099E-02
  -8.71000004      -1.99797843E-02
  -8.69999981      -1.86258424E-02
  -8.68999958      -1.71528161E-02
  -8.68000031      -1.55641530E-02
  -8.67000008      -1.38633251E-02
  -8.65999985      -1.20537775E-02
  -8.64999962      -1.01387473E-02
  -8.64000034      -8.12156685E-03
  -8.63000011      -6.00570906E-03
  -8.61999989      -3.79492226E-03
  -8.60999966      -1.49343419E-03
  -8.60000038       8.94128927E-04
  -8.59000015       3.36281466E-03
  -8.57999992       5.90753602E-03
  -8.56999969       8.52319878E-03
  -8.56000042       1.12049067E-02
  -8.55000019       1.39478678E-02
  -8.53999996       1.67473741E-02
  -8.52999973       1.95986815E-02
  -8.52000046       2.24968214E-02
  -8.51000023       2.54365597E-02
  -8.50000000       2.84124427E-02
  -8.48999977       3.14188562E-02
  -8.47999954       3.44502851E-02
  -8.47000027       3.75013053E-02
  -8.46000004       4.05667499E-02
  -8.44999981       4.36415933E-02
  -8.43999958       4.67209108E-02
  -8.43000031       4.97996770E-02
  -8.42000008       5.28727174E-02
  -8.40999985       5.59346788E-02
  -8.39999962       5.89800850E-02
  -8.39000034       6.20037019E-02
  -8.38000011       6.50005415E-02
  -8.36999989       6.79663047E-02
  -8.35999966       7.08972141E-02
  -8.35000038       7.37901405E-02
  -8.34000015       7.66422451E-02
  -8.32999992       7.94509128E-02
  -8.31999969       8.22134092E-02
  -8.31000042       8.49267915E-02
  -8.30000019       8.75879079E-02
  -8.28999996       9.01934505E-02
  -8.27999973       9.27400887E-02
  -8.27000046       9.52247009E-02
  -8.26000023       9.76441801E-02
  -8.25000000       9.99955907E-02
  -8.23999977      0.102275938    
  -8.22999954      0.104481950    
  -8.22000027      0.106610045    
  -8.21000004      0.108656123    
  -8.19999981      0.110615745    
  -8.18999958      0.112484090    
  -8.18000031      0.114256300    
  -8.17000008      0.115927398    
  -8.15999985      0.117492571    
  -8.14999962      0.118947051    
  -8.14000034      0.120286033    
  -8.13000011      0.121504627    
  -8.11999989      0.122597761    
  -8.10999966      0.123560160    
  -8.10000038      0.124386646    
  -8.09000015      0.125071853    
  -8.07999992      0.125610963    
  -8.06999969      0.125999197    
  -8.06000042      0.126232430    
  -8.05000019      0.126306728    
  -8.03999996      0.126218304    
  -8.02999973      0.125963762    
  -8.02000046      0.125539482    
  -8.01000023      0.124942087    
  -8.00000000      0.124168299    
  -7.98999977      0.123215199    
  -7.98000002      0.122080274    
  -7.96999979      0.120761618    
  -7.96000004      0.119258150    
  -7.94999981      0.117569260    
  -7.94000006      0.115695104    
  -7.92999983      0.113636456    
  -7.92000008      0.111394487    
  -7.90999985      0.108971074    
  -7.90000010      0.106368765    
  -7.88999987      0.103590809    
  -7.88000011      0.100641519    
  -7.86999989       9.75262597E-02
  -7.86000013       9.42513049E-02
  -7.84999990       9.08243358E-02
  -7.84000015       8.72537121E-02
  -7.82999992       8.35488215E-02
  -7.82000017       7.97197968E-02
  -7.80999994       7.57773370E-02
  -7.80000019       7.17327073E-02
  -7.78999996       6.75976127E-02
  -7.78000021       6.33841529E-02
  -7.76999998       5.91047965E-02
  -7.76000023       5.47721125E-02
  -7.75000000       5.03988974E-02
  -7.73999977       4.59976606E-02
  -7.73000002       4.15809192E-02
  -7.71999979       3.71605866E-02
  -7.71000004       3.27483267E-02
  -7.69999981       2.83552948E-02
  -7.69000006       2.39921957E-02
  -7.67999983       1.96694154E-02
  -7.67000008       1.53968194E-02
  -7.65999985       1.11838449E-02
  -7.65000010       7.03955162E-03
  -7.63999987       2.97245220E-03
  -7.63000011      -1.00968021E-03
  -7.61999989      -4.89948830E-03
  -7.61000013      -8.69039167E-03
  -7.59999990      -1.23762498E-02
  -7.59000015      -1.59513988E-02
  -7.57999992      -1.94105357E-02
  -7.57000017      -2.27484852E-02
  -7.55999994      -2.59604529E-02
  -7.55000019      -2.90416479E-02
  -7.53999996      -3.19876410E-02
  -7.53000021      -3.47944535E-02
  -7.51999998      -3.74584906E-02
  -7.51000023      -3.99767347E-02
  -7.50000000      -4.23467681E-02
  -7.48999977      -4.45667058E-02
  -7.48000002      -4.66350988E-02
  -7.46999979      -4.85507958E-02
  -7.46000004      -5.03131226E-02
  -7.44999981      -5.19215912E-02
  -7.44000006      -5.33761531E-02