  -16.0000000       0.00000000    
  -15.9899998       0.00000000    
  -15.9799995       0.00000000    
  -15.9700003       0.00000000    
  -15.9600000       0.00000000    
  -15.9499998       0.00000000    
  -15.9399996       0.00000000    
  -15.9300003       0.00000000    
  -15.9200001       0.00000000    
  -15.9099998       0.00000000    
  -15.8999996       0.00000000    
  -15.8900003       0.00000000    
  -15.8800001       0.00000000    
  -15.8699999       0.00000000    
  -15.8599997       0.00000000    
  -15.8500004       0.00000000    
  -15.8400002       1.40129846E-45
  -15.8299999       2.24207754E-44
  -15.8199997       2.10194770E-43
  -15.8100004       1.55544130E-42
  -15.8000002       9.55965812E-42
  -15.7900000       5.03514564E-41
  -15.7799997       2.31654254E-40
  -15.7700005       9.43746490E-40
  -15.7600002       3.43938198E-39
  -15.7500000       1.13002516E-38
  -15.7399998       3.36692953E-38
  -15.7299995       9.13571321E-38
  -15.7200003       2.26305509E-37
  -15.7100000       5.12039122E-37
  -15.6999998       1.05583315E-36
  -15.6899996       1.97122884E-36
  -15.6800003       3.28435446E-36
  -15.6700001       4.72844755E-36
  -15.6599998       5.39789352E-36
  -15.6499996       3.30659838E-36
  -15.6400003      -4.94329239E-36
  -15.6300001      -2.39212354E-35
  -15.6199999      -5.78144225E-35
  -15.6099997      -1.06712525E-34
  -15.6000004      -1.60332711E-34
  -15.5900002      -1.90281277E-34
  -15.5799999      -1.44815279E-34
  -15.5699997       4.61313661E-35
  -15.5600004       4.45163246E-34
  -15.5500002       1.05278468E-33
  -15.5400000       1.72862891E-33
  -15.5299997       2.11962772E-33
  -15.5200005       1.66093054E-33
  -15.5100002      -2.61626931E-34
  -15.5000000      -3.92332003E-33
  -15.4899998      -8.69308562E-33
  -15.4799995      -1.25377669E-32
  -15.4700003      -1.20786019E-32
  -15.4600000      -3.76126234E-33
  -15.4499998       1.36122892E-32
  -15.4399996       3.56235826E-32
  -15.4300003       5.01958540E-32
  -15.4200001       3.97913566E-32
  -15.4099998      -9.50203512E-33
  -15.3999996      -9.24077209E-32
  -15.3900003      -1.68839204E-31
  -15.3800001      -1.61574061E-31
  -15.3699999       1.64683717E-32
  -15.3599997       3.96687308E-31
  -15.3500004       8.65138169E-31
  -15.3400002       1.09757958E-30
  -15.3299999       5.98584622E-31
  -15.3199997      -1.07781876E-30
  -15.3100004      -3.91273921E-30
  -15.3000002      -6.93584850E-30
  -15.2900000      -7.96594492E-30
  -15.2799997      -3.99594315E-30
  -15.2700005       7.43319508E-30
  -15.2600002       2.59078985E-29
  -15.2500000       4.56019435E-29
  -15.2399998       5.40632730E-29
  -15.2299995       3.43442541E-29
  -15.2200003      -2.79482046E-29
  -15.2100000      -1.32919463E-28
  -15.1999998      -2.53363042E-28
  -15.1899996      -3.27466663E-28
  -15.1800003      -2.66574271E-28
  -15.1700001       1.40558249E-29
  -15.1599998       5.40689906E-28
  -15.1499996       1.21517378E-27
  -15.1400003       1.76666093E-27
  -15.1300001       1.76351897E-27
  -15.1199999       7.28261857E-28
  -15.1099997      -1.62502650E-27
  -15.1000004      -5.06465611E-27
  -15.0900002      -8.53882303E-27
  -15.0799999      -1.00889370E-26
  -15.0699997      -7.20927655E-27
  -15.0600004       2.17802974E-27
  -15.0500002       1.81752320E-26
  -15.0400000       3.71993215E-26
  -15.0299997       5.09647686E-26
  -15.0200005       4.73326281E-26
  -15.0100002       1.40964822E-26
  -15.0000000      -5.40545858E-26
  -14.9899998      -1.46833133E-25
  -14.9799995      -2.31574852E-25
  -14.9700003      -2.53936692E-25
  -14.9600000      -1.51740686E-25
  -14.9499998       1.15549708E-25
  -14.9399996       5.26477830E-25
  -14.9300003       9.61322761E-25
  -14.9200001       1.19423148E-24
  -14.9099998       9.40345273E-25
  -14.8999996      -2.71761257E-26
  -14.8900003      -1.70467990E-24
  -14.8800001      -3.68758000E-24
  -14.8699999      -5.10102823E-24
  -14.8599997      -4.74556593E-24
  -14.8500004      -1.53153065E-24
  -14.8400002       4.83517974E-24
  -14.8299999       1.31222215E-23
  -14.8199997       2.01715173E-23
  -14.8100004       2.12847673E-23
  -14.8000002       1.17221678E-23
  -14.7900000      -1.07494960E-23
  -14.7799997      -4.29430570E-23
  -14.7700005      -7.43102303E-23
  -14.7600002      -8.76659862E-23
  -14.7500000      -6.39346331E-23
  -14.7399998       9.00796876E-24
  -14.7299995       1.25455794E-22
  -14.7200003       2.53393911E-22
  -14.7100000       3.34362772E-22
  -14.6999998       2.96920505E-22
  -14.6899996       8.51146396E-23
  -14.6800003      -3.03502432E-22
  -14.6700001      -7.83926296E-22
  -14.6599998      -1.17341144E-21
  -14.6499996      -1.22394104E-21
  -14.6400003      -7.06183991E-22
  -14.6300001       4.66952594E-22
  -14.6199999       2.11533468E-21
  -14.6099997       3.72536056E-21
  -14.6000004       4.50732129E-21
  -14.5900002       3.61689004E-21
  -14.5799999       5.24429833E-22
  -14.5699997      -4.56332401E-21
  -14.5600004      -1.03997468E-20
  -14.5500002      -1.47169987E-20
  -14.5400000      -1.47258328E-20
  -14.5299997      -8.11386552E-21
  -14.5200005       5.66074590E-21
  -14.5100002       2.42187578E-20
  -14.5000000       4.18416485E-20
  -14.4899998       5.03315169E-20
  -14.4799995       4.13859915E-20
  -14.4700003       1.01657161E-20
  -14.4600000      -4.09429620E-20
  -14.4499998      -9.99130330E-20
  -14.4399996      -1.45670681E-19
  -14.4300003      -1.52810568E-19
  -14.4200001      -1.00276980E-19
  -14.4099998       1.78955372E-20
  -14.3999996       1.83381005E-19
  -14.3900003       3.50388124E-19
  -14.3800001       4.52386835E-19
  -14.3699999       4.20129195E-19
  -14.3599997       2.08301992E-19
  -14.3500004      -1.76435001E-19
  -14.3400002      -6.56716059E-19
  -14.3299999      -1.08618968E-18
  -14.3199997      -1.27900166E-18
  -14.3100004      -1.06615133E-18
  -14.3000002      -3.66936699E-19
  -14.2900000       7.46529779E-19
  -14.2799997       2.01909121E-18
  -14.2700005       3.04055815E-18
  -14.2600002       3.34209588E-18
  -14.2500000       2.54871097E-18
  -14.2399998       5.50180418E-19
  -14.2299995      -2.36676081E-18
  -14.2200003      -5.48661869E-18
  -14.2100000      -7.77830190E-18
  -14.1999998      -8.15878596E-18
  -14.1899996      -5.85970569E-18
  -14.1800003      -7.97402576E-19
  -14.1700001       6.18433230E-18
  -14.1599998       1.33227099E-17
  -14.1499996       1.82661563E-17
  -14.1400003       1.87033974E-17
  -14.1300001       1.31572151E-17
  -14.1199999       1.71480848E-18
  -14.1099997      -1.35721644E-17
  -14.1000004      -2.88404495E-17
  -14.0900002      -3.92108393E-17
  -14.0799999      -4.01197685E-17
  -14.0699997      -2.88727856E-17
  -14.0600004      -5.95710372E-18
  -14.0500002       2.43748951E-17
  -14.0400000       5.46047366E-17
  -14.0299997       7.55996162E-17
  -14.0200005       7.91203550E-17
  -14.0100002       6.05462658E-17
  -14.0000000       2.09813585E-17
  -13.9899998      -3.20485338E-17
  -13.9799995      -8.57806015E-17
  -13.9700003      -1.25220507E-16
  -13.9600000      -1.37299713E-16
  -13.9499998      -1.15029470E-16
  -13.9399996      -6.03184933E-17
  -13.9300003       1.56340428E-17
  -13.9200001       9.48032229E-17
  -13.9099998       1.57188470E-16
  -13.8999996       1.86696901E-16
  -13.8900003       1.76170293E-16
  -13.8800001       1.29720025E-16
  -13.8699999       6.12644240E-17
  -13.8599997      -1.05808965E-17
  -13.8500004      -6.96936591E-17
  -13.8400002      -1.09077409E-16
  -13.8299999      -1.34037418E-16
  -13.8199997      -1.59831385E-16
  -13.8100004      -2.03564397E-16
  -13.8000002      -2.72478985E-16
  -13.7900000      -3.52928242E-16
  -13.7799997      -4.05336711E-16
  -13.7700005      -3.69661854E-16
  -13.7600002      -1.83080481E-16
  -13.7500000       1.92678780E-16
  -13.7399998       7.41595027E-16
  -13.7299995       1.37186674E-15
  -13.7200003       1.91395184E-15
  -13.7100000       2.14619832E-15
  -13.6999998       1.84910426E-15
  -13.6899996       8.79750177E-16
  -13.6800003      -7.51567622E-16
  -13.6700001      -2.82683694E-15
  -13.6599998      -4.91262126E-15
  -13.6499996      -6.41636648E-15
  -13.6400003      -6.70905024E-15
  -13.6300001      -5.29689809E-15
  -13.6199999      -2.00530773E-15
  -13.6099997       2.87535837E-15
  -13.6000004       8.53456506E-15
  -13.5900002       1.37166212E-14
  -13.5799999       1.69383770E-14
  -13.5699997       1.68249509E-14
  -13.5600004       1.25003132E-14
  -13.5500002       3.94013088E-15
  -13.5400000      -7.81589572E-15
  -13.5299997      -2.06792083E-14
  -13.5200005      -3.17997141E-14
  -13.5100002      -3.81072974E-14
  -13.5000000      -3.70199002E-14
  -13.4899998      -2.71713736E-14
  -13.4799995      -8.98066682E-15
  -13.4700003       1.51065938E-14
  -13.4600000       4.08194698E-14
  -13.4499998       6.27296067E-14
  -13.4399996       7.52986201E-14
  -13.4300003       7.41131806E-14
  -13.4200001       5.70450534E-14
  -13.4099998       2.50577926E-14
  -13.3999996      -1.75679580E-14
  -13.3900003      -6.37081330E-14
  -13.3800001      -1.04536863E-13
  -13.3699999      -1.31150136E-13
  -13.3599997      -1.36364065E-13
  -13.3500004      -1.16320853E-13
  -13.3400002      -7.15579058E-14
  -13.3299999      -7.29578107E-15
  -13.3199997       6.71430210E-14
  -13.3100004       1.39697078E-13
  -13.3000002       1.97471108E-13
  -13.2900000       2.28848516E-13
  -13.2799997       2.25457795E-13
  -13.2700005       1.83692485E-13
  -13.2600002       1.05586282E-13
  -13.2500000      -1.03951462E-15
  -13.2399998      -1.23145485E-13
  -13.2299995      -2.43695092E-13
  -13.2200003      -3.43449607E-13
  -13.2100000      -4.03261869E-13
  -13.1999998      -4.06775579E-13
  -13.1899996      -3.43368075E-13
  -13.1800003      -2.11037391E-13
  -13.1700001      -1.87589388E-14
  -13.1599998       2.12320043E-13
  -13.1499996       4.49536187E-13
  -13.1400003       6.51770250E-13
  -13.1300001       7.75102909E-13
  -13.1199999       7.80678148E-13
  -13.1099997       6.43691263E-13
  -13.1000004       3.61779481E-13
  -13.0900002      -3.92817289E-14
  -13.0799999      -5.04601569E-13
  -13.0699997      -9.55310809E-13
  -13.0600004      -1.30006173E-12
  -13.0500002      -1.45165314E-12
  -13.0400000      -1.34605846E-12
  -13.0299997      -9.60024486E-13
  -13.0200005      -3.23046115E-13
  -13.0100002       4.79886205E-13
  -13.0000000       1.31680409E-12
  -12.9899998       2.02832152E-12
  -12.9799995       2.45553274E-12
  -12.9700003       2.47139180E-12
  -12.9600000       2.00949739E-12
  -12.9499998       1.08425443E-12
  -12.9399996      -2.02229929E-13
  -12.9300003      -1.66870836E-12
  -12.9200001      -3.07803566E-12
  -12.9099998      -4.17153421E-12
  -12.8999996      -4.70895501E-12
  -12.8900003      -4.50778694E-12
  -12.8800001      -3.47621107E-12
  -12.8699999      -1.63552342E-12
  -12.8599997       8.70191506E-13
  -12.8500004       3.77769040E-12
  -12.8400002       6.72094845E-12
  -12.8299999       9.25964080E-12
  -12.8199997       1.09192690E-11
  -12.8100004       1.12428200E-11
  -12.8000002       9.85315649E-12
  -12.7900000       6.52346449E-12
  -12.7799997       1.24961619E-12
  -12.7700005      -5.68569974E-12
  -12.7600002      -1.36713462E-11
  -12.7500000      -2.17644791E-11
  -12.7399998      -2.87404562E-11
  -12.7299995      -3.32047688E-11
  -12.7200003      -3.37663508E-11
  -12.7100000      -2.92589078E-11
  -12.6999998      -1.89839047E-11
  -12.6899996      -2.93834011E-12
  -12.6800003       1.80150252E-11
  -12.6700001       4.20750275E-11
  -12.6599998       6.65573985E-11
  -12.6499996       8.80913467E-11
  -12.6400003       1.02949961E-10
  -12.6300001       1.07486138E-10
  -12.6199999       9.86273840E-11
  -12.6099997       7.43722237E-11
  -12.6000004       3.42282071E-11
  -12.5900002      -2.04629473E-11
  -12.5799999      -8.63557281E-11
  -12.5699997      -1.58113828E-10
  -12.5600004      -2.28617153E-10
  -12.5500002      -2.89359869E-10
  -12.5400000      -3.31026928E-10
  -12.5299997      -3.44230061E-10
  -12.5200005      -3.20377114E-10
  -12.5100002      -2.52641769E-10
  -12.5000000      -1.36994721E-10
  -12.4899998       2.67584999E-11
  -12.4799995       2.34005759E-10
  -12.4700003       4.74506323E-10
  -12.4600000       7.31821548E-10
  -12.4499998       9.83101378E-10
  -12.4399996       1.19932997E-09
  -12.4300003       1.34610179E-09
  -12.4200001       1.38497580E-09
  -12.4099998       1.27539301E-09
  -12.3999996       9.77097403E-10
  -12.3900003       4.52928139E-10
  -12.3800001      -3.28183564E-10
  -12.3699999      -1.38824385E-09
  -12.3599997      -2.73747269E-09
  -12.3500004      -4.37206227E-09
  -12.3400002      -6.27261976E-09
  -12.3299999      -8.40344594E-09
  -12.3199997      -1.07127063E-08
  -12.3100004      -1.31335520E-08
  -12.3000002      -1.55860995E-08
  -12.2900000      -1.79801312E-08
  -12.2799997      -2.02184012E-08
  -12.2700005      -2.22003074E-08
  -12.2600002      -2.38257787E-08
  -12.2500000      -2.49991547E-08
  -12.2399998      -2.56328967E-08
  -12.2299995      -2.56510351E-08
  -12.2200003      -2.49921293E-08
  -12.2100000      -2.36116922E-08
  -12.1999998      -2.14838991E-08
  -12.1899996      -1.86025861E-08
  -12.1800003      -1.49813939E-08
  -12.1700001      -1.06530296E-08
  -12.1599998      -5.66767699E-09
  -12.1499996      -9.07535228E-11
  -12.1400003       5.99991434E-09
  -12.1300001       1.25172948E-08
  -12.1199999       1.93682581E-08
  -12.1099997       2.64565596E-08
  -12.1000004       3.36853070E-08
  -12.0900002       4.09587742E-08
  -12.0799999       4.81835407E-08
  -12.0699997       5.52690658E-08
  -12.0600004       6.21276257E-08
  -12.0500002       6.86739909E-08
  -12.0400000       7.48249604E-08
  -12.0299997       8.04989497E-08
  -12.0200005       8.56155751E-08
  -12.0100002       9.00956252E-08
  -12.0000000       9.38610043E-08
  -11.9899998       9.68350591E-08
  -11.9799995       9.89429481E-08
  -11.9700003       1.00112125E-07
  -11.9600000       1.00273290E-07
  -11.9499998       9.93613369E-08
  -11.9399996       9.73169918E-08
  -11.9300003       9.40884846E-08
  -11.9200001       8.96339429E-08
  -11.9099998       8.39236307E-08
  -11.8999996       7.69424346E-08
  -11.8900003       6.86919250E-08
  -11.8800001       5.91920966E-08
  -11.8699999       4.84818194E-08
  -11.8599997       3.66188608E-08
  -11.8500004       2.36786377E-08
  -11.8400002       9.75216263E-09
  -11.8299999      -5.05658493E-09
  -11.8199997      -2.06338733E-08
  -11.8100004      -3.68592090E-08
  -11.8000002      -5.36083391E-08
  -11.7900000      -7.07555756E-08
  -11.7799997      -8.81755611E-08
  -11.7700005      -1.05744249E-07
  -11.7600002      -1.23339063E-07
  -11.7500000      -1.40838353E-07
  -11.7399998      -1.58120216E-07
  -11.7299995      -1.75060819E-07
  -11.7200003      -1.91532536E-07
  -11.7100000      -2.07402067E-07
  -11.6999998      -2.22529010E-07
  -11.6899996      -2.36765246E-07
  -11.6800003      -2.49954894E-07
  -11.6700001      -2.61935696E-07
  -11.6599998      -2.72541627E-07
  -11.6499996      -2.81606248E-07
  -11.6400003      -2.88967186E-07
  -11.6300001      -2.94470340E-07
  -11.6199999      -2.97974509E-07
  -11.6099997      -2.99354866E-07
  -11.6000004      -2.98505654E-07
  -11.5900002      -2.95341124E-07
  -11.5799999      -2.89796020E-07
  -11.5699997      -2.81823930E-07
  -11.5600004      -2.71395123E-07
  -11.5500002      -2.58494367E-07
  -11.5400000      -2.43118819E-07
  -11.5299997      -2.25275400E-07
  -11.5200005      -2.04980594E-07
  -11.5100002      -1.82259242E-07
  -11.5000000      -1.57145564E-07
  -11.4899998      -1.29683656E-07
  -11.4799995      -9.99287622E-08
  -11.4700003      -6.79485268E-08
  -11.4600000      -3.38233725E-08
  -11.4499998       2.35317699E-09
  -11.4399996       4.04752214E-08
  -11.4300003       8.04250391E-08
  -11.4200001       1.22075704E-07
  -11.4099998       1.65292164E-07
  -11.3999996       2.09932821E-07
  -11.3900003       2.55852115E-07
  -11.3800001       3.02901213E-07
  -11.3699999       3.50929128E-07
  -11.3599997       3.99783573E-07
  -11.3500004       4.49310903E-07
  -11.3400002       4.99356872E-07
  -11.3299999       5.49767265E-07
  -11.3199997       6.00388262E-07
  -11.3100004       6.51068319E-07
  -11.3000002       7.01658678E-07
  -11.2900000       7.52016149E-07
  -11.2799997       8.02003967E-07
  -11.2700005       8.51492985E-07
  -11.2600002       9.00363830E-07
  -11.2500000       9.48506283E-07
  -11.2399998       9.95819846E-07
  -11.2299995       1.04221351E-06
  -11.2200003       1.08760423E-06
  -11.2100000       1.13191675E-06
  -11.1999998       1.17508125E-06
  -11.1899996       1.21703306E-06
  -11.1800003       1.25771044E-06
  -11.1700001       1.29705415E-06
  -11.1599998       1.33500646E-06
  -11.1499996       1.37150801E-06
  -11.1400003       1.40650025E-06
  -11.1300001       1.43992349E-06
  -11.1199999       1.47171875E-06
  -11.1099997       1.50182962E-06
  -11.1000004       1.53020460E-06
  -11.0900002       1.55680050E-06
  -11.0799999       1.58158684E-06
  -11.0699997       1.60454783E-06
  -11.0600004       1.62568608E-06
  -11.0500002       1.64502478E-06
  -11.0400000       1.66260315E-06
  -11.0299997       1.67847725E-06
  -11.0200005       1.69271266E-06
  -11.0100002       1.70537783E-06
  -11.0000000       1.71653994E-06
  -10.9899998       1.72625732E-06
  -10.9799995       1.73457579E-06
  -10.9700003       1.74152433E-06
  -10.9600000       1.74711829E-06
  -10.9499998       1.75135290E-06
  -10.9399996       1.75421474E-06
  -10.9300003       1.75568221E-06
  -10.9200001       1.75573302E-06
  -10.9099998       1.75434252E-06
  -10.8999996       1.75149444E-06
  -10.8900003       1.74717502E-06
  -10.8800001       1.74138381E-06
  -10.8699999       1.73412400E-06
  -10.8599997       1.72540661E-06
  -10.8500004       1.71524107E-06
  -10.8400002       1.70363546E-06
  -10.8299999       1.69058956E-06
  -10.8199997       1.67609687E-06
  -10.8100004       1.66013001E-06
  -10.8000002       1.64264804E-06
  -10.7900000       1.62359436E-06
  -10.7799997       1.60289790E-06
  -10.7700005       1.58048215E-06
  -10.7600002       1.55626572E-06
  -10.7500000       1.53017572E-06
  -10.7399998       1.50215385E-06
  -10.7299995       1.47215860E-06
  -10.7200003       1.44017213E-06
  -10.7100000       1.40619841E-06
  -10.6999998       1.37025324E-06
  -10.6899996       1.33237506E-06
  -10.6800003       1.29260695E-06
  -10.6700001       1.25098722E-06
  -10.6599998       1.20755294E-06
  -10.6499996       1.16233480E-06
  -10.6400003       1.11535962E-06
  -10.6300001       1.06664731E-06
  -10.6199999       1.01622084E-06
  -10.6099997       9.64105425E-07
  -10.6000004       9.10339509E-07
  -10.5900002       8.54967368E-07
  -10.5799999       7.98060626E-07
  -10.5699997       7.39701875E-07
  -10.5600004       6.79993605E-07
  -10.5500002       6.19058426E-07
  -10.5400000       5.57030319E-07
  -10.5299997       4.94049061E-07
  -10.5200005       4.30268386E-07
  -10.5100002       3.65839981E-07
  -10.5000000       3.00910131E-07
  -10.4899998       2.35627638E-07
  -10.4799995       1.70133092E-07
  -10.4700003       1.04570070E-07
  -10.4600000       3.90778503E-08
  -10.4499998      -2.61950461E-08
  -10.4399996      -9.10897100E-08
  -10.4300003      -1.55433014E-07
  -10.4200001      -2.19036536E-07
  -10.4099998      -2.81690035E-07
  -10.3999996      -3.43178726E-07
  -10.3900003      -4.03279103E-07
  -10.3800001      -4.61764586E-07
  -10.3699999      -5.18415163E-07
  -10.3599997      -5.73023442E-07
  -10.3500004      -6.25394819E-07
  -10.3400002      -6.75351316E-07
  -10.3299999      -7.22736900E-07
  -10.3199997      -7.67416850E-07
  -10.3100004      -8.09277196E-07
  -10.3000002      -8.48224488E-07
  -10.2900000      -8.84195174E-07
  -10.2799997      -9.17145655E-07
  -10.2700005      -9.47062745E-07
  -10.2600002      -9.73954229E-07
  -10.2500000      -9.97851998E-07
  -10.2399998      -1.01880960E-06
  -10.2299995      -1.03689820E-06
  -10.2200003      -1.05220852E-06
  -10.2100000      -1.06484720E-06
  -10.1999998      -1.07493713E-06
  -10.1899996      -1.08261861E-06
  -10.1800003      -1.08804772E-06
  -10.1700001      -1.09139683E-06
  -10.1599998      -1.09284770E-06
  -10.1499996      -1.09259349E-06
  -10.1400003      -1.09082578E-06
  -10.1300001      -1.08773554E-06
  -10.1199999      -1.08350559E-06
  -10.1099997      -1.07830863E-06
  -10.1000004      -1.07231085E-06
  -10.0900002      -1.06566802E-06
  -10.0799999      -1.05852962E-06
  -10.0699997      -1.05104266E-06
  -10.0600004      -1.04335277E-06
  -10.0500002      -1.03560114E-06
  -10.0400000      -1.02792728E-06
  -10.0299997      -1.02046636E-06
  -10.0200005      -1.01334660E-06
  -10.0100002      -1.00669058E-06
  -10.0000000      -1.00061561E-06
  -9.98999977      -9.95235951E-07
  -9.97999954      -9.90664375E-07
  -9.97000027      -9.87014118E-07
  -9.96000004      -9.84399207E-07
  -9.94999981      -9.82934125E-07
  -9.93999958      -9.82729716E-07
  -9.93000031      -9.83890914E-07
  -9.92000008      -9.86511736E-07
  -9.90999985      -9.90673357E-07
  -9.89999962      -9.96441827E-07
  -9.89000034      -1.00386774E-06
  -9.88000011      -1.01298701E-06
  -9.86999989      -1.02382205E-06
  -9.85999966      -1.03638376E-06
  -9.85000038      -1.05067227E-06
  -9.84000015      -1.06667903E-06
  -9.82999992      -1.08438940E-06
  -9.81999969      -1.10378528E-06
  -9.81000042      -1.12484884E-06
  -9.80000019      -1.14756790E-06
  -9.78999996      -1.17194077E-06
  -9.77999973      -1.19798210E-06
  -9.77000046      -1.22572465E-06
  -9.76000023      -1.25522195E-06
  -9.75000000      -1.28654676E-06
  -9.73999977      -1.31978811E-06
  -9.72999954      -1.35504763E-06
  -9.72000027      -1.39243298E-06
  -9.71000004      -1.43205375E-06
  -9.69999981      -1.47401465E-06
  -9.68999958      -1.51841130E-06
  -9.68000031      -1.56532315E-06
  -9.67000008      -1.61480375E-06
  -9.65999985      -1.66687551E-06
  -9.64999962      -1.72151738E-06
  -9.64000034      -1.77865093E-06
  -9.63000011      -1.83813449E-06
  -9.61999989      -1.89975299E-06
  -9.60999966      -1.96321025E-06
  -9.60000038      -2.02812748E-06
  -9.59000015      -2.09404243E-06
  -9.57999992      -2.16041212E-06
  -9.56999969      -2.22661674E-06
  -9.56000042      -2.29196689E-06
  -9.55000019      -2.35571019E-06
  -9.53999996      -2.41703879E-06
  -9.52999973      -2.47510184E-06
  -9.52000046      -2.52901441E-06
  -9.51000023      -2.57787133E-06
  -9.50000000      -2.62077265E-06
  -9.48999977      -2.65683252E-06
  -9.47999954      -2.68520012E-06
  -9.47000027      -2.70508872E-06
  -9.46000004      -2.71579461E-06
  -9.44999981      -2.71671502E-06
  -9.43999958      -2.70736950E-06
  -9.43000031      -2.68742428E-06
  -9.42000008      -2.65670360E-06
  -9.40999985      -2.61521154E-06
  -9.39999962      -2.56314047E-06
  -9.39000034      -2.50087965E-06
  -9.38000011      -2.42902411E-06
  -9.36999989      -2.34837262E-06
  -9.35999966      -2.25991948E-06
  -9.35000038      -2.16484591E-06
  -9.34000015      -2.06450864E-06
  -9.32999992      -1.96042242E-06
  -9.31999969      -1.85423335E-06
  -9.31000042      -1.74770207E-06
  -9.30000019      -1.64268033E-06
  -9.28999996      -1.54108807E-06
  -9.27999973      -1.44487410E-06
  -9.27000046      -1.35600180E-06
  -9.26000023      -1.27641181E-06
  -9.25000000      -1.20800121E-06
  -9.23999977      -1.15257967E-06
  -9.22999954      -1.11185238E-06
  -9.22000027      -1.08738391E-06
  -9.21000004      -1.08058464E-06
  -9.19999981      -1.09267978E-06
  -9.18999958      -1.12469911E-06
  -9.18000031      -1.17747084E-06
  -9.17000008      -1.25160034E-06
  -9.15999985      -1.34748177E-06
  -9.14999962      -1.46528168E-06
  -9.14000034      -1.60495017E-06
  -9.13000011      -1.76621916E-06
  -9.11999989      -1.94859103E-06
  -9.10999966      -2.15136151E-06
  -9.10000038      -2.37360905E-06
  -9.09000015      -2.61421042E-06
  -9.07999992      -2.87184434E-06
  -9.06999969      -3.14500858E-06
  -9.06000042      -3.43203692E-06
  -9.05000019      -3.73111584E-06
  -9.03999996      -4.04030561E-06
  -9.02999973      -4.35755828E-06
  -9.02000046      -4.68072813E-06
  -9.01000023      -5.00759006E-06
  -9.00000000      -5.33585899E-06
  -8.98999977      -5.66321023E-06
  -8.97999954      -5.98727138E-06
  -8.97000027      -6.30565819E-06
  -8.96000004      -6.61600416E-06
  -8.94999981      -6.91595233E-06
  -8.93999958      -7.20319349E-06
  -8.93000031      -7.47545619E-06
  -8.92000008      -7.73056581E-06
  -8.90999985      -7.96642144E-06
  -8.89999962      -8.18101762E-06
  -8.89000034      -8.37246171E-06
  -8.88000011      -8.53898382E-06
  -8.86999989      -8.67894869E-06
  -8.85999966      -8.79088475E-06
  -8.85000038      -8.87347505E-06
  -8.84000015      -8.92557273E-06
  -8.82999992      -8.94620280E-06
  -8.81999969      -8.93457855E-06
  -8.81000042      -8.89006606E-06
  -8.80000019      -8.81221240E-06
  -8.78999996      -8.70071926E-06
  -8.77999973      -8.55546386E-06
  -8.77000046      -8.37648440E-06
  -8.76000023      -8.16399643E-06
  -8.75000000      -7.91835646E-06
  -8.73999977      -7.64010110E-06
  -8.72999954      -7.32993522E-06
  -8.72000027      -6.98869508E-06
  -8.71000004      -6.61735021E-06
  -8.69999981      -6.21699201E-06
  -8.68999958      -5.78882464E-06
  -8.68000031      -5.33412231E-06
  -8.67000008      -4.85427654E-06
  -8.65999985      -4.35074571E-06
  -8.64999962      -3.82505277E-06
  -8.64000034      -3.27881207E-06
  -8.63000011      -2.71367253E-06
  -8.61999989      -2.13131170E-06
  -8.60999966      -1.53341125E-06
  -8.60000038      -9.21646063E-07
  -8.59000015      -2.97665423E-07
  -8.57999992       3.36947068E-07
  -8.56999969       9.80684149E-07
  -8.56000042       1.63207221E-06
  -8.55000019       2.28975682E-06
  -8.53999996       2.95246696E-06
  -8.52999973       3.61900447E-06
  -8.52000046       4.28829981E-06
  -8.51000023       4.95939685E-06
  -8.50000000       5.63142021E-06
  -8.48999977       6.30364138E-06
  -8.47999954       6.97539281E-06
  -8.47000027       7.64613378E-06
  -8.46000004       8.31536363E-06
  -8.44999981       8.98263806E-06
  -8.43999958       9.64753963E-06
  -8.43000031       1.03096882E-05
  -8.42000008       1.09686789E-05
  -8.40999985       1.16241345E-05
  -8.39999962       1.22756474E-05
  -8.39000034       1.29228047E-05
  -8.38000011       1.35651453E-05
  -8.36999989       1.42021772E-05
  -8.35999966       1.48333575E-05
  -8.35000038       1.54580594E-05
  -8.34000015       1.60756354E-05
  -8.32999992       1.66853679E-05
  -8.31999969       1.72865002E-05
  -8.31000042       1.78782466E-05
  -8.30000019       1.84597975E-05
  -8.28999996       1.90303235E-05
  -8.27999973       1.95889861E-05
  -8.27000046       2.01349540E-05
  -8.26000023       2.06673812E-05
  -8.25000000       2.11854240E-05
  -8.23999977       2.16882327E-05
  -8.22999954       2.21749633E-05
  -8.22000027       2.26447537E-05
  -8.21000004       2.30967453E-05
  -8.19999981       2.35300940E-05
  -8.18999958       2.39439360E-05
  -8.18000031       2.43373925E-05
  -8.17000008       2.47095795E-05
  -8.15999985       2.50595967E-05
  -8.14999962       2.53865164E-05
  -8.14000034       2.56894236E-05
  -8.13000011       2.59673743E-05
  -8.11999989       2.62194335E-05
  -8.10999966       2.64446699E-05
  -8.10000038       2.66421648E-05
  -8.09000015       2.68110252E-05
  -8.07999992       2.69503871E-05
  -8.06999969       2.70594282E-05
  -8.06000042       2.71373719E-05
  -8.05000019       2.71835161E-05
  -8.03999996       2.71972422E-05
  -8.02999973       2.71780336E-05
  -8.02000046       2.71254885E-05
  -8.01000023       2.70393612E-05
  -8.00000000       2.69195498E-05
  -7.98999977       2.67661235E-05
  -7.98000002       2.65793333E-05
  -7.96999979       2.63596030E-05
  -7.96000004       2.61075675E-05
  -7.94999981       2.58240252E-05
  -7.94000006       2.55099621E-05
  -7.92999983       2.51665479E-05
  -7.92000008       2.47951375E-05
  -7.90999985       2.43972227E-05
  -7.90000010       2.39744386E-05
  -7.88999987       2.35285625E-05
  -7.88000011       2.30614714E-05
  -7.86999989       2.25751228E-05
  -7.86000013       2.20715501E-05
  -7.84999990       2.15528289E-05
  -7.84000015       2.10210528E-05
  -7.82999992       2.04783410E-05
  -7.82000017       1.99268015E-05
  -7.80999994       1.93685155E-05
  -7.80000019       1.88055383E-05
  -7.78999996       1.82398726E-05
  -7.78000021       1.76734593E-05
  -7.76999998       1.71081756E-05
  -7.76000023       1.65458077E-05
  -7.75000000       1.59880528E-05
  -7.73999977       1.54365407E-05
  -7.73000002       1.48927993E-05
  -7.71999979       1.43582793E-05
  -7.71000004       1.38343203E-05
  -7.69999981       1.33222229E-05
  -7.69000006       1.28231777E-05
  -7.67999983       1.23382961E-05
  -7.67000008       1.18686066E-05
  -7.65999985       1.14150471E-05
  -7.65000010       1.09784478E-05
  -7.63999987       1.05595518E-05
  -7.63000011       1.01589912E-05
  -7.61999989       9.77730997E-06
  -7.61000013       9.41493545E-06
  -7.59999990       9.07221329E-06
  -7.59000015       8.74937268E-06
  -7.57999992       8.44655551E-06
  -7.57000017       8.16378997E-06
  -7.55999994       7.90100603E-06
  -7.55000019       7.65801178E-06
  -7.53999996       7.43452210E-06
  -7.53000021       7.23013272E-06
  -7.51999998       7.04434296E-06
  -7.51000023       6.87655665E-06
  -7.50000000       6.72608667E-06
  -7.48999977       6.59216403E-06
  -7.48000002       6.47394154E-06
  -7.46999979       6.37050698E-06
  -7.46000004       6.28088583E-06
  -7.44999981       6.20403580E-06
  -7.44000006       6.13888324E-06