  -16.0000000       0.00000000    
  -15.9899998       0.00000000    
  -15.9799995       0.00000000    
  -15.9700003       0.00000000    
  -15.9600000       0.00000000    
  -15.9499998       0.00000000    
  -15.9399996       0.00000000    
  -15.9300003       0.00000000    
  -15.9200001       0.00000000    
  -15.9099998       0.00000000    
  -15.8999996       0.00000000    
  -15.8900003       0.00000000    
  -15.8800001       0.00000000    
  -15.8699999      -3.47522019E-43
  -15.8599997      -2.68811084E-41
  -15.8500004      -6.67344572E-40
  -15.8400002      -9.34644636E-39
  -15.8299999      -9.07140762E-38
  -15.8199997      -6.70340783E-37
  -15.8100004      -3.99168724E-36
  -15.8000002      -1.98467484E-35
  -15.7900000      -8.44132366E-35
  -15.7799997      -3.12259697E-34
  -15.7700005      -1.01566918E-33
  -15.7600002      -2.92255042E-33
  -15.7500000      -7.44699695E-33
  -15.7399998      -1.67070573E-32
  -15.7299995      -3.24249684E-32
  -15.7200003      -5.20325874E-32
  -15.7100000      -5.98183391E-32
  -15.6999998      -1.23569568E-32
  -15.6899996       1.76657817E-31
  -15.6800003       6.34473499E-31
  -15.6700001       1.47525303E-30
  -15.6599998       2.64925619E-30
  -15.6499996       3.67518817E-30
  -15.6400003       3.32960599E-30
  -15.6300001      -4.54745491E-31
  -15.6199999      -1.00251124E-29
  -15.6099997      -2.62730819E-29
  -15.6000004      -4.56213503E-29
  -15.5900002      -5.67305957E-29
  -15.5799999      -3.96084977E-29
  -15.5699997       2.88233381E-29
  -15.5600004       1.59348615E-28
  -15.5500002       3.26600524E-28
  -15.5400000       4.47191544E-28
  -15.5299997       3.80516138E-28
  -15.5200005      -2.37078786E-29
  -15.5100002      -8.20628060E-28
  -15.5000000      -1.83306295E-27
  -15.4899998      -2.55471217E-27
  -15.4799995      -2.19904800E-27
  -15.4700003       2.00230465E-29
  -15.4600000       4.37936786E-27
  -15.4499998       1.00457369E-26
  -15.4399996       1.46203197E-26
  -15.4300003       1.40718349E-26
  -15.4200001       3.25234871E-27
  -15.4099998      -2.27170262E-26
  -15.3999996      -6.54691997E-26
  -15.3900003      -1.17537945E-25
  -15.3800001      -1.52793088E-25
  -15.3699999      -1.15836459E-25
  -15.3599997       7.88084309E-26
  -15.3500004       5.16106824E-25
  -15.3400002       1.19276558E-24
  -15.3299999       1.86625794E-24
  -15.3199997       1.89529926E-24
  -15.3100004       2.26427929E-25
  -15.3000002      -4.22685794E-24
  -15.2900000      -1.15902505E-23
  -15.2799997      -1.94798756E-23
  -15.2700005      -2.15786148E-23
  -15.2600002      -7.83883430E-24
  -15.2500000       3.16727306E-23
  -15.2399998       9.79193352E-23
  -15.2299995       1.70347230E-22
  -15.2200003       1.96804223E-22
  -15.2100000       9.74773900E-23
  -15.1999998      -2.03563903E-22
  -15.1899996      -7.12502199E-22
  -15.1800003      -1.27895401E-21
  -15.1700001      -1.53325843E-21
  -15.1599998      -9.23586837E-22
  -15.1499996       1.06679511E-21
  -15.1400003       4.49384003E-21
  -15.1300001       8.41754905E-21
  -15.1199999       1.05387536E-20
  -15.1099997       7.44761112E-21
  -15.1000004      -4.08237381E-21
  -15.0900002      -2.46426184E-20
  -15.0799999      -4.91758971E-20
  -15.0699997      -6.49521022E-20
  -15.0600004      -5.28504531E-20
  -15.0500002       5.85291716E-21
  -15.0400000       1.16703332E-19
  -15.0299997       2.56349605E-19
  -15.0200005       3.61570727E-19
  -15.0100002       3.34305691E-19
  -15.0000000       7.32822052E-20
  -14.9899998      -4.65147130E-19
  -14.9799995      -1.19058628E-18
  -14.9700003      -1.82114338E-18
  -14.9600000      -1.89575424E-18
  -14.9499998      -9.05140421E-19
  -14.9399996       1.44302382E-18
  -14.9300003       4.87747751E-18
  -14.9200001       8.27695036E-18
  -14.9099998       9.65783823E-18
  -14.8999996       6.65067895E-18
  -14.8900003      -2.44341150E-18
  -14.8800001      -1.71897925E-17
  -14.8699999      -3.36803395E-17
  -14.8599997      -4.41550368E-17
  -14.8500004      -3.84776793E-17
  -14.8400002      -7.95724257E-18
  -14.8299999       4.89400119E-17
  -14.8199997       1.20776165E-16
  -14.8100004       1.80271666E-16
  -14.8000002       1.87865224E-16
  -14.7900000       1.04085043E-16
  -14.7799997      -8.99850150E-17
  -14.7700005      -3.69512009E-16
  -14.7600002      -6.50171744E-16
  -14.7500000      -7.92538765E-16
  -14.7399998      -6.36933677E-16
  -14.7299995      -6.99360297E-17
  -14.7200003       8.91256432E-16
  -14.7100000       2.02747521E-15
  -14.6999998       2.90190947E-15
  -14.6899996       2.94011679E-15
  -14.6800003       1.62260490E-15
  -14.6700001      -1.23779063E-15
  -14.6599998      -5.21744132E-15
  -14.6499996      -9.13249494E-15
  -14.6400003      -1.11591907E-14
  -14.6300001      -9.31479083E-15
  -14.6199999      -2.27111514E-15
  -14.6099997       9.69360344E-15
  -14.6000004       2.39632651E-14
  -14.5900002       3.55145905E-14
  -14.5799999       3.78788831E-14
  -14.5699997       2.52279209E-14
  -14.5600004      -4.77411782E-15
  -14.5500002      -4.82190107E-14
  -14.5400000      -9.35428831E-14
  -14.5299997      -1.22700271E-13
  -14.5200005      -1.15643213E-13
  -14.5100002      -5.77465593E-14
  -14.5000000       5.15906355E-14
  -14.4899998       1.92218406E-13
  -14.4799995       3.22013385E-13
  -14.4700003       3.84082767E-13
  -14.4600000       3.23122253E-13
  -14.4499998       1.08208534E-13
  -14.4399996      -2.44420532E-13
  -14.4300003      -6.57708859E-13
  -14.4200001      -9.98426710E-13
  -14.4099998      -1.10567209E-12
  -14.3999996      -8.41618225E-13
  -14.3900003      -1.53485514E-13
  -14.3800001       8.72798416E-13
  -14.3699999       1.99100263E-12
  -14.3599997       2.82534586E-12
  -14.3500004       2.96124301E-12
  -14.3400002       2.08392244E-12
  -14.3299999       1.30234487E-13
  -14.3199997      -2.59781931E-12
  -14.3100004      -5.41288412E-12
  -14.3000002      -7.35464380E-12
  -14.2900000      -7.43834768E-12
  -14.2799997      -4.99468912E-12
  -14.2700005      -9.18626628E-15
  -14.2600002       6.66009001E-12
  -14.2500000       1.33011562E-11
  -14.2399998       1.76689358E-11
  -14.2299995       1.75877975E-11
  -14.2200003       1.17094260E-11
  -14.2100000       2.11450933E-13
  -14.1999998      -1.48198624E-11
  -14.1899996      -2.95394265E-11
  -14.1800003      -3.91214040E-11
  -14.1700001      -3.90708160E-11
  -14.1599998      -2.67723465E-11
  -14.1499996      -2.82349968E-12
  -14.1400003       2.83391244E-11
  -14.1300001       5.88982058E-11
  -14.1199999       7.93060895E-11
  -14.1099997       8.08737383E-11
  -14.1000004       5.86772714E-11
  -14.0900002       1.39274868E-11
  -14.0799999      -4.50640913E-11
  -14.0699997      -1.03921170E-10
  -14.0600004      -1.45320200E-10
  -14.0500002      -1.53630386E-10
  -14.0400000      -1.19927235E-10
  -14.0299997      -4.59054530E-11
  -14.0200005       5.47097576E-11
  -14.0100002       1.58112579E-10
  -14.0000000       2.35703401E-10
  -13.9899998       2.61651700E-10
  -13.9799995       2.20808927E-10
  -13.9700003       1.14648527E-10
  -13.9600000      -3.68223785E-11
  -13.9499998      -1.98316086E-10
  -13.9399996      -3.27391864E-10
  -13.9300003      -3.85672272E-10
  -13.9200001      -3.50185492E-10
  -13.9099998      -2.21500179E-10
  -13.8999996      -2.58744658E-11
  -13.8900003       1.89843044E-10
  -13.8800001       3.69790060E-10
  -13.8699999       4.64320887E-10
  -13.8599997       4.44680626E-10
  -13.8500004       3.12672443E-10
  -13.8400002       1.01965693E-10
  -13.8299999      -1.30070468E-10
  -13.8199997      -3.18295112E-10
  -13.8100004      -4.09228429E-10
  -13.8000002      -3.78255233E-10
  -13.7900000      -2.38984971E-10
  -13.7799997      -4.11307620E-11
  -13.7700005       1.43513007E-10
  -13.7600002       2.43648074E-10
  -13.7500000       2.13214196E-10
  -13.7399998       5.04942164E-11
  -13.7299995      -1.95318567E-10
  -13.7200003      -4.33783870E-10
  -13.7100000      -5.58156132E-10
  -13.6999998      -4.79619455E-10
  -13.6899996      -1.61213279E-10
  -13.6800003       3.59389574E-10
  -13.6700001       9.67052105E-10
  -13.6599998       1.49014912E-09
  -13.6499996       1.74248904E-09
  -13.6400003       1.57664026E-09
  -13.6300001       9.34533340E-10
  -13.6199999      -1.19945748E-10
  -13.6099997      -1.39808887E-09
  -13.6000004      -2.61800115E-09
  -13.5900002      -3.46602214E-09
  -13.5799999      -3.67458886E-09
  -13.5699997      -3.09673043E-09
  -13.5600004      -1.75692816E-09
  -13.5500002       1.37661924E-10
  -13.5400000       2.23185737E-09
  -13.5299997       4.09715772E-09
  -13.5200005       5.32946398E-09
  -13.5100002       5.64509817E-09
  -13.5000000       4.95026908E-09
  -13.4899998       3.36406414E-09
  -13.4799995       1.18840005E-09
  -13.4700003      -1.16819532E-09
  -13.4600000      -3.29194050E-09
  -13.4499998      -4.86232654E-09
  -13.4399996      -5.71949599E-09
  -13.4300003      -5.88076965E-09
  -13.4200001      -5.50206503E-09
  -13.4099998      -4.79635798E-09
  -13.3999996      -3.93631705E-09
  -13.3900003      -2.97431080E-09
  -13.3800001      -1.81050541E-09
  -13.3699999      -2.25974850E-10
  -13.3599997       2.02219930E-09
  -13.3500004       5.06683451E-09
  -13.3400002       8.79858941E-09
  -13.3299999       1.27803439E-08
  -13.3199997       1.62476006E-08
  -13.3100004       1.82122513E-08
  -13.3000002       1.76620247E-08
  -13.2900000       1.38185126E-08
  -13.2799997       6.39546016E-09
  -13.2700005      -4.20851620E-09
  -13.2600002      -1.68412893E-08
  -13.2500000      -2.96860563E-08
  -13.2399998      -4.05082972E-08
  -13.2299995      -4.70251358E-08
  -13.2200003      -4.73294008E-08
  -13.2100000      -4.02878122E-08
  -13.1999998      -2.58319623E-08
  -13.1899996      -5.08128783E-09
  -13.1800003       1.97304999E-08
  -13.1700001       4.55159110E-08
  -13.1599998       6.87381956E-08
  -13.1499996       8.58917488E-08
  -13.1400003       9.39828837E-08
  -13.1300001       9.09422582E-08
  -13.1199999       7.59186776E-08
  -13.1099997       4.94283654E-08
  -13.1000004       1.33568410E-08
  -13.0900002      -2.91725044E-08
  -13.0799999      -7.40380486E-08
  -13.0699997      -1.16452448E-07
  -13.0600004      -1.51361064E-07
  -13.0500002      -1.73901853E-07
  -13.0400000      -1.79903083E-07
  -13.0299997      -1.66394514E-07
  -13.0200005      -1.32090506E-07
  -13.0100002      -7.77840654E-08
  -13.0000000      -6.58506361E-09
  -12.9899998       7.60774910E-08
  -12.9799995       1.62718536E-07
  -12.9700003       2.44369204E-07
  -12.9600000       3.11401806E-07
  -12.9499998       3.54548206E-07
  -12.9399996       3.65984249E-07
  -12.9300003       3.40349146E-07
  -12.9200001       2.75561433E-07
  -12.9099998       1.73326512E-07
  -12.8999996       3.92766424E-08
  -12.8900003      -1.17280166E-07
  -12.8800001      -2.83951380E-07
  -12.8699999      -4.46149755E-07
  -12.8599997      -5.88178921E-07
  -12.8500004      -6.94456276E-07
  -12.8400002      -7.50798222E-07
  -12.8299999      -7.45707723E-07
  -12.8199997      -6.71597149E-07
  -12.8100004      -5.25884161E-07
  -12.8000002      -3.11824238E-07
  -12.7900000      -3.90083734E-08
  -12.7799997       2.76652571E-07
  -12.7700005       6.13545524E-07
  -12.7600002       9.45608519E-07
  -12.7500000       1.24422593E-06
  -12.7399998       1.48056563E-06
  -12.7299995       1.62817901E-06
  -12.7200003       1.66549887E-06
  -12.7100000       1.57795080E-06
  -12.6999998       1.35934692E-06
  -12.6899996       1.01246428E-06
  -12.6800003       5.48705657E-07
  -12.6700001      -1.29555309E-08
  -12.6599998      -6.47513843E-07
  -12.6499996      -1.32558080E-06
  -12.6400003      -2.01478565E-06
  -12.6300001      -2.68068015E-06
  -12.6199999      -3.28701049E-06
  -12.6099997      -3.79541234E-06
  -12.6000004      -4.16484045E-06
  -12.5900002      -4.35106040E-06
  -12.5799999      -4.30675027E-06
  -12.5699997      -3.98261545E-06
  -12.5600004      -3.32994523E-06
  -12.5500002      -2.30474279E-06
  -12.5400000      -8.73439205E-07
  -12.5299997       9.80055347E-07
  -12.5200005       3.24637949E-06
  -12.5100002       5.88247303E-06
  -12.5000000       8.80373045E-06
  -12.4899998       1.18773560E-05
  -12.4799995       1.49177458E-05
  -12.4700003       1.76844569E-05
  -12.4600000       1.98839025E-05
  -12.4499998       2.11746737E-05
  -12.4399996       2.11776423E-05
  -12.4300003       1.94902877E-05
  -12.4200001       1.57054874E-05
  -12.4099998       9.43421037E-06
  -12.3999996       3.30886508E-07
  -12.3900003      -1.18792359E-05
  -12.3800001      -2.73733694E-05
  -12.3699999      -4.62057324E-05
  -12.3599997      -6.82859027E-05
  -12.3500004      -9.33626288E-05
  -12.3400002      -1.21014869E-04
  -12.3299999      -1.50650550E-04
  -12.3199997      -1.81513868E-04
  -12.3100004      -2.12700746E-04
  -12.3000002      -2.43185263E-04
  -12.2900000      -2.71849509E-04
  -12.2799997      -2.97521590E-04
  -12.2700005      -3.19017592E-04
  -12.2600002      -3.35187709E-04
  -12.2500000      -3.44955566E-04
  -12.2399998      -3.47363675E-04
  -12.2299995      -3.41611449E-04
  -12.2200003      -3.27083602E-04
  -12.2100000      -3.03373847E-04
  -12.1999998      -2.70298566E-04
  -12.1899996      -2.27899465E-04
  -12.1800003      -1.76435569E-04
  -12.1700001      -1.16371142E-04
  -12.1599998      -4.83472286E-05
  -12.1499996       2.68425301E-05
  -12.1400003       1.08284425E-04
  -12.1300001       1.94977096E-04
  -12.1199999       2.85854709E-04
  -12.1099997       3.79813660E-04
  -12.1000004       4.75728419E-04
  -12.0900002       5.72457560E-04
  -12.0799999       6.68853638E-04
  -12.0699997       7.63762218E-04
  -12.0600004       8.56015540E-04
  -12.0500002       9.44437517E-04
  -12.0400000       1.02784147E-03
  -12.0299997       1.10503542E-03
  -12.0200005       1.17482862E-03
  -12.0100002       1.23604957E-03
  -12.0000000       1.28755684E-03
  -11.9899998       1.32826262E-03
  -11.9799995       1.35714817E-03
  -11.9700003       1.37327996E-03
  -11.9600000       1.37583853E-03
  -11.9499998       1.36411621E-03
  -11.9399996       1.33753510E-03
  -11.9300003       1.29565841E-03
  -11.9200001       1.23819080E-03
  -11.9099998       1.16497686E-03
  -11.8999996       1.07600982E-03
  -11.8900003       9.71413625E-04
  -11.8800001       8.51452409E-04
  -11.8699999       7.16511684E-04
  -11.8599997       5.67100185E-04
  -11.8500004       4.03838843E-04
  -11.8400002       2.27464625E-04
  -11.8299999       3.88221488E-05
  -11.8199997      -1.61126009E-04
  -11.8100004      -3.71297414E-04
  -11.8000002      -5.90485230E-04
  -11.7900000      -8.17357097E-04
  -11.7799997      -1.05044642E-03
  -11.7700005      -1.28815940E-03
  -11.7600002      -1.52878417E-03
  -11.7500000      -1.77049916E-03
  -11.7399998      -2.01139064E-03
  -11.7299995      -2.24946719E-03
  -11.7200003      -2.48269015E-03
  -11.7100000      -2.70897965E-03
  -11.6999998      -2.92624510E-03
  -11.6899996      -3.13240010E-03
  -11.6800003      -3.32538364E-03
  -11.6700001      -3.50318197E-03
  -11.6599998      -3.66384024E-03
  -11.6499996      -3.80548858E-03
  -11.6400003      -3.92635120E-03
  -11.6300001      -4.02476080E-03
  -11.6199999      -4.09916276E-03
  -11.6099997      -4.14811680E-03
  -11.6000004      -4.17028368E-03
  -11.5900002      -4.16443357E-03
  -11.5799999      -4.12941631E-03
  -11.5699997      -4.06416506E-03
  -11.5600004      -3.96769121E-03
  -11.5500002      -3.83907277E-03
  -11.5400000      -3.67748667E-03
  -11.5299997      -3.48220603E-03
  -11.5200005      -3.25261685E-03
  -11.5100002      -2.98826327E-03
  -11.5000000      -2.68883840E-03
  -11.4899998      -2.35422235E-03
  -11.4799995      -1.98449707E-03
  -11.4700003      -1.57994730E-03
  -11.4600000      -1.14106864E-03
  -11.4499998      -6.68574881E-04
  -11.4399996      -1.63384000E-04
  -11.4300003       3.73372430E-04
  -11.4200001       9.40367230E-04
  -11.4099998       1.53609074E-03
  -11.3999996       2.15886789E-03
  -11.3900003       2.80687469E-03
  -11.3800001       3.47818458E-03
  -11.3699999       4.17078054E-03
  -11.3599997       4.88260388E-03
  -11.3500004       5.61157521E-03
  -11.3400002       6.35564188E-03
  -11.3299999       7.11278711E-03
  -11.3199997       7.88103603E-03
  -11.3100004       8.65849201E-03
  -11.3000002       9.44330916E-03
  -11.2900000       1.02336956E-02
  -11.2799997       1.10279080E-02
  -11.2700005       1.18242241E-02
  -11.2600002       1.26209715E-02
  -11.2500000       1.34164551E-02
  -11.2399998       1.42090311E-02
  -11.2299995       1.49970381E-02
  -11.2200003       1.57788247E-02
  -11.2100000       1.65527537E-02
  -11.1999998       1.73171833E-02
  -11.1899996       1.80704612E-02
  -11.1800003       1.88109316E-02
  -11.1700001       1.95369031E-02
  -11.1599998       2.02466734E-02
  -11.1499996       2.09385138E-02
  -11.1400003       2.16106977E-02
  -11.1300001       2.22615041E-02
  -11.1199999       2.28892900E-02
  -11.1099997       2.34925076E-02
  -11.1000004       2.40697749E-02
  -11.0900002       2.46199183E-02
  -11.0799999       2.51420159E-02
  -11.0699997       2.56354194E-02
  -11.0600004       2.60997415E-02
  -11.0500002       2.65348349E-02
  -11.0400000       2.69407947E-02
  -11.0299997       2.73178238E-02
  -11.0200005       2.76662409E-02
  -11.0100002       2.79863756E-02
  -11.0000000       2.82785203E-02
  -10.9899998       2.85429340E-02
  -10.9799995       2.87797842E-02
  -10.9700003       2.89891623E-02
  -10.9600000       2.91711073E-02
  -10.9499998       2.93256268E-02
  -10.9399996       2.94526741E-02
  -10.9300003       2.95522213E-02
  -10.9200001       2.96242684E-02
  -10.9099998       2.96687763E-02
  -10.8999996       2.96857413E-02
  -10.8900003       2.96751428E-02
  -10.8800001       2.96369437E-02
  -10.8699999       2.95711029E-02
  -10.8599997       2.94775758E-02
  -10.8500004       2.93562710E-02
  -10.8400002       2.92071532E-02
  -10.8299999       2.90301703E-02
  -10.8199997       2.88253054E-02
  -10.8100004       2.85926182E-02
  -10.8000002       2.83321980E-02
  -10.7900000       2.80442964E-02
  -10.7799997       2.77292207E-02
  -10.7700005       2.73874570E-02
  -10.7600002       2.70196199E-02
  -10.7500000       2.66264640E-02
  -10.7399998       2.62089856E-02
  -10.7299995       2.57682893E-02
  -10.7200003       2.53057424E-02
  -10.7100000       2.48228498E-02
  -10.6999998       2.43214201E-02
  -10.6899996       2.38034651E-02
  -10.6800003       2.32712142E-02
  -10.6700001       2.27271263E-02
  -10.6599998       2.21738536E-02
  -10.6499996       2.16141921E-02
  -10.6400003       2.10510660E-02
  -10.6300001       2.04874557E-02
  -10.6199999       1.99262667E-02
  -10.6099997       1.93704255E-02
  -10.6000004       1.88226346E-02
  -10.5900002       1.82855204E-02
  -10.5799999       1.77614838E-02
  -10.5699997       1.72526911E-02
  -10.5600004       1.67611670E-02
  -10.5500002       1.62886009E-02
  -10.5400000       1.58364717E-02
  -10.5299997       1.54059660E-02
  -10.5200005       1.49979657E-02
  -10.5100002       1.46130947E-02
  -10.5000000       1.42516131E-02
  -10.4899998       1.39135653E-02
  -10.4799995       1.35987662E-02
  -10.4700003       1.33068813E-02
  -10.4600000       1.30375829E-02
  -10.4499998       1.27904564E-02
  -10.4399996       1.25652868E-02
  -10.4300003       1.23619717E-02
  -10.4200001       1.21806059E-02
  -10.4099998       1.20214997E-02
  -10.3999996       1.18850479E-02
  -10.3900003       1.17717879E-02
  -10.3800001       1.16822403E-02
  -10.3699999       1.16168428E-02
  -10.3599997       1.15759028E-02
  -10.3500004       1.15595348E-02
  -10.3400002       1.15675414E-02
  -10.3299999       1.15995705E-02
  -10.3199997       1.16549544E-02
  -10.3100004       1.17329154E-02
  -10.3000002       1.18325306E-02
  -10.2900000       1.19528072E-02
  -10.2799997       1.20927859E-02
  -10.2700005       1.22515382E-02
  -10.2600002       1.24282409E-02
  -10.2500000       1.26220286E-02
  -10.2399998       1.28321061E-02
  -10.2299995       1.30576743E-02
  -10.2200003       1.32977795E-02
  -10.2100000       1.35514159E-02
  -10.1999998       1.38174146E-02
  -10.1899996       1.40944924E-02
  -10.1800003       1.43813016E-02
  -10.1700001       1.46764582E-02
  -10.1599998       1.49785373E-02
  -10.1499996       1.52862826E-02
  -10.1400003       1.55986175E-02
  -10.1300001       1.59146991E-02
  -10.1199999       1.62339173E-02
  -10.1099997       1.65561512E-02
  -10.1000004       1.68815181E-02
  -10.0900002       1.72105730E-02
  -10.0799999       1.75441578E-02
  -10.0699997       1.78834125E-02
  -10.0600004       1.82297807E-02
  -10.0500002       1.85848530E-02
  -10.0400000       1.89502966E-02
  -10.0299997       1.93278957E-02
  -10.0200005       1.97193008E-02
  -10.0100002       2.01261658E-02
  -10.0000000       2.05499660E-02
  -9.98999977       2.09920406E-02
  -9.97999954       2.14536395E-02
  -9.97000027       2.19358187E-02
  -9.96000004       2.24395357E-02
  -9.94999981       2.29656622E-02
  -9.93999958       2.35150363E-02
  -9.93000031       2.40884889E-02
  -9.92000008       2.46868171E-02
  -9.90999985       2.53109243E-02
  -9.89999962       2.59617604E-02
  -9.89000034       2.66403612E-02
  -9.88000011       2.73478348E-02
  -9.86999989       2.80852765E-02
  -9.85999966       2.88537797E-02
  -9.85000038       2.96542849E-02
  -9.84000015       3.04875635E-02
  -9.82999992       3.13540958E-02
  -9.81999969       3.22540328E-02
  -9.81000042       3.31872255E-02
  -9.80000019       3.41531970E-02
  -9.78999996       3.51513699E-02
  -9.77999973       3.61809544E-02
  -9.77000046       3.72412987E-02
  -9.76000023       3.83317135E-02
  -9.75000000       3.94519567E-02
  -9.73999977       4.06016931E-02
  -9.72999954       4.17810306E-02
  -9.72000027       4.29898016E-02
  -9.71000004       4.42280024E-02
  -9.69999981       4.54952344E-02
  -9.68999958       4.67908345E-02
  -9.68000031       4.81136590E-02
  -9.67000008       4.94620875E-02
  -9.65999985       5.08340560E-02
  -9.64999962       5.22270165E-02
  -9.64000034       5.36383539E-02
  -9.63000011       5.50649017E-02
  -9.61999989       5.65035716E-02
  -9.60999966       5.79510517E-02
  -9.60000038       5.94040491E-02
  -9.59000015       6.08591475E-02
  -9.57999992       6.23128936E-02
  -9.56999969       6.37619048E-02
  -9.56000042       6.52027279E-02
  -9.55000019       6.66319579E-02
  -9.53999996       6.80462345E-02
  -9.52999973       6.94423318E-02
  -9.52000046       7.08171651E-02
  -9.51000023       7.21677393E-02
  -9.50000000       7.34912083E-02
  -9.48999977       7.47848824E-02
  -9.47999954       7.60464296E-02
  -9.47000027       7.72736445E-02
  -9.46000004       7.84645900E-02
  -9.44999981       7.96177462E-02
  -9.43999958       8.07319582E-02
  -9.43000031       8.18066150E-02
  -9.42000008       8.28412920E-02
  -9.40999985       8.38363916E-02
  -9.39999962       8.47926438E-02
  -9.39000034       8.57112706E-02
  -9.38000011       8.65942016E-02
  -9.36999989       8.74437168E-02
  -9.35999966       8.82629082E-02
  -9.35000038       8.90552402E-02
  -9.34000015       8.98249671E-02
  -9.32999992       9.05769989E-02
  -9.31999969       9.13167819E-02
  -9.31000042       9.20501053E-02
  -9.30000019       9.27835405E-02
  -9.28999996       9.35237855E-02
  -9.27999973       9.42778811E-02
  -9.27000046       9.50531811E-02
  -9.26000023       9.58569571E-02
  -9.25000000       9.66964960E-02
  -9.23999977       9.75788459E-02
  -9.22999954       9.85108614E-02
  -9.22000027       9.94986743E-02
  -9.21000004      0.100548036    
  -9.19999981      0.101663709    
  -9.18999958      0.102849469    
  -9.18000031      0.104108632    
  -9.17000008      0.105443053    
  -9.15999985      0.106853999    
  -9.14999962      0.108342104    
  -9.14000034      0.109906748    
  -9.13000011      0.111547224    
  -9.11999989      0.113261595    
  -9.10999966      0.115047373    
  -9.10000038      0.116901554    
  -9.09000015      0.118820213    
  -9.07999992      0.120799065    
  -9.06999969      0.122832611    
  -9.06000042      0.124915168    
  -9.05000019      0.127040148    
  -9.03999996      0.129200712    
  -9.02999973      0.131388977    
  -9.02000046      0.133597031    
  -9.01000023      0.135816097    
  -9.00000000      0.138037115    
  -8.98999977      0.140250981    
  -8.97999954      0.142448232    
  -8.97000027      0.144619644    
  -8.96000004      0.146756157    
  -8.94999981      0.148849070    
  -8.93999958      0.150890380    
  -8.93000031      0.152872384    
  -8.92000008      0.154787689    
  -8.90999985      0.156629860    
  -8.89999962      0.158392608    
  -8.89000034      0.160069823    
  -8.88000011      0.161656097    
  -8.86999989      0.163146228    
  -8.85999966      0.164535388    
  -8.85000038      0.165819407    
  -8.84000015      0.166994870    
  -8.82999992      0.168059155    
  -8.81999969      0.169010460    
  -8.81000042      0.169848174    
  -8.80000019      0.170572460    
  -8.78999996      0.171184435    
  -8.77999973      0.171686292    
  -8.77000046      0.172080815    
  -8.76000023      0.172371954    
  -8.75000000      0.172564507    
  -8.73999977      0.172663465    
  -8.72999954      0.172674999    
  -8.72000027      0.172605157    
  -8.71000004      0.172460794    
  -8.69999981      0.172248840    
  -8.68999958      0.171976835    
  -8.68000031      0.171652094    
  -8.67000008      0.171282157    
  -8.65999985      0.170874566    
  -8.64999962      0.170436844    
  -8.64000034      0.169975922    
  -8.63000011      0.169499114    
  -8.61999989      0.169013202    
  -8.60999966      0.168524250    
  -8.60000038      0.168038711    
  -8.59000015      0.167561918    
  -8.57999992      0.167099401    
  -8.56999969      0.166655675    
  -8.56000042      0.166235328    
  -8.55000019      0.165841937    
  -8.53999996      0.165479615    
  -8.52999973      0.165151954    
  -8.52000046      0.164862156    
  -8.51000023      0.164613485    
  -8.50000000      0.164409071    
  -8.48999977      0.164252162    
  -8.47999954      0.164146110    
  -8.47000027      0.164094463    
  -8.46000004      0.164100587    
  -8.44999981      0.164167956    
  -8.43999958      0.164300174    
  -8.43000031      0.164500400    
  -8.42000008      0.164772063    
  -8.40999985      0.165118277    
  -8.39999962      0.165542066    
  -8.39000034      0.166046396    
  -8.38000011      0.166634291    
  -8.36999989      0.167308077    
  -8.35999966      0.168071404    
  -8.35000038      0.168926746    
  -8.34000015      0.169877231    
  -8.32999992      0.170925528    
  -8.31999969      0.172075152    
  -8.31000042      0.173328906    
  -8.30000019      0.174689814    
  -8.28999996      0.176161185    
  -8.27999973      0.177745715    
  -8.27000046      0.179446921    
  -8.26000023      0.181267530    
  -8.25000000      0.183211461    
  -8.23999977      0.185281053    
  -8.22999954      0.187480554    
  -8.22000027      0.189813077    
  -8.21000004      0.192281842    
  -8.19999981      0.194891036    
  -8.18999958      0.197642937    
  -8.18000031      0.200541645    
  -8.17000008      0.203589529    
  -8.15999985      0.206788912    
  -8.14999962      0.210142523    
  -8.14000034      0.213651523    
  -8.13000011      0.217317313    
  -8.11999989      0.221140817    
  -8.10999966      0.225122541    
  -8.10000038      0.229261026    
  -8.09000015      0.233555049    
  -8.07999992      0.238001913    
  -8.06999969      0.242598474    
  -8.06000042      0.247339591    
  -8.05000019      0.252220005    
  -8.03999996      0.257232398    
  -8.02999973      0.262368977    
  -8.02000046      0.267622173    
  -8.01000023      0.272982895    
  -8.00000000      0.278441489    
  -7.98999977      0.283988088    
  -7.98000002      0.289612830    
  -7.96999979      0.295304954    
  -7.96000004      0.301053345    
  -7.94999981      0.306846946    
  -7.94000006      0.312675446    
  -7.92999983      0.318525553    
  -7.92000008      0.324387193    
  -7.90999985      0.330248713    
  -7.90000010      0.336099774    
  -7.88999987      0.341929317    
  -7.88000011      0.347728074    
  -7.86999989      0.353487134    
  -7.86000013      0.359197825    
  -7.84999990      0.364851952    
  -7.84000015      0.370442837    
  -7.82999992      0.375964612    
  -7.82000017      0.381410658    
  -7.80999994      0.386776984    
  -7.80000019      0.392059714    
  -7.78999996      0.397254825    
  -7.78000021      0.402360111    
  -7.76999998      0.407373369    
  -7.76000023      0.412294477    
  -7.75000000      0.417121619    
  -7.73999977      0.421854556    
  -7.73000002      0.426494569    
  -7.71999979      0.431042075    
  -7.71000004      0.435499489    
  -7.69999981      0.439868718    
  -7.69000006      0.444151878    
  -7.67999983      0.448353142    
  -7.67000008      0.452476412    
  -7.65999985      0.456524193    
  -7.65000010      0.460501552    
  -7.63999987      0.464413106    
  -7.63000011      0.468264312    
  -7.61999989      0.472060323    
  -7.61000013      0.475807667    
  -7.59999990      0.479512155    
  -7.59000015      0.483180702    
  -7.57999992      0.486821711    
  -7.57000017      0.490443587    
  -7.55999994      0.494054973    
  -7.55000019      0.497664571    
  -7.53999996      0.501281381    
  -7.53000021      0.504916012    
  -7.51999998      0.508577108    
  -7.51000023      0.512274504    
  -7.50000000      0.516017735    
  -7.48999977      0.519815207    
  -7.48000002      0.523676872    
  -7.46999979      0.527610004    
  -7.46000004      0.531624675    
  -7.44999981      0.535727739    
  -7.44000006      0.539927125    