  -16.0000000       0.00000000    
  -15.9899998       0.00000000    
  -15.9799995       0.00000000    
  -15.9700003       0.00000000    
  -15.9600000       0.00000000    
  -15.9499998       0.00000000    
  -15.9399996       0.00000000    
  -15.9300003       0.00000000    
  -15.9200001       0.00000000    
  -15.9099998       0.00000000    
  -15.8999996       0.00000000    
  -15.8900003       0.00000000    
  -15.8800001       0.00000000    
  -15.8699999       0.00000000    
  -15.8599997       0.00000000    
  -15.8500004      -0.00000000    
  -15.8400002       1.40129846E-45
  -15.8299999       1.12103877E-44
  -15.8199997       1.00893489E-43
  -15.8100004       6.76827158E-43
  -15.8000002       3.73165781E-42
  -15.7900000       1.74069295E-41
  -15.7799997       7.03662024E-41
  -15.7700005       2.50012666E-40
  -15.7600002       7.87284510E-40
  -15.7500000       2.20424389E-39
  -15.7399998       5.47229331E-39
  -15.7299995       1.19098346E-38
  -15.7200003       2.20831143E-38
  -15.7100000       3.23053891E-38
  -15.6999998       2.69847204E-38
  -15.6899996      -3.35691893E-38
  -15.6800003      -2.24910690E-37
  -15.6700001      -6.53624839E-37
  -15.6599998      -1.40479637E-36
  -15.6499996      -2.40293549E-36
  -15.6400003      -3.17038338E-36
  -15.6300001      -2.54779360E-36
  -15.6199999       1.41278526E-36
  -15.6099997       1.10145442E-35
  -15.6000004       2.75508440E-35
  -15.5900002       4.89285461E-35
  -15.5799999       6.69698532E-35
  -15.5699997       6.61101926E-35
  -15.5600004       2.58314597E-35
  -15.5500002      -7.16016224E-35
  -15.5400000      -2.29213891E-34
  -15.5299997      -4.23921696E-34
  -15.5200005      -6.01874919E-34
  -15.5100002      -6.82518790E-34
  -15.5000000      -5.63391943E-34
  -15.4899998      -1.10618622E-34
  -15.4799995       8.66513273E-34
  -15.4700003       2.60974862E-33
  -15.4600000       5.25685555E-33
  -15.4499998       8.39485976E-33
  -15.4399996       1.03190375E-32
  -15.4300003       7.39399318E-33
  -15.4200001      -5.51236762E-33
  -15.4099998      -3.22200886E-32
  -15.3999996      -6.94080572E-32
  -15.3900003      -9.94410269E-32
  -15.3800001      -8.73003155E-32
  -15.3699999       9.76007449E-33
  -15.3599997       2.12685531E-31
  -15.3500004       4.74573259E-31
  -15.3400002       6.41619141E-31
  -15.3299999       4.66261386E-31
  -15.3199997      -2.78340746E-31
  -15.3100004      -1.57152996E-30
  -15.3000002      -2.88741304E-30
  -15.2900000      -3.10804449E-30
  -15.2799997      -8.77375254E-31
  -15.2700005       4.43988166E-30
  -15.2600002       1.14016971E-29
  -15.2500000       1.55280449E-29
  -15.2399998       1.00308819E-29
  -15.2299995      -1.05939260E-29
  -15.2200003      -4.42375997E-29
  -15.2100000      -7.47905343E-29
  -15.1999998      -7.12534556E-29
  -15.1899996       1.04339540E-30
  -15.1800003       1.54052247E-28
  -15.1700001       3.42190686E-28
  -15.1599998       4.39890585E-28
  -15.1499996       2.63200283E-28
  -15.1400003      -3.37307587E-28
  -15.1300001      -1.31616396E-27
  -15.1199999      -2.26753329E-27
  -15.1099997      -2.38259567E-27
  -15.1000004      -6.85299463E-28
  -15.0900002       3.36568930E-27
  -15.0799999       9.02052738E-27
  -15.0699997       1.35391858E-26
  -15.0600004       1.23285023E-26
  -15.0500002       5.97079498E-28
  -15.0400000      -2.32871585E-26
  -15.0299997      -5.36278983E-26
  -15.0200005      -7.46935968E-26
  -15.0100002      -6.27117118E-26
  -15.0000000       4.68395445E-27
  -14.9899998       1.31628049E-25
  -14.9799995       2.85051708E-25
  -14.9700003       3.84668102E-25
  -14.9600000       3.16220441E-25
  -14.9499998      -2.14846206E-26
  -14.9399996      -6.39031420E-25
  -14.9300003      -1.37422528E-24
  -14.9200001      -1.85475734E-24
  -14.9099998      -1.56520377E-24
  -14.8999996      -5.77058347E-26
  -14.8900003       2.71467725E-24
  -14.8800001       6.05540320E-24
  -14.8699999       8.37696996E-24
  -14.8599997       7.48468624E-24
  -14.8500004       1.43927574E-24
  -14.8400002      -1.00955934E-23
  -14.8299999      -2.44713835E-23
  -14.8199997      -3.54285416E-23
  -14.8100004      -3.41276973E-23
  -14.8000002      -1.24011001E-23
  -14.7900000       3.21062602E-23
  -14.7799997       9.05416051E-23
  -14.7700005       1.40073815E-22
  -14.7600002       1.47061785E-22
  -14.7500000       7.83410823E-23
  -14.7399998      -8.02660796E-23
  -14.7299995      -3.03657276E-22
  -14.7200003      -5.15245472E-22
  -14.7100000      -5.94567519E-22
  -14.6999998      -4.13115399E-22
  -14.6899996       1.03029280E-22
  -14.6800003       9.00187884E-22
  -14.6700001       1.74549508E-21
  -14.6599998       2.23639790E-21
  -14.6499996       1.90285125E-21
  -14.6400003       4.04909908E-22
  -14.6300001      -2.21851052E-21
  -14.6199999      -5.34503634E-21
  -14.6099997      -7.73567919E-21
  -14.6000004      -7.78677698E-21
  -14.5900002      -4.10317409E-21
  -14.5799999       3.70822766E-21
  -14.5699997       1.42872849E-20
  -14.5600004       2.41951993E-20
  -14.5500002       2.83986452E-20
  -14.5400000       2.17649895E-20
  -14.5299997       1.39914925E-21
  -14.5200005      -3.08279487E-20
  -14.5100002      -6.66285130E-20
  -14.5000000      -9.17279968E-20
  -14.4899998      -8.92275849E-20
  -14.4799995      -4.58399876E-20
  -14.4700003       4.03822434E-20
  -14.4600000       1.53536729E-19
  -14.4499998       2.58039225E-19
  -14.4399996       3.04497359E-19
  -14.4300003       2.44358510E-19
  -14.4200001       5.10903937E-20
  -14.4099998      -2.58177752E-19
  -14.3999996      -6.09541639E-19
  -14.3900003      -8.77099205E-19
  -14.3800001      -9.11551070E-19
  -14.3699999      -5.91185519E-19
  -14.3599997       1.16090728E-19
  -14.3500004       1.10033912E-18
  -14.3400002       2.09216931E-18
  -14.3299999       2.70195052E-18
  -14.3199997       2.52334961E-18
  -14.3100004       1.28629511E-18
  -14.3000002      -9.81057610E-19
  -14.2900000      -3.84115504E-18
  -14.2799997      -6.44984653E-18
  -14.2700005      -7.71633036E-18
  -14.2600002      -6.61930027E-18
  -14.2500000      -2.61832732E-18
  -14.2399998       3.95897906E-18
  -14.2299995       1.17079169E-17
  -14.2200003       1.82583891E-17
  -14.2100000       2.07816920E-17
  -14.1999998       1.68474770E-17
  -14.1899996       5.44250350E-18
  -14.1800003      -1.21601026E-17
  -14.1700001      -3.20433722E-17
  -14.1599998      -4.81011184E-17
  -14.1499996      -5.34150557E-17
  -14.1400003      -4.23767837E-17
  -14.1300001      -1.30589129E-17
  -14.1199999       3.09024850E-17
  -14.1099997       7.97145287E-17
  -14.1000004       1.18728820E-16
  -14.0900002       1.31784152E-16
  -14.0799999       1.06092849E-16
  -14.0699997       3.75095306E-17
  -14.0600004      -6.54463183E-17
  -14.0500002      -1.80502020E-16
  -14.0400000      -2.74683864E-16
  -14.0299997      -3.11708760E-16
  -14.0200005      -2.62563961E-16
  -14.0100002      -1.16784363E-16
  -14.0000000       1.08962471E-16
  -13.9899998       3.68425821E-16
  -13.9799995       5.91874913E-16
  -13.9700003       7.01121305E-16
  -13.9600000       6.31145690E-16
  -13.9499998       3.53375687E-16
  -13.9399996      -1.06087680E-16
  -13.9300003      -6.60111411E-16
  -13.9200001      -1.17090637E-15
  -13.9099998      -1.47810320E-15
  -13.8999996      -1.44038990E-15
  -13.8900003      -9.81536379E-16
  -13.8800001      -1.28203095E-16
  -13.8699999       9.73488614E-16
  -13.8599997       2.07227076E-15
  -13.8500004       2.85961372E-15
  -13.8400002       3.04460402E-15
  -13.8299999       2.43995273E-15
  -13.8199997       1.03676737E-15
  -13.8100004      -9.55617595E-16
  -13.8000002      -3.12309984E-15
  -13.7900000      -4.92017892E-15
  -13.7799997      -5.79396963E-15
  -13.7700005      -5.33343867E-15
  -13.7600002      -3.40664454E-15
  -13.7500000      -2.45639846E-16
  -13.7399998       3.55343535E-15
  -13.7299995       7.12896725E-15
  -13.7200003       9.53956627E-15
  -13.7100000       9.99901727E-15
  -13.6999998       8.10326605E-15
  -13.6899996       3.98637507E-15
  -13.6800003      -1.64625703E-15
  -13.6700001      -7.63137891E-15
  -13.6599998      -1.25939510E-14
  -13.6499996      -1.52729222E-14
  -13.6400003      -1.48458956E-14
  -13.6300001      -1.11643610E-14
  -13.6199999      -4.82854223E-15
  -13.6099997       2.92887328E-15
  -13.6000004       1.05280444E-14
  -13.5900002       1.64232387E-14
  -13.5799999       1.94743683E-14
  -13.5699997       1.92005971E-14
  -13.5600004       1.58398007E-14
  -13.5500002       1.01971146E-14
  -13.5400000       3.33572035E-15
  -13.5299997      -3.77882447E-15
  -13.5200005      -1.05449986E-14
  -13.5100002      -1.67893247E-14
  -13.5000000      -2.25832282E-14
  -13.4899998      -2.78649496E-14
  -13.4799995      -3.20135764E-14
  -13.4700003      -3.35795573E-14
  -13.4600000      -3.03664225E-14
  -13.4499998      -1.99704297E-14
  -13.4399996      -7.32286876E-16
  -13.4300003       2.71231656E-14
  -13.4200001       6.05295368E-14
  -13.4099998       9.32294674E-14
  -13.3999996       1.16381405E-13
  -13.3900003       1.20252712E-13
  -13.3800001       9.68077208E-14
  -13.3699999       4.26542482E-14
  -13.3599997      -3.84529139E-14
  -13.3500004      -1.34434700E-13
  -13.3400002      -2.25750381E-13
  -13.3299999      -2.88589790E-13
  -13.3199997      -3.00074717E-13
  -13.3100004      -2.44499353E-13
  -13.3000002      -1.19126903E-13
  -13.2900000       6.21333497E-14
  -13.2799997       2.68607646E-13
  -13.2700005       4.57050522E-13
  -13.2600002       5.79882605E-13
  -13.2500000       5.96077820E-13
  -13.2399998       4.82362089E-13
  -13.2299995       2.41912799E-13
  -13.2200003      -9.20468942E-14
  -13.2100000      -4.59444006E-13
  -13.1999998      -7.83533937E-13
  -13.1899996      -9.86501354E-13
  -13.1800003      -1.00736021E-12
  -13.1700001      -8.18068866E-13
  -13.1599998      -4.33754622E-13
  -13.1499996       8.60360028E-14
  -13.1400003       6.46243638E-13
  -13.1300001       1.13415505E-12
  -13.1199999       1.44273059E-12
  -13.1099997       1.49431433E-12
  -13.1000004       1.25921170E-12
  -13.0900002       7.64530637E-13
  -13.0799999       9.08045273E-14
  -13.0699997      -6.43223864E-13
  -13.0600004      -1.30440266E-12
  -13.0500002      -1.77211902E-12
  -13.0400000      -1.96211146E-12
  -13.0299997      -1.84161649E-12
  -13.0200005      -1.43252099E-12
  -13.0100002      -8.02327605E-13
  -13.0000000      -4.59781003E-14
  -12.9899998       7.35995791E-13
  -12.9799995       1.45661456E-12
  -12.9700003       2.05343945E-12
  -12.9600000       2.48862281E-12
  -12.9499998       2.73887120E-12
  -12.9399996       2.77983604E-12
  -12.9300003       2.57197041E-12
  -12.9200001       2.05538299E-12
  -12.9099998       1.15930583E-12
  -12.8999996      -1.72359522E-13
  -12.8900003      -1.94333894E-12
  -12.8800001      -4.06430358E-12
  -12.8699999      -6.32194297E-12
  -12.8599997      -8.37109288E-12
  -12.8500004      -9.76003479E-12
  -12.8400002      -9.99249555E-12
  -12.8299999      -8.62107868E-12
  -12.8199997      -5.35762797E-12
  -12.8100004      -1.79096172E-13
  -12.8000002       6.59559907E-12
  -12.7900000       1.42798724E-11
  -12.7799997       2.18590319E-11
  -12.7700005       2.80973456E-11
  -12.7600002       3.17012007E-11
  -12.7500000       3.15146000E-11
  -12.7399998       2.67156072E-11
  -12.7299995       1.69810103E-11
  -12.7200003       2.59203011E-12
  -12.7100000      -1.55345632E-11
  -12.6999998      -3.58915640E-11
  -12.6899996      -5.64909786E-11
  -12.6800003      -7.50181445E-11
  -12.6700001      -8.90074542E-11
  -12.6599998      -9.60233421E-11
  -12.6499996      -9.38390893E-11
  -12.6400003      -8.06186923E-11
  -12.6300001      -5.51145796E-11
  -12.6199999      -1.68940938E-11
  -12.6099997       3.34017917E-11
  -12.6000004       9.37829744E-11
  -12.5900002       1.60657848E-10
  -12.5799999       2.28665878E-10
  -12.5699997       2.90671320E-10
  -12.5600004       3.37992884E-10
  -12.5500002       3.60922542E-10
  -12.5400000       3.49551166E-10
  -12.5299997       2.94866909E-10
  -12.5200005       1.90041774E-10
  -12.5100002       3.17771295E-11
  -12.5000000      -1.78445606E-10
  -12.4899998      -4.33365621E-10
  -12.4799995      -7.19325322E-10
  -12.4700003      -1.01612863E-09
  -12.4600000      -1.29740640E-09
  -12.4499998      -1.53148139E-09
  -12.4399996      -1.68266778E-09
  -12.4300003      -1.71293002E-09
  -12.4200001      -1.58380919E-09
  -12.4099998      -1.25853927E-09
  -12.3999996      -7.04262648E-10
  -12.3900003       1.05697909E-10
  -12.3800001       1.18961152E-09
  -12.3699999       2.55522958E-09
  -12.3599997       4.19793800E-09
  -12.3500004       6.09927575E-09
  -12.3400002       8.22602342E-09
  -12.3299999       1.05299778E-08
  -12.3199997       1.29485409E-08
  -12.3100004       1.54061670E-08
  -12.3000002       1.78166477E-08
  -12.2900000       2.00861496E-08
  -12.2799997       2.21167706E-08
  -12.2700005       2.38104558E-08
  -12.2600002       2.50730121E-08
  -12.2500000       2.58179291E-08
  -12.2399998       2.59699604E-08
  -12.2299995       2.54680401E-08
  -12.2200003       2.42677363E-08
  -12.2100000       2.23428458E-08
  -12.1999998       1.96862935E-08
  -12.1899996       1.63101408E-08
  -12.1800003       1.22447972E-08
  -12.1700001       7.53742668E-09
  -12.1599998       2.24958097E-09
  -12.1499996      -3.54576235E-09
  -12.1400003      -9.76746861E-09
  -12.1300001      -1.63296701E-08
  -12.1199999      -2.31449810E-08
  -12.1099997      -3.01272181E-08
  -12.1000004      -3.71933417E-08
  -12.0900002      -4.42645209E-08
  -12.0799999      -5.12663370E-08
  -12.0699997      -5.81279949E-08
  -12.0600004      -6.47810126E-08
  -12.0500002      -7.11573165E-08
  -12.0400000      -7.71874227E-08
  -12.0299997      -8.27985573E-08
  -12.0200005      -8.79132429E-08
  -12.0100002      -9.24485590E-08
  -12.0000000      -9.63160431E-08
  -11.9899998      -9.94224223E-08
  -11.9799995      -1.01671134E-07
  -11.9700003      -1.02964584E-07
  -11.9600000      -1.03207221E-07
  -11.9499998      -1.02308988E-07
  -11.9399996      -1.00188934E-07
  -11.9300003      -9.67792317E-08
  -11.9200001      -9.20285217E-08
  -11.9099998      -8.59047660E-08
  -11.8999996      -7.83974841E-08
  -11.8900003      -6.95185207E-08
  -11.8800001      -5.93020353E-08
  -11.8699999      -4.78031694E-08
  -11.8599997      -3.50959404E-08
  -11.8500004      -2.12702442E-08
  -11.8400002      -6.42874465E-09
  -11.8299999       9.31653332E-09
  -11.8199997       2.58469939E-08
  -11.8100004       4.30398153E-08
  -11.8000002       6.07696009E-08
  -11.7900000       7.89090819E-08
  -11.7799997       9.73288650E-08
  -11.7700005       1.15896803E-07
  -11.7600002       1.34476764E-07
  -11.7500000       1.52927356E-07
  -11.7399998       1.71100822E-07
  -11.7299995       1.88842520E-07
  -11.7200003       2.05991284E-07
  -11.7100000       2.22380564E-07
  -11.6999998       2.37840624E-07
  -11.6899996       2.52201090E-07
  -11.6800003       2.65294688E-07
  -11.6700001       2.76959810E-07
  -11.6599998       2.87043747E-07
  -11.6499996       2.95404334E-07
  -11.6400003       3.01911541E-07
  -11.6300001       3.06447532E-07
  -11.6199999       3.08905840E-07
  -11.6099997       3.09190966E-07
  -11.6000004       3.07217704E-07
  -11.5900002       3.02910337E-07
  -11.5799999       2.96203154E-07
  -11.5699997       2.87041104E-07
  -11.5600004       2.75380842E-07
  -11.5500002       2.61192440E-07
  -11.5400000       2.44459983E-07
  -11.5299997       2.25183001E-07
  -11.5200005       2.03375762E-07
  -11.5100002       1.79067754E-07
  -11.5000000       1.52301808E-07
  -11.4899998       1.23133844E-07
  -11.4799995       9.16314846E-08
  -11.4700003       5.78733292E-08
  -11.4600000       2.19485852E-08
  -11.4499998      -1.60432343E-08
  -11.4399996      -5.59928033E-08
  -11.4300003      -9.77812107E-08
  -11.4200001      -1.41280921E-07
  -11.4099998      -1.86357013E-07
  -11.3999996      -2.32868771E-07
  -11.3900003      -2.80671031E-07
  -11.3800001      -3.29615972E-07
  -11.3699999      -3.79553683E-07
  -11.3599997      -4.30333017E-07
  -11.3500004      -4.81801578E-07
  -11.3400002      -5.33805633E-07
  -11.3299999      -5.86189799E-07
  -11.3199997      -6.38797474E-07
  -11.3100004      -6.91470689E-07
  -11.3000002      -7.44051931E-07
  -11.2900000      -7.96385052E-07
  -11.2799997      -8.48317484E-07
  -11.2700005      -8.99701433E-07
  -11.2600002      -9.50395076E-07
  -11.2500000      -1.00026386E-06
  -11.2399998      -1.04918047E-06
  -11.2299995      -1.09702569E-06
  -11.2200003      -1.14368640E-06
  -11.2100000      -1.18905666E-06
  -11.1999998      -1.23303857E-06
  -11.1899996      -1.27554165E-06
  -11.1800003      -1.31648426E-06
  -11.1700001      -1.35579580E-06
  -11.1599998      -1.39341614E-06
  -11.1499996      -1.42930003E-06
  -11.1400003      -1.46341472E-06
  -11.1300001      -1.49574225E-06
  -11.1199999      -1.52627945E-06
  -11.1099997      -1.55503619E-06
  -11.1000004      -1.58203386E-06
  -11.0900002      -1.60730349E-06
  -11.0799999      -1.63088293E-06
  -11.0699997      -1.65281256E-06
  -11.0600004      -1.67313169E-06
  -11.0500002      -1.69187774E-06
  -11.0400000      -1.70908129E-06
  -11.0299997      -1.72476200E-06
  -11.0200005      -1.73892852E-06
  -11.0100002      -1.75158061E-06
  -11.0000000      -1.76270817E-06
  -10.9899998      -1.77229106E-06
  -10.9799995      -1.78030905E-06
  -10.9700003      -1.78674236E-06
  -10.9600000      -1.79157405E-06
  -10.9499998      -1.79480094E-06
  -10.9399996      -1.79642609E-06
  -10.9300003      -1.79646781E-06
  -10.9200001      -1.79495635E-06
  -10.9099998      -1.79192762E-06
  -10.8999996      -1.78742914E-06
  -10.8900003      -1.78150333E-06
  -10.8800001      -1.77419497E-06
  -10.8699999      -1.76553397E-06
  -10.8599997      -1.75553919E-06
  -10.8500004      -1.74421336E-06
  -10.8400002      -1.73153614E-06
  -10.8299999      -1.71746717E-06
  -10.8199997      -1.70195221E-06
  -10.8100004      -1.68491761E-06
  -10.8000002      -1.66627626E-06
  -10.7900000      -1.64593860E-06
  -10.7799997      -1.62381207E-06
  -10.7700005      -1.59981016E-06
  -10.7600002      -1.57385773E-06
  -10.7500000      -1.54589657E-06
  -10.7399998      -1.51588233E-06
  -10.7299995      -1.48379092E-06
  -10.7200003      -1.44961075E-06
  -10.7100000      -1.41334135E-06
  -10.6999998      -1.37499103E-06
  -10.6899996      -1.33457434E-06
  -10.6800003      -1.29210275E-06
  -10.6700001      -1.24759106E-06
  -10.6599998      -1.20104903E-06
  -10.6499996      -1.15248724E-06
  -10.6400003      -1.10192718E-06
  -10.6300001      -1.04938840E-06
  -10.6199999      -9.94910351E-07
  -10.6099997      -9.38546748E-07
  -10.6000004      -8.80373364E-07
  -10.5900002      -8.20487060E-07
  -10.5799999      -7.59001864E-07
  -10.5699997      -6.96062841E-07
  -10.5600004      -6.31828527E-07
  -10.5500002      -5.66465701E-07
  -10.5400000      -5.00155409E-07
  -10.5299997      -4.33076394E-07
  -10.5200005      -3.65405072E-07
  -10.5100002      -2.97310777E-07
  -10.5000000      -2.28955528E-07
  -10.4899998      -1.60491439E-07
  -10.4799995      -9.20637291E-08
  -10.4700003      -2.38126745E-08
  -10.4600000       4.41193819E-08
  -10.4499998       1.11585400E-07
  -10.4399996       1.78433041E-07
  -10.4300003       2.44499148E-07
  -10.4200001       3.09609078E-07
  -10.4099998       3.73577109E-07
  -10.3999996       4.36216169E-07
  -10.3900003       4.97332962E-07
  -10.3800001       5.56731948E-07
  -10.3699999       6.14221449E-07
  -10.3599997       6.69614451E-07
  -10.3500004       7.22729339E-07
  -10.3400002       7.73402689E-07
  -10.3299999       8.21477670E-07
  -10.3199997       8.66819448E-07
  -10.3100004       9.09311154E-07
  -10.3000002       9.48858258E-07
  -10.2900000       9.85387373E-07
  -10.2799997       1.01884734E-06
  -10.2700005       1.04920900E-06
  -10.2600002       1.07646395E-06
  -10.2500000       1.10062592E-06
  -10.2399998       1.12172961E-06
  -10.2299995       1.13983810E-06
  -10.2200003       1.15504179E-06
  -10.2100000       1.16746378E-06
  -10.1999998       1.17726040E-06
  -10.1899996       1.18461867E-06
  -10.1800003       1.18975299E-06
  -10.1700001       1.19289939E-06
  -10.1599998       1.19430558E-06
  -10.1499996       1.19421873E-06
  -10.1400003       1.19287972E-06
  -10.1300001       1.19051435E-06
  -10.1199999       1.18732885E-06
  -10.1099997       1.18351068E-06
  -10.1000004       1.17922764E-06
  -10.0900002       1.17463185E-06
  -10.0799999       1.16986223E-06
  -10.0699997       1.16504953E-06
  -10.0600004       1.16031651E-06
  -10.0500002       1.15577927E-06
  -10.0400000       1.15154785E-06
  -10.0299997       1.14772502E-06
  -10.0200005       1.14440593E-06
  -10.0100002       1.14167665E-06
  -10.0000000       1.13961494E-06
  -9.98999977       1.13828867E-06
  -9.97999954       1.13775639E-06
  -9.97000027       1.13806686E-06
  -9.96000004       1.13926012E-06
  -9.94999981       1.14136674E-06
  -9.93999958       1.14441070E-06
  -9.93000031       1.14840896E-06
  -9.92000008       1.15337502E-06
  -9.90999985       1.15932119E-06
  -9.89999962       1.16626052E-06
  -9.89000034       1.17420893E-06
  -9.88000011       1.18318746E-06
  -9.86999989       1.19322272E-06
  -9.85999966       1.20435311E-06
  -9.85000038       1.21662447E-06
  -9.84000015       1.23009681E-06
  -9.82999992       1.24484279E-06
  -9.81999969       1.26095085E-06
  -9.81000042       1.27852195E-06
  -9.80000019       1.29767147E-06
  -9.78999996       1.31852289E-06
  -9.77999973       1.34120648E-06
  -9.77000046       1.36585663E-06
  -9.76000023       1.39260260E-06
  -9.75000000       1.42157251E-06
  -9.73999977       1.45288470E-06
  -9.72999954       1.48664947E-06
  -9.72000027       1.52296400E-06
  -9.71000004       1.56190947E-06
  -9.69999981       1.60354239E-06
  -9.68999958       1.64788446E-06
  -9.68000031       1.69491591E-06
  -9.67000008       1.74455954E-06
  -9.65999985       1.79667211E-06
  -9.64999962       1.85103647E-06
  -9.64000034       1.90735591E-06
  -9.63000011       1.96525639E-06
  -9.61999989       2.02428100E-06
  -9.60999966       2.08390679E-06
  -9.60000038       2.14354327E-06
  -9.59000015       2.20254583E-06
  -9.57999992       2.26022098E-06
  -9.56999969       2.31583999E-06
  -9.56000042       2.36864503E-06
  -9.55000019       2.41785915E-06
  -9.53999996       2.46270065E-06
  -9.52999973       2.50239282E-06
  -9.52000046       2.53617259E-06
  -9.51000023       2.56330463E-06
  -9.50000000       2.58310092E-06
  -9.48999977       2.59492731E-06
  -9.47999954       2.59821900E-06
  -9.47000027       2.59248463E-06
  -9.46000004       2.57733495E-06
  -9.44999981       2.55248324E-06
  -9.43999958       2.51776009E-06
  -9.43000031       2.47313278E-06
  -9.42000008       2.41871476E-06
  -9.40999985       2.35477569E-06
  -9.39999962       2.28175986E-06
  -9.39000034       2.20027937E-06
  -9.38000011       2.11113002E-06
  -9.36999989       2.01527382E-06
  -9.35999966       1.91384788E-06
  -9.35000038       1.80814777E-06
  -9.34000015       1.69961891E-06
  -9.32999992       1.58982743E-06
  -9.31999969       1.48046036E-06
  -9.31000042       1.37328720E-06
  -9.30000019       1.27013448E-06
  -9.28999996       1.17288016E-06
  -9.27999973       1.08341271E-06
  -9.27000046       1.00361103E-06
  -9.26000023       9.35327648E-07
  -9.25000000       8.80350683E-07
  -9.23999977       8.40388907E-07
  -9.22999954       8.17050932E-07
  -9.22000027       8.11825146E-07
  -9.21000004       8.26051632E-07
  -9.19999981       8.60918078E-07
  -9.18999958       9.17427599E-07
  -9.18000031       9.96397603E-07
  -9.17000008       1.09844837E-06
  -9.15999985       1.22396978E-06
  -9.14999962       1.37314260E-06
  -9.14000034       1.54588793E-06
  -9.13000011       1.74190382E-06
  -9.11999989       1.96061274E-06
  -9.10999966       2.20120342E-06
  -9.10000038       2.46260993E-06
  -9.09000015       2.74352533E-06
  -9.07999992       3.04241917E-06
  -9.06999969       3.35753452E-06
  -9.06000042       3.68693532E-06
  -9.05000019       4.02850992E-06
  -9.03999996       4.37999188E-06
  -9.02999973       4.73897080E-06
  -9.02000046       5.10294058E-06
  -9.01000023       5.46928459E-06
  -9.00000000       5.83533574E-06
  -8.98999977       6.19838329E-06
  -8.97999954       6.55569193E-06
  -8.97000027       6.90454999E-06
  -8.96000004       7.24226174E-06
  -8.94999981       7.56619693E-06
  -8.93999958       7.87378121E-06
  -8.93000031       8.16253396E-06
  -8.92000008       8.43006364E-06
  -8.90999985       8.67410199E-06
  -8.89999962       8.89250350E-06
  -8.89000034       9.08324273E-06
  -8.88000011       9.24446249E-06
  -8.86999989       9.37446202E-06
  -8.85999966       9.47172339E-06
  -8.85000038       9.53488325E-06
  -8.84000015       9.56278291E-06
  -8.82999992       9.55441919E-06
  -8.81999969       9.50900903E-06
  -8.81000042       9.42594488E-06
  -8.80000019       9.30480110E-06
  -8.78999996       9.14538668E-06
  -8.77999973       8.94768164E-06
  -8.77000046       8.71189604E-06
  -8.76000023       8.43846647E-06
  -8.75000000       8.12798135E-06
  -8.73999977       7.78127378E-06
  -8.72999954       7.39933193E-06
  -8.72000027       6.98331542E-06
  -8.71000004       6.53451070E-06
  -8.69999981       6.05437708E-06
  -8.68999958       5.54445478E-06
  -8.68000031       5.00640226E-06
  -8.67000008       4.44195757E-06
  -8.65999985       3.85292105E-06
  -8.64999962       3.24115513E-06
  -8.64000034       2.60854085E-06
  -8.63000011       1.95696862E-06
  -8.61999989       1.28832778E-06
  -8.60999966       6.04429658E-07
  -8.60000038      -9.29417254E-08
  -8.59000015      -8.02087641E-07
  -8.57999992      -1.52139364E-06
  -8.56999969      -2.24933865E-06
  -8.56000042      -2.98451914E-06
  -8.55000019      -3.72565819E-06
  -8.53999996      -4.47160483E-06
  -8.52999973      -5.22133814E-06
  -8.52000046      -5.97399094E-06
  -8.51000023      -6.72880788E-06
  -8.50000000      -7.48514913E-06
  -8.48999977      -8.24246399E-06
  -8.47999954      -9.00027953E-06
  -8.47000027      -9.75818239E-06
  -8.46000004      -1.05157751E-05
  -8.44999981      -1.12726839E-05
  -8.43999958      -1.20284913E-05
  -8.43000031      -1.27827907E-05
  -8.42000008      -1.35350965E-05
  -8.40999985      -1.42848994E-05
  -8.39999962      -1.50316127E-05
  -8.39000034      -1.57745526E-05
  -8.38000011      -1.65129841E-05
  -8.36999989      -1.72460695E-05
  -8.35999966      -1.79728922E-05
  -8.35000038      -1.86924608E-05
  -8.34000015      -1.94036893E-05
  -8.32999992      -2.01054536E-05
  -8.31999969      -2.07965968E-05
  -8.31000042      -2.14759202E-05
  -8.30000019      -2.21422179E-05
  -8.28999996      -2.27942728E-05
  -8.27999973      -2.34308773E-05
  -8.27000046      -2.40508471E-05
  -8.26000023      -2.46529962E-05
  -8.25000000      -2.52361715E-05
  -8.23999977      -2.57992433E-05
  -8.22999954      -2.63410930E-05
  -8.22000027      -2.68606618E-05
  -8.21000004      -2.73569076E-05
  -8.19999981      -2.78287825E-05
  -8.18999958      -2.82752790E-05
  -8.18000031      -2.86953891E-05
  -8.17000008      -2.90881071E-05
  -8.15999985      -2.94524398E-05
  -8.14999962      -2.97873776E-05
  -8.14000034      -3.00919528E-05
  -8.13000011      -3.03651741E-05
  -8.11999989      -3.06060974E-05
  -8.10999966      -3.08137787E-05
  -8.10000038      -3.09873212E-05
  -8.09000015      -3.11258627E-05
  -8.07999992      -3.12286102E-05
  -8.06999969      -3.12948177E-05
  -8.06000042      -3.13238197E-05
  -8.05000019      -3.13150522E-05
  -8.03999996      -3.12680677E-05
  -8.02999973      -3.11825388E-05
  -8.02000046      -3.10582764E-05
  -8.01000023      -3.08952840E-05
  -8.00000000      -3.06936963E-05
  -7.98999977      -3.04538607E-05
  -7.98000002      -3.01763030E-05
  -7.96999979      -2.98617269E-05
  -7.96000004      -2.95110713E-05
  -7.94999981      -2.91254346E-05
  -7.94000006      -2.87061521E-05
  -7.92999983      -2.82547371E-05
  -7.92000008      -2.77728814E-05
  -7.90999985      -2.72624638E-05
  -7.90000010      -2.67255145E-05
  -7.88999987      -2.61642108E-05
  -7.88000011      -2.55808336E-05
  -7.86999989      -2.49777695E-05
  -7.86000013      -2.43574905E-05
  -7.84999990      -2.37225249E-05
  -7.84000015      -2.30754467E-05
  -7.82999992      -2.24188534E-05
  -7.82000017      -2.17553552E-05
  -7.80999994      -2.10875442E-05
  -7.80000019      -2.04179760E-05
  -7.78999996      -1.97491518E-05
  -7.78000021      -1.90835071E-05
  -7.76999998      -1.84233759E-05
  -7.76000023      -1.77710044E-05
  -7.75000000      -1.71285301E-05
  -7.73999977      -1.64979756E-05
  -7.73000002      -1.58812527E-05
  -7.71999979      -1.52801495E-05
  -7.71000004      -1.46963448E-05
  -7.69999981      -1.41313722E-05
  -7.69000006      -1.35866312E-05
  -7.67999983      -1.30633744E-05
  -7.67000008      -1.25626948E-05
  -7.65999985      -1.20855193E-05
  -7.65000010      -1.16326210E-05
  -7.63999987      -1.12046082E-05
  -7.63000011      -1.08019376E-05
  -7.61999989      -1.04249120E-05
  -7.61000013      -1.00736852E-05
  -7.59999990      -9.74826162E-06
  -7.59000015      -9.44848762E-06
  -7.57999992      -9.17406032E-06
  -7.57000017      -8.92452954E-06
  -7.55999994      -8.69928863E-06
  -7.55000019      -8.49760090E-06
  -7.53999996      -8.31859870E-06
  -7.53000021      -8.16130523E-06
  -7.51999998      -8.02465638E-06
  -7.51000023      -7.90749345E-06
  -7.50000000      -7.80859682E-06
  -7.48999977      -7.72667954E-06
  -7.48000002      -7.66041376E-06
  -7.46999979      -7.60843750E-06
  -7.46000004      -7.56935106E-06
  -7.44999981      -7.54176062E-06
  -7.44000006      -7.52428923E-06