  -16.0000000       0.00000000    
  -15.9899998       0.00000000    
  -15.9799995       0.00000000    
  -15.9700003       0.00000000    
  -15.9600000       0.00000000    
  -15.9499998       0.00000000    
  -15.9399996       0.00000000    
  -15.9300003       0.00000000    
  -15.9200001       0.00000000    
  -15.9099998       0.00000000    
  -15.8999996       0.00000000    
  -15.8900003       0.00000000    
  -15.8800001       0.00000000    
  -15.8699999       0.00000000    
  -15.8599997       0.00000000    
  -15.8500004       0.00000000    
  -15.8400002       0.00000000    
  -15.8299999       0.00000000    
  -15.8199997       1.40129846E-45
  -15.8100004       8.40779079E-45
  -15.8000002       5.46506401E-44
  -15.7900000       2.87266185E-43
  -15.7799997       1.33964133E-42
  -15.7700005       5.50710296E-42
  -15.7600002       2.02585719E-41
  -15.7500000       6.72889510E-41
  -15.7399998       2.03198086E-40
  -15.7299995       5.60516583E-40
  -15.7200003       1.41646192E-39
  -15.7100000       3.28210725E-39
  -15.6999998       6.96269053E-39
  -15.6899996       1.34574665E-38
  -15.6800003       2.34525739E-38
  -15.6700001       3.60738057E-38
  -15.6599998       4.66580372E-38
  -15.6499996       4.38092759E-38
  -15.6400003       7.15399300E-39
  -15.6300001      -9.10437289E-38
  -15.6199999      -2.75604153E-37
  -15.6099997      -5.44843273E-37
  -15.6000004      -8.33508559E-37
  -15.5900002      -9.73075285E-37
  -15.5799999      -6.77133964E-37
  -15.5699997       4.04199587E-37
  -15.5600004       2.51579252E-36
  -15.5500002       5.50317682E-36
  -15.5400000       8.46226358E-36
  -15.5299997       9.52344929E-36
  -15.5200005       6.06886195E-36
  -15.5100002      -4.31860438E-36
  -15.5000000      -2.20970539E-35
  -15.4899998      -4.36201933E-35
  -15.4799995      -5.97045290E-35
  -15.4700003      -5.65320201E-35
  -15.4600000      -2.03421909E-35
  -15.4499998       5.40133168E-35
  -15.4399996       1.53259576E-34
  -15.4300003       2.40382786E-34
  -15.4200001       2.61193421E-34
  -15.4099998       1.67585443E-34
  -15.3999996      -4.63912318E-35
  -15.3900003      -3.13247870E-34
  -15.3800001      -4.95545623E-34
  -15.3699999      -4.53355018E-34
  -15.3599997      -1.77743367E-34
  -15.3500004       6.60942075E-35
  -15.3400002      -2.84493923E-34
  -15.3299999      -1.82432223E-33
  -15.3199997      -4.52638793E-33
  -15.3100004      -6.84232193E-33
  -15.3000002      -5.10936150E-33
  -15.2900000       5.77294386E-33
  -15.2799997       2.93788776E-32
  -15.2700005       6.22648014E-32
  -15.2600002       8.76345967E-32
  -15.2500000       7.26345130E-32
  -15.2399998      -2.39489018E-32
  -15.2299995      -2.27486862E-31
  -15.2200003      -5.07196942E-31
  -15.2100000      -7.33714704E-31
  -15.1999998      -6.66174889E-31
  -15.1899996      -1.24358280E-32
  -15.1800003       1.40315977E-30
  -15.1700001       3.37616535E-30
  -15.1599998       5.06036287E-30
  -15.1499996       4.90779311E-30
  -15.1400003       1.06675567E-30
  -15.1300001      -7.58342965E-30
  -15.1199999      -1.98702827E-29
  -15.1099997      -3.08421491E-29
  -15.1000004      -3.15019847E-29
  -15.0900002      -1.11433765E-29
  -15.0799999       3.68486942E-29
  -15.0699997       1.06490324E-28
  -15.0600004       1.71339732E-28
  -15.0500002       1.83294966E-28
  -15.0400000       8.49776866E-29
  -15.0299997      -1.60356743E-28
  -15.0200005      -5.25747097E-28
  -15.0100002      -8.81300920E-28
  -15.0000000      -9.88077173E-28
  -14.9899998      -5.57727838E-28
  -14.9799995       6.04595921E-28
  -14.9700003       2.39574861E-27
  -14.9600000       4.22776521E-27
  -14.9499998       4.99187367E-27
  -14.9399996       3.31944619E-27
  -14.9300003      -1.78271991E-27
  -14.9200001      -1.00167786E-26
  -14.9099998      -1.89389803E-26
  -14.8999996      -2.37350975E-26
  -14.8900003      -1.82511845E-26
  -14.8800001       2.37604173E-27
  -14.8699999       3.78431090E-26
  -14.8599997       7.89161412E-26
  -14.8500004       1.06074847E-25
  -14.8400002       9.31282100E-26
  -14.8299999       1.73342385E-26
  -14.8199997      -1.25095750E-25
  -14.8100004      -3.03100821E-25
  -14.8000002      -4.43198623E-25
  -14.7900000      -4.40315090E-25
  -14.7799997      -1.93725330E-25
  -14.7700005       3.34560076E-25
  -14.7600002       1.05578560E-24
  -14.7500000       1.71592156E-24
  -14.7399998       1.92039470E-24
  -14.7299995       1.25042717E-24
  -14.7200003      -5.31333664E-25
  -14.7100000      -3.23708639E-24
  -14.6999998      -6.07568600E-24
  -14.6899996      -7.67422506E-24
  -14.6800003      -6.41308733E-24
  -14.6700001      -1.09630524E-24
  -14.6599998       8.17905975E-24
  -14.6499996       1.92738015E-23
  -14.6400003       2.78259419E-23
  -14.6300001       2.80657620E-23
  -14.6199999       1.48076102E-23
  -14.6099997      -1.36762370E-23
  -14.6000004      -5.27942857E-23
  -14.5900002      -9.01788426E-23
  -14.5799999      -1.07123045E-22
  -14.5699997      -8.38368869E-23
  -14.5600004      -8.13481175E-24
  -14.5500002       1.14660301E-22
  -14.5400000       2.54563420E-22
  -14.5299997       3.57302493E-22
  -14.5200005       3.56014340E-22
  -14.5100002       1.94817657E-22
  -14.5000000      -1.40305829E-22
  -14.4899998      -5.93497041E-22
  -14.4799995      -1.02783159E-21
  -14.4700003      -1.24429462E-21
  -14.4600000      -1.03740414E-21
  -14.4499998      -2.80989907E-22
  -14.4399996       9.78612624E-22
  -14.4300003       2.45859262E-21
  -14.4200001       3.64600333E-21
  -14.4099998       3.90434621E-21
  -14.3999996       2.68139461E-21
  -14.3900003      -2.22913235E-22
  -14.3800001      -4.41303199E-21
  -14.3699999      -8.79008648E-21
  -14.3599997      -1.16832751E-20
  -14.3500004      -1.12699950E-20
  -14.3400002      -6.23784655E-21
  -14.3299999       3.47534805E-21
  -14.3199997       1.61258537E-20
  -14.3100004       2.80878386E-20
  -14.3000002       3.44803711E-20
  -14.2900000       3.05337890E-20
  -14.2799997       1.34576817E-20
  -14.2700005      -1.57122731E-20
  -14.2600002      -5.10008643E-20
  -14.2500000      -8.18118009E-20
  -14.2399998      -9.50919142E-20
  -14.2299995      -7.92110481E-20
  -14.2200003      -2.87420577E-20
  -14.2100000       5.12954473E-20
  -14.1999998       1.43464564E-19
  -14.1899996       2.19715301E-19
  -14.1800003       2.47601963E-19
  -14.1700001       2.00177540E-19
  -14.1599998       6.72769257E-20
  -14.1499996      -1.35325895E-19
  -14.1400003      -3.62763185E-19
  -14.1300001      -5.46904524E-19
  -14.1199999      -6.11957161E-19
  -14.1099997      -4.97495475E-19
  -14.1000004      -1.83354018E-19
  -14.0900002       2.91425113E-19
  -14.0799999       8.23619031E-19
  -14.0699997       1.26044531E-18
  -14.0600004       1.43445030E-18
  -14.0500002       1.21287312E-18
  -14.0400000       5.49446347E-19
  -14.0299997      -4.77291485E-19
  -14.0200005      -1.65482786E-18
  -14.0100002      -2.66690888E-18
  -14.0000000      -3.16352682E-18
  -13.9899998      -2.85864355E-18
  -13.9799995      -1.63226692E-18
  -13.9700003       3.93168535E-19
  -13.9600000       2.83099690E-18
  -13.9499998       5.08173281E-18
  -13.9399996       6.45834209E-18
  -13.9300003       6.36420686E-18
  -13.9200001       4.48289168E-18
  -13.9099998       9.27318167E-19
  -13.8999996      -3.70216843E-18
  -13.8900003      -8.38463522E-18
  -13.8800001      -1.18746682E-17
  -13.8699999      -1.29965154E-17
  -13.8599997      -1.09725136E-17
  -13.8500004      -5.70210545E-18
  -13.8400002       2.09160683E-18
  -13.8299999       1.09077875E-17
  -13.8199997       1.87232199E-17
  -13.8100004       2.34209987E-17
  -13.8000002       2.33060503E-17
  -13.7900000       1.75876532E-17
  -13.7799997       6.70300888E-18
  -13.7700005      -7.61775855E-18
  -13.7600002      -2.25906284E-17
  -13.7500000      -3.48951601E-17
  -13.7399998      -4.13742210E-17
  -13.7299995      -3.97676410E-17
  -13.7200003      -2.93123163E-17
  -13.7100000      -1.10615025E-17
  -13.6999998       1.21666415E-17
  -13.6899996       3.62211538E-17
  -13.6800003       5.63555372E-17
  -13.6700001       6.81264298E-17
  -13.6599998       6.82742106E-17
  -13.6499996       5.54117208E-17
  -13.6400003       3.03912212E-17
  -13.6300001      -3.71154866E-18
  -13.6199999      -4.19812226E-17
  -13.6099997      -7.83372399E-17
  -13.6000004      -1.06385459E-16
  -13.5900002      -1.20327899E-16
  -13.5799999      -1.15829717E-16
  -13.5699997      -9.07697050E-17
  -13.5600004      -4.58202473E-17
  -13.5500002       1.51980194E-17
  -13.5400000       8.52598549E-17
  -13.5299997       1.54476946E-16
  -13.5200005       2.10945323E-16
  -13.5100002       2.42172331E-16
  -13.5000000       2.37062420E-16
  -13.4899998       1.88289098E-16
  -13.4799995       9.46951733E-17
  -13.4700003      -3.67980031E-17
  -13.4600000      -1.90375724E-16
  -13.4499998      -3.42150065E-16
  -13.4399996      -4.62928334E-16
  -13.4300003      -5.22852474E-16
  -13.4200001      -4.97349530E-16
  -13.4099998      -3.73368523E-16
  -13.3999996      -1.54558817E-16
  -13.3900003       1.36010410E-16
  -13.3800001       4.56703860E-16
  -13.3699999       7.52253984E-16
  -13.3599997       9.62433245E-16
  -13.3500004       1.03321873E-15
  -13.3400002       9.28447319E-16
  -13.3299999       6.39571338E-16
  -13.3199997       1.91216510E-16
  -13.3100004      -3.59111821E-16
  -13.3000002      -9.27769693E-16
  -13.2900000      -1.41746263E-15
  -13.2799997      -1.73353456E-15
  -13.2700005      -1.80120688E-15
  -13.2600002      -1.58054908E-15
  -13.2500000      -1.07626590E-15
  -13.2399998      -3.40253029E-16
  -13.2299995       5.33790370E-16
  -13.2200003       1.42297469E-15
  -13.2100000       2.19302929E-15
  -13.1999998       2.71839660E-15
  -13.1899996       2.90138685E-15
  -13.1800003       2.68742865E-15
  -13.1700001       2.07421830E-15
  -13.1599998       1.11364398E-15
  -13.1499996      -9.35178902E-17
  -13.1400003      -1.40912263E-15
  -13.1300001      -2.67366373E-15
  -13.1199999      -3.72467196E-15
  -13.1099997      -4.41535236E-15
  -13.1000004      -4.63153253E-15
  -13.0900002      -4.30535497E-15
  -13.0799999      -3.42457877E-15
  -13.0699997      -2.03677204E-15
  -13.0600004      -2.48058575E-16
  -13.0500002       1.78355090E-15
  -13.0400000       3.85990712E-15
  -13.0299997       5.75886478E-15
  -13.0200005       7.25379958E-15
  -13.0100002       8.13518225E-15
  -13.0000000       8.23255292E-15
  -12.9899998       7.43510444E-15
  -12.9799995       5.70895760E-15
  -12.9700003       3.10933746E-15
  -12.9600000      -2.13933378E-16
  -12.9499998      -4.01878466E-15
  -12.9399996      -7.98176341E-15
  -12.9300003      -1.17175014E-14
  -12.9200001      -1.48063257E-14
  -12.9099998      -1.68288184E-14
  -12.8999996      -1.74056936E-14
  -12.8900003      -1.62405540E-14
  -12.8800001      -1.31624837E-14
  -12.8699999      -8.16463274E-15
  -12.8599997      -1.43419216E-15
  -12.8500004       6.63127737E-15
  -12.8400002       1.54264046E-14
  -12.8299999       2.41638002E-14
  -12.8199997       3.19256543E-14
  -12.8100004       3.77407829E-14
  -12.8000002       4.06825554E-14
  -12.7900000       3.99789116E-14
  -12.7799997       3.51213707E-14
  -12.7700005       2.59575144E-14
  -12.7600002       1.27512094E-14
  -12.7500000      -3.80202343E-15
  -12.7399998      -2.26108483E-14
  -12.7299995      -4.22731308E-14
  -12.7200003      -6.11986048E-14
  -12.7100000      -7.77502249E-14
  -12.6999998      -9.03806584E-14
  -12.6899996      -9.77412799E-14
  -12.6800003      -9.87479684E-14
  -12.6700001      -9.25989361E-14
  -12.6599998      -7.87539860E-14
  -12.6499996      -5.68975680E-14
  -12.6400003      -2.69166115E-14
  -12.6300001       1.10741808E-14
  -12.6199999       5.66346761E-14
  -12.6099997       1.08819360E-13
  -12.6000004       1.65927290E-13
  -12.5900002       2.25218173E-13
  -12.5799999       2.82651290E-13
  -12.5699997       3.32717794E-13
  -12.5600004       3.68441524E-13
  -12.5500002       3.81614038E-13
  -12.5400000       3.63310619E-13
  -12.5299997       3.04703176E-13
  -12.5200005       1.98150849E-13
  -12.5100002       3.85110204E-14
  -12.5000000      -1.75425606E-13
  -12.4899998      -4.39503035E-13
  -12.4799995      -7.42923789E-13
  -12.4700003      -1.06729198E-12
  -12.4600000      -1.38613903E-12
  -12.4499998      -1.66507661E-12
  -12.4399996      -1.86267560E-12
  -12.4300003      -1.93212698E-12
  -12.4200001      -1.82365559E-12
  -12.4099998      -1.48758751E-12
  -12.3999996      -8.77891564E-13
  -12.3900003       4.40581409E-14
  -12.3800001       1.30577992E-12
  -12.3699999       2.92036360E-12
  -12.3599997       4.88379476E-12
  -12.3500004       7.17318219E-12
  -12.3400002       9.74603124E-12
  -12.3299999       1.25406170E-11
  -12.3199997       1.54774821E-11
  -12.3100004       1.84619056E-11
  -12.3000002       2.13872340E-11
  -12.2900000       2.41388264E-11
  -12.2799997       2.65985046E-11
  -12.2700005       2.86491629E-11
  -12.2600002       3.01793972E-11
  -12.2500000       3.10879968E-11
  -12.2399998       3.12878404E-11
  -12.2299995       3.07093413E-11
  -12.2200003       2.93029594E-11
  -12.2100000       2.70406770E-11
  -12.1999998       2.39164175E-11
  -12.1899996       1.99453700E-11
  -12.1800003       1.51624078E-11
  -12.1700001       9.61943893E-12
  -12.1599998       3.38260388E-12
  -12.1499996      -3.47086292E-12
  -12.1400003      -1.08554398E-11
  -12.1300001      -1.86797348E-11
  -12.1199999      -2.68481817E-11
  -12.1099997      -3.52620121E-11
  -12.1000004      -4.38197811E-11
  -12.0900002      -5.24174384E-11
  -12.0799999      -6.09483922E-11
  -12.0699997      -6.93037502E-11
  -12.0600004      -7.73729067E-11
  -12.0500002      -8.50446519E-11
  -12.0400000      -9.22087059E-11
  -12.0299997      -9.87573842E-11
  -12.0200005      -1.04587408E-10
  -12.0100002      -1.09601425E-10
  -12.0000000      -1.13708945E-10
  -11.9899998      -1.16827256E-10
  -11.9799995      -1.18881155E-10
  -11.9700003      -1.19802904E-10
  -11.9600000      -1.19531732E-10
  -11.9499998      -1.18013349E-10
  -11.9399996      -1.15199739E-10
  -11.9300003      -1.11049323E-10
  -11.9200001      -1.05527420E-10
  -11.9099998      -9.86073931E-11
  -11.8999996      -9.02714709E-11
  -11.8900003      -8.05127007E-11
  -11.8800001      -6.93364324E-11
  -11.8699999      -5.67619424E-11
  -11.8599997      -4.28240533E-11
  -11.8500004      -2.75747706E-11
  -11.8400002      -1.10843478E-11
  -11.8299999       6.55718839E-12
  -11.8199997       2.52404347E-11
  -11.8100004       4.48361244E-11
  -11.8000002       6.51964038E-11
  -11.7900000       8.61565125E-11
  -11.7799997       1.07537555E-10
  -11.7700005       1.29149622E-10
  -11.7600002       1.50795751E-10
  -11.7500000       1.72275930E-10
  -11.7399998       1.93390970E-10
  -11.7299995       2.13945792E-10
  -11.7200003       2.33751962E-10
  -11.7100000       2.52629806E-10
  -11.6999998       2.70408501E-10
  -11.6899996       2.86926288E-10
  -11.6800003       3.02028957E-10
  -11.6700001       3.15568682E-10
  -11.6599998       3.27402161E-10
  -11.6499996       3.37389006E-10
  -11.6400003       3.45390966E-10
  -11.6300001       3.51271873E-10
  -11.6199999       3.54897806E-10
  -11.6099997       3.56139229E-10
  -11.6000004       3.54873159E-10
  -11.5900002       3.50986101E-10
  -11.5799999       3.44376860E-10
  -11.5699997       3.34959699E-10
  -11.5600004       3.22666560E-10
  -11.5500002       3.07448400E-10
  -11.5400000       2.89275992E-10
  -11.5299997       2.68140149E-10
  -11.5200005       2.44050613E-10
  -11.5100002       2.17035057E-10
  -11.5000000       1.87138596E-10
  -11.4899998       1.54421434E-10
  -11.4799995       1.18958413E-10
  -11.4700003       8.08373854E-11
  -11.4600000       4.01589491E-11
  -11.4499998      -2.96526519E-12
  -11.4399996      -4.84130097E-11
  -11.4300003      -9.60523744E-11
  -11.4200001      -1.45743209E-10
  -11.4099998      -1.97338257E-10
  -11.3999996      -2.50683946E-10
  -11.3900003      -3.05620557E-10
  -11.3800001      -3.61984442E-10
  -11.3699999      -4.19607210E-10
  -11.3599997      -4.78317885E-10
  -11.3500004      -5.37944189E-10
  -11.3400002      -5.98312511E-10
  -11.3299999      -6.59251542E-10
  -11.3199997      -7.20591642E-10
  -11.3100004      -7.82168108E-10
  -11.3000002      -8.43821013E-10
  -11.2900000      -9.05396591E-10
  -11.2799997      -9.66746239E-10
  -11.2700005      -1.02772790E-09
  -11.2600002      -1.08820597E-09
  -11.2500000      -1.14805010E-09
  -11.2399998      -1.20713783E-09
  -11.2299995      -1.26535527E-09
  -11.2200003      -1.32259870E-09
  -11.2100000      -1.37877632E-09
  -11.1999998      -1.43380963E-09
  -11.1899996      -1.48763213E-09
  -11.1800003      -1.54019042E-09
  -11.1700001      -1.59144042E-09
  -11.1599998      -1.64134573E-09
  -11.1499996      -1.68987202E-09
  -11.1400003      -1.73698378E-09
  -11.1300001      -1.78264503E-09
  -11.1199999      -1.82681303E-09
  -11.1099997      -1.86944349E-09
  -11.1000004      -1.91049088E-09
  -11.0900002      -1.94990823E-09
  -11.0799999      -1.98765560E-09
  -11.0699997      -2.02370076E-09
  -11.0600004      -2.05802375E-09
  -11.0500002      -2.09061479E-09
  -11.0400000      -2.12148321E-09
  -11.0299997      -2.15064744E-09
  -11.0200005      -2.17814566E-09
  -11.0100002      -2.20402496E-09
  -11.0000000      -2.22834151E-09
  -10.9899998      -2.25115460E-09
  -10.9799995      -2.27252794E-09
  -10.9700003      -2.29251995E-09
  -10.9600000      -2.31117725E-09
  -10.9499998      -2.32853115E-09
  -10.9399996      -2.34459896E-09
  -10.9300003      -2.35937736E-09
  -10.9200001      -2.37284037E-09
  -10.9099998      -2.38494779E-09
  -10.8999996      -2.39564057E-09
  -10.8900003      -2.40486142E-09
  -10.8800001      -2.41253884E-09
  -10.8699999      -2.41860931E-09
  -10.8599997      -2.42302134E-09
  -10.8500004      -2.42572518E-09
  -10.8400002      -2.42669462E-09
  -10.8299999      -2.42591147E-09
  -10.8199997      -2.42336973E-09
  -10.8100004      -2.41907538E-09
  -10.8000002      -2.41303422E-09
  -10.7900000      -2.40526110E-09
  -10.7799997      -2.39576448E-09
  -10.7700005      -2.38455966E-09
  -10.7600002      -2.37165643E-09
  -10.7500000      -2.35706543E-09
  -10.7399998      -2.34079200E-09
  -10.7299995      -2.32286523E-09
  -10.7200003      -2.30331842E-09
  -10.7100000      -2.28220687E-09
  -10.6999998      -2.25960073E-09
  -10.6899996      -2.23559948E-09
  -10.6800003      -2.21033658E-09
  -10.6700001      -2.18394591E-09
  -10.6599998      -2.15661311E-09
  -10.6499996      -2.12852669E-09
  -10.6400003      -2.09989359E-09
  -10.6300001      -2.07092787E-09
  -10.6199999      -2.04185180E-09
  -10.6099997      -2.01288408E-09
  -10.6000004      -1.98425565E-09
  -10.5900002      -1.95616634E-09
  -10.5799999      -1.92882244E-09
  -10.5699997      -1.90241334E-09
  -10.5600004      -1.87710114E-09
  -10.5500002      -1.85303772E-09
  -10.5400000      -1.83033089E-09
  -10.5299997      -1.80909376E-09
  -10.5200005      -1.78940052E-09
  -10.5100002      -1.77131820E-09
  -10.5000000      -1.75488435E-09
  -10.4899998      -1.74014858E-09
  -10.4799995      -1.72712999E-09
  -10.4700003      -1.71585945E-09
  -10.4600000      -1.70635106E-09
  -10.4499998      -1.69862335E-09
  -10.4399996      -1.69268355E-09
  -10.4300003      -1.68853265E-09
  -10.4200001      -1.68618164E-09
  -10.4099998      -1.68563352E-09
  -10.3999996      -1.68688719E-09
  -10.3900003      -1.68994607E-09
  -10.3800001      -1.69481218E-09
  -10.3699999      -1.70149173E-09
  -10.3599997      -1.70997339E-09
  -10.3500004      -1.72026116E-09
  -10.3400002      -1.73231507E-09
  -10.3299999      -1.74611459E-09
  -10.3199997      -1.76159298E-09
  -10.3100004      -1.77868187E-09
  -10.3000002      -1.79727200E-09
  -10.2900000      -1.81726767E-09
  -10.2799997      -1.83853621E-09
  -10.2700005      -1.86094229E-09
  -10.2600002      -1.88436444E-09
  -10.2500000      -1.90866567E-09
  -10.2399998      -1.93371830E-09
  -10.2299995      -1.95942285E-09
  -10.2200003      -1.98567962E-09
  -10.2100000      -2.01241579E-09
  -10.1999998      -2.03957717E-09
  -10.1899996      -2.06713402E-09
  -10.1800003      -2.09507189E-09
  -10.1700001      -2.12339457E-09
  -10.1599998      -2.15212292E-09
  -10.1499996      -2.18127671E-09
  -10.1400003      -2.21088325E-09
  -10.1300001      -2.24095276E-09
  -10.1199999      -2.27151742E-09
  -10.1099997      -2.30259678E-09
  -10.1000004      -2.33424835E-09
  -10.0900002      -2.36650055E-09
  -10.0799999      -2.39940645E-09
  -10.0699997      -2.43305553E-09
  -10.0600004      -2.46756726E-09
  -10.0500002      -2.50305643E-09
  -10.0400000      -2.53967913E-09
  -10.0299997      -2.57758548E-09
  -10.0200005      -2.61696931E-09
  -10.0100002      -2.65801448E-09
  -10.0000000      -2.70089529E-09
  -9.98999977      -2.74579293E-09
  -9.97999954      -2.79284684E-09
  -9.97000027      -2.84218893E-09
  -9.96000004      -2.89393753E-09
  -9.94999981      -2.94817615E-09
  -9.93999958      -3.00495251E-09
  -9.93000031      -3.06431325E-09
  -9.92000008      -3.12627191E-09
  -9.90999985      -3.19083715E-09
  -9.89999962      -3.25803962E-09
  -9.89000034      -3.32787975E-09
  -9.88000011      -3.40038753E-09
  -9.86999989      -3.47559781E-09
  -9.85999966      -3.55355034E-09
  -9.85000038      -3.63430752E-09
  -9.84000015      -3.71793529E-09
  -9.82999992      -3.80447984E-09
  -9.81999969      -3.89400956E-09
  -9.81000042      -3.98660216E-09
  -9.80000019      -4.08228518E-09
  -9.78999996      -4.18112522E-09
  -9.77999973      -4.28317426E-09
  -9.77000046      -4.38847048E-09
  -9.76000023      -4.49705118E-09
  -9.75000000      -4.60893279E-09
  -9.73999977      -4.72415795E-09
  -9.72999954      -4.84272000E-09
  -9.72000027      -4.96462027E-09
  -9.71000004      -5.08984233E-09
  -9.69999981      -5.21832533E-09
  -9.68999958      -5.35003153E-09
  -9.68000031      -5.48487034E-09
  -9.67000008      -5.62273605E-09
  -9.65999985      -5.76350567E-09
  -9.64999962      -5.90700733E-09
  -9.64000034      -6.05305761E-09
  -9.63000011      -6.20143625E-09
  -9.61999989      -6.35187325E-09
  -9.60999966      -6.50408571E-09
  -9.60000038      -6.65773303E-09
  -9.59000015      -6.81247991E-09
  -9.57999992      -6.96796310E-09
  -9.56999969      -7.12379311E-09
  -9.56000042      -7.27958804E-09
  -9.55000019      -7.43494777E-09
  -9.53999996      -7.58949348E-09
  -9.52999973      -7.74283926E-09
  -9.52000046      -7.89459698E-09
  -9.51000023      -8.04434830E-09
  -9.50000000      -8.19169177E-09
  -9.48999977      -8.33622327E-09
  -9.47999954      -8.47756798E-09
  -9.47000027      -8.61539373E-09
  -9.46000004      -8.74937101E-09
  -9.44999981      -8.87922180E-09
  -9.43999958      -9.00476405E-09
  -9.43000031      -9.12589115E-09
  -9.42000008      -9.24258980E-09
  -9.40999985      -9.35492483E-09
  -9.39999962      -9.46304368E-09
  -9.39000034      -9.56723589E-09
  -9.38000011      -9.66786118E-09
  -9.36999989      -9.76538850E-09
  -9.35999966      -9.86037385E-09
  -9.35000038      -9.95340166E-09
  -9.34000015      -1.00452171E-08
  -9.32999992      -1.01365591E-08
  -9.31999969      -1.02282360E-08
  -9.31000042      -1.03211066E-08
  -9.30000019      -1.04160209E-08
  -9.28999996      -1.05139106E-08
  -9.27999973      -1.06155582E-08
  -9.27000046      -1.07218989E-08
  -9.26000023      -1.08337410E-08
  -9.25000000      -1.09519140E-08
  -9.23999977      -1.10771570E-08
  -9.22999954      -1.12101866E-08
  -9.22000027      -1.13516672E-08
  -9.21000004      -1.15021592E-08
  -9.19999981      -1.16621894E-08
  -9.18999958      -1.18321655E-08
  -9.18000031      -1.20124559E-08
  -9.17000008      -1.22033441E-08
  -9.15999985      -1.24049828E-08
  -9.14999962      -1.26174271E-08
  -9.14000034      -1.28406983E-08
  -9.13000011      -1.30746241E-08
  -9.11999989      -1.33189708E-08
  -9.10999966      -1.35733984E-08
  -9.10000038      -1.38374761E-08
  -9.09000015      -1.41106646E-08
  -9.07999992      -1.43923282E-08
  -9.06999969      -1.46818175E-08
  -9.06000042      -1.49783670E-08
  -9.05000019      -1.52811914E-08
  -9.03999996      -1.55894053E-08
  -9.02999973      -1.59020992E-08
  -9.02000046      -1.62183476E-08
  -9.01000023      -1.65371414E-08
  -9.00000000      -1.68575021E-08
  -8.98999977      -1.71783778E-08
  -8.97999954      -1.74988166E-08
  -8.97000027      -1.78177437E-08
  -8.96000004      -1.81341928E-08
  -8.94999981      -1.84470714E-08
  -8.93999958      -1.87554612E-08
  -8.93000031      -1.90583904E-08
  -8.92000008      -1.93549177E-08
  -8.90999985      -1.96441103E-08
  -8.89999962      -1.99250660E-08
  -8.89000034      -2.01970174E-08
  -8.88000011      -2.04591117E-08
  -8.86999989      -2.07106918E-08
  -8.85999966      -2.09510951E-08
  -8.85000038      -2.11797531E-08
  -8.84000015      -2.13961826E-08
  -8.82999992      -2.15999805E-08
  -8.81999969      -2.17908127E-08
  -8.81000042      -2.19685781E-08
  -8.80000019      -2.21332215E-08
  -8.78999996      -2.22847394E-08
  -8.77999973      -2.24233521E-08
  -8.77000046      -2.25493721E-08
  -8.76000023      -2.26631816E-08
  -8.75000000      -2.27653079E-08
  -8.73999977      -2.28563142E-08
  -8.72999954      -2.29369288E-08
  -8.72000027      -2.30078694E-08
  -8.71000004      -2.30699566E-08
  -8.69999981      -2.31241248E-08
  -8.68999958      -2.31712853E-08
  -8.68000031      -2.32123156E-08
  -8.67000008      -2.32482282E-08
  -8.65999985      -2.32798421E-08
  -8.64999962      -2.33080737E-08
  -8.64000034      -2.33337758E-08
  -8.63000011      -2.33578010E-08
  -8.61999989      -2.33808386E-08
  -8.60999966      -2.34035600E-08
  -8.60000038      -2.34267166E-08
  -8.59000015      -2.34508128E-08
  -8.57999992      -2.34764368E-08
  -8.56999969      -2.35040485E-08
  -8.56000042      -2.35340583E-08
  -8.55000019      -2.35668196E-08
  -8.53999996      -2.36026043E-08
  -8.52999973      -2.36415740E-08
  -8.52000046      -2.36839632E-08
  -8.51000023      -2.37298075E-08
  -8.50000000      -2.37792168E-08
  -8.48999977      -2.38321700E-08
  -8.47999954      -2.38885534E-08
  -8.47000027      -2.39484415E-08
  -8.46000004      -2.40116993E-08
  -8.44999981      -2.40783002E-08
  -8.43999958      -2.41481146E-08
  -8.43000031      -2.42209417E-08
  -8.42000008      -2.42966802E-08
  -8.40999985      -2.43753782E-08
  -8.39999962      -2.44568934E-08
  -8.39000034      -2.45413094E-08
  -8.38000011      -2.46286191E-08
  -8.36999989      -2.47190446E-08
  -8.35999966      -2.48126852E-08
  -8.35000038      -2.49098715E-08
  -8.34000015      -2.50109444E-08
  -8.32999992      -2.51162593E-08
  -8.31999969      -2.52263010E-08
  -8.31000042      -2.53415795E-08
  -8.30000019      -2.54625601E-08
  -8.28999996      -2.55896921E-08
  -8.27999973      -2.57234642E-08
  -8.27000046      -2.58643649E-08
  -8.26000023      -2.60128932E-08
  -8.25000000      -2.61694186E-08
  -8.23999977      -2.63344013E-08
  -8.22999954      -2.65081912E-08
  -8.22000027      -2.66912004E-08
  -8.21000004      -2.68836917E-08
  -8.19999981      -2.70859033E-08
  -8.18999958      -2.72979470E-08
  -8.18000031      -2.75202261E-08
  -8.17000008      -2.77527423E-08
  -8.15999985      -2.79956822E-08
  -8.14999962      -2.82491346E-08
  -8.14000034      -2.85130692E-08
  -8.13000011      -2.87874844E-08
  -8.11999989      -2.90724387E-08
  -8.10999966      -2.93679392E-08
  -8.10000038      -2.96738421E-08
  -8.09000015      -2.99900904E-08
  -8.07999992      -3.03164143E-08
  -8.06999969      -3.06528598E-08
  -8.06000042      -3.09990256E-08
  -8.05000019      -3.13548689E-08
  -8.03999996      -3.17200914E-08
  -8.02999973      -3.20944444E-08
  -8.02000046      -3.24775513E-08
  -8.01000023      -3.28691669E-08
  -8.00000000      -3.32689787E-08
  -7.98999977      -3.36765780E-08
  -7.98000002      -3.40917410E-08
  -7.96999979      -3.45139242E-08
  -7.96000004      -3.49427118E-08
  -7.94999981      -3.53774787E-08
  -7.94000006      -3.58178340E-08
  -7.92999983      -3.62631027E-08
  -7.92000008      -3.67127200E-08
  -7.90999985      -3.71660924E-08
  -7.90000010      -3.76225024E-08
  -7.88999987      -3.80813390E-08
  -7.88000011      -3.85418666E-08
  -7.86999989      -3.90035524E-08
  -7.86000013      -3.94657320E-08
  -7.84999990      -3.99278122E-08
  -7.84000015      -4.03893736E-08
  -7.82999992      -4.08498551E-08
  -7.82000017      -4.13088443E-08
  -7.80999994      -4.17660004E-08
  -7.80000019      -4.22209609E-08
  -7.78999996      -4.26734879E-08
  -7.78000021      -4.31233858E-08
  -7.76999998      -4.35703953E-08
  -7.76000023      -4.40144774E-08
  -7.75000000      -4.44556001E-08
  -7.73999977      -4.48936959E-08
  -7.73000002      -4.53289104E-08
  -7.71999979      -4.57615243E-08
  -7.71000004      -4.61916088E-08
  -7.69999981      -4.66194976E-08
  -7.69000006      -4.70454964E-08
  -7.67999983      -4.74701736E-08
  -7.67000008      -4.78940585E-08
  -7.65999985      -4.83174993E-08
  -7.65000010      -4.87411569E-08
  -7.63999987      -4.91657630E-08
  -7.63000011      -4.95918506E-08
  -7.61999989      -5.00201978E-08
  -7.61000013      -5.04517317E-08
  -7.59999990      -5.08871096E-08
  -7.59000015      -5.13271594E-08
  -7.57999992      -5.17724672E-08
  -7.57000017      -5.22243617E-08
  -7.55999994      -5.26834611E-08
  -7.55000019      -5.31508135E-08
  -7.53999996      -5.36274776E-08
  -7.53000021      -5.41143557E-08
  -7.51999998      -5.46124319E-08
  -7.51000023      -5.51225163E-08
  -7.50000000      -5.56458915E-08
  -7.48999977      -5.61835769E-08
  -7.48000002      -5.67363330E-08
  -7.46999979      -5.73048489E-08
  -7.46000004      -5.78902259E-08
  -7.44999981      -5.84931641E-08
  -7.44000006      -5.91145941E-08