  -16.0000000       0.00000000    
  -15.9899998       0.00000000    
  -15.9799995       0.00000000    
  -15.9700003       0.00000000    
  -15.9600000       0.00000000    
  -15.9499998       0.00000000    
  -15.9399996       0.00000000    
  -15.9300003       0.00000000    
  -15.9200001       0.00000000    
  -15.9099998       0.00000000    
  -15.8999996       0.00000000    
  -15.8900003       0.00000000    
  -15.8800001       0.00000000    
  -15.8699999       4.20389539E-43
  -15.8599997       1.98213668E-41
  -15.8500004       3.81213438E-40
  -15.8400002       4.63972164E-39
  -15.8299999       4.10138116E-38
  -15.8199997       2.83026439E-37
  -15.8100004       1.59762679E-36
  -15.8000002       7.60596144E-36
  -15.7900000       3.12098658E-35
  -15.7799997       1.12101501E-34
  -15.7700005       3.56379053E-34
  -15.7600002       1.00996969E-33
  -15.7500000       2.56072812E-33
  -15.7399998       5.80565529E-33
  -15.7299995       1.16952644E-32
  -15.7200003       2.05852600E-32
  -15.7100000       3.03924153E-32
  -15.6999998       3.33405286E-32
  -15.6899996       1.19235006E-32
  -15.6800003      -6.31920196E-32
  -15.6700001      -2.27605681E-31
  -15.6599998      -5.01904679E-31
  -15.6499996      -8.48684352E-31
  -15.6400003      -1.11329415E-30
  -15.6300001      -9.77651975E-31
  -15.6199999       1.20942588E-32
  -15.6099997       2.26484584E-30
  -15.6000004       5.76214090E-30
  -15.5900002       9.54351777E-30
  -15.5799999       1.13374335E-29
  -15.5699997       7.83090037E-30
  -15.5600004      -3.90576298E-30
  -15.5500002      -2.37524067E-29
  -15.5400000      -4.55686761E-29
  -15.5299997      -5.62101492E-29
  -15.5200005      -3.95722691E-29
  -15.5100002       1.25728363E-29
  -15.5000000       8.56409949E-29
  -15.4899998       1.32926818E-28
  -15.4799995       8.73818370E-29
  -15.4700003      -9.25896057E-29
  -15.4600000      -3.48493388E-28
  -15.4499998      -4.57584392E-28
  -15.4399996      -5.52074198E-29
  -15.4300003       1.17217373E-27
  -15.4200001       3.09856128E-27
  -15.4099998       4.69893896E-27
  -15.3999996       3.84935464E-27
  -15.3900003      -2.13046062E-27
  -15.3800001      -1.47920479E-26
  -15.3699999      -3.18218724E-26
  -15.3599997      -4.42770247E-26
  -15.3500004      -3.59321921E-26
  -15.3400002       1.24418341E-26
  -15.3299999       1.11683242E-25
  -15.3199997       2.46346396E-25
  -15.3100004       3.56078624E-25
  -15.3000002       3.28682693E-25
  -15.2900000       2.24908003E-26
  -15.2799997      -6.65046425E-25
  -15.2700005      -1.67855973E-24
  -15.2600002      -2.66178650E-24
  -15.2500000      -2.86363687E-24
  -15.2399998      -1.21818889E-24
  -15.2299995       3.25337972E-24
  -15.2200003       1.06268541E-23
  -15.2100000       1.89515723E-23
  -15.1999998       2.32850219E-23
  -15.1899996       1.57996959E-23
  -15.1800003      -1.18399873E-23
  -15.1700001      -6.29268854E-23
  -15.1599998      -1.27435090E-22
  -15.1499996      -1.74064443E-22
  -15.1400003      -1.48924216E-22
  -15.1300001       1.06360159E-23
  -15.1199999       3.40355767E-22
  -15.1099997       7.93664702E-22
  -15.1000004       1.18550976E-21
  -15.0900002       1.17523493E-21
  -15.0799999       3.41954946E-22
  -15.0699997      -1.60487125E-21
  -15.0600004      -4.48944603E-21
  -15.0500002      -7.31586968E-21
  -15.0400000      -8.12338941E-21
  -15.0299997      -4.35467376E-21
  -15.0200005       6.01661572E-21
  -15.0100002       2.26309475E-20
  -15.0000000       4.07109475E-20
  -14.9899998       5.00227103E-20
  -14.9799995       3.64150497E-20
  -14.9700003      -1.27326975E-20
  -14.9600000      -9.91591807E-20
  -14.9499998      -2.02960900E-19
  -14.9399996      -2.75926178E-19
  -14.9300003      -2.46608106E-19
  -14.9200001      -4.38960873E-20
  -14.9099998       3.59904785E-19
  -14.8999996       8.96355039E-19
  -14.8900003       1.36228148E-18
  -14.8800001       1.42928486E-18
  -14.8699999       7.33766537E-19
  -14.8599997      -9.41985527E-19
  -14.8500004      -3.43183153E-18
  -14.8400002      -5.98305775E-18
  -14.8299999      -7.22988033E-18
  -14.8199997      -5.48837480E-18
  -14.8100004       5.55695334E-19
  -14.8000002       1.08600493E-17
  -14.7900000       2.30636649E-17
  -14.7799997       3.20864518E-17
  -14.7700005       3.08952058E-17
  -14.7600002       1.28320727E-17
  -14.7500000      -2.46584873E-17
  -14.7399998      -7.59054481E-17
  -14.7299995      -1.24362582E-16
  -14.7200003      -1.43753217E-16
  -14.7100000      -1.04886548E-16
  -14.6999998       1.16669954E-17
  -14.6899996       1.99671355E-16
  -14.6800003       4.13962604E-16
  -14.6700001       5.67977837E-16
  -14.6599998       5.49848579E-16
  -14.6499996       2.60462287E-16
  -14.6400003      -3.31695005E-16
  -14.6300001      -1.13516730E-15
  -14.6199999      -1.90541290E-15
  -14.6099997      -2.26864964E-15
  -14.6000004      -1.81901935E-15
  -14.5900002      -2.85620330E-16
  -14.5799999       2.26860199E-15
  -14.5699997       5.28861284E-15
  -14.5600004       7.70318105E-15
  -14.5500002       8.11715061E-15
  -14.5400000       5.24926519E-15
  -14.5299997      -1.44909423E-15
  -14.5200005      -1.11712118E-14
  -14.5100002      -2.13956541E-14
  -14.5000000      -2.80778513E-14
  -14.4899998      -2.65841070E-14
  -14.4799995      -1.33376163E-14
  -14.4700003       1.21697459E-14
  -14.4600000       4.56636715E-14
  -14.4499998       7.75216818E-14
  -14.4399996       9.41238054E-14
  -14.4300003       8.14563532E-14
  -14.4200001       3.05380585E-14
  -14.4099998      -5.66905768E-14
  -14.3999996      -1.63151624E-13
  -14.3900003      -2.56490386E-13
  -14.3800001      -2.94844769E-13
  -14.3699999      -2.38797860E-13
  -14.3599997      -6.75157833E-14
  -14.3500004       2.05369115E-13
  -14.3400002       5.22284581E-13
  -14.3299999       7.84868698E-13
  -14.3199997       8.73605929E-13
  -14.3100004       6.83230490E-13
  -14.3000002       1.66964654E-13
  -14.2900000      -6.23212799E-13
  -14.2799997      -1.51643932E-12
  -14.2700005      -2.23790626E-12
  -14.2600002      -2.46650920E-12
  -14.2500000      -1.93047965E-12
  -14.2399998      -5.20860427E-13
  -14.2299995       1.61052996E-12
  -14.2200003       4.00833229E-12
  -14.2100000       5.96016465E-12
  -14.1999998       6.64722184E-12
  -14.1899996       5.38303560E-12
  -14.1800003       1.88913967E-12
  -14.1700001      -3.47289710E-12
  -14.1599998      -9.60465041E-12
  -14.1499996      -1.47853379E-11
  -14.1400003      -1.70269753E-11
  -14.1300001      -1.46300003E-11
  -14.1199999      -6.82096567E-12
  -14.1099997       5.70831490E-12
  -14.1000004       2.05626974E-11
  -14.0900002       3.38722557E-11
  -14.0799999       4.10532545E-11
  -14.0699997       3.80158648E-11
  -14.0600004       2.25703154E-11
  -14.0500002      -4.34973281E-12
  -14.0400000      -3.80742694E-11
  -14.0299997      -7.05512523E-11
  -14.0200005      -9.18216059E-11
  -14.0100002      -9.24679430E-11
  -14.0000000      -6.65543037E-11
  -13.9899998      -1.43032851E-11
  -13.9799995       5.63533248E-11
  -13.9700003       1.30097599E-10
  -13.9600000       1.86787946E-10
  -13.9499998       2.06056838E-10
  -13.9399996       1.73088335E-10
  -13.9300003       8.41704345E-11
  -13.9200001      -4.96289433E-11
  -13.9099998      -2.02163730E-10
  -13.8999996      -3.36112416E-10
  -13.8900003      -4.10899481E-10
  -13.8800001      -3.93237859E-10
  -13.8699999      -2.67859873E-10
  -13.8599997      -4.54326472E-11
  -13.8500004       2.35120728E-10
  -13.8400002       5.11653775E-10
  -13.8299999       7.11187331E-10
  -13.8199997       7.67556185E-10
  -13.8100004       6.40388076E-10
  -13.8000002       3.30352079E-10
  -13.7900000      -1.14166149E-10
  -13.7799997      -6.02227435E-10
  -13.7700005      -1.01783360E-09
  -13.7600002      -1.24680510E-09
  -13.7500000      -1.20706656E-09
  -13.7399998      -8.74450512E-10
  -13.7299995      -2.96258545E-10
  -13.7200003       4.12739315E-10
  -13.7100000       1.09304998E-09
  -13.6999998       1.57787849E-09
  -13.6899996       1.73642478E-09
  -13.6800003       1.51159574E-09
  -13.6700001       9.40764244E-10
  -13.6599998       1.51944929E-10
  -13.6499996      -6.66010247E-10
  -13.6400003      -1.31299205E-09
  -13.6300001      -1.63417313E-09
  -13.6199999      -1.56715430E-09
  -13.6099997      -1.16430754E-09
  -13.6000004      -5.80768600E-10
  -13.5900002      -2.81601079E-11
  -13.5799999       2.95090397E-10
  -13.5699997       2.76882239E-10
  -13.5600004      -5.57281062E-11
  -13.5500002      -5.24931376E-10
  -13.5400000      -8.42568626E-10
  -13.5299997      -6.98274383E-10
  -13.5200005       1.25190400E-10
  -13.5100002       1.64236635E-09
  -13.5000000       3.59863295E-09
  -13.4899998       5.47767032E-09
  -13.4799995       6.59654242E-09
  -13.4700003       6.27778185E-09
  -13.4600000       4.06250278E-09
  -13.4499998      -9.06539704E-11
  -13.4399996      -5.68208014E-09
  -13.4300003      -1.16744472E-08
  -13.4200001      -1.66467160E-08
  -13.4099998      -1.90850393E-08
  -13.3999996      -1.77570652E-08
  -13.3900003      -1.20837038E-08
  -13.3800001      -2.41097298E-09
  -13.3699999       9.90490356E-09
  -13.3599997       2.26489210E-08
  -13.3500004       3.31303980E-08
  -13.3400002       3.87337273E-08
  -13.3299999       3.75222626E-08
  -13.3199997       2.87559061E-08
  -13.3100004       1.31882185E-08
  -13.3000002      -6.94694036E-09
  -13.2900000      -2.82801480E-08
  -13.2799997      -4.69273189E-08
  -13.2700005      -5.92566138E-08
  -13.2600002      -6.26327576E-08
  -13.2500000      -5.59653230E-08
  -13.2399998      -3.99345303E-08
  -13.2299995      -1.68410441E-08
  -13.2200003       9.87766668E-09
  -13.2100000       3.63396673E-08
  -13.1999998       5.89414846E-08
  -13.1899996       7.49349169E-08
  -13.1800003       8.27242133E-08
  -13.1700001       8.18397297E-08
  -13.1599998       7.26461593E-08
  -13.1499996       5.59267583E-08
  -13.1400003       3.25263656E-08
  -13.1300001       3.22243210E-09
  -13.1199999      -3.10949559E-08
  -13.1099997      -6.89638782E-08
  -13.1000004      -1.07772649E-07
  -13.0900002      -1.43308370E-07
  -13.0799999      -1.69705487E-07
  -13.0699997      -1.79993478E-07
  -13.0600004      -1.67298069E-07
  -13.0500002      -1.26550418E-07
  -13.0400000      -5.63636995E-08
  -13.0299997       3.93998540E-08
  -13.0200005       1.50876801E-07
  -13.0100002       2.62662212E-07
  -13.0000000       3.55641276E-07
  -12.9899998       4.10044805E-07
  -12.9799995       4.09250390E-07
  -12.9700003       3.43600959E-07
  -12.9600000       2.13406139E-07
  -12.9499998       3.03794536E-08
  -12.9399996      -1.82987890E-07
  -12.9300003      -3.96199738E-07
  -12.9200001      -5.75308661E-07
  -12.9099998      -6.88503405E-07
  -12.8999996      -7.11699045E-07
  -12.8900003      -6.33091872E-07
  -12.8800001      -4.55812369E-07
  -12.8699999      -1.98163107E-07
  -12.8599997       1.08588978E-07
  -12.8500004       4.24440259E-07
  -12.8400002       7.06151525E-07
  -12.8299999       9.13085785E-07
  -12.8199997       1.01252488E-06
  -12.8100004       9.83797577E-07
  -12.8000002       8.20876437E-07
  -12.7900000       5.33415800E-07
  -12.7799997       1.46394029E-07
  -12.7700005      -3.01407056E-07
  -12.7600002      -7.59890156E-07
  -12.7500000      -1.17111813E-06
  -12.7399998      -1.47392882E-06
  -12.7299995      -1.60985996E-06
  -12.7200003      -1.53042811E-06
  -12.7100000      -1.20542950E-06
  -12.6999998      -6.31443925E-07
  -12.6899996       1.60855322E-07
  -12.6800003       1.10231917E-06
  -12.6700001       2.08568554E-06
  -12.6599998       2.97214160E-06
  -12.6499996       3.60472109E-06
  -12.6400003       3.82793905E-06
  -12.6300001       3.51173003E-06
  -12.6199999       2.57659190E-06
  -12.6099997       1.01574665E-06
  -12.6000004      -1.08956408E-06
  -12.5900002      -3.56548685E-06
  -12.5799999      -6.15377985E-06
  -12.5699997      -8.53309757E-06
  -12.5600004      -1.03517832E-05
  -12.5500002      -1.12683119E-05
  -12.5400000      -1.09945677E-05
  -12.5299997      -9.33607225E-06
  -12.5200005      -6.22444850E-06
  -12.5100002      -1.73766239E-06
  -12.5000000       3.89397383E-06
  -12.4899998       1.02961740E-05
  -12.4799995       1.69721752E-05
  -12.4700003       2.33345418E-05
  -12.4600000       2.87435541E-05
  -12.4499998       3.25488545E-05
  -12.4399996       3.41315172E-05
  -12.4300003       3.29435570E-05
  -12.4200001       2.85437927E-05
  -12.4099998       2.06281638E-05
  -12.3999996       9.05281468E-06
  -12.3900003      -6.15045928E-06
  -12.3800001      -2.47697262E-05
  -12.3699999      -4.64198893E-05
  -12.3599997      -7.05614511E-05
  -12.3500004      -9.65332874E-05
  -12.3400002      -1.23593345E-04
  -12.3299999      -1.50966283E-04
  -12.3199997      -1.77891459E-04
  -12.3100004      -2.03662916E-04
  -12.3000002      -2.27657074E-04
  -12.2900000      -2.49342411E-04
  -12.2799997      -2.68266856E-04
  -12.2700005      -2.84031412E-04
  -12.2600002      -2.96242943E-04
  -12.2500000      -3.04471760E-04
  -12.2399998      -3.08202987E-04
  -12.2299995      -3.06814356E-04
  -12.2200003      -2.99570384E-04
  -12.2100000      -2.85644986E-04
  -12.1999998      -2.64176575E-04
  -12.1899996      -2.34340085E-04
  -12.1800003      -1.95435583E-04
  -12.1700001      -1.46984981E-04
  -12.1599998      -8.88062204E-05
  -12.1499996      -2.10836242E-05
  -12.1400003       5.56018640E-05
  -12.1300001       1.40268938E-04
  -12.1199999       2.31564976E-04
  -12.1099997       3.27827031E-04
  -12.1000004       4.27156861E-04
  -12.0900002       5.27519675E-04
  -12.0799999       6.26844587E-04
  -12.0699997       7.23120116E-04
  -12.0600004       8.14488914E-04
  -12.0500002       8.99316336E-04
  -12.0400000       9.76250041E-04
  -12.0299997       1.04425312E-03
  -12.0200005       1.10260653E-03
  -12.0100002       1.15089642E-03
  -12.0000000       1.18896819E-03
  -11.9899998       1.21686107E-03
  -11.9799995       1.23473222E-03
  -11.9700003       1.24276592E-03
  -11.9600000       1.24109129E-03
  -11.9499998       1.22970145E-03
  -11.9399996       1.20840187E-03
  -11.9300003       1.17678253E-03
  -11.9200001       1.13421725E-03
  -11.9099998       1.07990019E-03
  -11.8999996       1.01290597E-03
  -11.8900003       9.32272524E-04
  -11.8800001       8.37090716E-04
  -11.8699999       7.26610771E-04
  -11.8599997       6.00321218E-04
  -11.8500004       4.58025781E-04
  -11.8400002       2.99896521E-04
  -11.8299999       1.26498577E-04
  -11.8199997      -6.12006043E-05
  -11.8100004      -2.61861249E-04
  -11.8000002      -4.73800959E-04
  -11.7900000      -6.95065304E-04
  -11.7799997      -9.23474145E-04
  -11.7700005      -1.15671405E-03
  -11.7600002      -1.39239756E-03
  -11.7500000      -1.62813708E-03
  -11.7399998      -1.86160486E-03
  -11.7299995      -2.09057634E-03
  -11.7200003      -2.31295847E-03
  -11.7100000      -2.52680620E-03
  -11.6999998      -2.73031206E-03
  -11.6899996      -2.92178500E-03
  -11.6800003      -3.09962360E-03
  -11.6700001      -3.26227653E-03
  -11.6599998      -3.40820034E-03
  -11.6499996      -3.53584834E-03
  -11.6400003      -3.64364823E-03
  -11.6300001      -3.73000884E-03
  -11.6199999      -3.79333785E-03
  -11.6099997      -3.83209833E-03
  -11.6000004      -3.84483696E-03
  -11.5900002      -3.83024570E-03
  -11.5799999      -3.78720602E-03
  -11.5699997      -3.71481525E-03
  -11.5600004      -3.61241377E-03
  -11.5500002      -3.47958086E-03
  -11.5400000      -3.31611070E-03
  -11.5299997      -3.12198605E-03
  -11.5200005      -2.89733266E-03
  -11.5100002      -2.64238985E-03
  -11.5000000      -2.35747825E-03
  -11.4899998      -2.04296550E-03
  -11.4799995      -1.69927452E-03
  -11.4700003      -1.32687355E-03
  -11.4600000      -9.26294480E-04
  -11.4499998      -4.98141977E-04
  -11.4399996      -4.30996552E-05
  -11.4300003       4.38034243E-04
  -11.4200001       9.44384781E-04
  -11.4099998       1.47496257E-03
  -11.3999996       2.02867691E-03
  -11.3900003       2.60433857E-03
  -11.3800001       3.20064742E-03
  -11.3699999       3.81617504E-03
  -11.3599997       4.44937032E-03
  -11.3500004       5.09851333E-03
  -11.3400002       5.76173700E-03
  -11.3299999       6.43700827E-03
  -11.3199997       7.12215621E-03
  -11.3100004       7.81489536E-03
  -11.3000002       8.51289649E-03
  -11.2900000       9.21380706E-03
  -11.2799997       9.91537049E-03
  -11.2700005       1.06154503E-02
  -11.2600002       1.13121299E-02
  -11.2500000       1.20037105E-02
  -11.2399998       1.26887774E-02
  -11.2299995       1.33661861E-02
  -11.2200003       1.40350675E-02
  -11.2100000       1.46947755E-02
  -11.1999998       1.53448554E-02
  -11.1899996       1.59850158E-02
  -11.1800003       1.66150276E-02
  -11.1700001       1.72347315E-02
  -11.1599998       1.78439431E-02
  -11.1499996       1.84424464E-02
  -11.1400003       1.90299973E-02
  -11.1300001       1.96062829E-02
  -11.1199999       2.01709643E-02
  -11.1099997       2.07236838E-02
  -11.1000004       2.12641228E-02
  -11.0900002       2.17920076E-02
  -11.0799999       2.23071091E-02
  -11.0699997       2.28093397E-02
  -11.0600004       2.32986640E-02
  -11.0500002       2.37751063E-02
  -11.0400000       2.42387280E-02
  -11.0299997       2.46895775E-02
  -11.0200005       2.51276363E-02
  -11.0100002       2.55528111E-02
  -11.0000000       2.59648878E-02
  -10.9899998       2.63635181E-02
  -10.9799995       2.67482381E-02
  -10.9700003       2.71184854E-02
  -10.9600000       2.74736378E-02
  -10.9499998       2.78130751E-02
  -10.9399996       2.81361770E-02
  -10.9300003       2.84423884E-02
  -10.9200001       2.87312679E-02
  -10.9099998       2.90025044E-02
  -10.8999996       2.92558949E-02
  -10.8900003       2.94914227E-02
  -10.8800001       2.97091790E-02
  -10.8699999       2.99093761E-02
  -10.8599997       3.00923269E-02
  -10.8500004       3.02584097E-02
  -10.8400002       3.04080676E-02
  -10.8299999       3.05416919E-02
  -10.8199997       3.06596681E-02
  -10.8100004       3.07622924E-02
  -10.8000002       3.08497436E-02
  -10.7900000       3.09220385E-02
  -10.7799997       3.09790466E-02
  -10.7700005       3.10204402E-02
  -10.7600002       3.10457367E-02
  -10.7500000       3.10543012E-02
  -10.7399998       3.10454778E-02
  -10.7299995       3.10185067E-02
  -10.7200003       3.09727676E-02
  -10.7100000       3.09077781E-02
  -10.6999998       3.08232922E-02
  -10.6899996       3.07193510E-02
  -10.6800003       3.05963773E-02
  -10.6700001       3.04550845E-02
  -10.6599998       3.02965604E-02
  -10.6499996       3.01221907E-02
  -10.6400003       2.99335923E-02
  -10.6300001       2.97325347E-02
  -10.6199999       2.95209624E-02
  -10.6099997       2.93008517E-02
  -10.6000004       2.90742647E-02
  -10.5900002       2.88432576E-02
  -10.5799999       2.86098756E-02
  -10.5699997       2.83762310E-02
  -10.5600004       2.81443801E-02
  -10.5500002       2.79163811E-02
  -10.5400000       2.76942831E-02
  -10.5299997       2.74799839E-02
  -10.5200005       2.72753555E-02
  -10.5100002       2.70820595E-02
  -10.5000000       2.69015003E-02
  -10.4899998       2.67349221E-02
  -10.4799995       2.65831612E-02
  -10.4700003       2.64467448E-02
  -10.4600000       2.63258740E-02
  -10.4499998       2.62203645E-02
  -10.4399996       2.61296965E-02
  -10.4300003       2.60529760E-02
  -10.4200001       2.59890351E-02
  -10.4099998       2.59363558E-02
  -10.3999996       2.58932356E-02
  -10.3900003       2.58577559E-02
  -10.3800001       2.58279387E-02
  -10.3699999       2.58017126E-02
  -10.3599997       2.57771630E-02
  -10.3500004       2.57524010E-02
  -10.3400002       2.57259440E-02
  -10.3299999       2.56965216E-02
  -10.3199997       2.56632064E-02
  -10.3100004       2.56254319E-02
  -10.3000002       2.55829804E-02
  -10.2900000       2.55358983E-02
  -10.2799997       2.54845135E-02
  -10.2700005       2.54292581E-02
  -10.2600002       2.53707860E-02
  -10.2500000       2.53098104E-02
  -10.2399998       2.52472218E-02
  -10.2299995       2.51839198E-02
  -10.2200003       2.51210406E-02
  -10.2100000       2.50598583E-02
  -10.1999998       2.50018556E-02
  -10.1899996       2.49486119E-02
  -10.1800003       2.49018669E-02
  -10.1700001       2.48635598E-02
  -10.1599998       2.48355586E-02
  -10.1499996       2.48198193E-02
  -10.1400003       2.48182453E-02
  -10.1300001       2.48326585E-02
  -10.1199999       2.48648301E-02
  -10.1099997       2.49164067E-02
  -10.1000004       2.49888916E-02
  -10.0900002       2.50837319E-02
  -10.0799999       2.52022054E-02
  -10.0699997       2.53453795E-02
  -10.0600004       2.55142748E-02
  -10.0500002       2.57096309E-02
  -10.0400000       2.59319264E-02
  -10.0299997       2.61815283E-02
  -10.0200005       2.64586322E-02
  -10.0100002       2.67632026E-02
  -10.0000000       2.70952433E-02
  -9.98999977       2.74547506E-02
  -9.97999954       2.78417207E-02
  -9.97000027       2.82564424E-02
  -9.96000004       2.86993925E-02
  -9.94999981       2.91712470E-02
  -9.93999958       2.96729486E-02
  -9.93000031       3.02056894E-02
  -9.92000008       3.07707675E-02
  -9.90999985       3.13697569E-02
  -9.89999962       3.20041254E-02
  -9.89000034       3.26755084E-02
  -9.88000011       3.33854482E-02
  -9.86999989       3.41355093E-02
  -9.85999966       3.49272080E-02
  -9.85000038       3.57619226E-02
  -9.84000015       3.66409831E-02
  -9.82999992       3.75658162E-02
  -9.81999969       3.85375991E-02
  -9.81000042       3.95576842E-02
  -9.80000019       4.06271480E-02
  -9.78999996       4.17470485E-02
  -9.77999973       4.29184698E-02
  -9.77000046       4.41421978E-02
  -9.76000023       4.54187281E-02
  -9.75000000       4.67484966E-02
  -9.73999977       4.81314957E-02
  -9.72999954       4.95673753E-02
  -9.72000027       5.10554053E-02
  -9.71000004       5.25943823E-02
  -9.69999981       5.41826300E-02
  -9.68999958       5.58179878E-02
  -9.68000031       5.74978516E-02
  -9.67000008       5.92190288E-02
  -9.65999985       6.09777682E-02
  -9.64999962       6.27700388E-02
  -9.64000034       6.45910949E-02
  -9.63000011       6.64358139E-02
  -9.61999989       6.82987943E-02
  -9.60999966       7.01741651E-02
  -9.60000038       7.20559284E-02
  -9.59000015       7.39378035E-02
  -9.57999992       7.58135617E-02
  -9.56999969       7.76767656E-02
  -9.56000042       7.95212239E-02
  -9.55000019       8.13407153E-02
  -9.53999996       8.31293836E-02
  -9.52999973       8.48811865E-02
  -9.52000046       8.65909457E-02
  -9.51000023       8.82534832E-02
  -9.50000000       8.98642838E-02
  -9.48999977       9.14193168E-02
  -9.47999954       9.29151773E-02
  -9.47000027       9.43493545E-02
  -9.46000004       9.57200751E-02
  -9.44999981       9.70262885E-02
  -9.43999958       9.82680917E-02
  -9.43000031       9.94463116E-02
  -9.42000008      0.100562803    
  -9.40999985      0.101620212    
  -9.39999962      0.102622420    
  -9.39000034      0.103574023    
  -9.38000011      0.104480714    
  -9.36999989      0.105349176    
  -9.35999966      0.106186807    
  -9.35000038      0.107001953    
  -9.34000015      0.107803650    
  -9.32999992      0.108601563    
  -9.31999969      0.109405845    
  -9.31000042      0.110227302    
  -9.30000019      0.111076966    
  -9.28999996      0.111966364    
  -9.27999973      0.112906888    
  -9.27000046      0.113910109    
  -9.26000023      0.114987895    
  -9.25000000      0.116151430    
  -9.23999977      0.117411472    
  -9.22999954      0.118778214    
  -9.22000027      0.120260842    
  -9.21000004      0.121867150    
  -9.19999981      0.123604082    
  -9.18999958      0.125477090    
  -9.18000031      0.127489835    
  -9.17000008      0.129645139    
  -9.15999985      0.131944016    
  -9.14999962      0.134386033    
  -9.14000034      0.136969432    
  -9.13000011      0.139691398    
  -9.11999989      0.142547250    
  -9.10999966      0.145531535    
  -9.10000038      0.148636758    
  -9.09000015      0.151854932    
  -9.07999992      0.155176908    
  -9.06999969      0.158592343    
  -9.06000042      0.162090093    
  -9.05000019      0.165658310    
  -9.03999996      0.169284344    
  -9.02999973      0.172955424    
  -9.02000046      0.176657319    
  -9.01000023      0.180375740    
  -9.00000000      0.184095755    
  -8.98999977      0.187801957    
  -8.97999954      0.191479191    
  -8.97000027      0.195111275    
  -8.96000004      0.198682874    
  -8.94999981      0.202178597    
  -8.93999958      0.205583319    
  -8.93000031      0.208883002    
  -8.92000008      0.212063298    
  -8.90999985      0.215111256    
  -8.89999962      0.218014687    
  -8.89000034      0.220761910    
  -8.88000011      0.223342910    
  -8.86999989      0.225747660    
  -8.85999966      0.227968454    
  -8.85000038      0.229998335    
  -8.84000015      0.231831536    
  -8.82999992      0.233464032    
  -8.81999969      0.234892517    
  -8.81000042      0.236115843    
  -8.80000019      0.237133041    
  -8.78999996      0.237945050    
  -8.77999973      0.238554046    
  -8.77000046      0.238962844    
  -8.76000023      0.239176214    
  -8.75000000      0.239199147    
  -8.73999977      0.239038885    
  -8.72999954      0.238703161    
  -8.72000027      0.238201365    
  -8.71000004      0.237543672    
  -8.69999981      0.236741155    
  -8.68999958      0.235806212    
  -8.68000031      0.234751761    
  -8.67000008      0.233591393    
  -8.65999985      0.232339695    
  -8.64999962      0.231010735    
  -8.64000034      0.229619041    
  -8.63000011      0.228178769    
  -8.61999989      0.226703972    
  -8.60999966      0.225207865    
  -8.60000038      0.223702490    
  -8.59000015      0.222200006    
  -8.57999992      0.220711499    
  -8.56999969      0.219246328    
  -8.56000042      0.217814162    
  -8.55000019      0.216423765    
  -8.53999996      0.215082631    
  -8.52999973      0.213798374    
  -8.52000046      0.212577164    
  -8.51000023      0.211424649    
  -8.50000000      0.210345760    
  -8.48999977      0.209344253    
  -8.47999954      0.208423674    
  -8.47000027      0.207586691    
  -8.46000004      0.206835330    
  -8.44999981      0.206171170    
  -8.43999958      0.205596119    
  -8.43000031      0.205111071    
  -8.42000008      0.204717234    
  -8.40999985      0.204415604    
  -8.39999962      0.204206929    
  -8.39000034      0.204092622    
  -8.38000011      0.204073355    
  -8.36999989      0.204150856    
  -8.35999966      0.204326317    
  -8.35000038      0.204602689    
  -8.34000015      0.204981059    
  -8.32999992      0.205465779    
  -8.31999969      0.206059739    
  -8.31000042      0.206766456    
  -8.30000019      0.207590714    
  -8.28999996      0.208536908    
  -8.27999973      0.209609747    
  -8.27000046      0.210814163    
  -8.26000023      0.212155685    
  -8.25000000      0.213639349    
  -8.23999977      0.215271294    
  -8.22999954      0.217056707    
  -8.22000027      0.219001859    
  -8.21000004      0.221111640    
  -8.19999981      0.223393187    
  -8.18999958      0.225851238    
  -8.18000031      0.228492633    
  -8.17000008      0.231321841    
  -8.15999985      0.234344989    
  -8.14999962      0.237566486    
  -8.14000034      0.240991220    
  -8.13000011      0.244622067    
  -8.11999989      0.248463482    
  -8.10999966      0.252516061    
  -8.10000038      0.256781846    
  -8.09000015      0.261260957    
  -8.07999992      0.265953004    
  -8.06999969      0.270856291    
  -8.06000042      0.275968671    
  -8.05000019      0.281286836    
  -8.03999996      0.286806196    
  -8.02999973      0.292522311    
  -8.02000046      0.298428833    
  -8.01000023      0.304518104    
  -8.00000000      0.310783774    
  -7.98999977      0.317217499    
  -7.98000002      0.323810279    
  -7.96999979      0.330553532    
  -7.96000004      0.337437838    
  -7.94999981      0.344452947    
  -7.94000006      0.351588964    
  -7.92999983      0.358834922    
  -7.92000008      0.366180569    
  -7.90999985      0.373612911    
  -7.90000010      0.381121248    
  -7.88999987      0.388693690    
  -7.88000011      0.396318555    
  -7.86999989      0.403984308    
  -7.86000013      0.411679268    
  -7.84999990      0.419393361    
  -7.84000015      0.427115232    
  -7.82999992      0.434834182    
  -7.82000017      0.442539722    
  -7.80999994      0.450221926    
  -7.80000019      0.457871020    
  -7.78999996      0.465477079    
  -7.78000021      0.473031461    
  -7.76999998      0.480526209    
  -7.76000023      0.487953812    
  -7.75000000      0.495308697    
  -7.73999977      0.502584219    
  -7.73000002      0.509775639    
  -7.71999979      0.516878903    
  -7.71000004      0.523890913    
  -7.69999981      0.530808687    
  -7.69000006      0.537630379    
  -7.67999983      0.544356227    
  -7.67000008      0.550985575    
  -7.65999985      0.557520390    
  -7.65000010      0.563964128    
  -7.63999987      0.570320010    
  -7.63000011      0.576593280    
  -7.61999989      0.582787633    
  -7.61000013      0.588911355    
  -7.59999990      0.594971359    
  -7.59000015      0.600976288    
  -7.57999992      0.606934845    
  -7.57000017      0.612858653    
  -7.55999994      0.618757486    
  -7.55000019      0.624644935    
  -7.53999996      0.630532205    
  -7.53000021      0.636433363    
  -7.51999998      0.642358422    
  -7.51000023      0.648319960    
  -7.50000000      0.654330254    
  -7.48999977      0.660401106    
  -7.48000002      0.666543305    
  -7.46999979      0.672769129    
  -7.46000004      0.679088831    
  -7.44999981      0.685514867    
  -7.44000006      0.692056894    