  -16.0000000       0.00000000    
  -15.9899998       0.00000000    
  -15.9799995       0.00000000    
  -15.9700003       0.00000000    
  -15.9600000       0.00000000    
  -15.9499998       0.00000000    
  -15.9399996       0.00000000    
  -15.9300003       0.00000000    
  -15.9200001       0.00000000    
  -15.9099998       0.00000000    
  -15.8999996       0.00000000    
  -15.8900003       0.00000000    
  -15.8800001       0.00000000    
  -15.8699999      -0.00000000    
  -15.8599997      -0.00000000    
  -15.8500004      -1.54142831E-44
  -15.8400002      -2.12997367E-43
  -15.8299999      -2.20143989E-42
  -15.8199997      -1.77124126E-41
  -15.8100004      -1.16112992E-40
  -15.8000002      -6.41201947E-40
  -15.7900000      -3.05479282E-39
  -15.7799997      -1.27811746E-38
  -15.7700005      -4.76002591E-38
  -15.7600002      -1.59414337E-37
  -15.7500000      -4.83746884E-37
  -15.7399998      -1.33720455E-36
  -15.7299995      -3.37802667E-36
  -15.7200003      -7.80623170E-36
  -15.7100000      -1.64735618E-35
  -15.6999998      -3.15713475E-35
  -15.6899996      -5.42944253E-35
  -15.6800003      -8.17092207E-35
  -15.6700001      -1.01372498E-34
  -15.6599998      -8.46362017E-35
  -15.6499996       1.74980929E-35
  -15.6400003       2.67994919E-34
  -15.6300001       7.15734220E-34
  -15.6199999       1.33698147E-33
  -15.6099997       1.95121336E-33
  -15.6000004       2.14433367E-33
  -15.5900002       1.26901990E-33
  -15.5799999      -1.38432221E-33
  -15.5699997      -6.17734918E-33
  -15.5600004      -1.25123659E-32
  -15.5500002      -1.82445393E-32
  -15.5400000      -1.95375801E-32
  -15.5299997      -1.16394865E-32
  -15.5200005       9.18596085E-33
  -15.5100002       4.29144041E-32
  -15.5000000       8.32418978E-32
  -15.4899998       1.16665675E-31
  -15.4799995       1.24044817E-31
  -15.4700003       8.42669230E-32
  -15.4600000      -2.13278991E-32
  -15.4499998      -2.04111428E-31
  -15.4399996      -4.59472718E-31
  -15.4300003      -7.46730670E-31
  -15.4200001      -9.52869357E-31
  -15.4099998      -8.53748758E-31
  -15.3999996      -1.21827012E-31
  -15.3900003       1.53760172E-30
  -15.3800001       4.05538366E-30
  -15.3699999       6.52723463E-30
  -15.3599997       6.89781815E-30
  -15.3500004       2.35751881E-30
  -15.3400002      -8.96642415E-30
  -15.3299999      -2.50027400E-29
  -15.3199997      -3.67201655E-29
  -15.3100004      -2.81327237E-29
  -15.3000002       1.67758504E-29
  -15.2900000       9.82431550E-29
  -15.2799997       1.80370730E-28
  -15.2700005       1.80442302E-28
  -15.2600002      -9.54037459E-30
  -15.2500000      -4.49581094E-28
  -15.2399998      -1.03211106E-27
  -15.2299995      -1.37116024E-27
  -15.2200003      -8.13078993E-28
  -15.2100000       1.29484006E-27
  -15.1999998       5.01144382E-27
  -15.1899996       9.02502405E-27
  -15.1800003       1.01509481E-26
  -15.1700001       3.84275525E-27
  -15.1599998      -1.35719467E-26
  -15.1499996      -4.08587424E-26
  -15.1400003      -6.73473974E-26
  -15.1300001      -7.09757816E-26
  -15.1199999      -2.31573401E-26
  -15.1099997       9.61791850E-26
  -15.1000004       2.74377804E-25
  -15.0900002       4.41541867E-25
  -15.0799999       4.63520863E-25
  -15.0699997       1.74654803E-25
  -15.0600004      -5.34862830E-25
  -15.0500002      -1.58699487E-24
  -15.0400000      -2.58981655E-24
  -15.0299997      -2.81010339E-24
  -15.0200005      -1.35322984E-24
  -15.0100002       2.38464862E-24
  -15.0000000       8.05242785E-24
  -14.9899998       1.37206940E-23
  -14.9799995       1.57412697E-23
  -14.9700003       9.59189937E-24
  -14.9600000      -8.00477829E-24
  -14.9499998      -3.59693278E-23
  -14.9399996      -6.58934378E-23
  -14.9300003      -8.11616702E-23
  -14.9200001      -6.03794326E-23
  -14.9099998       1.35739470E-23
  -14.8999996       1.39924500E-22
  -14.8900003       2.86409318E-22
  -14.8800001       3.83753189E-22
  -14.8699999       3.37516600E-22
  -14.8599997       6.33665838E-23
  -14.8500004      -4.57277701E-22
  -14.8400002      -1.11809898E-21
  -14.8299999      -1.65609707E-21
  -14.8199997      -1.68436015E-21
  -14.8100004      -8.16511830E-22
  -14.8000002       1.12200356E-21
  -14.7900000       3.85144381E-21
  -14.7799997       6.47406639E-21
  -14.7700005       7.52980411E-21
  -14.7600002       5.38720155E-21
  -14.7500000      -1.01675270E-21
  -14.7399998      -1.12488041E-20
  -14.7299995      -2.26246790E-20
  -14.7200003      -3.01259211E-20
  -14.7100000      -2.74522052E-20
  -14.6999998      -9.38043171E-21
  -14.6899996       2.49540067E-20
  -14.6800003       6.89315131E-20
  -14.6700001       1.07119689E-19
  -14.6599998       1.17462245E-19
  -14.6499996       7.79845008E-20
  -14.6400003      -2.26052742E-20
  -14.6300001      -1.73272353E-19
  -14.6199999      -3.32928668E-19
  -14.6099997      -4.32481224E-19
  -14.6000004      -3.91130052E-19
  -14.5900002      -1.47157602E-19
  -14.5799999       3.03155904E-19
  -14.5699997       8.71994053E-19
  -14.5600004       1.36999514E-18
  -14.5500002       1.53668713E-18
  -14.5400000       1.11873779E-18
  -14.5299997      -1.42787336E-20
  -14.5200005      -1.74877107E-18
  -14.5100002      -3.65123974E-18
  -14.5000000      -4.99322035E-18
  -14.4899998      -4.91585911E-18
  -14.4799995      -2.73122196E-18
  -14.4700003       1.70263383E-18
  -14.4600000       7.65683539E-18
  -14.4499998       1.34175263E-17
  -14.4399996       1.65279339E-17
  -14.4300003       1.44496492E-17
  -14.4200001       5.56076716E-18
  -14.4099998      -9.76670678E-18
  -14.3999996      -2.84129129E-17
  -14.3900003      -4.45256567E-17
  -14.3800001      -5.06319536E-17
  -14.3699999      -3.98716342E-17
  -14.3599997      -8.94413191E-18
  -14.3500004       3.90905738E-17
  -14.3400002       9.33085010E-17
  -14.3299999       1.35825254E-16
  -14.3199997       1.45726751E-16
  -14.3100004       1.05727916E-16
  -14.3000002       1.01047077E-17
  -14.2900000      -1.28593855E-16
  -14.2799997      -2.77027605E-16
  -14.2700005      -3.85256948E-16
  -14.2600002      -3.98594461E-16
  -14.2500000      -2.75590084E-16
  -14.2399998      -7.83225724E-18
  -14.2299995       3.64934722E-16
  -14.2200003       7.51450520E-16
  -14.2100000       1.02261885E-15
  -14.1999998       1.04323574E-15
  -14.1899996       7.16723175E-16
  -14.1800003       3.16010622E-17
  -14.1700001      -9.05834186E-16
  -14.1599998      -1.86833594E-15
  -14.1499996      -2.54454711E-15
  -14.1400003      -2.61593992E-15
  -14.1300001      -1.86034693E-15
  -14.1199999      -2.55539093E-16
  -14.1099997       1.95157662E-15
  -14.1000004       4.24318529E-15
  -14.0900002       5.91645907E-15
  -14.0799999       6.25427698E-15
  -14.0699997       4.74947721E-15
  -14.0600004       1.32540952E-15
  -14.0500002      -3.51865745E-15
  -14.0400000      -8.70361590E-15
  -14.0299997      -1.27467041E-14
  -14.0200005      -1.41094301E-14
  -14.0100002      -1.16528593E-14
  -14.0000000      -5.08650739E-15
  -13.9899998       4.72853898E-15
  -13.9799995       1.57499763E-14
  -13.9700003       2.50720245E-14
  -13.9600000       2.95756698E-14
  -13.9499998       2.67927821E-14
  -13.9399996       1.57749603E-14
  -13.9300003      -2.28869467E-15
  -13.9200001      -2.39402682E-14
  -13.9099998      -4.39487653E-14
  -13.8999996      -5.64178763E-14
  -13.8900003      -5.63090732E-14
  -13.8800001      -4.10244043E-14
  -13.8699999      -1.16087975E-14
  -13.8599997       2.68407055E-14
  -13.8500004       6.58188104E-14
  -13.8400002       9.51148408E-14
  -13.8299999       1.05281344E-13
  -13.8199997       9.03099955E-14
  -13.8100004       4.98072178E-14
  -13.8000002      -1.00093002E-14
  -13.7900000      -7.69467836E-14
  -13.7799997      -1.35172337E-13
  -13.7700005      -1.68850665E-13
  -13.7600002      -1.66272595E-13
  -13.7500000      -1.23418135E-13
  -13.7399998      -4.59179203E-14
  -13.7299995       5.13084584E-14
  -13.7200003       1.46904475E-13
  -13.7100000       2.17915313E-13
  -13.6999998       2.45505602E-13
  -13.6899996       2.20089151E-13
  -13.6800003       1.44420581E-13
  -13.6700001       3.36330898E-14
  -13.6599998      -8.80269775E-14
  -13.6499996      -1.93100771E-13
  -13.6400003      -2.57973927E-13
  -13.6300001      -2.69156767E-13
  -13.6199999      -2.26927133E-13
  -13.6099997      -1.45114498E-13
  -13.6000004      -4.68706935E-14
  -13.5900002       4.25054211E-14
  -13.5799999       1.03607844E-13
  -13.5699997       1.29278343E-13
  -13.5600004       1.27012794E-13
  -13.5500002       1.16204951E-13
  -13.5400000       1.20585928E-13
  -13.5299997       1.57889584E-13
  -13.5200005       2.30021270E-13
  -13.5100002       3.17372674E-13
  -13.5000000       3.80157223E-13
  -13.4899998       3.67809841E-13
  -13.4799995       2.35006377E-13
  -13.4700003      -3.96075689E-14
  -13.4600000      -4.37559033E-13
  -13.4499998      -8.93372290E-13
  -13.4399996      -1.30035978E-12
  -13.4300003      -1.53055671E-12
  -13.4200001      -1.46595897E-12
  -13.4099998      -1.03434394E-12
  -13.3999996      -2.40360032E-13
  -13.3900003       8.17766427E-13
  -13.3800001       1.95321970E-12
  -13.3699999       2.91983495E-12
  -13.3599997       3.46194991E-12
  -13.3500004       3.37517145E-12
  -13.3400002       2.56404576E-12
  -13.3299999       1.08153775E-12
  -13.3199997      -8.62007080E-13
  -13.3100004      -2.92638700E-12
  -13.3000002      -4.70292381E-12
  -13.2900000      -5.79825250E-12
  -13.2799997      -5.92237500E-12
  -13.2700005      -4.96022797E-12
  -13.2600002      -3.00850404E-12
  -13.2500000      -3.66862628E-13
  -13.2399998       2.51669410E-12
  -13.2299995       5.13513971E-12
  -13.2200003       7.02620427E-12
  -13.2100000       7.86612702E-12
  -13.1999998       7.53084053E-12
  -13.1899996       6.11003565E-12
  -13.1800003       3.87175014E-12
  -13.1700001       1.18823744E-12
  -13.1599998      -1.55557219E-12
  -13.1499996      -4.04484259E-12
  -13.1400003      -6.08531498E-12
  -13.1300001      -7.60761940E-12
  -13.1199999      -8.62592636E-12
  -13.1099997      -9.16654946E-12
  -13.1000004      -9.19339518E-12
  -13.0900002      -8.56093495E-12
  -13.0799999      -7.01964051E-12
  -13.0699997      -4.28427519E-12
  -13.0600004      -1.55496276E-13
  -13.0500002       5.33484151E-12
  -13.0400000       1.17984962E-11
  -13.0299997       1.84327744E-11
  -13.0200005       2.40665335E-11
  -13.0100002       2.73246634E-11
  -13.0000000       2.68949880E-11
  -12.9899998       2.18506168E-11
  -12.9799995       1.19575322E-11
  -12.9700003      -2.11119707E-12
  -12.9600000      -1.87227039E-11
  -12.9499998      -3.54322544E-11
  -12.9399996      -4.93289437E-11
  -12.9300003      -5.75306087E-11
  -12.9200001      -5.77398164E-11
  -12.9099998      -4.87511698E-11
  -12.8999996      -3.08008237E-11
  -12.8900003      -5.67527622E-12
  -12.8800001       2.34584036E-11
  -12.8699999       5.24830700E-11
  -12.8599997       7.69516673E-11
  -12.8500004       9.27876803E-11
  -12.8400002       9.69407887E-11
  -12.8299999       8.78841652E-11
  -12.8199997       6.58738827E-11
  -12.8100004       3.29395469E-11
  -12.8000002      -7.37347770E-12
  -12.7900000      -5.04492385E-11
  -12.7799997      -9.11498516E-11
  -12.7700005      -1.24383198E-10
  -12.7600002      -1.45623499E-10
  -12.7500000      -1.51347920E-10
  -12.7399998      -1.39379994E-10
  -12.7299995      -1.09149918E-10
  -12.7200003      -6.18826657E-11
  -12.7100000      -7.09666267E-13
  -12.6999998       6.93247612E-11
  -12.6899996       1.41415782E-10
  -12.6800003       2.07372119E-10
  -12.6700001       2.58261551E-10
  -12.6599998       2.85337365E-10
  -12.6499996       2.81191015E-10
  -12.6400003       2.41004133E-10
  -12.6300001       1.63711281E-10
  -12.6199999       5.28497870E-11
  -12.6099997      -8.31168814E-11
  -12.6000004      -2.31156011E-10
  -12.5900002      -3.74753839E-10
  -12.5799999      -4.95656960E-10
  -12.5699997      -5.76061532E-10
  -12.5600004      -6.00944461E-10
  -12.5500002      -5.60185620E-10
  -12.5400000      -4.50149168E-10
  -12.5299997      -2.74476664E-10
  -12.5200005      -4.39793826E-11
  -12.5100002       2.24326890E-10
  -12.5000000       5.08860953E-10
  -12.4899998       7.85501164E-10
  -12.4799995       1.02966924E-09
  -12.4700003       1.21818033E-09
  -12.4600000       1.33064737E-09
  -12.4499998       1.35034983E-09
  -12.4399996       1.26459276E-09
  -12.4300003       1.06469444E-09
  -12.4200001       7.45751239E-10
  -12.4099998       3.06356662E-10
  -12.3999996      -2.51630577E-10
  -12.3900003      -9.23244092E-10
  -12.3800001      -1.70053971E-09
  -12.3699999      -2.57280108E-09
  -12.3599997      -3.52688434E-09
  -12.3500004      -4.54775861E-09
  -12.3400002      -5.61918334E-09
  -12.3299999      -6.72437395E-09
  -12.3199997      -7.84644349E-09
  -12.3100004      -8.96841001E-09
  -12.3000002      -1.00726307E-08
  -12.2900000      -1.11395959E-08
  -12.2799997      -1.21462378E-08
  -12.2700005      -1.30641018E-08
  -12.2600002      -1.38577647E-08
  -12.2500000      -1.44839802E-08
  -12.2399998      -1.48920529E-08
  -12.2299995      -1.50255790E-08
  -12.2200003      -1.48256678E-08
  -12.2100000      -1.42353436E-08
  -12.1999998      -1.32046249E-08
  -12.1899996      -1.16956365E-08
  -12.1800003      -9.68698011E-09
  -12.1700001      -7.17672632E-09
  -12.1599998      -4.18367918E-09
  -12.1499996      -7.46589179E-10
  -12.1400003       3.07841197E-09
  -12.1300001       7.22171078E-09
  -12.1199999       1.16049774E-08
  -12.1099997       1.61459699E-08
  -12.1000004       2.07628652E-08
  -12.0900002       2.53776964E-08
  -12.0799999       2.99185530E-08
  -12.0699997       3.43206885E-08
  -12.0600004       3.85266681E-08
  -12.0500002       4.24858015E-08
  -12.0400000       4.61532714E-08
  -12.0299997       4.94891346E-08
  -12.0200005       5.24574375E-08
  -12.0100002       5.50255059E-08
  -12.0000000       5.71631276E-08
  -11.9899998       5.88417990E-08
  -11.9799995       6.00341252E-08
  -11.9700003       6.07129280E-08
  -11.9600000       6.08506880E-08
  -11.9499998       6.04190475E-08
  -11.9399996       5.93890412E-08
  -11.9300003       5.77316328E-08
  -11.9200001       5.54191892E-08
  -11.9099998       5.24272785E-08
  -11.8999996       4.87368084E-08
  -11.8900003       4.43363248E-08
  -11.8800001       3.92233268E-08
  -11.8699999       3.34055308E-08
  -11.8599997       2.69008833E-08
  -11.8500004       1.97368895E-08
  -11.8400002       1.19491084E-08
  -11.8299999       3.57973806E-09
  -11.8199997      -5.32428368E-09
  -11.8100004      -1.47120192E-08
  -11.8000002      -2.45292249E-08
  -11.7900000      -3.47178961E-08
  -11.7799997      -4.52154580E-08
  -11.7700005      -5.59534108E-08
  -11.7600002      -6.68560105E-08
  -11.7500000      -7.78393314E-08
  -11.7399998      -8.88109497E-08
  -11.7299995      -9.96703022E-08
  -11.7200003      -1.10309820E-07
  -11.7100000      -1.20616818E-07
  -11.6999998      -1.30475627E-07
  -11.6899996      -1.39770393E-07
  -11.6800003      -1.48387699E-07
  -11.6700001      -1.56219215E-07
  -11.6599998      -1.63164160E-07
  -11.6499996      -1.69131553E-07
  -11.6400003      -1.74042015E-07
  -11.6300001      -1.77829008E-07
  -11.6199999      -1.80439173E-07
  -11.6099997      -1.81832164E-07
  -11.6000004      -1.81979331E-07
  -11.5900002      -1.80861278E-07
  -11.5799999      -1.78465385E-07
  -11.5699997      -1.74781917E-07
  -11.5600004      -1.69801496E-07
  -11.5500002      -1.63512070E-07
  -11.5400000      -1.55897723E-07
  -11.5299997      -1.46937992E-07
  -11.5200005      -1.36609572E-07
  -11.5100002      -1.24887748E-07
  -11.5000000      -1.11750431E-07
  -11.4899998      -9.71807026E-08
  -11.4799995      -8.11701142E-08
  -11.4700003      -6.37210888E-08
  -11.4600000      -4.48478836E-08
  -11.4499998      -2.45771830E-08
  -11.4399996      -2.94656166E-09
  -11.4300003       1.99968628E-08
  -11.4200001       4.41976766E-08
  -11.4099998       6.95943427E-08
  -11.3999996       9.61207434E-08
  -11.3900003       1.23706073E-07
  -11.3800001       1.52275391E-07
  -11.3699999       1.81749385E-07
  -11.3599997       2.12044498E-07
  -11.3500004       2.43073032E-07
  -11.3400002       2.74743712E-07
  -11.3299999       3.06963130E-07
  -11.3199997       3.39637552E-07
  -11.3100004       3.72675004E-07
  -11.3000002       4.05987038E-07
  -11.2900000       4.39490151E-07
  -11.2799997       4.73107093E-07
  -11.2700005       5.06765900E-07
  -11.2600002       5.40399697E-07
  -11.2500000       5.73944931E-07
  -11.2399998       6.07339359E-07
  -11.2299995       6.40521591E-07
  -11.2200003       6.73429952E-07
  -11.2100000       7.06003334E-07
  -11.1999998       7.38182337E-07
  -11.1899996       7.69910969E-07
  -11.1800003       8.01140970E-07
  -11.1700001       8.31832324E-07
  -11.1599998       8.61956266E-07
  -11.1499996       8.91497450E-07
  -11.1400003       9.20448656E-07
  -11.1300001       9.48812158E-07
  -11.1199999       9.76597107E-07
  -11.1099997       1.00381260E-06
  -11.1000004       1.03047091E-06
  -11.0900002       1.05657671E-06
  -11.0799999       1.08213317E-06
  -11.0699997       1.10713438E-06
  -11.0600004       1.13157159E-06
  -11.0500002       1.15542923E-06
  -11.0400000       1.17869206E-06
  -11.0299997       1.20133893E-06
  -11.0200005       1.22335030E-06
  -11.0100002       1.24470535E-06
  -11.0000000       1.26538202E-06
  -10.9899998       1.28535555E-06
  -10.9799995       1.30460353E-06
  -10.9700003       1.32309901E-06
  -10.9600000       1.34081938E-06
  -10.9499998       1.35773212E-06
  -10.9399996       1.37381528E-06
  -10.9300003       1.38904375E-06
  -10.9200001       1.40340001E-06
  -10.9099998       1.41686917E-06
  -10.8999996       1.42944623E-06
  -10.8900003       1.44113278E-06
  -10.8800001       1.45193849E-06
  -10.8699999       1.46188302E-06
  -10.8599997       1.47099411E-06
  -10.8500004       1.47930632E-06
  -10.8400002       1.48685581E-06
  -10.8299999       1.49368930E-06
  -10.8199997       1.49985044E-06
  -10.8100004       1.50538256E-06
  -10.8000002       1.51033043E-06
  -10.7900000       1.51473034E-06
  -10.7799997       1.51861877E-06
  -10.7700005       1.52202301E-06
  -10.7600002       1.52496659E-06
  -10.7500000       1.52745849E-06
  -10.7399998       1.52949985E-06
  -10.7299995       1.53107999E-06
  -10.7200003       1.53218582E-06
  -10.7100000       1.53278847E-06
  -10.6999998       1.53284623E-06
  -10.6899996       1.53233373E-06
  -10.6800003       1.53121584E-06
  -10.6700001       1.52945847E-06
  -10.6599998       1.52704740E-06
  -10.6499996       1.52399389E-06
  -10.6400003       1.52032044E-06
  -10.6300001       1.51607799E-06
  -10.6199999       1.51134657E-06
  -10.6099997       1.50623248E-06
  -10.6000004       1.50085782E-06
  -10.5900002       1.49537550E-06
  -10.5799999       1.48993581E-06
  -10.5699997       1.48471622E-06
  -10.5600004       1.47988032E-06
  -10.5500002       1.47560218E-06
  -10.5400000       1.47203400E-06
  -10.5299997       1.46933041E-06
  -10.5200005       1.46761408E-06
  -10.5100002       1.46699426E-06
  -10.5000000       1.46756076E-06
  -10.4899998       1.46936850E-06
  -10.4799995       1.47245044E-06
  -10.4700003       1.47682113E-06
  -10.4600000       1.48245351E-06
  -10.4499998       1.48930462E-06
  -10.4399996       1.49729613E-06
  -10.4300003       1.50633753E-06
  -10.4200001       1.51631332E-06
  -10.4099998       1.52708481E-06
  -10.3999996       1.53850215E-06
  -10.3900003       1.55040777E-06
  -10.3800001       1.56264593E-06
  -10.3699999       1.57505042E-06
  -10.3599997       1.58747559E-06
  -10.3500004       1.59977139E-06
  -10.3400002       1.61181367E-06
  -10.3299999       1.62349875E-06
  -10.3199997       1.63473669E-06
  -10.3100004       1.64546975E-06
  -10.3000002       1.65565928E-06
  -10.2900000       1.66531038E-06
  -10.2799997       1.67442658E-06
  -10.2700005       1.68306474E-06
  -10.2600002       1.69129635E-06
  -10.2500000       1.69919224E-06
  -10.2399998       1.70686371E-06
  -10.2299995       1.71441127E-06
  -10.2200003       1.72193370E-06
  -10.2100000       1.72954344E-06
  -10.1999998       1.73733883E-06
  -10.1899996       1.74542129E-06
  -10.1800003       1.75389061E-06
  -10.1700001       1.76282322E-06
  -10.1599998       1.77231595E-06
  -10.1499996       1.78244375E-06
  -10.1400003       1.79327230E-06
  -10.1300001       1.80487427E-06
  -10.1199999       1.81730888E-06
  -10.1099997       1.83062116E-06
  -10.1000004       1.84484850E-06
  -10.0900002       1.86002308E-06
  -10.0799999       1.87614899E-06
  -10.0699997       1.89324112E-06
  -10.0600004       1.91130266E-06
  -10.0500002       1.93035044E-06
  -10.0400000       1.95038206E-06
  -10.0299997       1.97141048E-06
  -10.0200005       1.99345527E-06
  -10.0100002       2.01655143E-06
  -10.0000000       2.04072467E-06
  -9.98999977       2.06601339E-06
  -9.97999954       2.09246082E-06
  -9.97000027       2.12013310E-06
  -9.96000004       2.14906413E-06
  -9.94999981       2.17934303E-06
  -9.93999958       2.21103005E-06
  -9.93000031       2.24421296E-06
  -9.92000008       2.27896180E-06
  -9.90999985       2.31537388E-06
  -9.89999962       2.35353514E-06
  -9.89000034       2.39353722E-06
  -9.88000011       2.43547743E-06
  -9.86999989       2.47946082E-06
  -9.85999966       2.52559471E-06
  -9.85000038       2.57398437E-06
  -9.84000015       2.62475214E-06
  -9.82999992       2.67802034E-06
  -9.81999969       2.73390219E-06
  -9.81000042       2.79251049E-06
  -9.80000019       2.85395458E-06
  -9.78999996       2.91833771E-06
  -9.77999973       2.98575060E-06
  -9.77000046       3.05627100E-06
  -9.76000023       3.12996576E-06
  -9.75000000       3.20690128E-06
  -9.73999977       3.28711417E-06
  -9.72999954       3.37064353E-06
  -9.72000027       3.45752051E-06
  -9.71000004       3.54773738E-06
  -9.69999981       3.64126799E-06
  -9.68999958       3.73805960E-06
  -9.68000031       3.83800125E-06
  -9.67000008       3.94096878E-06
  -9.65999985       4.04677894E-06
  -9.64999962       4.15520208E-06
  -9.64000034       4.26597717E-06
  -9.63000011       4.37878862E-06
  -9.61999989       4.49328536E-06
  -9.60999966       4.60906267E-06
  -9.60000038       4.72569900E-06
  -9.59000015       4.84271004E-06
  -9.57999992       4.95962422E-06
  -9.56999969       5.07593950E-06
  -9.56000042       5.19113746E-06
  -9.55000019       5.30471743E-06
  -9.53999996       5.41618238E-06
  -9.52999973       5.52505708E-06
  -9.52000046       5.63090634E-06
  -9.51000023       5.73328953E-06
  -9.50000000       5.83183191E-06
  -9.48999977       5.92616516E-06
  -9.47999954       6.01597685E-06
  -9.47000027       6.10098641E-06
  -9.46000004       6.18100239E-06
  -9.44999981       6.25586563E-06
  -9.43999958       6.32547653E-06
  -9.43000031       6.38984011E-06
  -9.42000008       6.44907050E-06
  -9.40999985       6.50334869E-06
  -9.39999962       6.55294116E-06
  -9.39000034       6.59824718E-06
  -9.38000011       6.63973742E-06
  -9.36999989       6.67798440E-06
  -9.35999966       6.71364205E-06
  -9.35000038       6.74746889E-06
  -9.34000015       6.78029937E-06
  -9.32999992       6.81304255E-06
  -9.31999969       6.84667793E-06
  -9.31000042       6.88220189E-06
  -9.30000019       6.92069443E-06
  -9.28999996       6.96318921E-06
  -9.27999973       7.01076942E-06
  -9.27000046       7.06448873E-06
  -9.26000023       7.12537349E-06
  -9.25000000       7.19436321E-06
  -9.23999977       7.27237193E-06
  -9.22999954       7.36027414E-06
  -9.22000027       7.45879970E-06
  -9.21000004       7.56860936E-06
  -9.19999981       7.69027793E-06
  -9.18999958       7.82424104E-06
  -9.18000031       7.97083339E-06
  -9.17000008       8.13021870E-06
  -9.15999985       8.30247245E-06
  -9.14999962       8.48750187E-06
  -9.14000034       8.68510779E-06
  -9.13000011       8.89495095E-06
  -9.11999989       9.11658208E-06
  -9.10999966       9.34940908E-06
  -9.10000038       9.59268982E-06
  -9.09000015       9.84565759E-06
  -9.07999992       1.01073410E-05
  -9.06999969       1.03767261E-05
  -9.06000042       1.06526977E-05
  -9.05000019       1.09340963E-05
  -9.03999996       1.12196258E-05
  -9.02999973       1.15080120E-05
  -9.02000046       1.17979635E-05
  -9.01000023       1.20880677E-05
  -9.00000000       1.23769923E-05
  -8.98999977       1.26633367E-05
  -8.97999954       1.29457931E-05
  -8.97000027       1.32229898E-05
  -8.96000004       1.34935808E-05
  -8.94999981       1.37563075E-05
  -8.93999958       1.40099301E-05
  -8.93000031       1.42532845E-05
  -8.92000008       1.44852065E-05
  -8.90999985       1.47046430E-05
  -8.89999962       1.49106445E-05
  -8.89000034       1.51023087E-05
  -8.88000011       1.52787270E-05
  -8.86999989       1.54392656E-05
  -8.85999966       1.55832349E-05
  -8.85000038       1.57101204E-05
  -8.84000015       1.58195417E-05
  -8.82999992       1.59111332E-05
  -8.81999969       1.59847023E-05
  -8.81000042       1.60402087E-05
  -8.80000019       1.60776617E-05
  -8.78999996       1.60971758E-05
  -8.77999973       1.60990021E-05
  -8.77000046       1.60834861E-05
  -8.76000023       1.60511408E-05
  -8.75000000       1.60024629E-05
  -8.73999977       1.59381016E-05
  -8.72999954       1.58587973E-05
  -8.72000027       1.57653612E-05
  -8.71000004       1.56586430E-05
  -8.69999981       1.55395774E-05
  -8.68999958       1.54091686E-05
  -8.68000031       1.52684497E-05
  -8.67000008       1.51185177E-05
  -8.65999985       1.49603475E-05
  -8.64999962       1.47950577E-05
  -8.64000034       1.46236862E-05
  -8.63000011       1.44472842E-05
  -8.61999989       1.42668650E-05
  -8.60999966       1.40834572E-05
  -8.60000038       1.38979694E-05
  -8.59000015       1.37112556E-05
  -8.57999992       1.35242117E-05
  -8.56999969       1.33374870E-05
  -8.56000042       1.31518264E-05
  -8.55000019       1.29677892E-05
  -8.53999996       1.27858912E-05
  -8.52999973       1.26066561E-05
  -8.52000046       1.24304797E-05
  -8.51000023       1.22577248E-05
  -8.50000000       1.20886798E-05
  -8.48999977       1.19236665E-05
  -8.47999954       1.17629415E-05
  -8.47000027       1.16065821E-05
  -8.46000004       1.14548920E-05
  -8.44999981       1.13079013E-05
  -8.43999958       1.11658337E-05
  -8.43000031       1.10288429E-05
  -8.42000008       1.08970980E-05
  -8.40999985       1.07707410E-05
  -8.39999962       1.06500584E-05
  -8.39000034       1.05351965E-05
  -8.38000011       1.04264800E-05
  -8.36999989       1.03241464E-05
  -8.35999966       1.02285312E-05
  -8.35000038       1.01399464E-05
  -8.34000015       1.00587276E-05
  -8.32999992       9.98526866E-06
  -8.31999969       9.92000787E-06
  -8.31000042       9.86340001E-06
  -8.30000019       9.81585254E-06
  -8.28999996       9.77788022E-06
  -8.27999973       9.74997874E-06
  -8.27000046       9.73264559E-06
  -8.26000023       9.72648013E-06
  -8.25000000       9.73205988E-06
  -8.23999977       9.74980503E-06
  -8.22999954       9.78035405E-06
  -8.22000027       9.82438451E-06
  -8.21000004       9.88235752E-06
  -8.19999981       9.95480605E-06
  -8.18999958       1.00423513E-05
  -8.18000031       1.01456053E-05
  -8.17000008       1.02649692E-05
  -8.15999985       1.04010032E-05
  -8.14999962       1.05540885E-05
  -8.14000034       1.07245596E-05
  -8.13000011       1.09128832E-05
  -8.11999989       1.11191630E-05
  -8.10999966       1.13437627E-05
  -8.10000038       1.15865832E-05
  -8.09000015       1.18477074E-05
  -8.07999992       1.21270323E-05
  -8.06999969       1.24243015E-05
  -8.06000042       1.27393387E-05
  -8.05000019       1.30717463E-05
  -8.03999996       1.34210959E-05
  -8.02999973       1.37867473E-05
  -8.02000046       1.41682303E-05
  -8.01000023       1.45647309E-05
  -8.00000000       1.49756370E-05
  -7.98999977       1.54001336E-05
  -7.98000002       1.58373277E-05
  -7.96999979       1.62864762E-05
  -7.96000004       1.67466296E-05
  -7.94999981       1.72169403E-05
  -7.94000006       1.76964040E-05
  -7.92999983       1.81843625E-05
  -7.92000008       1.86796970E-05
  -7.90999985       1.91815907E-05
  -7.90000010       1.96891633E-05
  -7.88999987       2.02015599E-05
  -7.88000011       2.07179000E-05
  -7.86999989       2.12372197E-05
  -7.86000013       2.17587549E-05
  -7.84999990       2.22815852E-05
  -7.84000015       2.28049666E-05
  -7.82999992       2.33281662E-05
  -7.82000017       2.38502744E-05
  -7.80999994       2.43702452E-05
  -7.80000019       2.48876058E-05
  -7.78999996       2.54013230E-05
  -7.78000021       2.59107983E-05
  -7.76999998       2.64151913E-05
  -7.76000023       2.69138873E-05
  -7.75000000       2.74062186E-05
  -7.73999977       2.78916741E-05
  -7.73000002       2.83698591E-05
  -7.71999979       2.88403244E-05
  -7.71000004       2.93024768E-05
  -7.69999981       2.97562456E-05
  -7.69000006       3.02014632E-05
  -7.67999983       3.06379152E-05
  -7.67000008       3.10656505E-05
  -7.65999985       3.14847130E-05
  -7.65000010       3.18950733E-05
  -7.63999987       3.22971428E-05
  -7.63000011       3.26911540E-05
  -7.61999989       3.30776711E-05
  -7.61000013       3.34569631E-05
  -7.59999990       3.38296340E-05
  -7.59000015       3.41963241E-05
  -7.57999992       3.45576082E-05
  -7.57000017       3.49145012E-05
  -7.55999994       3.52677744E-05
  -7.55000019       3.56183518E-05
  -7.53999996       3.59671467E-05
  -7.53000021       3.63150539E-05
  -7.51999998       3.66632448E-05
  -7.51000023       3.70126108E-05
  -7.50000000       3.73641160E-05
  -7.48999977       3.77189172E-05
  -7.48000002       3.80779711E-05
  -7.46999979       3.84422056E-05
  -7.46000004       3.88125736E-05
  -7.44999981       3.91900139E-05
  -7.44000006       3.95752104E-05