  -16.0000000       0.00000000    
  -15.9899998       0.00000000    
  -15.9799995       0.00000000    
  -15.9700003       0.00000000    
  -15.9600000       0.00000000    
  -15.9499998       0.00000000    
  -15.9399996       0.00000000    
  -15.9300003       0.00000000    
  -15.9200001       0.00000000    
  -15.9099998       0.00000000    
  -15.8999996       0.00000000    
  -15.8900003       0.00000000    
  -15.8800001       0.00000000    
  -15.8699999      -2.53635022E-43
  -15.8599997      -2.38781258E-42
  -15.8500004      -1.34762873E-41
  -15.8400002       1.32340028E-40
  -15.8299999       2.41924231E-39
  -15.8199997       1.81868951E-38
  -15.8100004       8.48063589E-38
  -15.8000002       2.48372642E-37
  -15.7900000       2.21388162E-37
  -15.7799997      -2.33483821E-36
  -15.7700005      -1.76345763E-35
  -15.7600002      -7.89542247E-35
  -15.7500000      -2.74000386E-34
  -15.7399998      -7.94654477E-34
  -15.7299995      -1.98714179E-33
  -15.7200003      -4.33741693E-33
  -15.7100000      -8.24724118E-33
  -15.6999998      -1.33650328E-32
  -15.6899996      -1.72144903E-32
  -15.6800003      -1.30980986E-32
  -15.6700001       1.19602355E-32
  -15.6599998       7.68945927E-32
  -15.6499996       1.99538003E-31
  -15.6400003       3.77769113E-31
  -15.6300001       5.58148040E-31
  -15.6199999       6.04721549E-31
  -15.6099997       3.02040170E-31
  -15.6000004      -5.59907849E-31
  -15.5900002      -1.99968102E-30
  -15.5799999      -3.64658623E-30
  -15.5699997      -4.79618133E-30
  -15.5600004      -5.08117157E-30
  -15.5500002      -5.82312743E-30
  -15.5400000      -1.10958068E-29
  -15.5299997      -2.58567590E-29
  -15.5200005      -4.74233767E-29
  -15.5100002      -4.88736652E-29
  -15.5000000       3.80140353E-29
  -15.4899998       3.16395671E-28
  -15.4799995       8.55247710E-28
  -15.4700003       1.52468170E-27
  -15.4600000       1.76156434E-27
  -15.4499998       4.21048393E-28
  -15.4399996      -3.96258199E-27
  -15.4300003      -1.21030930E-26
  -15.4200001      -2.19088521E-26
  -15.4099998      -2.60555796E-26
  -15.3999996      -1.11074836E-26
  -15.3900003       3.85801793E-26
  -15.3800001       1.28946254E-25
  -15.3699999       2.36189294E-25
  -15.3599997       2.86033840E-25
  -15.3500004       1.50487223E-25
  -15.3400002      -3.11276279E-25
  -15.3299999      -1.14570845E-24
  -15.3199997      -2.13875318E-24
  -15.3100004      -2.65831768E-24
  -15.3000002      -1.64958990E-24
  -15.2900000       2.02387906E-24
  -15.2799997       8.75268706E-24
  -15.2700005       1.69546025E-23
  -15.2600002       2.19554253E-23
  -15.2500000       1.59837009E-23
  -15.2399998      -9.44106680E-24
  -15.2299995      -5.78520422E-23
  -15.2200003      -1.19547175E-22
  -15.2100000      -1.63967781E-22
  -15.1999998      -1.39089759E-22
  -15.1899996       1.42118861E-23
  -15.1800003       3.27333200E-22
  -15.1700001       7.52092061E-22
  -15.1599998       1.11082904E-21
  -15.1499996       1.08528106E-21
  -15.1400003       2.91041913E-22
  -15.1300001      -1.52788822E-21
  -15.1199999      -4.19766736E-21
  -15.1099997      -6.80389254E-21
  -15.1000004      -7.56910569E-21
  -15.0900002      -4.17846369E-21
  -15.0799999       5.23505444E-21
  -15.0699997       2.04660769E-20
  -15.0600004       3.74212826E-20
  -15.0500002       4.70898865E-20
  -15.0400000       3.66601310E-20
  -15.0299997      -5.99477864E-21
  -15.0200005      -8.42443387E-20
  -15.0100002      -1.82853729E-19
  -15.0000000      -2.60804334E-19
  -14.9899998      -2.53414639E-19
  -14.9799995      -9.03896961E-20
  -14.9700003       2.67508194E-19
  -14.9600000       7.79278428E-19
  -14.9499998       1.28044054E-18
  -14.9399996       1.47564927E-18
  -14.9300003       1.00037931E-18
  -14.9200001      -4.28411987E-19
  -14.9099998      -2.78778809E-18
  -14.8999996      -5.51904128E-18
  -14.8900003      -7.41694888E-18
  -14.8800001      -6.79068713E-18
  -14.8699999      -2.01343930E-18
  -14.8599997       7.54770545E-18
  -14.8500004       2.04441609E-17
  -14.8400002       3.23700192E-17
  -14.8299999       3.63391991E-17
  -14.8199997       2.44061807E-17
  -14.8100004      -8.87861755E-18
  -14.8000002      -6.18657446E-17
  -14.7900000      -1.21647365E-16
  -14.7799997      -1.62791103E-16
  -14.7700005      -1.51582528E-16
  -14.7600002      -5.73378440E-17
  -14.7500000       1.30224063E-16
  -14.7399998       3.82240770E-16
  -14.7299995       6.19041853E-16
  -14.7200003       7.15877625E-16
  -14.7100000       5.34318124E-16
  -14.6999998      -1.97660250E-17
  -14.6899996      -9.23138646E-16
  -14.6800003      -1.97275689E-15
  -14.6700001      -2.77030892E-15
  -14.6599998      -2.78930787E-15
  -14.6499996      -1.54244509E-15
  -14.6400003       1.16976743E-15
  -14.6300001       4.99718099E-15
  -14.6199999       8.87774893E-15
  -14.6099997       1.11061012E-14
  -14.6000004       9.73173771E-15
  -14.5900002       3.29049790E-15
  -14.5799999      -8.27445056E-15
  -14.5699997      -2.28098332E-14
  -14.5600004      -3.56854642E-14
  -14.5500002      -4.04662232E-14
  -14.5400000      -3.07226270E-14
  -14.5299997      -2.78632864E-15
  -14.5200005       4.12499184E-14
  -14.5100002       9.14484824E-14
  -14.5000000       1.30200524E-13
  -14.4899998       1.35704897E-13
  -14.4799995       8.89053439E-14
  -14.4700003      -1.73282087E-14
  -14.4600000      -1.69505550E-13
  -14.4499998      -3.29109569E-13
  -14.4399996      -4.36272708E-13
  -14.4300003      -4.23755323E-13
  -14.4200001      -2.40271019E-13
  -14.4099998       1.22004403E-13
  -14.3999996       6.04814864E-13
  -14.3900003       1.07719920E-12
  -14.3800001       1.35430924E-12
  -14.3699999       1.24517876E-12
  -14.3599997       6.23032875E-13
  -14.3500004      -4.99602096E-13
  -14.3400002      -1.91777670E-12
  -14.3299999      -3.23204050E-12
  -14.3199997      -3.91843806E-12
  -14.3100004      -3.47250765E-12
  -14.3000002      -1.60209920E-12
  -14.2900000       1.58394196E-12
  -14.2799997       5.46220057E-12
  -14.2700005       8.92568398E-12
  -14.2600002       1.06005595E-11
  -14.2500000       9.23684913E-12
  -14.2399998       4.19407434E-12
  -14.2299995      -4.11859002E-12
  -14.2200003      -1.40194792E-11
  -14.2100000      -2.27006244E-11
  -14.1999998      -2.68139105E-11
  -14.1899996      -2.34360153E-11
  -14.1800003      -1.11995170E-11
  -14.1700001       8.74721649E-12
  -14.1599998       3.23328100E-11
  -14.1499996       5.30147974E-11
  -14.1400003       6.31945954E-11
  -14.1300001       5.64015466E-11
  -14.1199999       2.97389266E-11
  -14.1099997      -1.41500735E-11
  -14.1000004      -6.63746280E-11
  -14.0900002      -1.12926203E-10
  -14.0799999      -1.37761982E-10
  -14.0699997      -1.27352559E-10
  -14.0600004      -7.55949608E-11
  -14.0500002       1.23918367E-11
  -14.0400000       1.19082938E-10
  -14.0299997       2.16970483E-10
  -14.0200005       2.74674311E-10
  -14.0100002       2.65656580E-10
  -14.0000000       1.77393572E-10
  -13.9899998       1.82353299E-11
  -13.9799995      -1.80660695E-10
  -13.9700003      -3.69942049E-10
  -13.9600000      -4.93124597E-10
  -13.9499998      -5.01976904E-10
  -13.9399996      -3.72349734E-10
  -13.9300003      -1.15715118E-10
  -13.9200001       2.17869264E-10
  -13.9099998       5.47762891E-10
  -13.8999996       7.81183618E-10
  -13.8900003       8.38239089E-10
  -13.8800001       6.77105094E-10
  -13.8699999       3.11786902E-10
  -13.8599997      -1.83971838E-10
  -13.8500004      -6.89835689E-10
  -13.8400002      -1.06758857E-09
  -13.8299999      -1.19894461E-09
  -13.8199997      -1.02232833E-09
  -13.8100004      -5.57441149E-10
  -13.8000002       9.13628687E-11
  -13.7900000       7.56576690E-10
  -13.7799997       1.25047395E-09
  -13.7700005       1.41903744E-09
  -13.7600002       1.19174859E-09
  -13.7500000       6.11512396E-10
  -13.7399998      -1.66892944E-10
  -13.7299995      -9.13115750E-10
  -13.7200003      -1.38525880E-09
  -13.7100000      -1.40514267E-09
  -13.6999998      -9.22754539E-10
  -13.6899996      -4.83966062E-11
  -13.6800003       9.61664526E-10
  -13.6700001       1.76767478E-09
  -13.6599998       2.04399409E-09
  -13.6499996       1.58626778E-09
  -13.6400003       3.96374600E-10
  -13.6300001      -1.28403332E-09
  -13.6199999      -3.00880920E-09
  -13.6099997      -4.23027036E-09
  -13.6000004      -4.44830173E-09
  -13.5900002      -3.36758932E-09
  -13.5799999      -1.01785680E-09
  -13.5699997       2.20268692E-09
  -13.5600004       5.58296254E-09
  -13.5500002       8.24974222E-09
  -13.5400000       9.38222566E-09
  -13.5299997       8.43758929E-09
  -13.5200005       5.32639444E-09
  -13.5100002       4.85328389E-10
  -13.5000000      -5.18157339E-09
  -13.4899998      -1.04873550E-08
  -13.4799995      -1.42316701E-08
  -13.4700003      -1.54885260E-08
  -13.4600000      -1.38366820E-08
  -13.4499998      -9.46950607E-09
  -13.4399996      -3.15237947E-09
  -13.4300003       3.96311073E-09
  -13.4200001       1.06166453E-08
  -13.4099998       1.57308069E-08
  -13.3999996       1.86331661E-08
  -13.3900003       1.91462810E-08
  -13.3800001       1.75234316E-08
  -13.3699999       1.42585233E-08
  -13.3599997       9.84172654E-09
  -13.3500004       4.55532234E-09
  -13.3400002      -1.60497626E-09
  -13.3299999      -8.83511220E-09
  -13.3199997      -1.72686434E-08
  -13.3100004      -2.66402189E-08
  -13.3000002      -3.59914516E-08
  -13.2900000      -4.35545502E-08
  -13.2799997      -4.69174140E-08
  -13.2700005      -4.34981331E-08
  -13.2600002      -3.12625765E-08
  -13.2500000      -9.52163592E-09
  -13.2399998       2.04143724E-08
  -13.2299995       5.49506360E-08
  -13.2200003       8.84583713E-08
  -13.2100000       1.14104779E-07
  -13.1999998       1.25155964E-07
  -13.1899996       1.16500757E-07
  -13.1800003       8.60518767E-08
  -13.1700001       3.56608219E-08
  -13.1599998      -2.87273068E-08
  -13.1499996      -9.78026122E-08
  -13.1400003      -1.60408703E-07
  -13.1300001      -2.05561435E-07
  -13.1199999      -2.24538596E-07
  -13.1099997      -2.12571820E-07
  -13.1000004      -1.69757030E-07
  -13.0900002      -1.00978454E-07
  -13.0799999      -1.48900980E-08
  -13.0699997       7.77684335E-08
  -13.0600004       1.66085300E-07
  -13.0500002       2.40632062E-07
  -13.0400000       2.94477275E-07
  -13.0299997       3.23377293E-07
  -13.0200005       3.25238119E-07
  -13.0100002       2.99173848E-07
  -13.0000000       2.44651119E-07
  -12.9899998       1.61178065E-07
  -12.9799995       4.88485163E-08
  -12.9700003      -9.02734314E-08
  -12.9600000      -2.50261195E-07
  -12.9499998      -4.19565652E-07
  -12.9399996      -5.80148367E-07
  -12.9300003      -7.08184871E-07
  -12.9200001      -7.76694378E-07
  -12.9099998      -7.59976103E-07
  -12.8999996      -6.39192479E-07
  -12.8900003      -4.07977097E-07
  -12.8800001      -7.67475683E-08
  -12.8699999       3.25564514E-07
  -12.8599997       7.53180416E-07
  -12.8500004       1.14872455E-06
  -12.8400002       1.45144588E-06
  -12.8299999       1.60705349E-06
  -12.8199997       1.57736861E-06
  -12.8100004       1.34786148E-06
  -12.8000002       9.31536817E-07
  -12.7900000       3.68231952E-07
  -12.7799997      -2.80587784E-07
  -12.7700005      -9.40621874E-07
  -12.7600002      -1.53543056E-06
  -12.7500000      -1.99705937E-06
  -12.7399998      -2.27471605E-06
  -12.7299995      -2.34014442E-06
  -12.7200003      -2.18915238E-06
  -12.7100000      -1.83959821E-06
  -12.6999998      -1.32679816E-06
  -12.6899996      -6.97760811E-07
  -12.6800003      -5.49101298E-09
  -12.6700001       6.95673123E-07
  -12.6599998       1.35341065E-06
  -12.6499996       1.91975255E-06
  -12.6400003       2.35307743E-06
  -12.6300001       2.62051503E-06
  -12.6199999       2.70112946E-06
  -12.6099997       2.58965770E-06
  -12.6000004       2.29989428E-06
  -12.5900002       1.86628699E-06
  -12.5799999       1.34225161E-06
  -12.5699997       7.94112850E-07
  -12.5600004       2.90584609E-07
  -12.5500002      -1.11085328E-07
  -12.5400000      -3.79863906E-07
  -12.5299997      -5.23307392E-07
  -12.5200005      -5.93976949E-07
  -12.5100002      -6.87051795E-07
  -12.5000000      -9.27630140E-07
  -12.4899998      -1.44824753E-06
  -12.4799995      -2.35926746E-06
  -12.4700003      -3.71652800E-06
  -12.4600000      -5.49169636E-06
  -12.4499998      -7.55061910E-06
  -12.4399996      -9.64388801E-06
  -12.4300003      -1.14119530E-05
  -12.4200001      -1.24044018E-05
  -12.4099998      -1.21114399E-05
  -12.3999996      -1.00031857E-05
  -12.3900003      -5.57247176E-06
  -12.3800001       1.62345179E-06
  -12.3699999       1.19250872E-05
  -12.3599997       2.55390023E-05
  -12.3500004       4.25119615E-05
  -12.3400002       6.27110931E-05
  -12.3299999       8.58087151E-05
  -12.3199997       1.11273293E-04
  -12.3100004       1.38366508E-04
  -12.3000002       1.66150829E-04
  -12.2900000       1.93510001E-04
  -12.2799997       2.19183290E-04
  -12.2700005       2.41821253E-04
  -12.2600002       2.60050496E-04
  -12.2500000       2.72555917E-04
  -12.2399998       2.78162741E-04
  -12.2299995       2.75912695E-04
  -12.2200003       2.65128067E-04
  -12.2100000       2.45447271E-04
  -12.1999998       2.16838074E-04
  -12.1899996       1.79578929E-04
  -12.1800003       1.34214177E-04
  -12.1700001       8.14987216E-05
  -12.1599998       2.23274455E-05
  -12.1499996      -4.23208476E-05
  -12.1400003      -1.11439527E-04
  -12.1300001      -1.84024524E-04
  -12.1199999      -2.59093038E-04
  -12.1099997      -3.35681572E-04
  -12.1000004      -4.12843307E-04
  -12.0900002      -4.89637838E-04
  -12.0799999      -5.65121998E-04
  -12.0699997      -6.38355676E-04
  -12.0600004      -7.08405103E-04
  -12.0500002      -7.74357992E-04
  -12.0400000      -8.35333252E-04
  -12.0299997      -8.90487747E-04
  -12.0200005      -9.39013727E-04
  -12.0100002      -9.80129349E-04
  -12.0000000      -1.01305696E-03
  -11.9899998      -1.03700708E-03
  -11.9799995      -1.05116284E-03
  -11.9700003      -1.05467532E-03
  -11.9600000      -1.04668259E-03
  -11.9499998      -1.02633750E-03
  -11.9399996      -9.92857385E-04
  -11.9300003      -9.45582055E-04
  -11.9200001      -8.84029258E-04
  -11.9099998      -8.07944278E-04
  -11.8999996      -7.17332761E-04
  -11.8900003      -6.12469565E-04
  -11.8800001      -4.93891304E-04
  -11.8699999      -3.62367136E-04
  -11.8599997      -2.18853980E-04
  -11.8500004      -6.44662287E-05
  -11.8400002       9.95737282E-05
  -11.8299999       2.71953788E-04
  -11.8199997       4.51291970E-04
  -11.8100004       6.36135577E-04
  -11.8000002       8.24964198E-04
  -11.7900000       1.01618411E-03
  -11.7799997       1.20813376E-03
  -11.7700005       1.39910285E-03
  -11.7600002       1.58735085E-03
  -11.7500000       1.77114503E-03
  -11.7399998       1.94879610E-03
  -11.7299995       2.11868784E-03
  -11.7200003       2.27929954E-03
  -11.7100000       2.42921407E-03
  -11.6999998       2.56710663E-03
  -11.6899996       2.69172713E-03
  -11.6800003       2.80187163E-03
  -11.6700001       2.89635803E-03
  -11.6599998       2.97400542E-03
  -11.6499996       3.03362566E-03
  -11.6400003       3.07403761E-03
  -11.6300001       3.09407385E-03
  -11.6199999       3.09260841E-03
  -11.6099997       3.06858984E-03
  -11.6000004       3.02104629E-03
  -11.5900002       2.94910697E-03
  -11.5799999       2.85200751E-03
  -11.5699997       2.72908574E-03
  -11.5600004       2.57978309E-03
  -11.5500002       2.40365835E-03
  -11.5400000       2.20039673E-03
  -11.5299997       1.96985528E-03
  -11.5200005       1.71209127E-03
  -11.5100002       1.42741343E-03
  -11.5000000       1.11642620E-03
  -11.4899998       7.80047965E-04
  -11.4799995       4.19528486E-04
  -11.4700003       3.64331609E-05
  -11.4600000      -3.67397646E-04
  -11.4499998      -7.89893616E-04
  -11.4399996      -1.22882286E-03
  -11.4300003      -1.68184610E-03
  -11.4200001      -2.14658258E-03
  -11.4099998      -2.62064580E-03
  -11.3999996      -3.10169021E-03
  -11.3900003      -3.58743314E-03
  -11.3800001      -4.07568458E-03
  -11.3699999      -4.56437934E-03
  -11.3599997      -5.05161099E-03
  -11.3500004      -5.53566962E-03
  -11.3400002      -6.01508748E-03
  -11.3299999      -6.48866920E-03
  -11.3199997      -6.95552165E-03
  -11.3100004      -7.41504505E-03
  -11.3000002      -7.86691159E-03
  -11.2900000      -8.31101835E-03
  -11.2799997      -8.74739885E-03
  -11.2700005      -9.17614158E-03
  -11.2600002      -9.59727913E-03
  -11.2500000      -1.00107128E-02
  -11.2399998      -1.04161184E-02
  -11.2299995      -1.08129000E-02
  -11.2200003      -1.12001635E-02
  -11.2100000      -1.15767112E-02
  -11.1999998      -1.19410688E-02
  -11.1899996      -1.22915329E-02
  -11.1800003      -1.26262186E-02
  -11.1700001      -1.29431430E-02
  -11.1599998      -1.32402899E-02
  -11.1499996      -1.35156978E-02
  -11.1400003      -1.37675311E-02
  -11.1300001      -1.39941517E-02
  -11.1199999      -1.41942045E-02
  -11.1099997      -1.43666491E-02
  -11.1000004      -1.45108402E-02
  -11.0900002      -1.46265384E-02
  -11.0799999      -1.47139374E-02
  -11.0699997      -1.47736501E-02
  -11.0600004      -1.48066850E-02
  -11.0500002      -1.48144029E-02
  -11.0400000      -1.47984549E-02
  -11.0299997      -1.47606945E-02
  -11.0200005      -1.47031052E-02
  -11.0100002      -1.46277007E-02
  -11.0000000      -1.45364357E-02
  -10.9899998      -1.44311273E-02
  -10.9799995      -1.43133448E-02
  -10.9700003      -1.41843939E-02
  -10.9600000      -1.40451929E-02
  -10.9499998      -1.38962800E-02
  -10.9399996      -1.37377456E-02
  -10.9300003      -1.35692498E-02
  -10.9200001      -1.33900130E-02
  -10.9099998      -1.31988516E-02
  -10.8999996      -1.29942233E-02
  -10.8900003      -1.27743054E-02
  -10.8800001      -1.25370463E-02
  -10.8699999      -1.22803058E-02
  -10.8599997      -1.20018879E-02
  -10.8500004      -1.16996719E-02
  -10.8400002      -1.13716926E-02
  -10.8299999      -1.10161938E-02
  -10.8199997      -1.06317010E-02
  -10.8100004      -1.02170538E-02
  -10.8000002      -9.77145322E-03
  -10.7900000      -9.29447729E-03
  -10.7799997      -8.78608413E-03
  -10.7700005      -8.24664440E-03
  -10.7600002      -7.67692411E-03
  -10.7500000      -7.07805436E-03
  -10.7399998      -6.45154016E-03
  -10.7299995      -5.79915149E-03
  -10.7200003      -5.12288837E-03
  -10.7100000      -4.42487327E-03
  -10.6999998      -3.70723428E-03
  -10.6899996      -2.97199679E-03
  -10.6800003      -2.22096685E-03
  -10.6700001      -1.45565032E-03
  -10.6599998      -6.77172560E-04
  -10.6499996       1.13735332E-04
  -10.6400003       9.16727120E-04
  -10.6300001       1.73180737E-03
  -10.6199999       2.55923346E-03
  -10.6099997       3.39944451E-03
  -10.6000004       4.25294135E-03
  -10.5900002       5.12017868E-03
  -10.5799999       6.00148737E-03
  -10.5699997       6.89697638E-03
  -10.5600004       7.80646643E-03
  -10.5500002       8.72946158E-03
  -10.5400000       9.66509711E-03
  -10.5299997       1.06121479E-02
  -10.5200005       1.15690371E-02
  -10.5100002       1.25338463E-02
  -10.5000000       1.35043655E-02
  -10.4899998       1.44781442E-02
  -10.4799995       1.54525228E-02
  -10.4700003       1.64247062E-02
  -10.4600000       1.73917990E-02
  -10.4499998       1.83508117E-02
  -10.4399996       1.92987025E-02
  -10.4300003       2.02323589E-02
  -10.4200001       2.11485755E-02
  -10.4099998       2.20440440E-02
  -10.3999996       2.29153428E-02
  -10.3900003       2.37589348E-02
  -10.3800001       2.45711897E-02
  -10.3699999       2.53484547E-02
  -10.3599997       2.60870922E-02
  -10.3500004       2.67836191E-02
  -10.3400002       2.74348017E-02
  -10.3299999       2.80377306E-02
  -10.3199997       2.85899900E-02
  -10.3100004       2.90896613E-02
  -10.3000002       2.95354351E-02
  -10.2900000       2.99265906E-02
  -10.2799997       3.02630048E-02
  -10.2700005       3.05451378E-02
  -10.2600002       3.07739712E-02
  -10.2500000       3.09509784E-02
  -10.2399998       3.10780816E-02
  -10.2299995       3.11575755E-02
  -10.2200003       3.11921220E-02
  -10.2100000       3.11847217E-02
  -10.1999998       3.11386399E-02
  -10.1899996       3.10573969E-02
  -10.1800003       3.09446957E-02
  -10.1700001       3.08043715E-02
  -10.1599998       3.06402966E-02
  -10.1499996       3.04563250E-02
  -10.1400003       3.02562043E-02
  -10.1300001       3.00434958E-02
  -10.1199999       2.98215393E-02
  -10.1099997       2.95933913E-02
  -10.1000004       2.93618068E-02
  -10.0900002       2.91292183E-02
  -10.0799999       2.88977232E-02
  -10.0699997       2.86690556E-02
  -10.0600004       2.84445863E-02
  -10.0500002       2.82253250E-02
  -10.0400000       2.80119013E-02
  -10.0299997       2.78046094E-02
  -10.0200005       2.76034158E-02
  -10.0100002       2.74079982E-02
  -10.0000000       2.72178669E-02
  -9.98999977       2.70323977E-02
  -9.97999954       2.68509164E-02
  -9.97000027       2.66728196E-02
  -9.96000004       2.64976006E-02
  -9.94999981       2.63249576E-02
  -9.93999958       2.61548162E-02
  -9.93000031       2.59873923E-02
  -9.92000008       2.58232392E-02
  -9.90999985       2.56632678E-02
  -9.89999962       2.55087782E-02
  -9.89000034       2.53614765E-02
  -9.88000011       2.52234694E-02
  -9.86999989       2.50971895E-02
  -9.85999966       2.49854513E-02
  -9.85000038       2.48912442E-02
  -9.84000015       2.48177703E-02
  -9.82999992       2.47683320E-02
  -9.81999969       2.47462206E-02
  -9.81000042       2.47546863E-02
  -9.80000019       2.47969721E-02
  -9.78999996       2.48761717E-02
  -9.77999973       2.49951947E-02
  -9.77000046       2.51567829E-02
  -9.76000023       2.53634211E-02
  -9.75000000       2.56172512E-02
  -9.73999977       2.59200018E-02
  -9.72999954       2.62729283E-02
  -9.72000027       2.66767442E-02
  -9.71000004       2.71315705E-02
  -9.69999981       2.76369452E-02
  -9.68999958       2.81917453E-02
  -9.68000031       2.87942253E-02
  -9.67000008       2.94419881E-02
  -9.65999985       3.01320385E-02
  -9.64999962       3.08606550E-02
  -9.64000034       3.16235125E-02
  -9.63000011       3.24156769E-02
  -9.61999989       3.32316160E-02
  -9.60999966       3.40653397E-02
  -9.60000038       3.49104851E-02
  -9.59000015       3.57604772E-02
  -9.57999992       3.66085805E-02
  -9.56999969       3.74480858E-02
  -9.56000042       3.82723920E-02
  -9.55000019       3.90750505E-02
  -9.53999996       3.98498066E-02
  -9.52999973       4.05906700E-02
  -9.52000046       4.12919000E-02
  -9.51000023       4.19480465E-02
  -9.50000000       4.25540283E-02
  -9.48999977       4.31051329E-02
  -9.47999954       4.35970910E-02
  -9.47000027       4.40261737E-02
  -9.46000004       4.43891883E-02
  -9.44999981       4.46835905E-02
  -9.43999958       4.49075922E-02
  -9.43000031       4.50601801E-02
  -9.42000008       4.51412313E-02
  -9.40999985       4.51517180E-02
  -9.39999962       4.50937040E-02
  -9.39000034       4.49703559E-02
  -9.38000011       4.47862260E-02
  -9.36999989       4.45470698E-02
  -9.35999966       4.42599729E-02
  -9.35000038       4.39331792E-02
  -9.34000015       4.35762666E-02
  -9.32999992       4.31999825E-02
  -9.31999969       4.28160839E-02
  -9.31000042       4.24375013E-02
  -9.30000019       4.20781150E-02
  -9.28999996       4.17525172E-02
  -9.27999973       4.14760076E-02
  -9.27000046       4.12642770E-02
  -9.26000023       4.11329903E-02
  -9.25000000       4.10978757E-02
  -9.23999977       4.11738455E-02
  -9.22999954       4.13753055E-02
  -9.22000027       4.17156518E-02
  -9.21000004       4.22069691E-02
  -9.19999981       4.28603590E-02
  -9.18999958       4.36853468E-02
  -9.18000031       4.46899012E-02
  -9.17000008       4.58805263E-02
  -9.15999985       4.72618304E-02
  -9.14999962       4.88365814E-02
  -9.14000034       5.06054834E-02
  -9.13000011       5.25670871E-02
  -9.11999989       5.47177680E-02
  -9.10999966       5.70518151E-02
  -9.10000038       5.95612004E-02
  -9.09000015       6.22358359E-02
  -9.07999992       6.50639087E-02
  -9.06999969       6.80314377E-02
  -9.06000042       7.11228251E-02
  -9.05000019       7.43209943E-02
  -9.03999996       7.76072815E-02
  -9.02999973       8.09620917E-02
  -9.02000046       8.43647271E-02
  -9.01000023       8.77938271E-02
  -9.00000000       9.12276581E-02
  -8.98999977       9.46441814E-02
  -8.97999954       9.80213210E-02
  -8.97000027      0.101337552    
  -8.96000004      0.104571223    
  -8.94999981      0.107701644    
  -8.93999958      0.110708483    
  -8.93000031      0.113572359    
  -8.92000008      0.116274536    
  -8.90999985      0.118797600    
  -8.89999962      0.121124826    
  -8.89000034      0.123240948    
  -8.88000011      0.125131741    
  -8.86999989      0.126784444    
  -8.85999966      0.128187507    
  -8.85000038      0.129330933    
  -8.84000015      0.130206078    
  -8.82999992      0.130806118    
  -8.81999969      0.131125599    
  -8.81000042      0.131161124    
  -8.80000019      0.130910560    
  -8.78999996      0.130373940    
  -8.77999973      0.129552647    
  -8.77000046      0.128449693    
  -8.76000023      0.127069801    
  -8.75000000      0.125418901    
  -8.73999977      0.123504452    
  -8.72999954      0.121335208    
  -8.72000027      0.118921138    
  -8.71000004      0.116273150    
  -8.69999981      0.113403186    
  -8.68999958      0.110323727    
  -8.68000031      0.107048318    
  -8.67000008      0.103590339    
  -8.65999985       9.99636129E-02
  -8.64999962       9.61823761E-02
  -8.64000034       9.22607854E-02
  -8.63000011       8.82130265E-02
  -8.61999989       8.40534866E-02
  -8.60999966       7.97962099E-02
  -8.60000038       7.54551962E-02
  -8.59000015       7.10441247E-02
  -8.57999992       6.65760264E-02
  -8.56999969       6.20632730E-02
  -8.56000042       5.75177670E-02
  -8.55000019       5.29503785E-02
  -8.53999996       4.83716130E-02
  -8.52999973       4.37906832E-02
  -8.52000046       3.92167903E-02
  -8.51000023       3.46582159E-02
  -8.50000000       3.01224217E-02
  -8.48999977       2.56162547E-02
  -8.47999954       2.11458560E-02
  -8.47000027       1.67162791E-02
  -8.46000004       1.23322001E-02
  -8.44999981       7.99736567E-03
  -8.43999958       3.71510535E-03
  -8.43000031      -5.11528982E-04
  -8.42000008      -4.67980560E-03
  -8.40999985      -8.78687575E-03
  -8.39999962      -1.28301140E-02
  -8.39000034      -1.68068036E-02
  -8.38000011      -2.07139794E-02
  -8.36999989      -2.45487634E-02
  -8.35999966      -2.83077601E-02
  -8.35000038      -3.19872610E-02
  -8.34000015      -3.55830304E-02
  -8.32999992      -3.90899666E-02
  -8.31999969      -4.25023660E-02
  -8.31000042      -4.58134003E-02
  -8.30000019      -4.90158871E-02
  -8.28999996      -5.21019883E-02
  -8.27999973      -5.50632775E-02
  -8.27000046      -5.78911230E-02
  -8.26000023      -6.05764948E-02
  -8.25000000      -6.31099865E-02
  -8.23999977      -6.54818267E-02
  -8.22999954      -6.76814094E-02
  -8.22000027      -6.96977749E-02
  -8.21000004      -7.15193152E-02
  -8.19999981      -7.31342435E-02
  -8.18999958      -7.45303780E-02
  -8.18000031      -7.56957904E-02
  -8.17000008      -7.66190216E-02
  -8.15999985      -7.72889927E-02
  -8.14999962      -7.76949450E-02
  -8.14000034      -7.78267235E-02
  -8.13000011      -7.76744038E-02
  -8.11999989      -7.72283077E-02
  -8.10999966      -7.64794797E-02
  -8.10000038      -7.54193068E-02
  -8.09000015      -7.40401596E-02
  -8.07999992      -7.23356083E-02
  -8.06999969      -7.03004152E-02
  -8.06000042      -6.79311976E-02
  -8.05000019      -6.52256906E-02
  -8.03999996      -6.21833242E-02
  -8.02999973      -5.88048883E-02
  -8.02000046      -5.50921746E-02
  -8.01000023      -5.10478467E-02
  -8.00000000      -4.66760620E-02
  -7.98999977      -4.19819616E-02
  -7.98000002      -3.69721055E-02
  -7.96999979      -3.16545293E-02
  -7.96000004      -2.60381661E-02
  -7.94999981      -2.01338362E-02
  -7.94000006      -1.39533579E-02
  -7.92999983      -7.50894053E-03
  -7.92000008      -8.14085302E-04
  -7.90999985       6.11781329E-03
  -7.90000010       1.32726282E-02
  -7.88999987       2.06352528E-02
  -7.88000011       2.81901676E-02
  -7.86999989       3.59208770E-02
  -7.86000013       4.38100249E-02
  -7.84999990       5.18393964E-02
  -7.84000015       5.99907227E-02
  -7.82999992       6.82450905E-02
  -7.82000017       7.65840486E-02
  -7.80999994       8.49895626E-02
  -7.80000019       9.34442356E-02
  -7.78999996      0.101930983    
  -7.78000021      0.110433124    
  -7.76999998      0.118933916    
  -7.76000023      0.127417535    
  -7.75000000      0.135867029    
  -7.73999977      0.144267291    
  -7.73000002      0.152602956    
  -7.71999979      0.160860240    
  -7.71000004      0.169026092    
  -7.69999981      0.177088872    
  -7.69000006      0.185038224    
  -7.67999983      0.192864463    
  -7.67000008      0.200558484    
  -7.65999985      0.208111465    
  -7.65000010      0.215515390    
  -7.63999987      0.222762868    
  -7.63000011      0.229846403    
  -7.61999989      0.236760557    
  -7.61000013      0.243500277    
  -7.59999990      0.250062108    
  -7.59000015      0.256443888    
  -7.57999992      0.262644649    
  -7.57000017      0.268664151    
  -7.55999994      0.274503469    
  -7.55000019      0.280163080    
  -7.53999996      0.285645723    
  -7.53000021      0.290953875    
  -7.51999998      0.296091884    
  -7.51000023      0.301065117    
  -7.50000000      0.305880398    
  -7.48999977      0.310544997    
  -7.48000002      0.315068096    
  -7.46999979      0.319458634    
  -7.46000004      0.323726088    
  -7.44999981      0.327879786    
  -7.44000006      0.331928939    