  -16.0000000       0.00000000    
  -15.9899998       0.00000000    
  -15.9799995       0.00000000    
  -15.9700003       0.00000000    
  -15.9600000       0.00000000    
  -15.9499998       0.00000000    
  -15.9399996       0.00000000    
  -15.9300003       0.00000000    
  -15.9200001       0.00000000    
  -15.9099998       0.00000000    
  -15.8999996       0.00000000    
  -15.8900003       0.00000000    
  -15.8800001       0.00000000    
  -15.8699999       0.00000000    
  -15.8599997       0.00000000    
  -15.8500004       0.00000000    
  -15.8400002       0.00000000    
  -15.8299999       1.40129846E-45
  -15.8199997       7.00649232E-45
  -15.8100004       3.50324616E-44
  -15.8000002       1.66754517E-43
  -15.7900000       7.32879097E-43
  -15.7799997       2.87966834E-42
  -15.7700005       1.00389022E-41
  -15.7600002       3.08565922E-41
  -15.7500000       8.32119054E-41
  -15.7399998       1.95411071E-40
  -15.7299995       3.93296835E-40
  -15.7200003       6.53320377E-40
  -15.7100000       8.02621721E-40
  -15.6999998       3.79865389E-40
  -15.6899996      -1.44334022E-39
  -15.6800003      -5.65400949E-39
  -15.6700001      -1.26098785E-38
  -15.6599998      -2.05926975E-38
  -15.6499996      -2.43703207E-38
  -15.6400003      -1.57117451E-38
  -15.6300001       1.11593328E-38
  -15.6199999       4.73327849E-38
  -15.6099997       5.44665375E-38
  -15.6000004      -3.57542845E-38
  -15.5900002      -2.77033635E-37
  -15.5799999      -5.88059048E-37
  -15.5699997      -5.68922917E-37
  -15.5600004       6.19284462E-37
  -15.5500002       4.01466190E-36
  -15.5400000       9.84433471E-36
  -15.5299997       1.55368053E-35
  -15.5200005       1.34065389E-35
  -15.5100002      -9.69683399E-36
  -15.5000000      -6.66672323E-35
  -15.4899998      -1.54173236E-34
  -15.4799995      -2.27098093E-34
  -15.4700003      -1.76474074E-34
  -15.4600000       1.57682924E-34
  -15.4499998       8.94344204E-34
  -15.4399996       1.91187415E-33
  -15.4300003       2.58527611E-33
  -15.4200001       1.64325735E-33
  -15.4099998      -2.51619360E-33
  -15.3999996      -1.06791612E-32
  -15.3900003      -2.07676659E-32
  -15.3800001      -2.56322215E-32
  -15.3699999      -1.26534356E-32
  -15.3599997       3.18805852E-32
  -15.3500004       1.11165995E-31
  -15.3400002       2.00139621E-31
  -15.3299999       2.29918843E-31
  -15.3199997       9.16578496E-32
  -15.3100004      -3.18354715E-31
  -15.3000002      -9.99784088E-31
  -15.2900000      -1.71477317E-30
  -15.2799997      -1.89282219E-30
  -15.2700005      -7.02050694E-31
  -15.2600002       2.57375805E-30
  -15.2500000       7.80485743E-30
  -15.2399998       1.31199855E-29
  -15.2299995       1.43798641E-29
  -15.2200003       5.85331036E-30
  -15.2100000      -1.71055230E-29
  -15.1999998      -5.32753931E-29
  -15.1899996      -9.00838324E-29
  -15.1800003      -1.00819496E-28
  -15.1700001      -4.94205360E-29
  -15.1599998       9.29287740E-29
  -15.1499996       3.19547769E-28
  -15.1400003       5.57060503E-28
  -15.1300001       6.50495550E-28
  -15.1199999       3.90861584E-28
  -15.1099997      -3.93481908E-28
  -15.1000004      -1.68440023E-27
  -15.0900002      -3.10725724E-27
  -15.0799999      -3.84849182E-27
  -15.0699997      -2.78795539E-27
  -15.0600004       1.05002635E-27
  -15.0500002       7.74012139E-27
  -15.0400000       1.56151457E-26
  -15.0299997       2.08026503E-26
  -15.0200005       1.77474552E-26
  -15.0100002       1.21441159E-27
  -15.0000000      -3.02474478E-26
  -14.9899998      -7.03065564E-26
  -14.9799995      -1.02301134E-25
  -14.9700003      -1.00807567E-25
  -14.9600000      -3.96045522E-26
  -14.9499998       9.37110796E-26
  -14.9399996       2.79882253E-25
  -14.9300003       4.54751688E-25
  -14.9200001       5.11572747E-25
  -14.9099998       3.28952508E-25
  -14.8999996      -1.72648249E-25
  -14.8900003      -9.56727745E-25
  -14.8800001      -1.80706833E-24
  -14.8699999      -2.31651411E-24
  -14.8599997      -1.97036056E-24
  -14.8500004      -3.44266689E-25
  -14.8400002       2.61098878E-24
  -14.8299999       6.28946848E-24
  -14.8199997       9.30333721E-24
  -14.8100004       9.67413102E-24
  -14.8000002       5.44827060E-24
  -14.7900000      -4.30591639E-24
  -14.7799997      -1.83809529E-23
  -14.7700005      -3.26738898E-23
  -14.7600002      -4.03843267E-23
  -14.7500000      -3.36463660E-23
  -14.7399998      -6.65969550E-24
  -14.7299995       4.02998965E-23
  -14.7200003       9.73880784E-23
  -14.7100000       1.44165100E-22
  -14.6999998       1.52918427E-22
  -14.6899996       9.72386997E-23
  -14.6800003      -3.51779520E-23
  -14.6700001      -2.29023613E-22
  -14.6599998      -4.32897784E-22
  -14.6499996      -5.62355942E-22
  -14.6400003      -5.19239002E-22
  -14.6300001      -2.27286402E-22
  -14.6199999       3.23126035E-22
  -14.6099997       1.03587267E-21
  -14.6000004       1.69526183E-21
  -14.5900002       1.99606194E-21
  -14.5799999       1.62631170E-21
  -14.5699997       3.93900288E-22
  -14.5600004      -1.63466106E-21
  -14.5500002      -4.03478629E-21
  -14.5400000      -6.02295569E-21
  -14.5299997      -6.60073690E-21
  -14.5200005      -4.85236183E-21
  -14.5100002      -3.46802944E-22
  -14.5000000       6.46806569E-21
  -14.4899998       1.40378269E-20
  -14.4799995       1.98025778E-20
  -14.4700003       2.07305404E-20
  -14.4600000       1.42654971E-20
  -14.4499998      -4.97215823E-22
  -14.4399996      -2.17545916E-20
  -14.4300003      -4.45062364E-20
  -14.4200001      -6.10473897E-20
  -14.4099998      -6.26624340E-20
  -14.3999996      -4.23822498E-20
  -14.3900003       1.77470995E-21
  -14.3800001       6.40594193E-20
  -14.3699999       1.29927753E-19
  -14.3599997       1.77685259E-19
  -14.3500004       1.83296968E-19
  -14.3400002       1.27873631E-19
  -14.3299999       6.22214102E-21
  -14.3199997      -1.66113648E-19
  -14.3100004      -3.50310576E-19
  -14.3000002      -4.88740492E-19
  -14.2900000      -5.17478608E-19
  -14.2799997      -3.85486897E-19
  -14.2700005      -7.63798092E-20
  -14.2600002       3.73618768E-19
  -14.2500000       8.68843632E-19
  -14.2399998       1.26459734E-18
  -14.2299995       1.39726842E-18
  -14.2200003       1.13095070E-18
  -14.2100000       4.10870045E-19
  -14.1999998      -6.91487889E-19
  -14.1899996      -1.95889294E-18
  -14.1800003      -3.04916103E-18
  -14.1700001      -3.56251139E-18
  -14.1599998      -3.14882265E-18
  -14.1499996      -1.63325561E-18
  -14.1400003       8.73798961E-19
  -14.1300001       3.92196148E-18
  -14.1199999       6.75518495E-18
  -14.1099997       8.45117776E-18
  -14.1000004       8.15360450E-18
  -14.0900002       5.35214105E-18
  -14.0799999       1.37727666E-19
  -14.0699997      -6.65249296E-18
  -14.0600004      -1.34757143E-17
  -14.0500002      -1.83479843E-17
  -14.0400000      -1.93130014E-17
  -14.0299997      -1.50276284E-17
  -14.0200005      -5.31831515E-18
  -14.0100002       8.46583954E-18
  -14.0000000       2.34599043E-17
  -13.9899998       3.57366046E-17
  -13.9799995       4.11799427E-17
  -13.9700003       3.66209665E-17
  -13.9600000       2.09628015E-17
  -13.9499998      -4.03644700E-18
  -13.9399996      -3.36266356E-17
  -13.9300003      -6.07534249E-17
  -13.9200001      -7.75462766E-17
  -13.9099998      -7.73426909E-17
  -13.8999996      -5.67756523E-17
  -13.8900003      -1.73406388E-17
  -13.8800001       3.41019468E-17
  -13.8699999       8.62267430E-17
  -13.8599997       1.25540977E-16
  -13.8500004       1.39673351E-16
  -13.8400002       1.20896086E-16
  -13.8299999       6.89310449E-17
  -13.8199997      -7.85502787E-18
  -13.8100004      -9.34422197E-17
  -13.8000002      -1.67374729E-16
  -13.7900000      -2.09620087E-16
  -13.7799997      -2.05937956E-16
  -13.7700005      -1.52333992E-16
  -13.7600002      -5.72461593E-17
  -13.7500000       5.94112747E-17
  -13.7399998       1.70437508E-16
  -13.7299995       2.47948355E-16
  -13.7200003       2.70793469E-16
  -13.7100000       2.30777806E-16
  -13.6999998       1.35806645E-16
  -13.6899996       8.76344506E-18
  -13.6800003      -1.17955479E-16
  -13.6700001      -2.11065443E-16
  -13.6599998      -2.45942607E-16
  -13.6499996      -2.14360746E-16
  -13.6400003      -1.27931158E-16
  -13.6300001      -1.57835987E-17
  -13.6199999       8.33978846E-17
  -13.6099997       1.33145652E-16
  -13.6000004       1.11573403E-16
  -13.5900002       2.05499275E-17
  -13.5799999      -1.11603724E-16
  -13.5699997      -2.35626725E-16
  -13.5600004      -2.94493000E-16
  -13.5500002      -2.41286044E-16
  -13.5400000      -5.69586048E-17
  -13.5299997       2.37505312E-16
  -13.5200005       5.79138661E-16
  -13.5100002       8.73507756E-16
  -13.5000000       1.01660725E-15
  -13.4899998       9.23553798E-16
  -13.4799995       5.56855077E-16
  -13.4700003      -5.38878192E-17
  -13.4600000      -8.07695308E-16
  -13.4499998      -1.54678582E-15
  -13.4399996      -2.08863608E-15
  -13.4300003      -2.26913096E-15
  -13.4200001      -1.98656691E-15
  -13.4099998      -1.23486943E-15
  -13.3999996      -1.16046743E-16
  -13.3900003       1.17344990E-15
  -13.3800001       2.38125250E-15
  -13.3699999       3.25438529E-15
  -13.3599997       3.59806763E-15
  -13.3500004       3.32276795E-15
  -13.3400002       2.46649769E-15
  -13.3299999       1.18542579E-15
  -13.3199997      -2.85570858E-16
  -13.3100004      -1.69208913E-15
  -13.3000002      -2.82252448E-15
  -13.2900000      -3.55518956E-15
  -13.2799997      -3.87559036E-15
  -13.2700005      -3.85782977E-15
  -13.2600002      -3.61538565E-15
  -13.2500000      -3.23726484E-15
  -13.2399998      -2.73228011E-15
  -13.2299995      -2.00430124E-15
  -13.2200003      -8.73931484E-16
  -13.2100000       8.51654359E-16
  -13.1999998       3.27549144E-15
  -13.1899996       6.30358489E-15
  -13.1800003       9.57084550E-15
  -13.1700001       1.24349968E-14
  -13.1599998       1.40594544E-14
  -13.1499996       1.35836395E-14
  -13.1400003       1.03526451E-14
  -13.1300001       4.15507142E-15
  -13.1199999      -4.59495384E-15
  -13.1099997      -1.47926800E-14
  -13.1000004      -2.47356457E-14
  -13.0900002      -3.23815342E-14
  -13.0799999      -3.57366385E-14
  -13.0699997      -3.33024319E-14
  -13.0600004      -2.44828724E-14
  -13.0500002      -9.85157001E-15
  -13.0400000       8.80066555E-15
  -13.0299997       2.86745420E-14
  -13.0200005       4.64071937E-14
  -13.0100002       5.86768183E-14
  -13.0000000       6.28475882E-14
  -12.9899998       5.75178807E-14
  -12.9799995       4.28491335E-14
  -12.9700003       2.05966683E-14
  -12.9600000      -6.17148036E-15
  -12.9499998      -3.36110398E-14
  -12.9399996      -5.77779469E-14
  -12.9300003      -7.52981119E-14
  -12.9200001      -8.38877104E-14
  -12.9099998      -8.26212606E-14
  -12.8999996      -7.19104274E-14
  -12.8900003      -5.32312401E-14
  -12.8800001      -2.87004138E-14
  -12.8699999      -6.35786636E-16
  -12.8599997       2.87700229E-14
  -12.8500004       5.75780607E-14
  -12.8400002       8.40208708E-14
  -12.8299999       1.06276316E-13
  -12.8199997       1.22224699E-13
  -12.8100004       1.29340359E-13
  -12.8000002       1.24843861E-13
  -12.7900000       1.06167930E-13
  -12.7799997       7.16896770E-14
  -12.7700005       2.15765990E-14
  -12.7600002      -4.14812905E-14
  -12.7500000      -1.11902654E-13
  -12.7399998      -1.81411757E-13
  -12.7299995      -2.39892931E-13
  -12.7200003      -2.76841917E-13
  -12.7100000      -2.83195478E-13
  -12.6999998      -2.53197447E-13
  -12.6899996      -1.85905233E-13
  -12.6800003      -8.59783368E-14
  -12.6700001       3.64852598E-14
  -12.6599998       1.67112038E-13
  -12.6499996       2.89250476E-13
  -12.6400003       3.86456953E-13
  -12.6300001       4.45013546E-13
  -12.6199999       4.56007736E-13
  -12.6099997       4.16599372E-13
  -12.6000004       3.30273000E-13
  -12.5900002       2.06088957E-13
  -12.5799999       5.71481813E-14
  -12.5699997      -1.01371141E-13
  -12.5600004      -2.54200008E-13
  -12.5500002      -3.87635779E-13
  -12.5400000      -4.90649134E-13
  -12.5299997      -5.55396495E-13
  -12.5200005      -5.77255962E-13
  -12.5100002      -5.54611587E-13
  -12.5000000      -4.88626446E-13
  -12.4899998      -3.83174070E-13
  -12.4799995      -2.44952631E-13
  -12.4700003      -8.36457843E-14
  -12.4600000       8.81333174E-14
  -12.4499998       2.55423260E-13
  -12.4399996       4.02259416E-13
  -12.4300003       5.13842983E-13
  -12.4200001       5.79350370E-13
  -12.4099998       5.94938649E-13
  -12.3999996       5.66314899E-13
  -12.3900003       5.10175886E-13
  -12.3800001       4.53931841E-13
  -12.3699999       4.33397459E-13
  -12.3599997       4.88524856E-13
  -12.3500004       6.57677092E-13
  -12.3400002       9.71307995E-13
  -12.3299999       1.44613098E-12
  -12.3199997       2.08085155E-12
  -12.3100004       2.85431054E-12
  -12.3000002       3.72647356E-12
  -12.2900000       4.64217336E-12
  -12.2799997       5.53698623E-12
  -12.2700005       6.34425585E-12
  -12.2600002       7.00207513E-12
  -12.2500000       7.45911232E-12
  -12.2399998       7.67847071E-12
  -12.2299995       7.63918529E-12
  -12.2200003       7.33553149E-12
  -12.2100000       6.77465636E-12
  -12.1999998       5.97334205E-12
  -12.1899996       4.95478355E-12
  -12.1800003       3.74596968E-12
  -12.1700001       2.37604814E-12
  -12.1599998       8.75569365E-13
  -12.1499996      -7.23731242E-13
  -12.1400003      -2.38917241E-12
  -12.1300001      -4.08792488E-12
  -12.1199999      -5.78863910E-12
  -12.1099997      -7.46386546E-12
  -12.1000004      -9.09279683E-12
  -12.0900002      -1.06637598E-11
  -12.0799999      -1.21755436E-11
  -12.0699997      -1.36369830E-11
  -12.0600004      -1.50644740E-11
  -12.0500002      -1.64775537E-11
  -12.0400000      -1.78931765E-11
  -12.0299997      -1.93197559E-11
  -12.0200005      -2.07520737E-11
  -12.0100002      -2.21681805E-11
  -12.0000000      -2.35289913E-11
  -11.9899998      -2.47808007E-11
  -11.9799995      -2.58603191E-11
  -11.9700003      -2.67013547E-11
  -11.9600000      -2.72418754E-11
  -11.9499998      -2.74303184E-11
  -11.9399996      -2.72299319E-11
  -11.9300003      -2.66207681E-11
  -11.9200001      -2.55989830E-11
  -11.9099998      -2.41740933E-11
  -11.8999996      -2.23648877E-11
  -11.8900003      -2.01951199E-11
  -11.8800001      -1.76896484E-11
  -11.8699999      -1.48719162E-11
  -11.8599997      -1.17630497E-11
  -11.8500004      -8.38213093E-12
  -11.8400002      -4.74755651E-12
  -11.8299999      -8.78770852E-13
  -11.8199997       3.20226788E-12
  -11.8100004       7.47026312E-12
  -11.8000002       1.18964005E-11
  -11.7900000       1.64488232E-11
  -11.7799997       2.10934846E-11
  -11.7700005       2.57948680E-11
  -11.7600002       3.05164644E-11
  -11.7500000       3.52207499E-11
  -11.7399998       3.98687611E-11
  -11.7299995       4.44196485E-11
  -11.7200003       4.88304085E-11
  -11.7100000       5.30561671E-11
  -11.6999998       5.70512908E-11
  -11.6899996       6.07710202E-11
  -11.6800003       6.41735762E-11
  -11.6700001       6.72222902E-11
  -11.6599998       6.98870406E-11
  -11.6499996       7.21450538E-11
  -11.6400003       7.39802317E-11
  -11.6300001       7.53818397E-11
  -11.6199999       7.63420716E-11
  -11.6099997       7.68534750E-11
  -11.6000004       7.69063840E-11
  -11.5900002       7.64872748E-11
  -11.5799999       7.55777246E-11
  -11.5699997       7.41543840E-11
  -11.5600004       7.21898236E-11
  -11.5500002       6.96537689E-11
  -11.5400000       6.65145369E-11
  -11.5299997       6.27405905E-11
  -11.5200005       5.83016829E-11
  -11.5100002       5.31702946E-11
  -11.5000000       4.73226493E-11
  -11.4899998       4.07406990E-11
  -11.4799995       3.34137232E-11
  -11.4700003       2.53408648E-11
  -11.4600000       1.65331863E-11
  -11.4499998       7.01567710E-12
  -11.4399996      -3.17141257E-12
  -11.4300003      -1.39727865E-11
  -11.4200001      -2.53195624E-11
  -11.4099998      -3.71321376E-11
  -11.3999996      -4.93242738E-11
  -11.3900003      -6.18077672E-11
  -11.3800001      -7.44973944E-11
  -11.3699999      -8.73149400E-11
  -11.3599997      -1.00192771E-10
  -11.3500004      -1.13075847E-10
  -11.3400002      -1.25922661E-10
  -11.3299999      -1.38705200E-10
  -11.3199997      -1.51408316E-10
  -11.3100004      -1.64028471E-10
  -11.3000002      -1.76572409E-10
  -11.2900000      -1.89055563E-10
  -11.2799997      -2.01500441E-10
  -11.2700005      -2.13934620E-10
  -11.2600002      -2.26388394E-10
  -11.2500000      -2.38891684E-10
  -11.2399998      -2.51471011E-10
  -11.2299995      -2.64146149E-10
  -11.2200003      -2.76927370E-10
  -11.2100000      -2.89812896E-10
  -11.1999998      -3.02787906E-10
  -11.1899996      -3.15824089E-10
  -11.1800003      -3.28881367E-10
  -11.1700001      -3.41910000E-10
  -11.1599998      -3.54853508E-10
  -11.1499996      -3.67652242E-10
  -11.1400003      -3.80247139E-10
  -11.1300001      -3.92581440E-10
  -11.1199999      -4.04603739E-10
  -11.1099997      -4.16270268E-10
  -11.1000004      -4.27545360E-10
  -11.0900002      -4.38402842E-10
  -11.0799999      -4.48826559E-10
  -11.0699997      -4.58812072E-10
  -11.0600004      -4.68366290E-10
  -11.0500002      -4.77509920E-10
  -11.0400000      -4.86277241E-10
  -11.0299997      -4.94714547E-10
  -11.0200005      -5.02881237E-10
  -11.0100002      -5.10845033E-10
  -11.0000000      -5.18678045E-10
  -10.9899998      -5.26453048E-10
  -10.9799995      -5.34237488E-10
  -10.9700003      -5.42086875E-10
  -10.9600000      -5.50041401E-10
  -10.9499998      -5.58122770E-10
  -10.9399996      -5.66331926E-10
  -10.9300003      -5.74650216E-10
  -10.9200001      -5.83041171E-10
  -10.9099998      -5.91452609E-10
  -10.8999996      -5.99821914E-10
  -10.8900003      -6.08078088E-10
  -10.8800001      -6.16143692E-10
  -10.8699999      -6.23939567E-10
  -10.8599997      -6.31384889E-10
  -10.8500004      -6.38399555E-10
  -10.8400002      -6.44908016E-10
  -10.8299999      -6.50837162E-10
  -10.8199997      -6.56121990E-10
  -10.8100004      -6.60708543E-10
  -10.8000002      -6.64555022E-10
  -10.7900000      -6.67636779E-10
  -10.7799997      -6.69941269E-10
  -10.7700005      -6.71472211E-10
  -10.7600002      -6.72246203E-10
  -10.7500000      -6.72289391E-10
  -10.7399998      -6.71633527E-10
  -10.7299995      -6.70313860E-10
  -10.7200003      -6.68366418E-10
  -10.7100000      -6.65825561E-10
  -10.6999998      -6.62722821E-10
  -10.6899996      -6.59092669E-10
  -10.6800003      -6.54966859E-10
  -10.6700001      -6.50383802E-10
  -10.6599998      -6.45381637E-10
  -10.6499996      -6.40006936E-10
  -10.6400003      -6.34308717E-10
  -10.6300001      -6.28337993E-10
  -10.6199999      -6.22147389E-10
  -10.6099997      -6.15789197E-10
  -10.6000004      -6.09314099E-10
  -10.5900002      -6.02769223E-10
  -10.5799999      -5.96198035E-10
  -10.5699997      -5.89638005E-10
  -10.5600004      -5.83125104E-10
  -10.5500002      -5.76691417E-10
  -10.5400000      -5.70366976E-10
  -10.5299997      -5.64177871E-10
  -10.5200005      -5.58150026E-10
  -10.5100002      -5.52302926E-10
  -10.5000000      -5.46652168E-10
  -10.4899998      -5.41207024E-10
  -10.4799995      -5.35971045E-10
  -10.4700003      -5.30941457E-10
  -10.4600000      -5.26111654E-10
  -10.4499998      -5.21472976E-10
  -10.4399996      -5.17015930E-10
  -10.4300003      -5.12730414E-10
  -10.4200001      -5.08609488E-10
  -10.4099998      -5.04648157E-10
  -10.3999996      -5.00841202E-10
  -10.3900003      -4.97184738E-10
  -10.3800001      -4.93675267E-10
  -10.3699999      -4.90303742E-10
  -10.3599997      -4.87061114E-10
  -10.3500004      -4.83931561E-10
  -10.3400002      -4.80901263E-10
  -10.3299999      -4.77953011E-10
  -10.3199997      -4.75068318E-10
  -10.3100004      -4.72228312E-10
  -10.3000002      -4.69411288E-10
  -10.2900000      -4.66594041E-10
  -10.2799997      -4.63752453E-10
  -10.2700005      -4.60857630E-10
  -10.2600002      -4.57881011E-10
  -10.2500000      -4.54795340E-10
  -10.2399998      -4.51575666E-10
  -10.2299995      -4.48205362E-10
  -10.2200003      -4.44672327E-10
  -10.2100000      -4.40974895E-10
  -10.1999998      -4.37122061E-10
  -10.1899996      -4.33125341E-10
  -10.1800003      -4.29007524E-10
  -10.1700001      -4.24792562E-10
  -10.1599998      -4.20503271E-10
  -10.1499996      -4.16169654E-10
  -10.1400003      -4.11820134E-10
  -10.1300001      -4.07487183E-10
  -10.1199999      -4.03211520E-10
  -10.1099997      -3.99042216E-10
  -10.1000004      -3.95043082E-10
  -10.0900002      -3.91287919E-10
  -10.0799999      -3.87864685E-10
  -10.0699997      -3.84870358E-10
  -10.0600004      -3.82409743E-10
  -10.0500002      -3.80588144E-10
  -10.0400000      -3.79512421E-10
  -10.0299997      -3.79282356E-10
  -10.0200005      -3.79989179E-10
  -10.0100002      -3.81715409E-10
  -10.0000000      -3.84534571E-10
  -9.98999977      -3.88509863E-10
  -9.97999954      -3.93695909E-10
  -9.97000027      -4.00141281E-10
  -9.96000004      -4.07886253E-10
  -9.94999981      -4.16967044E-10
  -9.93999958      -4.27416103E-10
  -9.93000031      -4.39262793E-10
  -9.92000008      -4.52533760E-10
  -9.90999985      -4.67254180E-10
  -9.89999962      -4.83448948E-10
  -9.89000034      -5.01142017E-10
  -9.88000011      -5.20352150E-10
  -9.86999989      -5.41092893E-10
  -9.85999966      -5.63366798E-10
  -9.85000038      -5.87161486E-10
  -9.84000015      -6.12443651E-10
  -9.82999992      -6.39160336E-10
  -9.81999969      -6.67236488E-10
  -9.81000042      -6.96580627E-10
  -9.80000019      -7.27088723E-10
  -9.78999996      -7.58652696E-10
  -9.77999973      -7.91167576E-10
  -9.77000046      -8.24537494E-10
  -9.76000023      -8.58678406E-10
  -9.75000000      -8.93517871E-10
  -9.73999977      -9.28991106E-10
  -9.72999954      -9.65036606E-10
  -9.72000027      -1.00159447E-09
  -9.71000004      -1.03860065E-09
  -9.69999981      -1.07598785E-09
  -9.68999958      -1.11369214E-09
  -9.68000031      -1.15165233E-09
  -9.67000008      -1.18981691E-09
  -9.65999985      -1.22814814E-09
  -9.64999962      -1.26661936E-09
  -9.64000034      -1.30521671E-09
  -9.63000011      -1.34393108E-09
  -9.61999989      -1.38275313E-09
  -9.60999966      -1.42167211E-09
  -9.60000038      -1.46067003E-09
  -9.59000015      -1.49972401E-09
  -9.57999992      -1.53881063E-09
  -9.56999969      -1.57790836E-09
  -9.56000042      -1.61700409E-09
  -9.55000019      -1.65609504E-09
  -9.53999996      -1.69518866E-09
  -9.52999973      -1.73430403E-09
  -9.52000046      -1.77346993E-09
  -9.51000023      -1.81271342E-09
  -9.50000000      -1.85206517E-09
  -9.48999977      -1.89155291E-09
  -9.47999954      -1.93120209E-09
  -9.47000027      -1.97103156E-09
  -9.46000004      -2.01105399E-09
  -9.44999981      -2.05127648E-09
  -9.43999958      -2.09169437E-09
  -9.43000031      -2.13228835E-09
  -9.42000008      -2.17302554E-09
  -9.40999985      -2.21385332E-09
  -9.39999962      -2.25470176E-09
  -9.39000034      -2.29548291E-09
  -9.38000011      -2.33609354E-09
  -9.36999989      -2.37642173E-09
  -9.35999966      -2.41634290E-09
  -9.35000038      -2.45573006E-09
  -9.34000015      -2.49444732E-09
  -9.32999992      -2.53235410E-09
  -9.31999969      -2.56930566E-09
  -9.31000042      -2.60515498E-09
  -9.30000019      -2.63975575E-09
  -9.28999996      -2.67297051E-09
  -9.27999973      -2.70467204E-09
  -9.27000046      -2.73475020E-09
  -9.26000023      -2.76311707E-09
  -9.25000000      -2.78971002E-09
  -9.23999977      -2.81448642E-09
  -9.22999954      -2.83742763E-09
  -9.22000027      -2.85853097E-09
  -9.21000004      -2.87780866E-09
  -9.19999981      -2.89528401E-09
  -9.18999958      -2.91098390E-09
  -9.18000031      -2.92494295E-09
  -9.17000008      -2.93719871E-09
  -9.15999985      -2.94779512E-09
  -9.14999962      -2.95678149E-09
  -9.14000034      -2.96421776E-09
  -9.13000011      -2.97017544E-09
  -9.11999989      -2.97474489E-09
  -9.10999966      -2.97803293E-09
  -9.10000038      -2.98016767E-09
  -9.09000015      -2.98130431E-09
  -9.07999992      -2.98161429E-09
  -9.06999969      -2.98129699E-09
  -9.06000042      -2.98056468E-09
  -9.05000019      -2.97964431E-09
  -9.03999996      -2.97877811E-09
  -9.02999973      -2.97821501E-09
  -9.02000046      -2.97820857E-09
  -9.01000023      -2.97901459E-09
  -9.00000000      -2.98089020E-09
  -8.98999977      -2.98408698E-09
  -8.97999954      -2.98885272E-09
  -8.97000027      -2.99542857E-09
  -8.96000004      -3.00405079E-09
  -8.94999981      -3.01494962E-09
  -8.93999958      -3.02834779E-09
  -8.93000031      -3.04446890E-09
  -8.92000008      -3.06353232E-09
  -8.90999985      -3.08574943E-09
  -8.89999962      -3.11132586E-09
  -8.89000034      -3.14045989E-09
  -8.88000011      -3.17332516E-09
  -8.86999989      -3.21008353E-09
  -8.85999966      -3.25088001E-09
  -8.85000038      -3.29584360E-09
  -8.84000015      -3.34509376E-09
  -8.82999992      -3.39875572E-09
  -8.81999969      -3.45694828E-09
  -8.81000042      -3.51980867E-09
  -8.80000019      -3.58747920E-09
  -8.78999996      -3.66010355E-09
  -8.77999973      -3.73782827E-09
  -8.77000046      -3.82078991E-09
  -8.76000023      -3.90911348E-09
  -8.75000000      -4.00290689E-09
  -8.73999977      -4.10226209E-09
  -8.72999954      -4.20725854E-09
  -8.72000027      -4.31795621E-09
  -8.71000004      -4.43440618E-09
  -8.69999981      -4.55663418E-09
  -8.68999958      -4.68464467E-09
  -8.68000031      -4.81841234E-09
  -8.67000008      -4.95787189E-09
  -8.65999985      -5.10292208E-09
  -8.64999962      -5.25342525E-09
  -8.64000034      -5.40921485E-09
  -8.63000011      -5.57009638E-09
  -8.61999989      -5.73585712E-09
  -8.60999966      -5.90626570E-09
  -8.60000038      -6.08108142E-09
  -8.59000015      -6.26003516E-09
  -8.57999992      -6.44284182E-09
  -8.56999969      -6.62919142E-09
  -8.56000042      -6.81875889E-09
  -8.55000019      -7.01120095E-09
  -8.53999996      -7.20617477E-09
  -8.52999973      -7.40334327E-09
  -8.52000046      -7.60238450E-09
  -8.51000023      -7.80300002E-09
  -8.50000000      -8.00490696E-09
  -8.48999977      -8.20783352E-09
  -8.47999954      -8.41151682E-09
  -8.47000027      -8.61570104E-09
  -8.46000004      -8.82012330E-09
  -8.44999981      -9.02453223E-09
  -8.43999958      -9.22867738E-09
  -8.43000031      -9.43233935E-09
  -8.42000008      -9.63531566E-09
  -8.40999985      -9.83742954E-09
  -8.39999962      -1.00385265E-08
  -8.39000034      -1.02384758E-08
  -8.38000011      -1.04371480E-08
  -8.36999989      -1.06344258E-08
  -8.35999966      -1.08301847E-08
  -8.35000038      -1.10242944E-08
  -8.34000015      -1.12166347E-08
  -8.32999992      -1.14070895E-08
  -8.31999969      -1.15955370E-08
  -8.31000042      -1.17818706E-08
  -8.30000019      -1.19659926E-08
  -8.28999996      -1.21477930E-08
  -8.27999973      -1.23271606E-08
  -8.27000046      -1.25039730E-08
  -8.26000023      -1.26780835E-08
  -8.25000000      -1.28493349E-08
  -8.23999977      -1.30175577E-08
  -8.22999954      -1.31825804E-08
  -8.22000027      -1.33442031E-08
  -8.21000004      -1.35022402E-08
  -8.19999981      -1.36564902E-08
  -8.18999958      -1.38067477E-08
  -8.18000031      -1.39527865E-08
  -8.17000008      -1.40943763E-08
  -8.15999985      -1.42312757E-08
  -8.14999962      -1.43632075E-08
  -8.14000034      -1.44899097E-08
  -8.13000011      -1.46110724E-08
  -8.11999989      -1.47264050E-08
  -8.10999966      -1.48355754E-08
  -8.10000038      -1.49382782E-08
  -8.09000015      -1.50341855E-08
  -8.07999992      -1.51229695E-08
  -8.06999969      -1.52043125E-08
  -8.06000042      -1.52779176E-08
  -8.05000019      -1.53434900E-08
  -8.03999996      -1.54007349E-08
  -8.02999973      -1.54494160E-08
  -8.02000046      -1.54892952E-08
  -8.01000023      -1.55201771E-08
  -8.00000000      -1.55418967E-08
  -7.98999977      -1.55543329E-08
  -7.98000002      -1.55574114E-08
  -7.96999979      -1.55511160E-08
  -7.96000004      -1.55354574E-08
  -7.94999981      -1.55104996E-08
  -7.94000006      -1.54763384E-08
  -7.92999983      -1.54331001E-08
  -7.92000008      -1.53809232E-08
  -7.90999985      -1.53200013E-08
  -7.90000010      -1.52505297E-08
  -7.88999987      -1.51727537E-08
  -7.88000011      -1.50869504E-08
  -7.86999989      -1.49934412E-08
  -7.86000013      -1.48925787E-08
  -7.84999990      -1.47847494E-08
  -7.84000015      -1.46703716E-08
  -7.82999992      -1.45498715E-08
  -7.82000017      -1.44237164E-08
  -7.80999994      -1.42923930E-08
  -7.80000019      -1.41564112E-08
  -7.78999996      -1.40163383E-08
  -7.78000021      -1.38727723E-08
  -7.76999998      -1.37263765E-08
  -7.76000023      -1.35778562E-08
  -7.75000000      -1.34279672E-08
  -7.73999977      -1.32774645E-08
  -7.73000002      -1.31271296E-08
  -7.71999979      -1.29777558E-08
  -7.71000004      -1.28301014E-08
  -7.69999981      -1.26849384E-08
  -7.69000006      -1.25430297E-08
  -7.67999983      -1.24051276E-08
  -7.67000008      -1.22719923E-08
  -7.65999985      -1.21443673E-08
  -7.65000010      -1.20229711E-08
  -7.63999987      -1.19084804E-08
  -7.63000011      -1.18015286E-08
  -7.61999989      -1.17026824E-08
  -7.61000013      -1.16124639E-08
  -7.59999990      -1.15313448E-08
  -7.59000015      -1.14597398E-08
  -7.57999992      -1.13980825E-08
  -7.57000017      -1.13467555E-08
  -7.55999994      -1.13061418E-08
  -7.55000019      -1.12766099E-08
  -7.53999996      -1.12584901E-08
  -7.53000021      -1.12520784E-08
  -7.51999998      -1.12576011E-08
  -7.51000023      -1.12752669E-08
  -7.50000000      -1.13052403E-08
  -7.48999977      -1.13476348E-08
  -7.48000002      -1.14025749E-08
  -7.46999979      -1.14701493E-08
  -7.46000004      -1.15504379E-08
  -7.44999981      -1.16435057E-08
  -7.44000006      -1.17493935E-08