  -16.0000000       0.00000000    
  -15.9899998       0.00000000    
  -15.9799995       0.00000000    
  -15.9700003       0.00000000    
  -15.9600000       0.00000000    
  -15.9499998       0.00000000    
  -15.9399996       0.00000000    
  -15.9300003       0.00000000    
  -15.9200001       0.00000000    
  -15.9099998       0.00000000    
  -15.8999996       0.00000000    
  -15.8900003       0.00000000    
  -15.8800001      -7.00649232E-45
  -15.8699999      -7.00649232E-45
  -15.8599997       3.56910719E-42
  -15.8500004       7.45406705E-41
  -15.8400002       8.50572754E-40
  -15.8299999       6.84657334E-39
  -15.8199997       4.30750348E-38
  -15.8100004       2.23838013E-37
  -15.8000002       9.93263848E-37
  -15.7900000       3.84375317E-36
  -15.7799997       1.31458667E-35
  -15.7700005       4.00532194E-35
  -15.7600002       1.09141310E-34
  -15.7500000       2.66008219E-34
  -15.7399998       5.77403973E-34
  -15.7299995       1.10389132E-33
  -15.7200003       1.81398927E-33
  -15.7100000       2.41521239E-33
  -15.6999998       2.12921241E-33
  -15.6899996      -4.44707467E-34
  -15.6800003      -7.08055202E-33
  -15.6700001      -1.89297041E-32
  -15.6599998      -3.46499853E-32
  -15.6499996      -4.82168358E-32
  -15.6400003      -4.79362247E-32
  -15.6300001      -1.86874420E-32
  -15.6199999       5.16057537E-32
  -15.6099997       1.63304166E-31
  -15.6000004       2.99582752E-31
  -15.5900002       4.28925616E-31
  -15.5799999       5.11208340E-31
  -15.5699997       4.87452023E-31
  -15.5600004       2.27813180E-31
  -15.5500002      -5.53593328E-31
  -15.5400000      -2.31458844E-30
  -15.5299997      -5.40990261E-30
  -15.5200005      -9.29150608E-30
  -15.5100002      -1.12551173E-29
  -15.5000000      -5.55929722E-30
  -15.4899998       1.52792990E-29
  -15.4799995       5.48684080E-29
  -15.4700003       1.02533393E-28
  -15.4600000       1.22411542E-28
  -15.4499998       5.32573495E-29
  -15.4399996      -1.65309946E-28
  -15.4300003      -5.30373710E-28
  -15.4200001      -8.91543305E-28
  -15.4099998      -9.00635042E-28
  -15.3999996      -8.89796306E-29
  -15.3900003       1.84025476E-27
  -15.3800001       4.51641203E-27
  -15.3699999       6.42165980E-27
  -15.3599997       4.89389006E-27
  -15.3500004      -2.81919667E-27
  -15.3400002      -1.71891528E-26
  -15.3299999      -3.33401523E-26
  -15.3199997      -3.92271346E-26
  -15.3100004      -1.80511343E-26
  -15.3000002       4.25234023E-26
  -15.2900000       1.34891073E-25
  -15.2799997       2.16238213E-25
  -15.2700005       2.06593390E-25
  -15.2600002       1.57915424E-26
  -15.2500000      -3.92976064E-25
  -15.2399998      -9.17584368E-25
  -15.2299995      -1.25647024E-24
  -15.2200003      -9.46972494E-25
  -15.2100000       4.29944724E-25
  -15.1999998       2.87670909E-24
  -15.1899996       5.56591067E-24
  -15.1800003       6.66806295E-24
  -15.1700001       3.78184730E-24
  -15.1599998      -4.79275835E-24
  -15.1499996      -1.81117920E-23
  -15.1400003      -3.08078803E-23
  -15.1300001      -3.29407583E-23
  -15.1199999      -1.30631248E-23
  -15.1099997       3.48458826E-23
  -15.1000004       1.02146639E-22
  -15.0900002       1.58584859E-22
  -15.0799999       1.54533964E-22
  -15.0699997       3.87926642E-23
  -15.0600004      -2.07176104E-22
  -15.0500002      -5.28313654E-22
  -15.0400000      -7.70784656E-22
  -15.0299997      -7.02748192E-22
  -15.0200005      -1.04885614E-22
  -15.0100002       1.07296291E-21
  -15.0000000       2.53950890E-21
  -14.9899998       3.57479996E-21
  -14.9799995       3.15231382E-21
  -14.9700003       3.55656740E-22
  -14.9600000      -4.94834791E-21
  -14.9499998      -1.14107603E-20
  -14.9399996      -1.58968136E-20
  -14.9300003      -1.40655407E-20
  -14.9200001      -2.13362858E-21
  -14.9099998       2.03846997E-20
  -14.8999996       4.79175001E-20
  -14.8900003       6.77094119E-20
  -14.8800001       6.21800584E-20
  -14.8699999       1.58418400E-20
  -14.8599997      -7.40946387E-20
  -14.8500004      -1.87063432E-19
  -14.8400002      -2.74585422E-19
  -14.8299999      -2.68599555E-19
  -14.8199997      -1.06638244E-19
  -14.8100004       2.29141980E-19
  -14.8000002       6.71831286E-19
  -14.7900000       1.05018106E-18
  -14.7799997       1.11371122E-18
  -14.7700005       6.17417846E-19
  -14.7600002      -5.42162711E-19
  -14.7500000      -2.18069832E-18
  -14.7399998      -3.74156869E-18
  -14.7299995      -4.35597736E-18
  -14.7200003      -3.10393156E-18
  -14.7100000       5.39480216E-19
  -14.6999998       6.19367696E-18
  -14.6899996       1.22228492E-17
  -14.6800003       1.58189160E-17
  -14.6700001       1.37242101E-17
  -14.6599998       3.59488310E-18
  -14.6499996      -1.43138989E-17
  -14.6400003      -3.57954171E-17
  -14.6300001      -5.25181272E-17
  -14.6199999      -5.37575614E-17
  -14.6099997      -3.02211032E-17
  -14.6000004       2.07552867E-17
  -14.5900002       9.03889703E-17
  -14.5799999       1.56481674E-16
  -14.5699997       1.86684195E-16
  -14.5600004       1.48131517E-16
  -14.5500002       2.22006541E-17
  -14.5400000      -1.79823798E-16
  -14.5299997      -4.06843001E-16
  -14.5200005      -5.71040285E-16
  -14.5100002      -5.68812164E-16
  -14.5000000      -3.18660915E-16
  -14.4899998       1.92711722E-16
  -14.4799995       8.72461300E-16
  -14.4700003       1.51194629E-15
  -14.4600000       1.82221817E-15
  -14.4499998       1.51953592E-15
  -14.4399996       4.46632267E-16
  -14.4300003      -1.30571389E-15
  -14.4200001      -3.32729894E-15
  -14.4099998      -4.91796223E-15
  -14.3999996      -5.24777187E-15
  -14.3900003      -3.63650006E-15
  -14.3800001       1.12001909E-16
  -14.3699999       5.43235856E-15
  -14.3599997       1.09098174E-14
  -14.3500004       1.44905348E-14
  -14.3400002       1.40226525E-14
  -14.3299999       8.04422193E-15
  -14.3199997      -3.39226531E-15
  -14.3100004      -1.81595597E-14
  -14.3000002      -3.20681185E-14
  -14.2900000      -3.96534341E-14
  -14.2799997      -3.57216664E-14
  -14.2700005      -1.73500435E-14
  -14.2600002       1.42320492E-14
  -14.2500000       5.26053132E-14
  -14.2399998       8.66263306E-14
  -14.2299995       1.02734797E-13
  -14.2200003       8.88951185E-14
  -14.2100000       3.93220545E-14
  -14.1999998      -4.14040513E-14
  -14.1899996      -1.36453511E-13
  -14.1800003      -2.18450556E-13
  -14.1700001      -2.55311560E-13
  -14.1599998      -2.19528754E-13
  -14.1499996      -9.88425582E-14
  -14.1400003       9.48354554E-14
  -14.1300001       3.21738513E-13
  -14.1199999       5.18590271E-13
  -14.1099997       6.11955419E-13
  -14.1000004       5.38922097E-13
  -14.0900002       2.70578563E-13
  -14.0799999      -1.68451489E-13
  -14.0699997      -6.91818890E-13
  -14.0600004      -1.16049087E-12
  -14.0500002      -1.41109964E-12
  -14.0400000      -1.30014391E-12
  -14.0299997      -7.54623848E-13
  -14.0200005       1.84967750E-13
  -14.0100002       1.34486888E-12
  -14.0000000       2.43409524E-12
  -13.9899998       3.10119942E-12
  -13.9799995       3.02526927E-12
  -13.9700003       2.02231461E-12
  -13.9600000       1.38366450E-13
  -13.9499998      -2.30289420E-12
  -13.9399996      -4.72456102E-12
  -13.9300003      -6.40423088E-12
  -13.9200001      -6.65350934E-12
  -13.9099998      -5.03269952E-12
  -13.8999996      -1.54413114E-12
  -13.8900003       3.25989344E-12
  -13.8800001       8.30794114E-12
  -13.8699999       1.22028030E-11
  -13.8599997       1.35570288E-11
  -13.8500004       1.14021657E-11
  -13.8400002       5.56527784E-12
  -13.8299999      -3.10737655E-12
  -13.8199997      -1.27793375E-11
  -13.8100004      -2.09500056E-11
  -13.8000002      -2.50414706E-11
  -13.7900000      -2.31236523E-11
  -13.7799997      -1.45894321E-11
  -13.7700005      -5.70422886E-13
  -13.7600002       1.60768152E-11
  -13.7500000       3.12858142E-11
  -13.7399998       4.07302421E-11
  -13.7299995       4.10007410E-11
  -13.7200003       3.06982044E-11
  -13.7100000       1.11093574E-11
  -13.6999998      -1.37947934E-11
  -13.6899996      -3.81312100E-11
  -13.6800003      -5.55219863E-11
  -13.6700001      -6.08187598E-11
  -13.6599998      -5.16592671E-11
  -13.6499996      -2.93732087E-11
  -13.6400003       1.10401347E-12
  -13.6300001       3.23839358E-11
  -13.6199999       5.65945346E-11
  -13.6099997       6.76324691E-11
  -13.6000004       6.30172789E-11
  -13.5900002       4.47226318E-11
  -13.5799999       1.86276359E-11
  -13.5699997      -7.34851242E-12
  -13.5600004      -2.59140660E-11
  -13.5500002      -3.30232508E-11
  -13.5400000      -2.95044718E-11
  -13.5299997      -2.09800441E-11
  -13.5200005      -1.58672520E-11
  -13.5100002      -2.19140140E-11
  -13.5000000      -4.23371650E-11
  -13.4899998      -7.29766803E-11
  -13.4799995      -1.01787488E-10
  -13.4700003      -1.11413975E-10
  -13.4600000      -8.46383380E-11
  -13.4499998      -1.14160964E-11
  -13.4399996       1.04645202E-10
  -13.4300003       2.42816045E-10
  -13.4200001       3.66776526E-10
  -13.4099998       4.31921693E-10
  -13.3999996       3.97474331E-10
  -13.3900003       2.40645531E-10
  -13.3800001      -3.11932702E-11
  -13.3699999      -3.74627357E-10
  -13.3599997      -7.13867354E-10
  -13.3500004      -9.54979651E-10
  -13.3400002      -1.00867970E-09
  -13.3299999      -8.16727019E-10
  -13.3199997      -3.74925174E-10
  -13.3100004       2.54575777E-10
  -13.3000002       9.47200318E-10
  -13.2900000       1.53790325E-09
  -13.2799997       1.85814264E-09
  -13.2700005       1.78009851E-09
  -13.2600002       1.25711386E-09
  -13.2500000       3.48715751E-10
  -13.2399998      -7.78860365E-10
  -13.2299995      -1.88024107E-09
  -13.2200003      -2.68299694E-09
  -13.2100000      -2.95352165E-09
  -13.1999998      -2.56095856E-09
  -13.1899996      -1.52211388E-09
  -13.1800003      -1.34859329E-11
  -13.1700001       1.65614555E-09
  -13.1599998       3.10932413E-09
  -13.1499996       3.98655464E-09
  -13.1400003       4.03561673E-09
  -13.1300001       3.18077542E-09
  -13.1199999       1.55270341E-09
  -13.1099997      -5.31127919E-10
  -13.1000004      -2.63340683E-09
  -13.0900002      -4.29651603E-09
  -13.0799999      -5.15038767E-09
  -13.0699997      -5.00103337E-09
  -13.0600004      -3.87604215E-09
  -13.0500002      -2.01404848E-09
  -13.0400000       1.99884387E-10
  -13.0299997       2.33582775E-09
  -13.0200005       4.02915434E-09
  -13.0100002       5.06733500E-09
  -13.0000000       5.42687761E-09
  -12.9899998       5.24777555E-09
  -12.9799995       4.75165196E-09
  -12.9700003       4.12848200E-09
  -12.9600000       3.42973472E-09
  -12.9499998       2.50843657E-09
  -12.9399996       1.03690712E-09
  -12.9300003      -1.38798673E-09
  -12.9200001      -5.06949682E-09
  -12.9099998      -1.00096038E-08
  -12.8999996      -1.57432840E-08
  -12.8900003      -2.12724043E-08
  -12.8800001      -2.51468038E-08
  -12.8699999      -2.57067487E-08
  -12.8599997      -2.14573888E-08
  -12.8500004      -1.15029106E-08
  -12.8400002       4.06208400E-09
  -12.8299999       2.39135609E-08
  -12.8199997       4.54993376E-08
  -12.8100004       6.53205703E-08
  -12.8000002       7.94680020E-08
  -12.7900000       8.43209804E-08
  -12.7799997       7.72672948E-08
  -12.7700005       5.72841721E-08
  -12.7600002       2.52434944E-08
  -12.7500000      -1.61350897E-08
  -12.7399998      -6.26738910E-08
  -12.7299995      -1.09373381E-07
  -12.7200003      -1.51133648E-07
  -12.7100000      -1.83379072E-07
  -12.6999998      -2.02437462E-07
  -12.6899996      -2.05606071E-07
  -12.6800003      -1.90946665E-07
  -12.6700001      -1.56955437E-07
  -12.6599998      -1.02322012E-07
  -12.6499996      -2.59896957E-08
  -12.6400003       7.23421252E-08
  -12.6300001       1.91272292E-07
  -12.6199999       3.26472616E-07
  -12.6099997       4.69498815E-07
  -12.6000004       6.07038089E-07
  -12.5900002       7.20979642E-07
  -12.5799999       7.89573733E-07
  -12.5699997       7.89727892E-07
  -12.5600004       7.00235830E-07
  -12.5500002       5.05496985E-07
  -12.5400000       1.99127399E-07
  -12.5299997      -2.13164739E-07
  -12.5200005      -7.11962684E-07
  -12.5100002      -1.26408338E-06
  -12.5000000      -1.82410452E-06
  -12.4899998      -2.33722903E-06
  -12.4799995      -2.74305557E-06
  -12.4700003      -2.97974725E-06
  -12.4600000      -2.98814825E-06
  -12.4499998      -2.71554859E-06
  -12.4399996      -2.11898055E-06
  -12.4300003      -1.16808951E-06
  -12.4200001       1.52313106E-07
  -12.4099998       1.83993166E-06
  -12.3999996       3.87295950E-06
  -12.3900003       6.20856736E-06
  -12.3800001       8.78226638E-06
  -12.3699999       1.15085713E-05
  -12.3599997       1.42832932E-05
  -12.3500004       1.69876257E-05
  -12.3400002       1.94938330E-05
  -12.3299999       2.16721728E-05
  -12.3199997       2.33983192E-05
  -12.3100004       2.45605788E-05
  -12.3000002       2.50662233E-05
  -12.2900000       2.48463875E-05
  -12.2799997       2.38593602E-05
  -12.2700005       2.20922921E-05
  -12.2600002       1.95615048E-05
  -12.2500000       1.63116820E-05
  -12.2399998       1.24141879E-05
  -12.2299995       7.96453241E-06
  -12.2200003       3.07895903E-06
  -12.2100000      -2.10994244E-06
  -12.1999998      -7.45875195E-06
  -12.1899996      -1.28197271E-05
  -12.1800003      -1.80480583E-05
  -12.1700001      -2.30093319E-05
  -12.1599998      -2.75864895E-05
  -12.1499996      -3.16856676E-05
  -12.1400003      -3.52401839E-05
  -12.1300001      -3.82124344E-05
  -12.1199999      -4.05934952E-05
  -12.1099997      -4.24006612E-05
  -12.1000004      -4.36730879E-05
  -12.0900002      -4.44662001E-05
  -12.0799999      -4.48449646E-05
  -12.0699997      -4.48766696E-05
  -12.0600004      -4.46233898E-05
  -12.0500002      -4.41348384E-05
  -12.0400000      -4.34420617E-05
  -12.0299997      -4.25528269E-05
  -12.0200005      -4.14495007E-05
  -12.0100002      -4.00901299E-05
  -12.0000000      -3.84130071E-05
  -11.9899998      -3.63446561E-05
  -11.9799995      -3.38103127E-05
  -11.9700003      -3.07455921E-05
  -11.9600000      -2.71075078E-05
  -11.9499998      -2.28830722E-05
  -11.9399996      -1.80940842E-05
  -11.9300003      -1.27972717E-05
  -11.9200001      -7.07990603E-06
  -11.9099998      -1.05186166E-06
  -11.8999996       5.16444652E-06
  -11.8900003       1.14444720E-05
  -11.8800001       1.76707181E-05
  -11.8699999       2.37395943E-05
  -11.8599997       2.95655136E-05
  -11.8500004       3.50823138E-05
  -11.8400002       4.02425503E-05
  -11.8299999       4.50153348E-05
  -11.8199997       4.93832704E-05
  -11.8100004       5.33388666E-05
  -11.8000002       5.68806136E-05
  -11.7900000       6.00087296E-05
  -11.7799997       6.27209447E-05
  -11.7700005       6.50086731E-05
  -11.7600002       6.68542634E-05
  -11.7500000       6.82302052E-05
  -11.7399998       6.91006426E-05
  -11.7299995       6.94254850E-05
  -11.7200003       6.91664391E-05
  -11.7100000       6.82936370E-05
  -11.6999998       6.67916465E-05
  -11.6899996       6.46629123E-05
  -11.6800003       6.19279162E-05
  -11.6700001       5.86217648E-05
  -11.6599998       5.47882446E-05
  -11.6499996       5.04728305E-05
  -11.6400003       4.57168244E-05
  -11.6300001       4.05543033E-05
  -11.6199999       3.50128394E-05
  -11.6099997       2.91176966E-05
  -11.6000004       2.28981244E-05
  -11.5900002       1.63936147E-05
  -11.5799999       9.65805430E-06
  -11.5699997       2.76003539E-06
  -11.5600004      -4.22088897E-06
  -11.5500002      -1.12012185E-05
  -11.5400000      -1.81016530E-05
  -11.5299997      -2.48541000E-05
  -11.5200005      -3.14053650E-05
  -11.5100002      -3.77165634E-05
  -11.5000000      -4.37585841E-05
  -11.4899998      -4.95052991E-05
  -11.4799995      -5.49269571E-05
  -11.4700003      -5.99861014E-05
  -11.4600000      -6.46377230E-05
  -11.4499998      -6.88336659E-05
  -11.4399996      -7.25302089E-05
  -11.4300003      -7.56962545E-05
  -11.4200001      -7.83196228E-05
  -11.4099998      -8.04092488E-05
  -11.3999996      -8.19924535E-05
  -11.3900003      -8.31079597E-05
  -11.3800001      -8.37968691E-05
  -11.3699999      -8.40942012E-05
  -11.3599997      -8.40236535E-05
  -11.3500004      -8.35972460E-05
  -11.3400002      -8.28195116E-05
  -11.3299999      -8.16950487E-05
  -11.3199997      -8.02364375E-05
  -11.3100004      -7.84697550E-05
  -11.3000002      -7.64354627E-05
  -11.2900000      -7.41836266E-05
  -11.2799997      -7.17645598E-05
  -11.2700005      -6.92169560E-05
  -11.2600002      -6.65567786E-05
  -11.2500000      -6.37700577E-05
  -11.2399998      -6.08118535E-05
  -11.2299995      -5.76121201E-05
  -11.2200003      -5.40879919E-05
  -11.2100000      -5.01600662E-05
  -11.1999998      -4.57700808E-05
  -11.1899996      -4.08966480E-05
  -11.1800003      -3.55665652E-05
  -11.1700001      -2.98599898E-05
  -11.1599998      -2.39084620E-05
  -11.1499996      -1.78863193E-05
  -11.1400003      -1.19962397E-05
  -11.1300001      -6.45058026E-06
  -11.1199999      -1.45063359E-06
  -11.1099997       2.83409054E-06
  -11.1000004       6.28396856E-06
  -11.0900002       8.84245310E-06
  -11.0799999       1.05222180E-05
  -11.0699997       1.14030263E-05
  -11.0600004       1.16209130E-05
  -11.0500002       1.13498281E-05
  -11.0400000       1.07780825E-05
  -11.0299997       1.00830430E-05
  -11.0200005       9.40809696E-06
  -11.0100002       8.84565634E-06
  -11.0000000       8.42901682E-06
  -10.9899998       8.13424867E-06
  -10.9799995       7.89158275E-06
  -10.9700003       7.60376861E-06
  -10.9600000       7.16780505E-06
  -10.9499998       6.49583080E-06
  -10.9399996       5.53132531E-06
  -10.9300003       4.25802227E-06
  -10.9200001       2.70041278E-06
  -10.9099998       9.16636111E-07
  -10.8999996      -1.01402861E-06
  -10.8900003      -3.00588545E-06
  -10.8800001      -4.98038435E-06
  -10.8699999      -6.87576267E-06
  -10.8599997      -8.65113634E-06
  -10.8500004      -1.02848880E-05
  -10.8400002      -1.17685868E-05
  -10.8299999      -1.30986155E-05
  -10.8199997      -1.42681056E-05
  -10.8100004      -1.52613866E-05
  -10.8000002      -1.60522777E-05
  -10.7900000      -1.66062582E-05
  -10.7799997      -1.68854858E-05
  -10.7700005      -1.68547085E-05
  -10.7600002      -1.64859484E-05
  -10.7500000      -1.57603445E-05
  -10.7399998      -1.46665097E-05
  -10.7299995      -1.31959059E-05
  -10.7200003      -1.13369315E-05
  -10.7100000      -9.06987498E-06
  -10.6999998      -6.36487903E-06
  -10.6899996      -3.18438379E-06
  -10.6800003       5.09819927E-07
  -10.6700001       4.74595618E-06
  -10.6599998       9.53013841E-06
  -10.6499996       1.48355393E-05
  -10.6400003       2.05953766E-05
  -10.6300001       2.67017331E-05
  -10.6199999       3.30110415E-05
  -10.6099997       3.93558548E-05
  -10.6000004       4.55616464E-05
  -10.5900002       5.14659805E-05
  -10.5799999       5.69374279E-05
  -10.5699997       6.18910490E-05
  -10.5600004       6.62976308E-05
  -10.5500002       7.01845129E-05
  -10.5400000       7.36270231E-05
  -10.5299997       7.67310121E-05
  -10.5200005       7.96086752E-05
  -10.5100002       8.23517403E-05
  -10.5000000       8.50071447E-05
  -10.4899998       8.75606493E-05
  -10.4799995       8.99326260E-05
  -10.4700003       9.19882950E-05
  -10.4600000       9.35609933E-05
  -10.4499998       9.44841522E-05
  -10.4399996       9.46248620E-05
  -10.4300003       9.39109741E-05
  -10.4200001       9.23450425E-05
  -10.4099998       9.00011801E-05
  -10.3999996       8.70055665E-05
  -10.3900003       8.35053579E-05
  -10.3800001       7.96339664E-05
  -10.3699999       7.54815846E-05
  -10.3599997       7.10781969E-05
  -10.3500004       6.63924293E-05
  -10.3400002       6.13457669E-05
  -10.3299999       5.58367174E-05
  -10.3199997       4.97681431E-05
  -10.3100004       4.30703476E-05
  -10.3000002       3.57150238E-05
  -10.2900000       2.77189356E-05
  -10.2799997       1.91391337E-05
  -10.2700005       1.00643856E-05
  -10.2600002       6.07364257E-07
  -10.2500000      -9.09931805E-06
  -10.2399998      -1.89027778E-05
  -10.2299995      -2.86277682E-05
  -10.2200003      -3.80767633E-05
  -10.2100000      -4.70359410E-05
  -10.1999998      -5.52887723E-05
  -10.1899996      -6.26360707E-05
  -10.1800003      -6.89182489E-05
  -10.1700001      -7.40342875E-05
  -10.1599998      -7.79521361E-05
  -10.1499996      -8.07073666E-05
  -10.1400003      -8.23902374E-05
  -10.1300001      -8.31246798E-05
  -10.1199999      -8.30442659E-05
  -10.1099997      -8.22710426E-05
  -10.1000004      -8.09015910E-05
  -10.0900002      -7.90018603E-05
  -10.0799999      -7.66102894E-05
  -10.0699997      -7.37461378E-05
  -10.0600004      -7.04203194E-05
  -10.0500002      -6.66454289E-05
  -10.0400000      -6.24439344E-05
  -10.0299997      -5.78537583E-05
  -10.0200005      -5.29318713E-05
  -10.0100002      -4.77557551E-05
  -10.0000000      -4.24223690E-05
  -9.98999977      -3.70438684E-05
  -9.97999954      -3.17393096E-05
  -9.97000027      -2.66226634E-05
  -9.96000004      -2.17889556E-05
  -9.94999981      -1.73016706E-05
  -9.93999958      -1.31850784E-05
  -9.93000031      -9.42418683E-06
  -9.92000008      -5.97302096E-06
  -9.90999985      -2.76925743E-06
  -9.89999962       2.49272006E-07
  -9.89000034       3.13125383E-06
  -9.88000011       5.90629770E-06
  -9.86999989       8.58856311E-06
  -9.85999966       1.11881991E-05
  -9.85000038       1.37258958E-05
  -9.84000015       1.62451724E-05
  -9.82999992       1.88175763E-05
  -9.81999969       2.15391101E-05
  -9.81000042       2.45197534E-05
  -9.80000019       2.78707248E-05
  -9.78999996       3.16950682E-05
  -9.77999973       3.60860213E-05
  -9.77000046       4.11337423E-05
  -9.76000023       4.69373808E-05
  -9.75000000       5.36164953E-05
  -9.73999977       6.13147349E-05
  -9.72999954       7.01909375E-05
  -9.72000027       8.03973671E-05
  -9.71000004       9.20480888E-05
  -9.69999981       1.05185725E-04
  -9.68999958       1.19754695E-04
  -9.68000031       1.35588096E-04
  -9.67000008       1.52410925E-04
  -9.65999985       1.69858089E-04
  -9.64999962       1.87501792E-04
  -9.64000034       2.04881799E-04
  -9.63000011       2.21531824E-04
  -9.61999989       2.36999578E-04
  -9.60999966       2.50859826E-04
  -9.60000038       2.62722751E-04
  -9.59000015       2.72240199E-04
  -9.57999992       2.79111060E-04
  -9.56999969       2.83085770E-04
  -9.56000042       2.83967238E-04
  -9.55000019       2.81607208E-04
  -9.53999996       2.75897066E-04
  -9.52999973       2.66756077E-04
  -9.52000046       2.54121784E-04
  -9.51000023       2.37947927E-04
  -9.50000000       2.18214191E-04
  -9.48999977       1.94947206E-04
  -9.47999954       1.68247963E-04
  -9.47000027       1.38317497E-04
  -9.46000004       1.05471394E-04
  -9.44999981       7.01361641E-05
  -9.43999958       3.28276437E-05
  -9.43000031      -5.88433022E-06
  -9.42000008      -4.54138935E-05
  -9.40999985      -8.51880468E-05
  -9.39999962      -1.24658225E-04
  -9.39000034      -1.63292090E-04
  -9.38000011      -2.00551207E-04
  -9.36999989      -2.35866304E-04
  -9.35999966      -2.68623116E-04
  -9.35000038      -2.98169442E-04
  -9.34000015      -3.23846267E-04
  -9.32999992      -3.45037930E-04
  -9.31999969      -3.61228798E-04
  -9.31000042      -3.72051058E-04
  -9.30000019      -3.77311255E-04
  -9.28999996      -3.76988552E-04
  -9.27999973      -3.71207774E-04
  -9.27000046      -3.60194652E-04
  -9.26000023      -3.44227825E-04
  -9.25000000      -3.23598098E-04
  -9.23999977      -2.98584055E-04
  -9.22999954      -2.69443612E-04
  -9.22000027      -2.36419510E-04
  -9.21000004      -1.99751492E-04
  -9.19999981      -1.59689604E-04
  -9.18999958      -1.16506439E-04
  -9.18000031      -7.05074272E-05
  -9.17000008      -2.20417605E-05
  -9.15999985       2.84852995E-05
  -9.14999962       8.05997552E-05
  -9.14000034       1.33751208E-04
  -9.13000011       1.87315338E-04
  -9.11999989       2.40612018E-04
  -9.10999966       2.92939134E-04
  -9.10000038       3.43616790E-04
  -9.09000015       3.92032089E-04
  -9.07999992       4.37672570E-04
  -9.06999969       4.80138988E-04
  -9.06000042       5.19133988E-04
  -9.05000019       5.54433034E-04
  -9.03999996       5.85846836E-04
  -9.02999973       6.13190932E-04
  -9.02000046       6.36272656E-04
  -9.01000023       6.54898700E-04
  -9.00000000       6.68899214E-04
  -8.98999977       6.78157143E-04
  -8.97999954       6.82629063E-04
  -8.97000027       6.82347105E-04
  -8.96000004       6.77402189E-04
  -8.94999981       6.67913468E-04
  -8.93999958       6.53998286E-04
  -8.93000031       6.35756587E-04
  -8.92000008       6.13276614E-04
  -8.90999985       5.86663082E-04
  -8.89999962       5.56075480E-04
  -8.89000034       5.21760317E-04
  -8.88000011       4.84062475E-04
  -8.86999989       4.43406083E-04
  -8.85999966       4.00249584E-04
  -8.85000038       3.55027907E-04
  -8.84000015       3.08103889E-04
  -8.82999992       2.59746623E-04
  -8.81999969       2.10148602E-04
  -8.81000042       1.59476403E-04
  -8.80000019       1.07940738E-04
  -8.78999996       5.58610736E-05
  -8.77999973       3.70230714E-06
  -8.77000046      -4.79301270E-05
  -8.76000023      -9.83354839E-05
  -8.75000000      -1.46789927E-04
  -8.73999977      -1.92621388E-04
  -8.72999954      -2.35265106E-04
  -8.72000027      -2.74284161E-04
  -8.71000004      -3.09353723E-04
  -8.69999981      -3.40220897E-04
  -8.68999958      -3.66659544E-04
  -8.68000031      -3.88441025E-04
  -8.67000008      -4.05333063E-04
  -8.65999985      -4.17127711E-04
  -8.64999962      -4.23687598E-04
  -8.64000034      -4.24992293E-04
  -8.63000011      -4.21168515E-04
  -8.61999989      -4.12491994E-04
  -8.60999966      -3.99364886E-04
  -8.60000038      -3.82276485E-04
  -8.59000015      -3.61765560E-04
  -8.57999992      -3.38396581E-04
  -8.56999969      -3.12756514E-04
  -8.56000042      -2.85467715E-04
  -8.55000019      -2.57204665E-04
  -8.53999996      -2.28698569E-04
  -8.52999973      -2.00719340E-04
  -8.52000046      -1.74032408E-04
  -8.51000023      -1.49339219E-04
  -8.50000000      -1.27217805E-04
  -8.48999977      -1.08081338E-04
  -8.47999954      -9.21674146E-05
  -8.47000027      -7.95585365E-05
  -8.46000004      -7.02258985E-05
  -8.44999981      -6.40771541E-05
  -8.43999958      -6.09912349E-05
  -8.43000031      -6.08270020E-05
  -8.42000008      -6.34053649E-05
  -8.40999985      -6.84751867E-05
  -8.39999962      -7.56810987E-05
  -8.39000034      -8.45517934E-05
  -8.38000011      -9.45204665E-05
  -8.36999989      -1.04976883E-04
  -8.35999966      -1.15338597E-04
  -8.35000038      -1.25121442E-04
  -8.34000015      -1.33988506E-04
  -8.32999992      -1.41764118E-04
  -8.31999969      -1.48411797E-04
  -8.31000042      -1.53986373E-04
  -8.30000019      -1.58579787E-04
  -8.28999996      -1.62279583E-04
  -8.27999973      -1.65153120E-04
  -8.27000046      -1.67259306E-04
  -8.26000023      -1.68677725E-04
  -8.25000000      -1.69537234E-04
  -8.23999977      -1.70027633E-04
  -8.22999954      -1.70383151E-04
  -8.22000027      -1.70838975E-04
  -8.21000004      -1.71572901E-04
  -8.19999981      -1.72651620E-04
  -8.18999958      -1.73999622E-04
  -8.18000031      -1.75402616E-04
  -8.17000008      -1.76543588E-04
  -8.15999985      -1.77059395E-04
  -8.14999962      -1.76598172E-04
  -8.14000034      -1.74857531E-04
  -8.13000011      -1.71592183E-04
  -8.11999989      -1.66591606E-04
  -8.10999966      -1.59640214E-04
  -8.10000038      -1.50480148E-04
  -8.09000015      -1.38795906E-04
  -8.07999992      -1.24232582E-04
  -8.06999969      -1.06446241E-04
  -8.06000042      -8.51722289E-05
  -8.05000019      -6.02894579E-05
  -8.03999996      -3.18592138E-05
  -8.02999973      -1.24324686E-07
  -8.02000046       3.45307890E-05
  -8.01000023       7.16455252E-05
  -8.00000000       1.10751491E-04
  -7.98999977       1.51420521E-04
  -7.98000002       1.93277141E-04
  -7.96999979       2.35973872E-04
  -7.96000004       2.79141997E-04
  -7.94999981       3.22340406E-04
  -7.94000006       3.65026295E-04
  -7.92999983       4.06562700E-04
  -7.92000008       4.46265447E-04
  -7.90999985       4.83476091E-04
  -7.90000010       5.17637527E-04
  -7.88999987       5.48347307E-04
  -7.88000011       5.75372600E-04
  -7.86999989       5.98621904E-04
  -7.86000013       6.18088641E-04
  -7.84999990       6.33787771E-04
  -7.84000015       6.45712018E-04
  -7.82999992       6.53823721E-04
  -7.82000017       6.58084871E-04
  -7.80999994       6.58512115E-04
  -7.80000019       6.55231008E-04
  -7.78999996       6.48505636E-04
  -7.78000021       6.38724829E-04
  -7.76999998       6.26344758E-04
  -7.76000023       6.11804542E-04
  -7.75000000       5.95442660E-04
  -7.73999977       5.77442232E-04
  -7.73000002       5.57827705E-04
  -7.71999979       5.36511885E-04
  -7.71000004       5.13379986E-04
  -7.69999981       4.88378282E-04
  -7.69000006       4.61578544E-04
  -7.67999983       4.33195557E-04
  -7.67000008       4.03551850E-04
  -7.65999985       3.73007992E-04
  -7.65000010       3.41885199E-04
  -7.63999987       3.10412957E-04
  -7.63000011       2.78721593E-04
  -7.61999989       2.46884534E-04
  -7.61000013       2.14992469E-04
  -7.59999990       1.83229800E-04
  -7.59000015       1.51920496E-04
  -7.57999992       1.21524034E-04
  -7.57000017       9.25770291E-05
  -7.55999994       6.56019110E-05
  -7.55000019       4.10122302E-05
  -7.53999996       1.90519695E-05
  -7.53000021      -2.12101412E-07
  -7.51999998      -1.68406568E-05
  -7.51000023      -3.09350289E-05
  -7.50000000      -4.25480612E-05
  -7.48999977      -5.16269065E-05
  -7.48000002      -5.80107408E-05
  -7.46999979      -6.14869932E-05
  -7.46000004      -6.18848208E-05
  -7.44999981      -5.91706339E-05
  -7.44000006      -5.35112194E-05