  -16.0000000       0.00000000    
  -15.9899998       0.00000000    
  -15.9799995       0.00000000    
  -15.9700003       0.00000000    
  -15.9600000       0.00000000    
  -15.9499998       0.00000000    
  -15.9399996       0.00000000    
  -15.9300003       0.00000000    
  -15.9200001       0.00000000    
  -15.9099998       0.00000000    
  -15.8999996       0.00000000    
  -15.8900003       0.00000000    
  -15.8800001       0.00000000    
  -15.8699999       0.00000000    
  -15.8599997       0.00000000    
  -15.8500004       0.00000000    
  -15.8400002      -0.00000000    
  -15.8299999      -2.80259693E-45
  -15.8199997      -1.82168800E-44
  -15.8100004      -9.10844002E-44
  -15.8000002      -3.55929810E-43
  -15.7900000      -1.08880891E-42
  -15.7799997      -2.48730477E-42
  -15.7700005      -3.37012281E-42
  -15.7600002       2.97635794E-42
  -15.7500000       3.80942988E-41
  -15.7399998       1.52831216E-40
  -15.7299995       4.38288325E-40
  -15.7200003       1.00818520E-39
  -15.7100000       1.91316056E-39
  -15.6999998       2.96048263E-39
  -15.6899996       3.47521038E-39
  -15.6800003       2.10646829E-39
  -15.6700001      -3.32810207E-39
  -15.6599998      -1.64964218E-38
  -15.6499996      -4.49813500E-38
  -15.6400003      -1.05070244E-37
  -15.6300001      -2.23694520E-37
  -15.6199999      -4.17918411E-37
  -15.6099997      -6.14065534E-37
  -15.6000004      -4.72402689E-37
  -15.5900002       8.36336088E-37
  -15.5799999       4.64278297E-36
  -15.5699997       1.20032566E-35
  -15.5600004       2.14066748E-35
  -15.5500002       2.48378226E-35
  -15.5400000       4.16447752E-36
  -15.5299997      -6.64986625E-35
  -15.5200005      -2.03392160E-34
  -15.5100002      -3.73518289E-34
  -15.5000000      -4.40194992E-34
  -15.4899998      -1.32662125E-34
  -15.4799995       8.81454449E-34
  -15.4700003       2.72680857E-33
  -15.4600000       4.82750257E-33
  -15.4499998       5.36972615E-33
  -15.4399996       1.23085683E-33
  -15.4300003      -1.08218118E-32
  -15.4200001      -3.09752577E-32
  -15.4099998      -5.15648641E-32
  -15.3999996      -5.30335973E-32
  -15.3900003      -5.73542208E-33
  -15.3800001       1.15973873E-31
  -15.3699999       3.03899003E-31
  -15.3599997       4.77155774E-31
  -15.3500004       4.58208591E-31
  -15.3400002       4.88332937E-33
  -15.3299999      -1.05880481E-30
  -15.3199997      -2.60418548E-30
  -15.3100004      -3.92577234E-30
  -15.3000002      -3.62686087E-30
  -15.2900000       5.30018824E-32
  -15.2799997       8.22233133E-30
  -15.2700005       1.96703125E-29
  -15.2600002       2.91516490E-29
  -15.2500000       2.69325986E-29
  -15.2399998       1.33936955E-30
  -15.2299995      -5.44135756E-29
  -15.2200003      -1.31764604E-28
  -15.2100000      -1.96779256E-28
  -15.1999998      -1.88451956E-28
  -15.1899996      -3.50542993E-29
  -15.1800003       3.05218609E-28
  -15.1700001       7.84371225E-28
  -15.1599998       1.20907436E-27
  -15.1499996       1.23239025E-27
  -15.1400003       4.43140447E-28
  -15.1300001      -1.41695818E-27
  -15.1199999      -4.13719681E-27
  -15.1099997      -6.74354586E-27
  -15.1000004      -7.43920640E-27
  -15.0900002      -4.02565080E-27
  -15.0799999       5.04930452E-27
  -15.0699997       1.91460178E-26
  -15.0600004       3.39424383E-26
  -15.0500002       4.09725141E-26
  -15.0400000       2.93242155E-26
  -15.0299997      -9.78516625E-27
  -15.0200005      -7.60131577E-26
  -15.0100002      -1.52741295E-25
  -15.0000000      -2.03874445E-25
  -14.9899998      -1.79504079E-25
  -14.9799995      -3.38821244E-26
  -14.9700003       2.45379942E-25
  -14.9600000       6.05174989E-25
  -14.9499998       9.07762853E-25
  -14.9399996       9.44661131E-25
  -14.9300003       4.99382480E-25
  -14.9200001      -5.41012297E-25
  -14.9099998      -2.05214631E-24
  -14.8999996      -3.57296127E-24
  -14.8900003      -4.31681332E-24
  -14.8800001      -3.36078056E-24
  -14.8699999      -3.15060846E-26
  -14.8599997       5.58451556E-24
  -14.8500004       1.21883136E-23
  -14.8400002       1.71400242E-23
  -14.8299999       1.69218537E-23
  -14.8199997       8.32553465E-24
  -14.8100004      -9.78338589E-24
  -14.8000002      -3.46445937E-23
  -14.7900000      -5.85785957E-23
  -14.7799997      -6.97191482E-23
  -14.7700005      -5.51657878E-23
  -14.7600002      -6.43732232E-24
  -14.7500000       7.40479372E-23
  -14.7399998       1.67922221E-22
  -14.7299995       2.40370108E-22
  -14.7200003       2.46866586E-22
  -14.7100000       1.47935325E-22
  -14.6999998      -7.05316118E-23
  -14.6899996      -3.77617971E-22
  -14.6800003      -6.87472059E-22
  -14.6700001      -8.68421907E-22
  -14.6599998      -7.76579767E-22
  -14.6499996      -3.11345224E-22
  -14.6400003       5.20529401E-22
  -14.6300001       1.55560210E-21
  -14.6199999       2.46696843E-21
  -14.6099997       2.82257754E-21
  -14.6000004       2.21393134E-21
  -14.5900002       4.33490705E-22
  -14.5799999      -2.35063303E-21
  -14.5699997      -5.49507875E-21
  -14.5600004      -7.92920956E-21
  -14.5500002      -8.39368440E-21
  -14.5400000      -5.85370274E-21
  -14.5299997       5.08142859E-24
  -14.5200005       8.35932329E-21
  -14.5100002       1.71030125E-20
  -14.5000000       2.31365632E-20
  -14.4899998       2.31450790E-20
  -14.4799995       1.47531556E-20
  -14.4700003      -2.24098596E-21
  -14.4600000      -2.49858176E-20
  -14.4499998      -4.75046498E-20
  -14.4399996      -6.17403732E-20
  -14.4300003      -5.97157129E-20
  -14.4200001      -3.63980408E-20
  -14.4099998       7.53329459E-21
  -14.3999996       6.40408594E-20
  -14.3900003       1.18142717E-19
  -14.3800001       1.50876270E-19
  -14.3699999       1.44543880E-19
  -14.3599997       8.90894975E-20
  -14.3500004      -1.22692098E-20
  -14.3400002      -1.40292649E-19
  -14.3299999      -2.61581316E-19
  -14.3199997      -3.35652031E-19
  -14.3100004      -3.26210565E-19
  -14.3000002      -2.13932119E-19
  -14.2900000      -6.89407704E-21
  -14.2799997       2.55323384E-19
  -14.2700005       5.06666633E-19
  -14.2600002       6.69179396E-19
  -14.2500000       6.74487259E-19
  -14.2399998       4.86771234E-19
  -14.2299995       1.20234644E-19
  -14.2200003      -3.55506149E-19
  -14.2100000      -8.26012892E-19
  -14.1999998      -1.15810869E-18
  -14.1899996      -1.23593605E-18
  -14.1800003      -9.97438371E-19
  -14.1700001      -4.60122783E-19
  -14.1599998       2.73317173E-19
  -14.1499996       1.03385975E-18
  -14.1400003       1.62673132E-18
  -14.1300001       1.88376633E-18
  -14.1199999       1.71281156E-18
  -14.1099997       1.12876446E-18
  -14.1000004       2.55221848E-19
  -14.0900002      -7.05955795E-19
  -14.0799999      -1.52974026E-18
  -14.0699997      -2.03163210E-18
  -14.0600004      -2.11984988E-18
  -14.0500002      -1.81834875E-18
  -14.0400000      -1.25168381E-18
  -14.0299997      -5.95344479E-19
  -14.0200005      -7.87658101E-21
  -14.0100002       4.30805176E-19
  -14.0000000       7.50337240E-19
  -13.9899998       1.07424126E-18
  -13.9799995       1.55770838E-18
  -13.9700003       2.29669592E-18
  -13.9600000       3.24075778E-18
  -13.9499998       4.14628542E-18
  -13.9399996       4.59919410E-18
  -13.9300003       4.11614048E-18
  -13.9200001       2.30683281E-18
  -13.9099998      -9.45210394E-19
  -13.8999996      -5.34171030E-18
  -13.8900003      -1.01252193E-17
  -13.8800001      -1.41681001E-17
  -13.8699999      -1.61963436E-17
  -13.8599997      -1.51085234E-17
  -13.8500004      -1.03147048E-17
  -13.8400002      -2.00227732E-18
  -13.8299999       8.75678212E-18
  -13.8199997       2.01096309E-17
  -13.8100004       2.97376029E-17
  -13.8000002       3.53254826E-17
  -13.7900000       3.50818084E-17
  -13.7799997       2.81851702E-17
  -13.7700005       1.50433796E-17
  -13.7600002      -2.70442586E-18
  -13.7500000      -2.24487388E-17
  -13.7399998      -4.10728493E-17
  -13.7299995      -5.55068003E-17
  -13.7200003      -6.32422393E-17
  -13.7100000      -6.26970148E-17
  -13.6999998      -5.33693523E-17
  -13.6899996      -3.57900967E-17
  -13.6800003      -1.13400060E-17
  -13.6700001       1.79657227E-17
  -13.6599998       4.96317136E-17
  -13.6499996       8.07294132E-17
  -13.6400003       1.07862486E-16
  -13.6300001       1.27148605E-16
  -13.6199999       1.34355996E-16
  -13.6099997       1.25321158E-16
  -13.6000004       9.67011392E-17
  -13.5900002       4.69957834E-17
  -13.5799999      -2.23589335E-17
  -13.5699997      -1.06127160E-16
  -13.5600004      -1.94971579E-16
  -13.5500002      -2.75984219E-16
  -13.5400000      -3.34155451E-16
  -13.5299997      -3.54669503E-16
  -13.5200005      -3.25679086E-16
  -13.5100002      -2.41039689E-16
  -13.5000000      -1.02424858E-16
  -13.4899998       7.96750425E-17
  -13.4799995       2.86367016E-16
  -13.4700003       4.92182999E-16
  -13.4600000       6.68049274E-16
  -13.4499998       7.84908798E-16
  -13.4399996       8.17439363E-16
  -13.4300003       7.47384074E-16
  -13.4200001       5.66189909E-16
  -13.4099998       2.76852904E-16
  -13.3999996      -1.04963085E-16
  -13.3900003      -5.50470672E-16
  -13.3800001      -1.01801290E-15
  -13.3699999      -1.45432402E-15
  -13.3599997      -1.79730905E-15
  -13.3500004      -1.98095130E-15
  -13.3400002      -1.94277531E-15
  -13.3299999      -1.63376467E-15
  -13.3199997      -1.02991520E-15
  -13.3100004      -1.43674801E-16
  -13.3000002       9.67171971E-16
  -13.2900000       2.19596828E-15
  -13.2799997       3.39143543E-15
  -13.2700005       4.37115884E-15
  -13.2600002       4.94407668E-15
  -13.2500000       4.93975088E-15
  -13.2399998       4.24031978E-15
  -13.2299995       2.80973089E-15
  -13.2200003       7.14428722E-16
  -13.2100000      -1.86951670E-15
  -13.1999998      -4.66586278E-15
  -13.1899996      -7.32469115E-15
  -13.1800003      -9.46324690E-15
  -13.1700001      -1.07159798E-14
  -13.1599998      -1.07866842E-14
  -13.1499996      -9.49532489E-15
  -13.1400003      -6.81284820E-15
  -13.1300001      -2.87914037E-15
  -13.1199999       1.99820070E-15
  -13.1099997       7.36415188E-15
  -13.1000004       1.26533814E-14
  -13.0900002       1.72407729E-14
  -13.0799999       2.05012839E-14
  -13.0699997       2.18750307E-14
  -13.0600004       2.09335130E-14
  -13.0500002       1.74424040E-14
  -13.0400000       1.14156011E-14
  -13.0299997       3.15374274E-15
  -13.0200005      -6.74043324E-15
  -13.0100002      -1.73781074E-14
  -13.0000000      -2.76382040E-14
  -12.9899998      -3.62620836E-14
  -12.9799995      -4.19860476E-14
  -12.9700003      -4.37012622E-14
  -12.9600000      -4.06231919E-14
  -12.9499998      -3.24461290E-14
  -12.9399996      -1.94563163E-14
  -12.9300003      -2.57845278E-15
  -12.9200001       1.66619529E-14
  -12.9099998       3.62664915E-14
  -12.8999996       5.39736814E-14
  -12.8900003       6.75275536E-14
  -12.8800001       7.49700527E-14
  -12.8699999       7.49162424E-14
  -12.8599997       6.67709703E-14
  -12.8500004       5.08535339E-14
  -12.8400002       2.84099814E-14
  -12.8299999       1.50858114E-15
  -12.8199997      -2.71688003E-14
  -12.8100004      -5.46140112E-14
  -12.8000002      -7.78236796E-14
  -12.7900000      -9.41365380E-14
  -12.7799997      -1.01541456E-13
  -12.7700005      -9.89266042E-14
  -12.7600002      -8.62461144E-14
  -12.7500000      -6.45883561E-14
  -12.7399998      -3.61341409E-14
  -12.7299995      -3.99878113E-15
  -12.7200003       2.80436956E-14
  -12.7100000       5.59469124E-14
  -12.6999998       7.58699337E-14
  -12.6899996       8.47104166E-14
  -12.6800003       8.06383972E-14
  -12.6700001       6.35575238E-14
  -12.6599998       3.54103852E-14
  -12.6499996       2.44738841E-16
  -12.6400003      -3.60253717E-14
  -12.6300001      -6.61930092E-14
  -12.6199999      -8.26515912E-14
  -12.6099997      -7.85300712E-14
  -12.6000004      -4.89423701E-14
  -12.5900002       7.82050104E-15
  -12.5799999       8.93463431E-14
  -12.5699997       1.88584852E-13
  -12.5600004       2.93899508E-13
  -12.5500002       3.89758267E-13
  -12.5400000       4.58054710E-13
  -12.5299997       4.79968224E-13
  -12.5200005       4.38188304E-13
  -12.5100002       3.19289381E-13
  -12.5000000       1.16009551E-13
  -12.4899998      -1.70798502E-13
  -12.4799995      -5.30746345E-13
  -12.4700003      -9.43166769E-13
  -12.4600000      -1.37714016E-12
  -12.4499998      -1.79232540E-12
  -12.4399996      -2.14057461E-12
  -12.4300003      -2.36828374E-12
  -12.4200001      -2.41937026E-12
  -12.4099998      -2.23877080E-12
  -12.3999996      -1.77627065E-12
  -12.3900003      -9.90470076E-13
  -12.3800001       1.47352237E-13
  -12.3699999       1.64977873E-12
  -12.3599997       3.51048270E-12
  -12.3500004       5.70244373E-12
  -12.3400002       8.17737805E-12
  -12.3299999       1.08665524E-11
  -12.3199997       1.36829931E-11
  -12.3100004       1.65250036E-11
  -12.3000002       1.92807558E-11
  -12.2900000       2.18335541E-11
  -12.2799997       2.40673991E-11
  -12.2700005       2.58723876E-11
  -12.2600002       2.71495101E-11
  -12.2500000       2.78145163E-11
  -12.2399998       2.78007582E-11
  -12.2299995       2.70607772E-11
  -12.2200003       2.55667779E-11
  -12.2100000       2.33102027E-11
  -12.1999998       2.03004575E-11
  -12.1899996       1.65631935E-11
  -12.1800003       1.21382062E-11
  -12.1700001       7.07724764E-12
  -12.1599998       1.44181650E-12
  -12.1499996      -4.69894523E-12
  -12.1400003      -1.12701411E-11
  -12.1300001      -1.81927719E-11
  -12.1199999      -2.53850448E-11
  -12.1099997      -3.27632886E-11
  -12.1000004      -4.02424725E-11
  -12.0900002      -4.77362559E-11
  -12.0799999      -5.51566501E-11
  -12.0699997      -6.24134772E-11
  -12.0600004      -6.94136762E-11
  -12.0500002      -7.60607757E-11
  -12.0400000      -8.22547794E-11
  -12.0299997      -8.78924364E-11
  -12.0200005      -9.28683311E-11
  -12.0100002      -9.70765898E-11
  -12.0000000      -1.00413122E-10
  -11.9899998      -1.02778383E-10
  -11.9799995      -1.04080300E-10
  -11.9700003      -1.04236980E-10
  -11.9600000      -1.03179396E-10
  -11.9499998      -1.00853402E-10
  -11.9399996      -9.72215156E-11
  -11.9300003      -9.22639326E-11
  -11.9200001      -8.59795360E-11
  -11.9099998      -7.83862072E-11
  -11.8999996      -6.95211735E-11
  -11.8900003      -5.94408966E-11
  -11.8800001      -4.82207434E-11
  -11.8699999      -3.59540002E-11
  -11.8599997      -2.27505514E-11
  -11.8500004      -8.73450184E-12
  -11.8400002       5.95860427E-12
  -11.8299999       2.11855238E-11
  -11.8199997       3.67994107E-11
  -11.8100004       5.26540339E-11
  -11.8000002       6.86078486E-11
  -11.7900000       8.45275516E-11
  -11.7799997       1.00290762E-10
  -11.7700005       1.15787817E-10
  -11.7600002       1.30922245E-10
  -11.7500000       1.45610760E-10
  -11.7399998       1.59781896E-10
  -11.7299995       1.73374523E-10
  -11.7200003       1.86335461E-10
  -11.7100000       1.98617331E-10
  -11.6999998       2.10175641E-10
  -11.6899996       2.20966342E-10
  -11.6800003       2.30942848E-10
  -11.6700001       2.40053005E-10
  -11.6599998       2.48236764E-10
  -11.6499996       2.55423099E-10
  -11.6400003       2.61528743E-10
  -11.6300001       2.66456829E-10
  -11.6199999       2.70097084E-10
  -11.6099997       2.72326939E-10
  -11.6000004       2.73014666E-10
  -11.5900002       2.72022849E-10
  -11.5799999       2.69213596E-10
  -11.5699997       2.64453709E-10
  -11.5600004       2.57620647E-10
  -11.5500002       2.48608356E-10
  -11.5400000       2.37331765E-10
  -11.5299997       2.23731714E-10
  -11.5200005       2.07777698E-10
  -11.5100002       1.89469926E-10
  -11.5000000       1.68840636E-10
  -11.4899998       1.45952680E-10
  -11.4799995       1.20898319E-10
  -11.4700003       9.37953118E-11
  -11.4600000       6.47824502E-11
  -11.4499998       3.40134344E-11
  -11.4399996       1.64978166E-12
  -11.4300003      -3.21470559E-11
  -11.4200001      -6.72236780E-11
  -11.4099998      -1.03443053E-10
  -11.3999996      -1.40691708E-10
  -11.3900003      -1.78886073E-10
  -11.3800001      -2.17976900E-10
  -11.3699999      -2.57951910E-10
  -11.3599997      -2.98835956E-10
  -11.3500004      -3.40689366E-10
  -11.3400002      -3.83603843E-10
  -11.3299999      -4.27696323E-10
  -11.3199997      -4.73101835E-10
  -11.3100004      -5.19964571E-10
  -11.3000002      -5.68428193E-10
  -11.2900000      -6.18625318E-10
  -11.2799997      -6.70668743E-10
  -11.2700005      -7.24639848E-10
  -11.2600002      -7.80581433E-10
  -11.2500000      -8.38490111E-10
  -11.2399998      -8.98310371E-10
  -11.2299995      -9.59932023E-10
  -11.2200003      -1.02319075E-09
  -11.2100000      -1.08786991E-09
  -11.1999998      -1.15370791E-09
  -11.1899996      -1.22040489E-09
  -11.1800003      -1.28763744E-09
  -11.1700001      -1.35506784E-09
  -11.1599998      -1.42235945E-09
  -11.1499996      -1.48918811E-09
  -11.1400003      -1.55525504E-09
  -11.1300001      -1.62029590E-09
  -11.1199999      -1.68408487E-09
  -11.1099997      -1.74644599E-09
  -11.1000004      -1.80724702E-09
  -11.0900002      -1.86640503E-09
  -11.0799999      -1.92387972E-09
  -11.0699997      -1.97967043E-09
  -11.0600004      -2.03381201E-09
  -11.0500002      -2.08636530E-09
  -11.0400000      -2.13740980E-09
  -11.0299997      -2.18703700E-09
  -11.0200005      -2.23533680E-09
  -11.0100002      -2.28238806E-09
  -11.0000000      -2.32824782E-09
  -10.9899998      -2.37294295E-09
  -10.9799995      -2.41645659E-09
  -10.9700003      -2.45872522E-09
  -10.9600000      -2.49963117E-09
  -10.9499998      -2.53900212E-09
  -10.9399996      -2.57661226E-09
  -10.9300003      -2.61219024E-09
  -10.9200001      -2.64542455E-09
  -10.9099998      -2.67597278E-09
  -10.8999996      -2.70347456E-09
  -10.8900003      -2.72756262E-09
  -10.8800001      -2.74787149E-09
  -10.8699999      -2.76404877E-09
  -10.8599997      -2.77576717E-09
  -10.8500004      -2.78272316E-09
  -10.8400002      -2.78465762E-09
  -10.8299999      -2.78134804E-09
  -10.8199997      -2.77262102E-09
  -10.8100004      -2.75835466E-09
  -10.8000002      -2.73847722E-09
  -10.7900000      -2.71297407E-09
  -10.7799997      -2.68188538E-09
  -10.7700005      -2.64529865E-09
  -10.7600002      -2.60335020E-09
  -10.7500000      -2.55621524E-09
  -10.7399998      -2.50409871E-09
  -10.7299995      -2.44722531E-09
  -10.7200003      -2.38583131E-09
  -10.7100000      -2.32015007E-09
  -10.6999998      -2.25040164E-09
  -10.6899996      -2.17678697E-09
  -10.6800003      -2.09947815E-09
  -10.6700001      -2.01861616E-09
  -10.6599998      -1.93430405E-09
  -10.6499996      -1.84661086E-09
  -10.6400003      -1.75556869E-09
  -10.6300001      -1.66117786E-09
  -10.6199999      -1.56340851E-09
  -10.6099997      -1.46220647E-09
  -10.6000004      -1.35749800E-09
  -10.5900002      -1.24919530E-09
  -10.5799999      -1.13720466E-09
  -10.5699997      -1.02143261E-09
  -10.5600004      -9.01797470E-10
  -10.5500002      -7.78233533E-10
  -10.5400000      -6.50700271E-10
  -10.5299997      -5.19190468E-10
  -10.5200005      -3.83734489E-10
  -10.5100002      -2.44405385E-10
  -10.5000000      -1.01321430E-10
  -10.4899998       4.53556775E-11
  -10.4799995       1.95419209E-10
  -10.4700003       3.48620882E-10
  -10.4600000       5.04673803E-10
  -10.4499998       6.63254396E-10
  -10.4399996       8.24002699E-10
  -10.4300003       9.86529525E-10
  -10.4200001       1.15041232E-09
  -10.4099998       1.31519962E-09
  -10.3999996       1.48041346E-09
  -10.3900003       1.64555347E-09
  -10.3800001       1.81010196E-09
  -10.3699999       1.97353245E-09
  -10.3599997       2.13531837E-09
  -10.3500004       2.29494534E-09
  -10.3400002       2.45192266E-09
  -10.3299999       2.60579758E-09
  -10.3199997       2.75616530E-09
  -10.3100004       2.90268165E-09
  -10.3000002       3.04507042E-09
  -10.2900000       3.18312865E-09
  -10.2799997       3.31673067E-09
  -10.2700005       3.44582674E-09
  -10.2600002       3.57044150E-09
  -10.2500000       3.69066777E-09
  -10.2399998       3.80666476E-09
  -10.2299995       3.91864763E-09
  -10.2200003       4.02688238E-09
  -10.2100000       4.13168255E-09
  -10.1999998       4.23339674E-09
  -10.1899996       4.33240688E-09
  -10.1800003       4.42911441E-09
  -10.1700001       4.52393811E-09
  -10.1599998       4.61729455E-09
  -10.1499996       4.70958916E-09
  -10.1400003       4.80120477E-09
  -10.1300001       4.89248508E-09
  -10.1199999       4.98372188E-09
  -10.1099997       5.07514830E-09
  -10.1000004       5.16692467E-09
  -10.0900002       5.25913668E-09
  -10.0799999       5.35179279E-09
  -10.0699997       5.44482726E-09
  -10.0600004       5.53809931E-09
  -10.0500002       5.63140645E-09
  -10.0400000       5.72448267E-09
  -10.0299997       5.81701487E-09
  -10.0200005       5.90864646E-09
  -10.0100002       5.99898842E-09
  -10.0000000       6.08764061E-09
  -9.98999977       6.17418605E-09
  -9.97999954       6.25822061E-09
  -9.97000027       6.33935748E-09
  -9.96000004       6.41724718E-09
  -9.94999981       6.49158949E-09
  -9.93999958       6.56215038E-09
  -9.93000031       6.62877753E-09
  -9.92000008       6.69141720E-09
  -9.90999985       6.75011336E-09
  -9.89999962       6.80503121E-09
  -9.89000034       6.85644919E-09
  -9.88000011       6.90475943E-09
  -9.86999989       6.95047797E-09
  -9.85999966       6.99422342E-09
  -9.85000038       7.03671388E-09
  -9.84000015       7.07874825E-09
  -9.82999992       7.12119519E-09
  -9.81999969       7.16498683E-09
  -9.81000042       7.21107618E-09
  -9.80000019       7.26043803E-09
  -9.78999996       7.31404981E-09
  -9.77999973       7.37286321E-09
  -9.77000046       7.43779038E-09
  -9.76000023       7.50968354E-09
  -9.75000000       7.58932117E-09
  -9.73999977       7.67737252E-09
  -9.72999954       7.77440956E-09
  -9.72000027       7.88086574E-09
  -9.71000004       7.99705102E-09
  -9.69999981       8.12310841E-09
  -9.68999958       8.25905300E-09
  -9.68000031       8.40473735E-09
  -9.67000008       8.55986748E-09
  -9.65999985       8.72399930E-09
  -9.64999962       8.89652974E-09
  -9.64000034       9.07672248E-09
  -9.63000011       9.26369559E-09
  -9.61999989       9.45644185E-09
  -9.60999966       9.65382174E-09
  -9.60000038       9.85458826E-09
  -9.59000015       1.00574091E-08
  -9.57999992       1.02608801E-08
  -9.56999969       1.04635376E-08
  -9.56000042       1.06639115E-08
  -9.55000019       1.08605267E-08
  -9.53999996       1.10519327E-08
  -9.52999973       1.12367360E-08
  -9.52000046       1.14136274E-08
  -9.51000023       1.15813936E-08
  -9.50000000       1.17389574E-08
  -9.48999977       1.18853771E-08
  -9.47999954       1.20198731E-08
  -9.47000027       1.21418493E-08
  -9.46000004       1.22508990E-08
  -9.44999981       1.23468187E-08
  -9.43999958       1.24296218E-08
  -9.43000031       1.24995392E-08
  -9.42000008       1.25570310E-08
  -9.40999985       1.26027917E-08
  -9.39999962       1.26377602E-08
  -9.39000034       1.26630972E-08
  -9.38000011       1.26802124E-08
  -9.36999989       1.26907338E-08
  -9.35999966       1.26965158E-08
  -9.35000038       1.26995969E-08
  -9.34000015       1.27022082E-08
  -9.32999992       1.27067130E-08
  -9.31999969       1.27156099E-08
  -9.31000042       1.27314737E-08
  -9.30000019       1.27569475E-08
  -9.28999996       1.27946942E-08
  -9.27999973       1.28473809E-08
  -9.27000046       1.29176430E-08
  -9.26000023       1.30080329E-08
  -9.25000000       1.31210234E-08
  -9.23999977       1.32589379E-08
  -9.22999954       1.34239722E-08
  -9.22000027       1.36181200E-08
  -9.21000004       1.38431355E-08
  -9.19999981       1.41005678E-08
  -9.18999958       1.43916923E-08
  -9.18000031       1.47174877E-08
  -9.17000008       1.50786743E-08
  -9.15999985       1.54756492E-08
  -9.14999962       1.59085065E-08
  -9.14000034       1.63770189E-08
  -9.13000011       1.68806498E-08
  -9.11999989       1.74185306E-08
  -9.10999966       1.79894890E-08
  -9.10000038       1.85920612E-08
  -9.09000015       1.92244336E-08
  -9.07999992       1.98845171E-08
  -9.06999969       2.05699404E-08
  -9.06000042       2.12780655E-08
  -9.05000019       2.20060166E-08
  -9.03999996       2.27506902E-08
  -9.02999973       2.35087541E-08
  -9.02000046       2.42767353E-08
  -9.01000023       2.50509675E-08
  -9.00000000       2.58277169E-08
  -8.98999977       2.66030966E-08
  -8.97999954       2.73732006E-08
  -8.97000027       2.81340498E-08
  -8.96000004       2.88816810E-08
  -8.94999981       2.96121492E-08
  -8.93999958       3.03215799E-08
  -8.93000031       3.10061878E-08
  -8.92000008       3.16623350E-08
  -8.90999985       3.22865290E-08
  -8.89999962       3.28754908E-08
  -8.89000034       3.34261330E-08
  -8.88000011       3.39356454E-08
  -8.86999989       3.44014808E-08
  -8.85999966       3.48213796E-08
  -8.85000038       3.51933593E-08
  -8.84000015       3.55157752E-08
  -8.82999992       3.57872700E-08
  -8.81999969       3.60068206E-08
  -8.81000042       3.61737413E-08
  -8.80000019       3.62876094E-08
  -8.78999996       3.63483608E-08
  -8.77999973       3.63562052E-08
  -8.77000046       3.63116612E-08
  -8.76000023       3.62155141E-08
  -8.75000000       3.60687764E-08
  -8.73999977       3.58727341E-08
  -8.72999954       3.56288510E-08
  -8.72000027       3.53388252E-08
  -8.71000004       3.50044438E-08
  -8.69999981       3.46276217E-08
  -8.68999958       3.42104229E-08
  -8.68000031       3.37549082E-08
  -8.67000008       3.32631842E-08
  -8.65999985       3.27373613E-08
  -8.64999962       3.21795532E-08
  -8.64000034       3.15917816E-08
  -8.63000011       3.09760182E-08
  -8.61999989       3.03341530E-08
  -8.60999966       2.96680014E-08
  -8.60000038       2.89792261E-08
  -8.59000015       2.82694277E-08
  -8.57999992       2.75400733E-08
  -8.56999969       2.67925415E-08
  -8.56000042       2.60280562E-08
  -8.55000019       2.52477790E-08
  -8.53999996       2.44527847E-08
  -8.52999973       2.36439490E-08
  -8.52000046       2.28221886E-08
  -8.51000023       2.19882352E-08
  -8.50000000       2.11427444E-08
  -8.48999977       2.02863646E-08
  -8.47999954       1.94196019E-08
  -8.47000027       1.85429592E-08
  -8.46000004       1.76568609E-08
  -8.44999981       1.67617156E-08
  -8.43999958       1.58579212E-08
  -8.43000031       1.49459112E-08
  -8.42000008       1.40261047E-08
  -8.40999985       1.30989530E-08
  -8.39999962       1.21650219E-08
  -8.39000034       1.12249179E-08
  -8.38000011       1.02792974E-08
  -8.36999989       9.32901401E-09
  -8.35999966       8.37496561E-09
  -8.35000038       7.41820472E-09
  -8.34000015       6.45997522E-09
  -8.32999992       5.50164891E-09
  -8.31999969       4.54477966E-09
  -8.31000042       3.59108587E-09
  -8.30000019       2.64245426E-09
  -8.28999996       1.70091907E-09
  -8.27999973       7.68733743E-10
  -8.27000046      -1.51744270E-10
  -8.26000023      -1.05798603E-09
  -8.25000000      -1.94732119E-09
  -8.23999977      -2.81700485E-09
  -8.22999954      -3.66410990E-09
  -8.22000027      -4.48567050E-09
  -8.21000004      -5.27862865E-09
  -8.19999981      -6.03983574E-09
  -8.18999958      -6.76615608E-09
  -8.18000031      -7.45444240E-09
  -8.17000008      -8.10155409E-09
  -8.15999985      -8.70441408E-09
  -8.14999962      -9.26000077E-09
  -8.14000034      -9.76541692E-09
  -8.13000011      -1.02178070E-08
  -8.11999989      -1.06145412E-08
  -8.10999966      -1.09530633E-08
  -8.10000038      -1.12310534E-08
  -8.09000015      -1.14463612E-08
  -8.07999992      -1.15970478E-08
  -8.06999969      -1.16814363E-08
  -8.06000042      -1.16980958E-08
  -8.05000019      -1.16458532E-08
  -8.03999996      -1.15237313E-08
  -8.02999973      -1.13311094E-08
  -8.02000046      -1.10675851E-08
  -8.01000023      -1.07330456E-08
  -8.00000000      -1.03276339E-08
  -7.98999977      -9.85176829E-09
  -7.98000002      -9.30607325E-09
  -7.96999979      -8.69145556E-09
  -7.96000004      -8.00906452E-09
  -7.94999981      -7.26026350E-09
  -7.94000006      -6.44661569E-09
  -7.92999983      -5.56991253E-09
  -7.92000008      -4.63210315E-09
  -7.90999985      -3.63531472E-09
  -7.90000010      -2.58187516E-09
  -7.88999987      -1.47424351E-09
  -7.88000011      -3.14998805E-10
  -7.86999989       8.93151164E-10
  -7.86000013       2.14739959E-09
  -7.84999990       3.44487927E-09
  -7.84000015       4.78266671E-09
  -7.82999992       6.15776852E-09
  -7.82000017       7.56718332E-09
  -7.80999994       9.00795349E-09
  -7.80000019       1.04771258E-08
  -7.78999996       1.19717276E-08
  -7.78000021       1.34889282E-08
  -7.76999998       1.50259094E-08
  -7.76000023       1.65799996E-08
  -7.75000000       1.81485458E-08
  -7.73999977       1.97290948E-08
  -7.73000002       2.13192504E-08
  -7.71999979       2.29168045E-08
  -7.71000004       2.45196272E-08
  -7.69999981       2.61258020E-08
  -7.69000006       2.77334316E-08
  -7.67999983       2.93408515E-08
  -7.67000008       3.09464738E-08
  -7.65999985       3.25488863E-08
  -7.65000010       3.41467690E-08
  -7.63999987       3.57390100E-08
  -7.63000011       3.73245719E-08
  -7.61999989       3.89026233E-08
  -7.61000013       4.04724361E-08
  -7.59999990       4.20335127E-08
  -7.59000015       4.35853558E-08
  -7.57999992       4.51277131E-08
  -7.57000017       4.66604035E-08
  -7.55999994       4.81833453E-08
  -7.55000019       4.96965527E-08
  -7.53999996       5.12001144E-08
  -7.53000021       5.26942827E-08
  -7.51999998       5.41793703E-08
  -7.51000023       5.56556863E-08
  -7.50000000       5.71237386E-08
  -7.48999977       5.85839928E-08
  -7.48000002       6.00370385E-08
  -7.46999979       6.14833766E-08
  -7.46000004       6.29235544E-08
  -7.44999981       6.43582538E-08
  -7.44000006       6.57879440E-08