  -16.0000000       0.00000000    
  -15.9899998       0.00000000    
  -15.9799995       0.00000000    
  -15.9700003       0.00000000    
  -15.9600000       0.00000000    
  -15.9499998       0.00000000    
  -15.9399996       0.00000000    
  -15.9300003       0.00000000    
  -15.9200001       0.00000000    
  -15.9099998       0.00000000    
  -15.8999996       0.00000000    
  -15.8900003       0.00000000    
  -15.8800001       0.00000000    
  -15.8699999      -0.00000000    
  -15.8599997      -0.00000000    
  -15.8500004      -4.20389539E-45
  -15.8400002      -5.18480432E-44
  -15.8299999      -5.03066149E-43
  -15.8199997      -3.76669027E-42
  -15.8100004      -2.33106000E-41
  -15.8000002      -1.22525334E-40
  -15.7900000      -5.57523410E-40
  -15.7799997      -2.22772404E-39
  -15.7700005      -7.90137553E-39
  -15.7600002      -2.50777214E-38
  -15.7500000      -7.16282398E-38
  -15.7399998      -1.84720711E-37
  -15.7299995      -4.30310553E-37
  -15.7200003      -9.02372626E-37
  -15.7100000      -1.68660983E-36
  -15.6999998      -2.74575309E-36
  -15.6899996      -3.67619931E-36
  -15.6800003      -3.31758851E-36
  -15.6700001       6.89388039E-37
  -15.6599998       1.20693179E-35
  -15.6499996       3.51424167E-35
  -15.6400003       7.21801228E-35
  -15.6300001       1.18098267E-34
  -15.6199999       1.52885691E-34
  -15.6099997       1.34986424E-34
  -15.6000004       3.26042271E-36
  -15.5900002      -3.00679585E-34
  -15.5799999      -7.78734151E-34
  -15.5699997      -1.29341058E-33
  -15.5600004      -1.49046173E-33
  -15.5500002      -8.10875197E-34
  -15.5400000       1.28337268E-33
  -15.5299997       4.77003044E-33
  -15.5200005       8.28152594E-33
  -15.5100002       8.49949566E-33
  -15.5000000       6.19370315E-34
  -15.4899998      -1.89753779E-32
  -15.4799995      -4.72442553E-32
  -15.4700003      -6.76259902E-32
  -15.4600000      -4.66682571E-32
  -15.4499998       5.73294649E-32
  -15.4399996       2.64808314E-31
  -15.4300003       5.23681981E-31
  -15.4200001       6.55349667E-31
  -15.4099998       3.46003635E-31
  -15.3999996      -7.46352302E-31
  -15.3900003      -2.71280191E-30
  -15.3800001      -4.97078832E-30
  -15.3699999      -5.89429430E-30
  -15.3599997      -2.89666841E-30
  -15.3500004       6.53523175E-30
  -15.3400002       2.25772705E-29
  -15.3299999       4.00259520E-29
  -15.3199997       4.61368254E-29
  -15.3100004       2.22063319E-29
  -15.3000002      -4.80651116E-29
  -15.2900000      -1.62554494E-28
  -15.2799997      -2.81471532E-28
  -15.2700005      -3.16838900E-28
  -15.2600002      -1.48649340E-28
  -15.2500000       3.16327036E-28
  -15.2399998       1.04388176E-27
  -15.2299995       1.76426045E-27
  -15.2200003       1.93229688E-27
  -15.2100000       8.55983608E-28
  -15.1999998      -1.93423667E-27
  -15.1899996      -6.11392239E-27
  -15.1800003      -1.00194826E-26
  -15.1700001      -1.05605826E-26
  -15.1599998      -4.09640870E-27
  -15.1499996       1.14469665E-26
  -15.1400003       3.35892105E-26
  -15.1300001       5.27900664E-26
  -15.1199999       5.26815857E-26
  -15.1099997       1.53981396E-26
  -15.1000004      -6.71287104E-26
  -15.0900002      -1.78492821E-25
  -15.0799999      -2.67041521E-25
  -15.0699997      -2.50044649E-25
  -15.0600004      -4.31983498E-26
  -15.0500002       3.82531546E-25
  -15.0400000       9.31712374E-25
  -15.0299997       1.33922914E-24
  -15.0200005       1.20029397E-24
  -15.0100002       1.20089750E-25
  -15.0000000      -2.01455295E-24
  -14.9899998      -4.71734877E-24
  -14.9799995      -6.70744367E-24
  -14.9700003      -6.06488294E-24
  -14.9600000      -9.25231783E-25
  -14.9499998       9.28867860E-24
  -14.9399996       2.24391074E-23
  -14.9300003       3.27822477E-23
  -14.9200001       3.15869341E-23
  -14.9099998       1.00661192E-23
  -14.8999996      -3.53621574E-23
  -14.8900003      -9.68500184E-23
  -14.8800001      -1.50892128E-22
  -14.8699999      -1.60069458E-22
  -14.8599997      -8.41698304E-23
  -14.8500004       9.88568238E-23
  -14.8400002       3.66942752E-22
  -14.8299999       6.34024599E-22
  -14.8199997       7.51650702E-22
  -14.8100004       5.46167961E-22
  -14.8000002      -1.04380434E-22
  -14.7900000      -1.16839968E-21
  -14.7799997      -2.37198766E-21
  -14.7700005      -3.17935492E-21
  -14.7600002      -2.89819752E-21
  -14.7500000      -9.35855908E-22
  -14.7399998       2.83013869E-21
  -14.7299995       7.68552248E-21
  -14.7200003       1.19063028E-20
  -14.7100000       1.29863156E-20
  -14.6999998       8.39552698E-21
  -14.6899996      -3.18847511E-21
  -14.6800003      -2.05012579E-20
  -14.6700001      -3.87522485E-20
  -14.6599998      -4.98357223E-20
  -14.6499996      -4.42490704E-20
  -14.6400003      -1.47692404E-20
  -14.6300001       3.88695950E-20
  -14.6199999       1.05938275E-19
  -14.6099997       1.63540276E-19
  -14.6000004       1.80383018E-19
  -14.5900002       1.26384965E-19
  -14.5799999      -1.31883011E-20
  -14.5699997      -2.23085907E-19
  -14.5600004      -4.49207825E-19
  -14.5500002      -6.02335241E-19
  -14.5400000      -5.79049952E-19
  -14.5299997      -2.99114920E-19
  -14.5200005       2.48905471E-19
  -14.5100002       9.69432827E-19
  -14.5000000       1.64875966E-18
  -14.4899998       1.98819995E-18
  -14.4799995       1.68772752E-18
  -14.4700003       5.67972969E-19
  -14.4600000      -1.30269655E-18
  -14.4499998      -3.52565387E-18
  -14.4399996      -5.38639005E-18
  -14.4300003      -6.00067836E-18
  -14.4200001      -4.58874723E-18
  -14.4099998      -8.21242645E-19
  -14.3999996       4.86968258E-18
  -14.3900003       1.11483730E-17
  -14.3800001       1.59223913E-17
  -14.3699999       1.68310327E-17
  -14.3599997       1.20177349E-17
  -14.3500004       1.00052344E-18
  -14.3400002      -1.46475753E-17
  -14.3299999      -3.11242720E-17
  -14.3199997      -4.29660242E-17
  -14.3100004      -4.44012355E-17
  -14.3000002      -3.12616237E-17
  -14.2900000      -2.95384046E-18
  -14.2799997       3.61800363E-17
  -14.2700005       7.67690378E-17
  -14.2600002       1.05991701E-16
  -14.2500000       1.10771051E-16
  -14.2399998       8.19646652E-17
  -14.2299995       1.84324262E-17
  -14.2200003      -7.03793389E-17
  -14.2100000      -1.64542926E-16
  -14.1999998      -2.37060831E-16
  -14.1899996      -2.60283431E-16
  -14.1800003      -2.14022925E-16
  -14.1700001      -9.32636148E-17
  -14.1599998       8.69081678E-17
  -14.1499996       2.91123159E-16
  -14.1400003       4.69202466E-16
  -14.1300001       5.66714540E-16
  -14.1199999       5.38548842E-16
  -14.1099997       3.62375359E-16
  -14.1000004       4.85598893E-17
  -14.0900002      -3.56318729E-16
  -14.0799999      -7.73889111E-16
  -14.0699997      -1.10620121E-15
  -14.0600004      -1.25398188E-15
  -14.0500002      -1.13800136E-15
  -14.0400000      -7.20029780E-16
  -14.0299997      -1.97703330E-17
  -14.0200005       8.75651702E-16
  -14.0100002       1.81277777E-15
  -14.0000000       2.58616756E-15
  -13.9899998       2.96774595E-15
  -13.9799995       2.75085363E-15
  -13.9700003       1.80525718E-15
  -13.9600000       1.34481992E-16
  -13.9499998      -2.07834378E-15
  -13.9399996      -4.45364333E-15
  -13.9300003      -6.44472853E-15
  -13.9200001      -7.42413028E-15
  -13.9099998      -6.82455886E-15
  -13.8999996      -4.31390704E-15
  -13.8900003       3.53284373E-17
  -13.8800001       5.63510395E-15
  -13.8699999       1.13829039E-14
  -13.8599997       1.58117741E-14
  -13.8500004       1.73917243E-14
  -13.8400002       1.49386237E-14
  -13.8299999       8.04004944E-15
  -13.8199997      -2.62387810E-15
  -13.8100004      -1.51883866E-14
  -13.8000002      -2.68275290E-14
  -13.7900000      -3.43064844E-14
  -13.7799997      -3.47797488E-14
  -13.7700005      -2.66585782E-14
  -13.7600002      -1.03104078E-14
  -13.7500000       1.16486300E-14
  -13.7399998       3.46358616E-14
  -13.7299995       5.29894630E-14
  -13.7200003       6.13187344E-14
  -13.7100000       5.60114055E-14
  -13.6999998       3.64909857E-14
  -13.6899996       5.82126358E-15
  -13.6800003      -2.96197901E-14
  -13.6700001      -6.14440343E-14
  -13.6599998      -8.13013868E-14
  -13.6499996      -8.31829655E-14
  -13.6400003      -6.53431302E-14
  -13.6300001      -3.12269843E-14
  -13.6199999       1.09993191E-14
  -13.6099997       5.03547941E-14
  -13.6000004       7.59990215E-14
  -13.5900002       8.04793515E-14
  -13.5799999       6.23213165E-14
  -13.5699997       2.70825317E-14
  -13.5600004      -1.36608686E-14
  -13.5500002      -4.53673659E-14
  -13.5400000      -5.49626737E-14
  -13.5299997      -3.54691218E-14
  -13.5200005       1.05916278E-14
  -13.5100002       7.02892063E-14
  -13.5000000       1.22573298E-13
  -13.4899998       1.43602618E-13
  -13.4799995       1.14009930E-13
  -13.4700003       2.62318836E-14
  -13.4600000      -1.10300244E-13
  -13.4499998      -2.68051342E-13
  -13.4399996      -4.05430057E-13
  -13.4300003      -4.75759406E-13
  -13.4200001      -4.39490729E-13
  -13.4099998      -2.76797682E-13
  -13.3999996       2.87510257E-15
  -13.3900003       3.57422642E-13
  -13.3800001       7.16752233E-13
  -13.3699999       9.95527770E-13
  -13.3599997       1.11184694E-12
  -13.3500004       1.00786523E-12
  -13.3400002       6.67370402E-13
  -13.3299999       1.25501497E-13
  -13.3199997      -5.32714064E-13
  -13.3100004      -1.18583713E-12
  -13.3000002      -1.69938597E-12
  -13.2900000      -1.95430477E-12
  -13.2799997      -1.87408877E-12
  -13.2700005      -1.44402632E-12
  -13.2600002      -7.17582840E-13
  -13.2500000       1.92086310E-13
  -13.2399998       1.13389365E-12
  -13.2299995       1.94888788E-12
  -13.2200003       2.50151809E-12
  -13.2100000       2.70466483E-12
  -13.1999998       2.53269758E-12
  -13.1899996       2.02008158E-12
  -13.1800003       1.24707243E-12
  -13.1700001       3.17558832E-13
  -13.1599998      -6.63832650E-13
  -13.1499996      -1.60840492E-12
  -13.1400003      -2.44924892E-12
  -13.1300001      -3.13566859E-12
  -13.1199999      -3.61989171E-12
  -13.1099997      -3.84311506E-12
  -13.1000004      -3.72899107E-12
  -13.0900002      -3.19093211E-12
  -13.0799999      -2.15524907E-12
  -13.0699997      -5.96348817E-13
  -13.0600004       1.42534877E-12
  -13.0500002       3.73555267E-12
  -13.0400000       6.04101057E-12
  -13.0299997       7.95572896E-12
  -13.0200005       9.05961157E-12
  -13.0100002       8.98140243E-12
  -13.0000000       7.48954804E-12
  -12.9899998       4.56965542E-12
  -12.9799995       4.67303117E-13
  -12.9700003      -4.31911755E-12
  -12.9600000      -9.10029951E-12
  -12.9499998      -1.31046831E-11
  -12.9399996      -1.56139199E-11
  -12.9300003      -1.60975556E-11
  -12.9200001      -1.43179808E-11
  -12.9099998      -1.03826166E-11
  -12.8999996      -4.73208668E-12
  -12.8900003       1.93220396E-12
  -12.8800001       8.76373626E-12
  -12.8699999       1.49030371E-11
  -12.8599997       1.95975961E-11
  -12.8500004       2.22863845E-11
  -12.8400002       2.26376921E-11
  -12.8299999       2.05434558E-11
  -12.8199997       1.60861879E-11
  -12.8100004       9.50157661E-12
  -12.8000002       1.15839369E-12
  -12.7900000      -8.43208055E-12
  -12.7799997      -1.85806717E-11
  -12.7700005      -2.83785842E-11
  -12.7600002      -3.66812414E-11
  -12.7500000      -4.21518098E-11
  -12.7399998      -4.33892540E-11
  -12.7299995      -3.91454612E-11
  -12.7200003      -2.86082286E-11
  -12.7100000      -1.17002918E-11
  -12.6999998       1.06751396E-11
  -12.6899996       3.65158008E-11
  -12.6800003       6.27883023E-11
  -12.6700001       8.57106400E-11
  -12.6599998       1.01233362E-10
  -12.6499996       1.05657781E-10
  -12.6400003       9.62912458E-11
  -12.6300001       7.20208268E-11
  -12.6199999       3.36907550E-11
  -12.6099997      -1.57996047E-11
  -12.6000004      -7.17124415E-11
  -12.5900002      -1.27977767E-10
  -12.5799999      -1.77909881E-10
  -12.5699997      -2.15016338E-10
  -12.5600004      -2.33768671E-10
  -12.5500002      -2.30219177E-10
  -12.5400000      -2.02386816E-10
  -12.5299997      -1.50388479E-10
  -12.5200005      -7.63449928E-11
  -12.5100002       1.58689190E-11
  -12.5000000       1.20943297E-10
  -12.4899998       2.32441746E-10
  -12.4799995       3.43051476E-10
  -12.4700003       4.44768972E-10
  -12.4600000       5.29056188E-10
  -12.4499998       5.87027649E-10
  -12.4399996       6.09734152E-10
  -12.4300003       5.88582849E-10
  -12.4200001       5.15891663E-10
  -12.4099998       3.85526278E-10
  -12.3999996       1.93522878E-10
  -12.3900003      -6.14239076E-11
  -12.3800001      -3.77716330E-10
  -12.3699999      -7.50924323E-10
  -12.3599997      -1.17417664E-09
  -12.3500004      -1.63880765E-09
  -12.3400002      -2.13513651E-09
  -12.3299999      -2.65320543E-09
  -12.3199997      -3.18331939E-09
  -12.3100004      -3.71626641E-09
  -12.3000002      -4.24316893E-09
  -12.2900000      -4.75500173E-09
  -12.2799997      -5.24188470E-09
  -12.2700005      -5.69234615E-09
  -12.2600002      -6.09270190E-09
  -12.2500000      -6.42675246E-09
  -12.2399998      -6.67589362E-09
  -12.2299995      -6.81962264E-09
  -12.2200003      -6.83641677E-09
  -12.2100000      -6.70488554E-09
  -12.1999998      -6.40498987E-09
  -12.1899996      -5.91927929E-09
  -12.1800003      -5.23393284E-09
  -12.1700001      -4.33970504E-09
  -12.1599998      -3.23259530E-09
  -12.1499996      -1.91442240E-09
  -12.1400003      -3.93225591E-10
  -12.1300001       1.31648237E-09
  -12.1199999       3.19364557E-09
  -12.1099997       5.21089749E-09
  -12.1000004       7.33508321E-09
  -12.0900002       9.52827950E-09
  -12.0799999       1.17492105E-08
  -12.0699997       1.39550238E-08
  -12.0600004       1.61032663E-08
  -12.0500002       1.81538411E-08
  -12.0400000       2.00706811E-08
  -12.0299997       2.18229079E-08
  -12.0200005       2.33853132E-08
  -12.0100002       2.47381458E-08
  -12.0000000       2.58662904E-08
  -11.9899998       2.67580909E-08
  -11.9799995       2.74039884E-08
  -11.9700003       2.77953731E-08
  -11.9600000       2.79238463E-08
  -11.9499998       2.77809491E-08
  -11.9399996       2.73583556E-08
  -11.9300003       2.66484612E-08
  -11.9200001       2.56451322E-08
  -11.9099998       2.43442511E-08
  -11.8999996       2.27441035E-08
  -11.8900003       2.08453663E-08
  -11.8800001       1.86508125E-08
  -11.8699999       1.61648384E-08
  -11.8599997       1.33930635E-08
  -11.8500004       1.03421280E-08
  -11.8400002       7.01998371E-09
  -11.8299999       3.43648354E-09
  -11.8199997      -3.95660255E-10
  -11.8100004      -4.45981785E-09
  -11.8000002      -8.73455264E-09
  -11.7900000      -1.31931204E-08
  -11.7799997      -1.78034529E-08
  -11.7700005      -2.25289813E-08
  -11.7600002      -2.73296106E-08
  -11.7500000      -3.21632072E-08
  -11.7399998      -3.69869113E-08
  -11.7299995      -4.17581809E-08
  -11.7200003      -4.64350620E-08
  -11.7100000      -5.09763112E-08
  -11.6999998      -5.53405712E-08
  -11.6899996      -5.94856289E-08
  -11.6800003      -6.33674802E-08
  -11.6700001      -6.69400606E-08
  -11.6599998      -7.01554583E-08
  -11.6499996      -7.29649585E-08
  -11.6400003      -7.53207487E-08
  -11.6300001      -7.71781359E-08
  -11.6199999      -7.84977701E-08
  -11.6099997      -7.92478190E-08
  -11.6000004      -7.94053179E-08
  -11.5900002      -7.89568020E-08
  -11.5799999      -7.78981573E-08
  -11.5699997      -7.62333912E-08
  -11.5600004      -7.39732329E-08
  -11.5500002      -7.11328099E-08
  -11.5400000      -6.77300420E-08
  -11.5299997      -6.37835029E-08
  -11.5200005      -5.93109100E-08
  -11.5100002      -5.43282184E-08
  -11.5000000      -4.88483671E-08
  -11.4899998      -4.28811973E-08
  -11.4799995      -3.64328336E-08
  -11.4700003      -2.95054594E-08
  -11.4600000      -2.20975274E-08
  -11.4499998      -1.42041578E-08
  -11.4399996      -5.81751891E-09
  -11.4300003       3.07179415E-09
  -11.4200001       1.24735049E-08
  -11.4099998       2.23961543E-08
  -11.3999996       3.28446035E-08
  -11.3900003       4.38186305E-08
  -11.3800001       5.53112578E-08
  -11.3699999       6.73074467E-08
  -11.3599997       7.97836961E-08
  -11.3500004       9.27077792E-08
  -11.3400002       1.06039614E-07
  -11.3299999       1.19732420E-07
  -11.3199997       1.33733877E-07
  -11.3100004       1.47987876E-07
  -11.3000002       1.62436294E-07
  -11.2900000       1.77020723E-07
  -11.2799997       1.91683910E-07
  -11.2700005       2.06371908E-07
  -11.2600002       2.21035222E-07
  -11.2500000       2.35630466E-07
  -11.2399998       2.50121587E-07
  -11.2299995       2.64480661E-07
  -11.2200003       2.78688788E-07
  -11.2100000       2.92735677E-07
  -11.1999998       3.06619484E-07
  -11.1899996       3.20345492E-07
  -11.1800003       3.33925470E-07
  -11.1700001       3.47374993E-07
  -11.1599998       3.60712789E-07
  -11.1499996       3.73958983E-07
  -11.1400003       3.87132957E-07
  -11.1300001       4.00252958E-07
  -11.1199999       4.13335243E-07
  -11.1099997       4.26392631E-07
  -11.1000004       4.39432910E-07
  -11.0900002       4.52458863E-07
  -11.0799999       4.65465945E-07
  -11.0699997       4.78442473E-07
  -11.0600004       4.91366052E-07
  -11.0500002       5.04206696E-07
  -11.0400000       5.16923194E-07
  -11.0299997       5.29468366E-07
  -11.0200005       5.41786051E-07
  -11.0100002       5.53818325E-07
  -11.0000000       5.65504706E-07
  -10.9899998       5.76786363E-07
  -10.9799995       5.87608895E-07
  -10.9700003       5.97924384E-07
  -10.9600000       6.07694801E-07
  -10.9499998       6.16887974E-07
  -10.9399996       6.25485541E-07
  -10.9300003       6.33471814E-07
  -10.9200001       6.40843723E-07
  -10.9099998       6.47605191E-07
  -10.8999996       6.53767358E-07
  -10.8900003       6.59351429E-07
  -10.8800001       6.64378263E-07
  -10.8699999       6.68884866E-07
  -10.8599997       6.72904150E-07
  -10.8500004       6.76482898E-07
  -10.8400002       6.79662946E-07
  -10.8299999       6.82491418E-07
  -10.8199997       6.85014072E-07
  -10.8100004       6.87269846E-07
  -10.8000002       6.89296485E-07
  -10.7900000       6.91119510E-07
  -10.7799997       6.92754270E-07
  -10.7700005       6.94208893E-07
  -10.7600002       6.95479400E-07
  -10.7500000       6.96555901E-07
  -10.7399998       6.97424355E-07
  -10.7299995       6.98063786E-07
  -10.7200003       6.98450606E-07
  -10.7100000       6.98564406E-07
  -10.6999998       6.98383872E-07
  -10.6899996       6.97903261E-07
  -10.6800003       6.97121322E-07
  -10.6700001       6.96059487E-07
  -10.6599998       6.94748053E-07
  -10.6499996       6.93241191E-07
  -10.6400003       6.91613252E-07
  -10.6300001       6.89961098E-07
  -10.6199999       6.88390742E-07
  -10.6099997       6.87027523E-07
  -10.6000004       6.86004284E-07
  -10.5900002       6.85461202E-07
  -10.5799999       6.85537259E-07
  -10.5699997       6.86356600E-07
  -10.5600004       6.88048999E-07
  -10.5500002       6.90720242E-07
  -10.5400000       6.94469236E-07
  -10.5299997       6.99377210E-07
  -10.5200005       7.05519028E-07
  -10.5100002       7.12940789E-07
  -10.5000000       7.21679385E-07
  -10.4899998       7.31767386E-07
  -10.4799995       7.43212468E-07
  -10.4700003       7.56010138E-07
  -10.4600000       7.70143288E-07
  -10.4499998       7.85572126E-07
  -10.4399996       8.02248394E-07
  -10.4300003       8.20112348E-07
  -10.4200001       8.39089523E-07
  -10.4099998       8.59092211E-07
  -10.3999996       8.80022753E-07
  -10.3900003       9.01777014E-07
  -10.3800001       9.24242329E-07
  -10.3699999       9.47304557E-07
  -10.3599997       9.70842848E-07
  -10.3500004       9.94746642E-07
  -10.3400002       1.01891419E-06
  -10.3299999       1.04325193E-06
  -10.3199997       1.06768630E-06
  -10.3100004       1.09215387E-06
  -10.3000002       1.11661154E-06
  -10.2900000       1.14103659E-06
  -10.2799997       1.16541662E-06
  -10.2700005       1.18974833E-06
  -10.2600002       1.21404275E-06
  -10.2500000       1.23832149E-06
  -10.2399998       1.26259215E-06
  -10.2299995       1.28687475E-06
  -10.2200003       1.31120021E-06
  -10.2100000       1.33559467E-06
  -10.1999998       1.36008782E-06
  -10.1899996       1.38472376E-06
  -10.1800003       1.40954762E-06
  -10.1700001       1.43462819E-06
  -10.1599998       1.46002117E-06
  -10.1499996       1.48580159E-06
  -10.1400003       1.51203881E-06
  -10.1300001       1.53881217E-06
  -10.1199999       1.56618739E-06
  -10.1099997       1.59423644E-06
  -10.1000004       1.62300398E-06
  -10.0900002       1.65254403E-06
  -10.0799999       1.68289625E-06
  -10.0699997       1.71407942E-06
  -10.0600004       1.74611773E-06
  -10.0500002       1.77902609E-06
  -10.0400000       1.81281234E-06
  -10.0299997       1.84748728E-06
  -10.0200005       1.88305160E-06
  -10.0100002       1.91951244E-06
  -10.0000000       1.95686857E-06
  -9.98999977       1.99512374E-06
  -9.97999954       2.03428658E-06
  -9.97000027       2.07437620E-06
  -9.96000004       2.11541192E-06
  -9.94999981       2.15739169E-06
  -9.93999958       2.20035258E-06
  -9.93000031       2.24431619E-06
  -9.92000008       2.28930958E-06
  -9.90999985       2.33537230E-06
  -9.89999962       2.38253642E-06
  -9.89000034       2.43082104E-06
  -9.88000011       2.48027300E-06
  -9.86999989       2.53093231E-06
  -9.85999966       2.58283558E-06
  -9.85000038       2.63603533E-06
  -9.84000015       2.69057978E-06
  -9.82999992       2.74653371E-06
  -9.81999969       2.80397512E-06
  -9.81000042       2.86300656E-06
  -9.80000019       2.92373329E-06
  -9.78999996       2.98626628E-06
  -9.77999973       3.05073627E-06
  -9.77000046       3.11727263E-06
  -9.76000023       3.18601724E-06
  -9.75000000       3.25709152E-06
  -9.73999977       3.33060689E-06
  -9.72999954       3.40667566E-06
  -9.72000027       3.48537924E-06
  -9.71000004       3.56681039E-06
  -9.69999981       3.65100254E-06
  -9.68999958       3.73798775E-06
  -9.68000031       3.82777353E-06
  -9.67000008       3.92034781E-06
  -9.65999985       4.01562875E-06
  -9.64999962       4.11352676E-06
  -9.64000034       4.21389041E-06
  -9.63000011       4.31653052E-06
  -9.61999989       4.42122655E-06
  -9.60999966       4.52766199E-06
  -9.60000038       4.63551441E-06
  -9.59000015       4.74440185E-06
  -9.57999992       4.85389728E-06
  -9.56999969       4.96356506E-06
  -9.56000042       5.07292725E-06
  -9.55000019       5.18144770E-06
  -9.53999996       5.28863575E-06
  -9.52999973       5.39394705E-06
  -9.52000046       5.49686865E-06
  -9.51000023       5.59688351E-06
  -9.50000000       5.69350686E-06
  -9.48999977       5.78626714E-06
  -9.47999954       5.87477552E-06
  -9.47000027       5.95862730E-06
  -9.46000004       6.03750732E-06
  -9.44999981       6.11116047E-06
  -9.43999958       6.17939440E-06
  -9.43000031       6.24207632E-06
  -9.42000008       6.29917804E-06
  -9.40999985       6.35075685E-06
  -9.39999962       6.39695691E-06
  -9.39000034       6.43800877E-06
  -9.38000011       6.47428396E-06
  -9.36999989       6.50621269E-06
  -9.35999966       6.53435063E-06
  -9.35000038       6.55932490E-06
  -9.34000015       6.58193858E-06
  -9.32999992       6.60302703E-06
  -9.31999969       6.62351340E-06
  -9.31000042       6.64442223E-06
  -9.30000019       6.66684946E-06
  -9.28999996       6.69191650E-06
  -9.27999973       6.72082888E-06
  -9.27000046       6.75476849E-06
  -9.26000023       6.79495633E-06
  -9.25000000       6.84256884E-06
  -9.23999977       6.89880335E-06
  -9.22999954       6.96476263E-06
  -9.22000027       7.04151216E-06
  -9.21000004       7.13007285E-06
  -9.19999981       7.23133189E-06
  -9.18999958       7.34610558E-06
  -9.18000031       7.47507283E-06
  -9.17000008       7.61878619E-06
  -9.15999985       7.77766036E-06
  -9.14999962       7.95193682E-06
  -9.14000034       8.14176201E-06
  -9.13000011       8.34704861E-06
  -9.11999989       8.56758106E-06
  -9.10999966       8.80298376E-06
  -9.10000038       9.05270190E-06
  -9.09000015       9.31602699E-06
  -9.07999992       9.59209410E-06
  -9.06999969       9.87987005E-06
  -9.06000042       1.01782407E-05
  -9.05000019       1.04859528E-05
  -9.03999996       1.08016611E-05
  -9.02999973       1.11239133E-05
  -9.02000046       1.14511886E-05
  -9.01000023       1.17819691E-05
  -9.00000000       1.21146513E-05
  -8.98999977       1.24476219E-05
  -8.97999954       1.27792873E-05
  -8.97000027       1.31079378E-05
  -8.96000004       1.34319853E-05
  -8.94999981       1.37497645E-05
  -8.93999958       1.40596576E-05
  -8.93000031       1.43600382E-05
  -8.92000008       1.46493630E-05
  -8.90999985       1.49261568E-05
  -8.89999962       1.51889435E-05
  -8.89000034       1.54363479E-05
  -8.88000011       1.56670394E-05
  -8.86999989       1.58797793E-05
  -8.85999966       1.60735162E-05
  -8.85000038       1.62472315E-05
  -8.84000015       1.64000667E-05
  -8.82999992       1.65312304E-05
  -8.81999969       1.66402315E-05
  -8.81000042       1.67266062E-05
  -8.80000019       1.67900598E-05
  -8.78999996       1.68303977E-05
  -8.77999973       1.68476618E-05
  -8.77000046       1.68418901E-05
  -8.76000023       1.68133392E-05
  -8.75000000       1.67623712E-05
  -8.73999977       1.66894552E-05
  -8.72999954       1.65952169E-05
  -8.72000027       1.64803587E-05
  -8.71000004       1.63457171E-05
  -8.69999981       1.61922908E-05
  -8.68999958       1.60210166E-05
  -8.68000031       1.58329585E-05
  -8.67000008       1.56292390E-05
  -8.65999985       1.54110276E-05
  -8.64999962       1.51795357E-05
  -8.64000034       1.49359430E-05
  -8.63000011       1.46813836E-05
  -8.61999989       1.44170735E-05
  -8.60999966       1.41442279E-05
  -8.60000038       1.38639134E-05
  -8.59000015       1.35772279E-05
  -8.57999992       1.32852829E-05
  -8.56999969       1.29889977E-05
  -8.56000042       1.26893028E-05
  -8.55000019       1.23870450E-05
  -8.53999996       1.20830082E-05
  -8.52999973       1.17779782E-05
  -8.52000046       1.14726045E-05
  -8.51000023       1.11675163E-05
  -8.50000000       1.08632266E-05
  -8.48999977       1.05602512E-05
  -8.47999954       1.02591075E-05
  -8.47000027       9.95994742E-06
  -8.46000004       9.66313837E-06
  -8.44999981       9.36896595E-06
  -8.43999958       9.07751109E-06
  -8.43000031       8.78896935E-06
  -8.42000008       8.50354627E-06
  -8.40999985       8.22140646E-06
  -8.39999962       7.94266361E-06
  -8.39000034       7.66752601E-06
  -8.38000011       7.39614097E-06
  -8.36999989       7.12883957E-06
  -8.35999966       6.86574231E-06
  -8.35000038       6.60732576E-06
  -8.34000015       6.35398146E-06
  -8.32999992       6.10605593E-06
  -8.31999969       5.86407668E-06
  -8.31000042       5.62863488E-06
  -8.30000019       5.40047495E-06
  -8.28999996       5.18024535E-06
  -8.27999973       4.96861185E-06
  -8.27000046       4.76630839E-06
  -8.26000023       4.57420219E-06
  -8.25000000       4.39312089E-06
  -8.23999977       4.22395215E-06
  -8.22999954       4.06771915E-06
  -8.22000027       3.92528136E-06
  -8.21000004       3.79764424E-06
  -8.19999981       3.68580777E-06
  -8.18999958       3.59080832E-06
  -8.18000031       3.51355970E-06
  -8.17000008       3.45511830E-06
  -8.15999985       3.41641362E-06
  -8.14999962       3.39838130E-06
  -8.14000034       3.40184897E-06
  -8.13000011       3.42774069E-06
  -8.11999989       3.47685909E-06
  -8.10999966       3.54992835E-06
  -8.10000038       3.64768516E-06
  -8.09000015       3.77082392E-06
  -8.07999992       3.91977392E-06
  -8.06999969       4.09501808E-06
  -8.06000042       4.29691681E-06
  -8.05000019       4.52583708E-06
  -8.03999996       4.78187349E-06
  -8.02999973       5.06517154E-06
  -8.02000046       5.37580763E-06
  -8.01000023       5.71364353E-06
  -8.00000000       6.07847278E-06
  -7.98999977       6.47004299E-06
  -7.98000002       6.88789987E-06
  -7.96999979       7.33145680E-06
  -7.96000004       7.80001756E-06
  -7.94999981       8.29277360E-06
  -7.94000006       8.80870994E-06
  -7.92999983       9.34695527E-06
  -7.92000008       9.90620447E-06
  -7.90999985       1.04854489E-05
  -7.90000010       1.10833653E-05
  -7.88999987       1.16986648E-05
  -7.88000011       1.23299806E-05
  -7.86999989       1.29758882E-05
  -7.86000013       1.36349190E-05
  -7.84999990       1.43055804E-05
  -7.84000015       1.49863517E-05
  -7.82999992       1.56758160E-05
  -7.82000017       1.63723817E-05
  -7.80999994       1.70746462E-05
  -7.80000019       1.77812781E-05
  -7.78999996       1.84910368E-05
  -7.78000021       1.92026364E-05
  -7.76999998       1.99148108E-05
  -7.76000023       2.06264267E-05
  -7.75000000       2.13364474E-05
  -7.73999977       2.20438105E-05
  -7.73000002       2.27477194E-05
  -7.71999979       2.34471518E-05
  -7.71000004       2.41414291E-05
  -7.69999981       2.48298220E-05
  -7.69000006       2.55115920E-05
  -7.67999983       2.61863042E-05
  -7.67000008       2.68532785E-05
  -7.65999985       2.75121583E-05
  -7.65000010       2.81621396E-05
  -7.63999987       2.88030915E-05
  -7.63000011       2.94345045E-05
  -7.61999989       3.00561278E-05
  -7.61000013       3.06674992E-05
  -7.59999990       3.12686170E-05
  -7.59000015       3.18592720E-05
  -7.57999992       3.24393513E-05
  -7.57000017       3.30089206E-05
  -7.55999994       3.35680634E-05
  -7.55000019       3.41169471E-05
  -7.53999996       3.46557645E-05
  -7.53000021       3.51847302E-05
  -7.51999998       3.57042627E-05
  -7.51000023       3.62148967E-05
  -7.50000000       3.67173343E-05
  -7.48999977       3.72119903E-05
  -7.48000002       3.76998287E-05
  -7.46999979       3.81815735E-05
  -7.46000004       3.86579995E-05
  -7.44999981       3.91298163E-05
  -7.44000006       3.95982788E-05