  -16.0000000       0.00000000    
  -15.9899998       0.00000000    
  -15.9799995       0.00000000    
  -15.9700003       0.00000000    
  -15.9600000       0.00000000    
  -15.9499998       0.00000000    
  -15.9399996       0.00000000    
  -15.9300003       0.00000000    
  -15.9200001       0.00000000    
  -15.9099998       0.00000000    
  -15.8999996       0.00000000    
  -15.8900003       0.00000000    
  -15.8800001       0.00000000    
  -15.8699999       0.00000000    
  -15.8599997       0.00000000    
  -15.8500004       0.00000000    
  -15.8400002       0.00000000    
  -15.8299999       4.20389539E-45
  -15.8199997       2.38220739E-44
  -15.8100004       1.56945428E-43
  -15.8000002       8.30969989E-43
  -15.7900000       3.77930196E-42
  -15.7799997       1.50051040E-41
  -15.7700005       5.26972300E-41
  -15.7600002       1.65042131E-40
  -15.7500000       4.63190800E-40
  -15.7399998       1.16611714E-39
  -15.7299995       2.62378284E-39
  -15.7200003       5.21629570E-39
  -15.7100000       8.91780317E-39
  -15.6999998       1.22163813E-38
  -15.6899996       1.01556766E-38
  -15.6800003      -8.19431838E-39
  -15.6700001      -6.11926244E-38
  -15.6599998      -1.71218953E-37
  -15.6499996      -3.50598688E-37
  -15.6400003      -5.71700313E-37
  -15.6300001      -7.23325021E-37
  -15.6199999      -5.72802428E-37
  -15.6099997       2.21441389E-37
  -15.6000004       1.98218309E-36
  -15.5900002       4.71950722E-36
  -15.5799999       7.70111162E-36
  -15.5699997       9.08098515E-36
  -15.5600004       5.98001649E-36
  -15.5500002      -4.49327657E-36
  -15.5400000      -2.30189919E-35
  -15.5299997      -4.50966297E-35
  -15.5200005      -5.89308838E-35
  -15.5100002      -4.68096487E-35
  -15.5000000       7.45127818E-36
  -15.4899998       1.04647397E-34
  -15.4799995       2.14242731E-34
  -15.4700003       2.66423682E-34
  -15.4600000       1.65641193E-34
  -15.4499998      -1.64075846E-34
  -15.4399996      -7.04253359E-34
  -15.4300003      -1.25991046E-33
  -15.4200001      -1.41385467E-33
  -15.4099998      -5.74722285E-34
  -15.3999996       1.82266828E-33
  -15.3900003       5.91907140E-33
  -15.3800001       1.08250320E-32
  -15.3699999       1.38933411E-32
  -15.3599997       1.01834053E-32
  -15.3500004      -7.14721210E-33
  -15.3400002      -4.42631516E-32
  -15.3299999      -1.00437975E-31
  -15.3199997      -1.57827173E-31
  -15.3100004      -1.70255146E-31
  -15.3000002      -6.01030262E-32
  -15.2900000       2.60959440E-31
  -15.2799997       8.30253635E-31
  -15.2700005       1.52730345E-30
  -15.2600002       1.95359676E-30
  -15.2500000       1.38673633E-30
  -15.2399998      -1.05024825E-30
  -15.2299995      -5.86556146E-30
  -15.2200003      -1.23067307E-29
  -15.2100000      -1.73763779E-29
  -15.1999998      -1.54445724E-29
  -15.1899996       5.16807972E-31
  -15.1800003       3.51521395E-29
  -15.1700001       8.44130942E-29
  -15.1599998       1.28721574E-28
  -15.1499996       1.30194417E-28
  -15.1400003       4.03950294E-29
  -15.1300001      -1.75918269E-28
  -15.1199999      -5.01622128E-28
  -15.1099997      -8.24941951E-28
  -15.1000004      -9.20884751E-28
  -15.0900002      -4.92897473E-28
  -15.0799999       6.95352625E-28
  -15.0699997       2.60174261E-27
  -15.0600004       4.66690766E-27
  -15.0500002       5.69546827E-27
  -15.0400000       4.04584533E-27
  -15.0299997      -1.71683674E-27
  -15.0200005      -1.17152562E-26
  -15.0100002      -2.35128652E-26
  -15.0000000      -3.13935825E-26
  -14.9899998      -2.70697650E-26
  -14.9799995      -2.58060341E-27
  -14.9700003       4.45833769E-26
  -14.9600000       1.05428006E-25
  -14.9499998       1.55376447E-25
  -14.9399996       1.56175859E-25
  -14.9300003       6.73745576E-26
  -14.9200001      -1.31918855E-25
  -14.9099998      -4.15744390E-25
  -14.8999996      -6.89982121E-25
  -14.8900003      -7.93656785E-25
  -14.8800001      -5.38823454E-25
  -14.8699999       2.05149996E-25
  -14.8599997       1.39769695E-24
  -14.8500004       2.72515510E-24
  -14.8400002       3.57484704E-24
  -14.8299999       3.15191071E-24
  -14.8199997       7.74151608E-25
  -14.8100004      -3.69112632E-24
  -14.8000002      -9.38341133E-24
  -14.7900000      -1.42255697E-23
  -14.7799997      -1.51802271E-23
  -14.7700005      -9.16375537E-24
  -14.7600002       5.42857748E-24
  -14.7500000       2.69717760E-23
  -14.7399998       4.93710017E-23
  -14.7299995       6.22616358E-23
  -14.7200003       5.34242290E-23
  -14.7100000       1.35616739E-23
  -14.6999998      -5.74785197E-23
  -14.6899996      -1.45183072E-22
  -14.6800003      -2.18589091E-22
  -14.6700001      -2.35211892E-22
  -14.6599998      -1.54150489E-22
  -14.6499996       4.41827204E-23
  -14.6400003       3.37180456E-22
  -14.6300001       6.46949448E-22
  -14.6199999       8.45125545E-22
  -14.6099997       7.82887070E-22
  -14.6000004       3.45882943E-22
  -14.5900002      -4.77478800E-22
  -14.5799999      -1.53766161E-21
  -14.5699997      -2.50603697E-21
  -14.5600004      -2.92512633E-21
  -14.5500002      -2.33875443E-21
  -14.5400000      -4.85063730E-22
  -14.5299997       2.49947586E-21
  -14.5200005       5.94567771E-21
  -14.5100002       8.67518915E-21
  -14.5000000       9.24435404E-21
  -14.4899998       6.40741938E-21
  -14.4799995      -2.92379847E-22
  -14.4700003      -9.98705075E-21
  -14.4600000      -2.02424441E-20
  -14.4499998      -2.73327422E-20
  -14.4399996      -2.71386714E-20
  -14.4300003      -1.65747640E-20
  -14.4200001       4.79499759E-21
  -14.4099998       3.35019586E-20
  -14.3999996       6.19022033E-20
  -14.3900003       7.93770077E-20
  -14.3800001       7.51142099E-20
  -14.3699999       4.20245976E-20
  -14.3599997      -1.92434151E-20
  -14.3500004      -9.76370520E-20
  -14.3400002      -1.71842391E-19
  -14.3299999      -2.14179369E-19
  -14.3199997      -1.98147742E-19
  -14.3100004      -1.08168974E-19
  -14.3000002       5.11988545E-20
  -14.2900000       2.49997116E-19
  -14.2799997       4.34677208E-19
  -14.2700005       5.38610281E-19
  -14.2600002       5.00396191E-19
  -14.2500000       2.86106704E-19
  -14.2399998      -9.08919693E-20
  -14.2299995      -5.59923003E-19
  -14.2200003      -9.98971447E-19
  -14.2100000      -1.25920267E-18
  -14.1999998      -1.20513153E-18
  -14.1899996      -7.61611660E-19
  -14.1800003       4.57221854E-20
  -14.1700001       1.07123301E-18
  -14.1599998       2.06280461E-18
  -14.1499996       2.71200346E-18
  -14.1400003       2.73410965E-18
  -14.1300001       1.96028446E-18
  -14.1199999       4.16332332E-19
  -14.1099997      -1.63902044E-18
  -14.1000004      -3.73684549E-18
  -14.0900002      -5.28801635E-18
  -14.0799999      -5.72779685E-18
  -14.0699997      -4.68341184E-18
  -14.0600004      -2.12009948E-18
  -14.0500002       1.58091389E-18
  -14.0400000       5.64769557E-18
  -14.0299997       9.05757642E-18
  -14.0200005       1.07722350E-17
  -14.0100002       1.00179199E-17
  -14.0000000       6.54003734E-18
  -13.9899998       7.57525336E-19
  -13.9799995      -6.24067116E-18
  -13.9700003      -1.28792576E-17
  -13.9600000      -1.74360045E-17
  -13.9499998      -1.84666169E-17
  -13.9399996      -1.52125082E-17
  -13.9300003      -7.88088222E-18
  -13.9200001       2.29187987E-18
  -13.9099998       1.32343918E-17
  -13.8999996       2.24680849E-17
  -13.8900003       2.76799465E-17
  -13.8800001       2.73042030E-17
  -13.8699999       2.09622506E-17
  -13.8599997       9.63514536E-18
  -13.8500004      -4.49535564E-18
  -13.8400002      -1.85168863E-17
  -13.8299999      -2.94615661E-17
  -13.8199997      -3.50171030E-17
  -13.8100004      -3.40846654E-17
  -13.8000002      -2.70264589E-17
  -13.7900000      -1.55255564E-17
  -13.7799997      -2.08919084E-18
  -13.7700005       1.06660688E-17
  -13.7600002       2.07345725E-17
  -13.7500000       2.72201019E-17
  -13.7399998       3.04412193E-17
  -13.7299995       3.15884063E-17
  -13.7200003       3.20253761E-17
  -13.7100000       3.24620877E-17
  -13.6999998       3.23041227E-17
  -13.6899996       2.94687494E-17
  -13.6800003       2.08433120E-17
  -13.6700001       3.36693839E-18
  -13.6599998      -2.45066898E-17
  -13.6499996      -6.13930870E-17
  -13.6400003      -1.02116300E-16
  -13.6300001      -1.37846354E-16
  -13.6199999      -1.57457959E-16
  -13.6099997      -1.50003447E-16
  -13.6000004      -1.07833852E-16
  -13.5900002      -2.96167651E-17
  -13.5799999       7.76165539E-17
  -13.5699997       1.98148191E-16
  -13.5600004       3.09387122E-16
  -13.5500002       3.85728799E-16
  -13.5400000       4.03821714E-16
  -13.5299997       3.48159817E-16
  -13.5200005       2.15706403E-16
  -13.5100002       1.83572934E-17
  -13.5000000      -2.17542254E-16
  -13.4899998      -4.54774636E-16
  -13.4799995      -6.51361348E-16
  -13.4700003      -7.68043049E-16
  -13.4600000      -7.75619282E-16
  -13.4499998      -6.60649965E-16
  -13.4399996      -4.28386251E-16
  -13.4300003      -1.02429875E-16
  -13.4200001       2.78656661E-16
  -13.4099998       6.66929073E-16
  -13.3999996       1.01159440E-15
  -13.3900003       1.26523164E-15
  -13.3800001       1.38873995E-15
  -13.3699999       1.35460039E-15
  -13.3599997       1.14862496E-15
  -13.3500004       7.70829681E-16
  -13.3400002       2.36221872E-16
  -13.3299999      -4.23936152E-16
  -13.3199997      -1.16037288E-15
  -13.3100004      -1.90429651E-15
  -13.3000002      -2.56753072E-15
  -13.2900000      -3.04607702E-15
  -13.2799997      -3.22871129E-15
  -13.2700005      -3.01141304E-15
  -13.2600002      -2.31705693E-15
  -13.2500000      -1.11805924E-15
  -13.2399998       5.41999601E-16
  -13.2299995       2.53294234E-15
  -13.2200003       4.63417485E-15
  -13.2100000       6.54692390E-15
  -13.1999998       7.92472929E-15
  -13.1899996       8.42104910E-15
  -13.1800003       7.74905381E-15
  -13.1700001       5.74503273E-15
  -13.1599998       2.42430697E-15
  -13.1499996      -1.98225361E-15
  -13.1400003      -7.02156559E-15
  -13.1300001      -1.20482890E-14
  -13.1199999      -1.62925737E-14
  -13.1099997      -1.89602701E-14
  -13.1000004      -1.93537796E-14
  -13.0900002      -1.69966698E-14
  -13.0799999      -1.17424474E-14
  -13.0699997      -3.84816555E-15
  -13.0600004       6.00287295E-15
  -13.0500002       1.67387839E-14
  -13.0400000       2.69982384E-14
  -13.0299997       3.52832455E-14
  -13.0200005       4.01493143E-14
  -13.0100002       4.04100513E-14
  -13.0000000       3.53297747E-14
  -12.9899998       2.47770842E-14
  -12.9799995       9.31585470E-15
  -12.9700003      -9.78361086E-15
  -12.9600000      -3.06216437E-14
  -12.9499998      -5.08323445E-14
  -12.9399996      -6.78203086E-14
  -12.9300003      -7.90486518E-14
  -12.9200001      -8.23488210E-14
  -12.9099998      -7.62183556E-14
  -12.8999996      -6.00713123E-14
  -12.8900003      -3.44101375E-14
  -12.8800001      -8.92664094E-16
  -12.8699999       3.77217111E-14
  -12.8599997       7.77522103E-14
  -12.8500004       1.14895832E-13
  -12.8400002       1.44625834E-13
  -12.8299999       1.62658041E-13
  -12.8199997       1.65443139E-13
  -12.8100004       1.50635865E-13
  -12.8000002       1.17488742E-13
  -12.7900000       6.71184232E-14
  -12.7799997       2.60085299E-15
  -12.7700005      -7.11360224E-14
  -12.7600002      -1.47633791E-13
  -12.7500000      -2.19427043E-13
  -12.7399998      -2.78730652E-13
  -12.7299995      -3.18228110E-13
  -12.7200003      -3.31878134E-13
  -12.7100000      -3.15647465E-13
  -12.6999998      -2.68077390E-13
  -12.6899996      -1.90607241E-13
  -12.6800003      -8.76045249E-14
  -12.6700001       3.39145690E-14
  -12.6599998       1.64850921E-13
  -12.6499996       2.94813517E-13
  -12.6400003       4.13046794E-13
  -12.6300001       5.09386099E-13
  -12.6199999       5.75132878E-13
  -12.6099997       6.03751370E-13
  -12.6000004       5.91316384E-13
  -12.5900002       5.36672540E-13
  -12.5799999       4.41308882E-13
  -12.5699997       3.08985910E-13
  -12.5600004       1.45187776E-13
  -12.5500002      -4.35051673E-14
  -12.5400000      -2.50016560E-13
  -12.5299997      -4.67238390E-13
  -12.5200005      -6.88267097E-13
  -12.5100002      -9.06341625E-13
  -12.5000000      -1.11445076E-12
  -12.4899998      -1.30462015E-12
  -12.4799995      -1.46694094E-12
  -12.4700003      -1.58844292E-12
  -12.4600000      -1.65196372E-12
  -12.4499998      -1.63519101E-12
  -12.4399996      -1.51007570E-12
  -12.4300003      -1.24279807E-12
  -12.4200001      -7.94448871E-13
  -12.4099998      -1.22526541E-13
  -12.3999996       8.16711607E-13
  -12.3900003       2.06510243E-12
  -12.3800001       3.65877771E-12
  -12.3699999       5.62395573E-12
  -12.3599997       7.97263384E-12
  -12.3500004       1.06985714E-11
  -12.3400002       1.37739316E-11
  -12.3299999       1.71470026E-11
  -12.3199997       2.07413010E-11
  -12.3100004       2.44562912E-11
  -12.3000002       2.81698328E-11
  -12.2900000       3.17423136E-11
  -12.2799997       3.50222074E-11
  -12.2700005       3.78527522E-11
  -12.2600002       4.00792524E-11
  -12.2500000       4.15564527E-11
  -12.2399998       4.21554180E-11
  -12.2299995       4.17693900E-11
  -12.2200003       4.03182834E-11
  -12.2100000       3.77515554E-11
  -12.1999998       3.40492148E-11
  -12.1899996       2.92212435E-11
  -12.1800003       2.33054496E-11
  -12.1700001       1.63642346E-11
  -12.1599998       8.48045072E-12
  -12.1499996      -2.47127460E-13
  -12.1400003      -9.70843891E-12
  -12.1300001      -1.97865700E-11
  -12.1199999      -3.03616542E-11
  -12.1099997      -4.13140737E-11
  -12.1000004      -5.25267677E-11
  -12.0900002      -6.38865003E-11
  -12.0799999      -7.52840637E-11
  -12.0699997      -8.66134386E-11
  -12.0600004      -9.77699241E-11
  -12.0500002      -1.08647723E-10
  -12.0400000      -1.19136950E-10
  -12.0299997      -1.29120867E-10
  -12.0200005      -1.38473719E-10
  -12.0100002      -1.47059323E-10
  -12.0000000      -1.54731228E-10
  -11.9899998      -1.61334265E-10
  -11.9799995      -1.66707662E-10
  -11.9700003      -1.70689338E-10
  -11.9600000      -1.73121226E-10
  -11.9499998      -1.73854722E-10
  -11.9399996      -1.72755865E-10
  -11.9300003      -1.69710052E-10
  -11.9200001      -1.64625175E-10
  -11.9099998      -1.57433497E-10
  -11.8999996      -1.48092621E-10
  -11.8900003      -1.36584535E-10
  -11.8800001      -1.22914470E-10
  -11.8699999      -1.07109203E-10
  -11.8599997      -8.92152602E-11
  -11.8500004      -6.92976371E-11
  -11.8400002      -4.74388619E-11
  -11.8299999      -2.37388928E-11
  -11.8199997       1.68451223E-12
  -11.8100004       2.86949822E-11
  -11.8000002       5.71367537E-11
  -11.7900000       8.68336653E-11
  -11.7799997       1.17589105E-10
  -11.7700005       1.49185928E-10
  -11.7600002       1.81387613E-10
  -11.7500000       2.13939644E-10
  -11.7399998       2.46571680E-10
  -11.7299995       2.79000378E-10
  -11.7200003       3.10932363E-10
  -11.7100000       3.42067319E-10
  -11.6999998       3.72101017E-10
  -11.6899996       4.00728450E-10
  -11.6800003       4.27647112E-10
  -11.6700001       4.52558990E-10
  -11.6599998       4.75173678E-10
  -11.6499996       4.95210817E-10
  -11.6400003       5.12401954E-10
  -11.6300001       5.26492294E-10
  -11.6199999       5.37242084E-10
  -11.6099997       5.44427781E-10
  -11.6000004       5.47841494E-10
  -11.5900002       5.47291157E-10
  -11.5799999       5.42599965E-10
  -11.5699997       5.33605105E-10
  -11.5600004       5.20157639E-10
  -11.5500002       5.02122732E-10
  -11.5400000       4.79380646E-10
  -11.5299997       4.51829102E-10
  -11.5200005       4.19386165E-10
  -11.5100002       3.81995491E-10
  -11.5000000       3.39629908E-10
  -11.4899998       2.92297797E-10
  -11.4799995       2.40045872E-10
  -11.4700003       1.82964241E-10
  -11.4600000       1.21187713E-10
  -11.4499998       5.48968024E-11
  -11.4399996      -1.56825820E-11
  -11.4300003      -9.02834543E-11
  -11.4200001      -1.68599648E-10
  -11.4099998      -2.50292481E-10
  -11.3999996      -3.34996225E-10
  -11.3900003      -4.22325896E-10
  -11.3800001      -5.11884590E-10
  -11.3699999      -6.03272043E-10
  -11.3599997      -6.96092572E-10
  -11.3500004      -7.89962151E-10
  -11.3400002      -8.84517182E-10
  -11.3299999      -9.79417769E-10
  -11.3199997      -1.07435383E-09
  -11.3100004      -1.16904597E-09
  -11.3000002      -1.26324740E-09
  -11.2900000      -1.35674050E-09
  -11.2799997      -1.44933476E-09
  -11.2700005      -1.54086166E-09
  -11.2600002      -1.63117031E-09
  -11.2500000      -1.72012116E-09
  -11.2399998      -1.80758264E-09
  -11.2299995      -1.89342630E-09
  -11.2200003      -1.97752437E-09
  -11.2100000      -2.05974926E-09
  -11.1999998      -2.13997264E-09
  -11.1899996      -2.21806795E-09
  -11.1800003      -2.29391106E-09
  -11.1700001      -2.36738562E-09
  -11.1599998      -2.43838483E-09
  -11.1499996      -2.50681853E-09
  -11.1400003      -2.57261235E-09
  -11.1300001      -2.63571853E-09
  -11.1199999      -2.69611444E-09
  -11.1099997      -2.75380940E-09
  -11.1000004      -2.80884871E-09
  -11.0900002      -2.86131430E-09
  -11.0799999      -2.91133029E-09
  -11.0699997      -2.95906144E-09
  -11.0600004      -3.00471692E-09
  -11.0500002      -3.04854675E-09
  -11.0400000      -3.09084069E-09
  -11.0299997      -3.13192228E-09
  -11.0200005      -3.17214122E-09
  -11.0100002      -3.21186788E-09
  -11.0000000      -3.25148153E-09
  -10.9899998      -3.29135630E-09
  -10.9799995      -3.33185857E-09
  -10.9700003      -3.37333206E-09
  -10.9600000      -3.41608586E-09
  -10.9499998      -3.46039220E-09
  -10.9399996      -3.50647755E-09
  -10.9300003      -3.55453156E-09
  -10.9200001      -3.60468722E-09
  -10.9099998      -3.65703801E-09
  -10.8999996      -3.71162923E-09
  -10.8900003      -3.76847309E-09
  -10.8800001      -3.82754450E-09
  -10.8699999      -3.88878751E-09
  -10.8599997      -3.95212130E-09
  -10.8500004      -4.01744726E-09
  -10.8400002      -4.08465262E-09
  -10.8299999      -4.15361345E-09
  -10.8199997      -4.22420410E-09
  -10.8100004      -4.29629976E-09
  -10.8000002      -4.36977832E-09
  -10.7900000      -4.44452741E-09
  -10.7799997      -4.52044402E-09
  -10.7700005      -4.59744109E-09
  -10.7600002      -4.67544314E-09
  -10.7500000      -4.75439244E-09
  -10.7399998      -4.83424278E-09
  -10.7299995      -4.91496399E-09
  -10.7200003      -4.99653385E-09
  -10.7100000      -5.07893816E-09
  -10.6999998      -5.16218268E-09
  -10.6899996      -5.24627053E-09
  -10.6800003      -5.33121414E-09
  -10.6700001      -5.41704059E-09
  -10.6599998      -5.50378010E-09
  -10.6499996      -5.59146596E-09
  -10.6400003      -5.68014302E-09
  -10.6300001      -5.76984993E-09
  -10.6199999      -5.86061999E-09
  -10.6099997      -5.95248872E-09
  -10.6000004      -6.04546813E-09
  -10.5900002      -6.13956574E-09
  -10.5799999      -6.23475493E-09
  -10.5699997      -6.33098995E-09
  -10.5600004      -6.42820330E-09
  -10.5500002      -6.52629906E-09
  -10.5400000      -6.62516531E-09
  -10.5299997      -6.72466616E-09
  -10.5200005      -6.82464663E-09
  -10.5100002      -6.92493574E-09
  -10.5000000      -7.02536784E-09
  -10.4899998      -7.12575199E-09
  -10.4799995      -7.22590832E-09
  -10.4700003      -7.32565031E-09
  -10.4600000      -7.42481321E-09
  -10.4499998      -7.52323714E-09
  -10.4399996      -7.62078312E-09
  -10.4300003      -7.71733522E-09
  -10.4200001      -7.81280551E-09
  -10.4099998      -7.90712829E-09
  -10.3999996      -8.00026090E-09
  -10.3900003      -8.09219891E-09
  -10.3800001      -8.18293788E-09
  -10.3699999      -8.27248581E-09
  -10.3599997      -8.36087022E-09
  -10.3500004      -8.44809733E-09
  -10.3400002      -8.53418669E-09
  -10.3299999      -8.61913119E-09
  -10.3199997      -8.70291128E-09
  -10.3100004      -8.78549322E-09
  -10.3000002      -8.86680418E-09
  -10.2900000      -8.94675800E-09
  -10.2799997      -9.02524011E-09
  -10.2700005      -9.10210751E-09
  -10.2600002      -9.17721898E-09
  -10.2500000      -9.25038268E-09
  -10.2399998      -9.32143429E-09
  -10.2299995      -9.39018996E-09
  -10.2200003      -9.45647116E-09
  -10.2100000      -9.52012780E-09
  -10.1999998      -9.58100266E-09
  -10.1899996      -9.63898739E-09
  -10.1800003      -9.69396474E-09
  -10.1700001      -9.74586722E-09
  -10.1599998      -9.79464865E-09
  -10.1499996      -9.84029658E-09
  -10.1400003      -9.88283055E-09
  -10.1300001      -9.92230831E-09
  -10.1199999      -9.95883642E-09
  -10.1099997      -9.99256855E-09
  -10.1000004      -1.00237028E-08
  -10.0900002      -1.00524913E-08
  -10.0799999      -1.00792663E-08
  -10.0699997      -1.01043938E-08
  -10.0600004      -1.01283115E-08
  -10.0500002      -1.01514983E-08
  -10.0400000      -1.01745075E-08
  -10.0299997      -1.01979047E-08
  -10.0200005      -1.02222995E-08
  -10.0100002      -1.02483151E-08
  -10.0000000      -1.02765849E-08
  -9.98999977      -1.03077378E-08
  -9.97999954      -1.03423989E-08
  -9.97000027      -1.03811644E-08
  -9.96000004      -1.04246052E-08
  -9.94999981      -1.04732703E-08
  -9.93999958      -1.05276694E-08
  -9.93000031      -1.05882805E-08
  -9.92000008      -1.06555520E-08
  -9.90999985      -1.07298765E-08
  -9.89999962      -1.08116138E-08
  -9.89000034      -1.09010774E-08
  -9.88000011      -1.09985265E-08
  -9.86999989      -1.11041745E-08
  -9.85999966      -1.12181766E-08
  -9.85000038      -1.13406546E-08
  -9.84000015      -1.14716769E-08
  -9.82999992      -1.16112808E-08
  -9.81999969      -1.17594530E-08
  -9.81000042      -1.19161516E-08
  -9.80000019      -1.20813093E-08
  -9.78999996      -1.22548229E-08
  -9.77999973      -1.24365691E-08
  -9.77000046      -1.26263879E-08
  -9.76000023      -1.28241204E-08
  -9.75000000      -1.30295721E-08
  -9.73999977      -1.32425617E-08
  -9.72999954      -1.34628761E-08
  -9.72000027      -1.36902800E-08
  -9.71000004      -1.39245362E-08
  -9.69999981      -1.41653960E-08
  -9.68999958      -1.44125796E-08
  -9.68000031      -1.46657673E-08
  -9.67000008      -1.49246073E-08
  -9.65999985      -1.51887125E-08
  -9.64999962      -1.54576547E-08
  -9.64000034      -1.57309596E-08
  -9.63000011      -1.60081139E-08
  -9.61999989      -1.62885705E-08
  -9.60999966      -1.65717253E-08
  -9.60000038      -1.68569692E-08
  -9.59000015      -1.71436554E-08
  -9.57999992      -1.74311197E-08
  -9.56999969      -1.77186905E-08
  -9.56000042      -1.80056841E-08
  -9.55000019      -1.82914075E-08
  -9.53999996      -1.85751876E-08
  -9.52999973      -1.88563618E-08
  -9.52000046      -1.91343084E-08
  -9.51000023      -1.94084269E-08
  -9.50000000      -1.96781720E-08
  -9.48999977      -1.99430694E-08
  -9.47999954      -2.02026840E-08
  -9.47000027      -2.04566621E-08
  -9.46000004      -2.07047339E-08
  -9.44999981      -2.09467252E-08
  -9.43999958      -2.11825579E-08
  -9.43000031      -2.14122498E-08
  -9.42000008      -2.16359624E-08
  -9.40999985      -2.18539888E-08
  -9.39999962      -2.20667449E-08
  -9.39000034      -2.22747847E-08
  -9.38000011      -2.24787886E-08
  -9.36999989      -2.26795844E-08
  -9.35999966      -2.28781261E-08
  -9.35000038      -2.30754882E-08
  -9.34000015      -2.32728929E-08
  -9.32999992      -2.34716193E-08
  -9.31999969      -2.36731239E-08
  -9.31000042      -2.38789148E-08
  -9.30000019      -2.40906104E-08
  -9.28999996      -2.43098857E-08
  -9.27999973      -2.45384761E-08
  -9.27000046      -2.47781529E-08
  -9.26000023      -2.50307046E-08
  -9.25000000      -2.52979060E-08
  -9.23999977      -2.55814765E-08
  -9.22999954      -2.58830823E-08
  -9.22000027      -2.62043081E-08
  -9.21000004      -2.65466102E-08
  -9.19999981      -2.69113283E-08
  -9.18999958      -2.72996203E-08
  -9.18000031      -2.77124883E-08
  -9.17000008      -2.81507262E-08
  -9.15999985      -2.86149078E-08
  -9.14999962      -2.91054221E-08
  -9.14000034      -2.96224307E-08
  -9.13000011      -3.01658822E-08
  -9.11999989      -3.07355208E-08
  -9.10999966      -3.13308455E-08
  -9.10000038      -3.19511599E-08
  -9.09000015      -3.25955796E-08
  -9.07999992      -3.32630563E-08
  -9.06999969      -3.39523041E-08
  -9.06000042      -3.46618734E-08
  -9.05000019      -3.53901939E-08
  -9.03999996      -3.61356136E-08
  -9.02999973      -3.68962318E-08
  -9.02000046      -3.76701550E-08
  -9.01000023      -3.84553722E-08
  -9.00000000      -3.92498194E-08
  -8.98999977      -4.00512654E-08
  -8.97999954      -4.08575360E-08
  -8.97000027      -4.16663291E-08
  -8.96000004      -4.24753281E-08
  -8.94999981      -4.32822205E-08
  -8.93999958      -4.40846506E-08
  -8.93000031      -4.48803483E-08
  -8.92000008      -4.56671110E-08
  -8.90999985      -4.64427288E-08
  -8.89999962      -4.72051624E-08
  -8.89000034      -4.79524012E-08
  -8.88000011      -4.86826366E-08
  -8.86999989      -4.93941279E-08
  -8.85999966      -5.00852408E-08
  -8.85000038      -5.07544833E-08
  -8.84000015      -5.14004981E-08
  -8.82999992      -5.20221484E-08
  -8.81999969      -5.26184039E-08
  -8.81000042      -5.31884510E-08
  -8.80000019      -5.37316964E-08
  -8.78999996      -5.42477174E-08
  -8.77999973      -5.47363221E-08
  -8.77000046      -5.51975745E-08
  -8.76000023      -5.56317197E-08
  -8.75000000      -5.60391662E-08
  -8.73999977      -5.64205820E-08
  -8.72999954      -5.67768161E-08
  -8.72000027      -5.71089025E-08
  -8.71000004      -5.74180170E-08
  -8.69999981      -5.77054884E-08
  -8.68999958      -5.79728194E-08
  -8.68000031      -5.82216622E-08
  -8.67000008      -5.84537254E-08
  -8.65999985      -5.86707323E-08
  -8.64999962      -5.88745834E-08
  -8.64000034      -5.90670588E-08
  -8.63000011      -5.92500271E-08
  -8.61999989      -5.94254175E-08
  -8.60999966      -5.95950702E-08
  -8.60000038      -5.97608860E-08
  -8.59000015      -5.99245880E-08
  -8.57999992      -6.00880270E-08
  -8.56999969      -6.02528445E-08
  -8.56000042      -6.04206463E-08
  -8.55000019      -6.05930879E-08
  -8.53999996      -6.07717112E-08
  -8.52999973      -6.09578024E-08
  -8.52000046      -6.11527824E-08
  -8.51000023      -6.13578663E-08
  -8.50000000      -6.15742337E-08
  -8.48999977      -6.18029361E-08
  -8.47999954      -6.20449683E-08
  -8.47000027      -6.23011758E-08
  -8.46000004      -6.25723828E-08
  -8.44999981      -6.28592502E-08
  -8.43999958      -6.31623891E-08
  -8.43000031      -6.34822896E-08
  -8.42000008      -6.38194848E-08
  -8.40999985      -6.41742801E-08
  -8.39999962      -6.45469669E-08
  -8.39000034      -6.49378009E-08
  -8.38000011      -6.53469883E-08
  -8.36999989      -6.57745147E-08
  -8.35999966      -6.62204798E-08
  -8.35000038      -6.66848408E-08
  -8.34000015      -6.71675551E-08
  -8.32999992      -6.76685588E-08
  -8.31999969      -6.81877239E-08
  -8.31000042      -6.87250932E-08
  -8.30000019      -6.92805529E-08
  -8.28999996      -6.98540319E-08
  -8.27999973      -7.04455871E-08
  -8.27000046      -7.10552470E-08
  -8.26000023      -7.16831252E-08
  -8.25000000      -7.23292573E-08
  -8.23999977      -7.29938492E-08
  -8.22999954      -7.36770716E-08
  -8.22000027      -7.43792299E-08
  -8.21000004      -7.51006510E-08
  -8.19999981      -7.58417045E-08
  -8.18999958      -7.66027100E-08
  -8.18000031      -7.73841933E-08
  -8.17000008      -7.81866092E-08
  -8.15999985      -7.90103130E-08
  -8.14999962      -7.98558162E-08
  -8.14000034      -8.07235381E-08
  -8.13000011      -8.16138197E-08
  -8.11999989      -8.25269808E-08
  -8.10999966      -8.34632132E-08
  -8.10000038      -8.44226804E-08
  -8.09000015      -8.54055031E-08
  -8.07999992      -8.64116245E-08
  -8.06999969      -8.74408386E-08
  -8.06000042      -8.84928468E-08
  -8.05000019      -8.95672301E-08
  -8.03999996      -9.06634341E-08
  -8.02999973      -9.17807341E-08
  -8.02000046      -9.29182917E-08
  -8.01000023      -9.40752187E-08
  -8.00000000      -9.52503711E-08
  -7.98999977      -9.64426974E-08
  -7.98000002      -9.76510037E-08
  -7.96999979      -9.88740965E-08
  -7.96000004      -1.00110533E-07
  -7.94999981      -1.01359156E-07
  -7.94000006      -1.02618550E-07
  -7.92999983      -1.03887395E-07
  -7.92000008      -1.05164403E-07
  -7.90999985      -1.06448276E-07
  -7.90000010      -1.07737804E-07
  -7.88999987      -1.09031909E-07
  -7.88000011      -1.10329388E-07
  -7.86999989      -1.11629269E-07
  -7.86000013      -1.12930607E-07
  -7.84999990      -1.14232648E-07
  -7.84000015      -1.15534554E-07
  -7.82999992      -1.16835650E-07
  -7.82000017      -1.18135368E-07
  -7.80999994      -1.19433309E-07
  -7.80000019      -1.20728870E-07
  -7.78999996      -1.22022115E-07
  -7.78000021      -1.23312788E-07
  -7.76999998      -1.24600859E-07
  -7.76000023      -1.25886373E-07
  -7.75000000      -1.27169514E-07
  -7.73999977      -1.28450694E-07
  -7.73000002      -1.29730111E-07
  -7.71999979      -1.31008363E-07
  -7.71000004      -1.32285749E-07
  -7.69999981      -1.33563020E-07
  -7.69000006      -1.34840832E-07
  -7.67999983      -1.36119866E-07
  -7.67000008      -1.37401074E-07
  -7.65999985      -1.38685394E-07
  -7.65000010      -1.39973849E-07
  -7.63999987      -1.41267563E-07
  -7.63000011      -1.42567814E-07
  -7.61999989      -1.43875681E-07
  -7.61000013      -1.45192672E-07
  -7.59999990      -1.46519966E-07
  -7.59000015      -1.47859282E-07
  -7.57999992      -1.49211900E-07
  -7.57000017      -1.50579297E-07
  -7.55999994      -1.51963320E-07
  -7.55000019      -1.53365562E-07
  -7.53999996      -1.54787742E-07
  -7.53000021      -1.56231465E-07
  -7.51999998      -1.57698565E-07
  -7.51000023      -1.59190677E-07
  -7.50000000      -1.60709632E-07
  -7.48999977      -1.62257194E-07
  -7.48000002      -1.63834926E-07
  -7.46999979      -1.65444632E-07
  -7.46000004      -1.67087862E-07
  -7.44999981      -1.68766164E-07
  -7.44000006      -1.70480945E-07