  -16.0000000       0.00000000    
  -15.9899998       0.00000000    
  -15.9799995       0.00000000    
  -15.9700003       0.00000000    
  -15.9600000       0.00000000    
  -15.9499998       0.00000000    
  -15.9399996       0.00000000    
  -15.9300003       0.00000000    
  -15.9200001       0.00000000    
  -15.9099998       0.00000000    
  -15.8999996       0.00000000    
  -15.8900003       0.00000000    
  -15.8800001       1.31722056E-43
  -15.8699999       5.89666394E-42
  -15.8599997       1.27841860E-40
  -15.8500004       1.74935438E-39
  -15.8400002       1.71290899E-38
  -15.8299999       1.29324412E-37
  -15.8199997       7.90515108E-37
  -15.8100004       4.04620129E-36
  -15.8000002       1.77638290E-35
  -15.7900000       6.80717184E-35
  -15.7799997       2.30586303E-34
  -15.7700005       6.96567463E-34
  -15.7600002       1.88667762E-33
  -15.7500000       4.59042372E-33
  -15.7399998       1.00083051E-32
  -15.7299995       1.93772765E-32
  -15.7200003       3.26042107E-32
  -15.7100000       4.52192429E-32
  -15.6999998       4.34567360E-32
  -15.6899996      -9.46281126E-34
  -15.6800003      -1.31122010E-31
  -15.6700001      -3.91000713E-31
  -15.6599998      -7.85023716E-31
  -15.6499996      -1.20657414E-30
  -15.6400003      -1.35331994E-30
  -15.6300001      -6.89591160E-31
  -15.6199999       1.43806847E-30
  -15.6099997       5.41664111E-30
  -15.6000004       1.06868679E-29
  -15.5900002       1.49750939E-29
  -15.5799999       1.39875597E-29
  -15.5699997       2.38287695E-30
  -15.5600004      -2.33189145E-29
  -15.5500002      -6.01544477E-29
  -15.5400000      -9.44158928E-29
  -15.5299997      -1.01318492E-28
  -15.5200005      -5.25768643E-29
  -15.5100002       6.70807418E-29
  -15.5000000       2.39831867E-28
  -15.4899998       4.03646726E-28
  -15.4799995       4.64537817E-28
  -15.4700003       3.36710838E-28
  -15.4600000      -6.65100346E-30
  -15.4499998      -5.10335661E-28
  -15.4399996      -1.07558941E-27
  -15.4300003      -1.64211354E-27
  -15.4200001      -2.20845597E-27
  -15.4099998      -2.63599624E-27
  -15.3999996      -2.19062417E-27
  -15.3900003       8.72818354E-28
  -15.3800001       8.89292066E-27
  -15.3699999       2.25694029E-26
  -15.3599997       3.67156758E-26
  -15.3500004       3.60275025E-26
  -15.3400002      -3.94723310E-27
  -15.3299999      -1.03657408E-25
  -15.3199997      -2.50650618E-25
  -15.3100004      -3.63356482E-25
  -15.3000002      -2.75356287E-25
  -15.2900000       2.15508689E-25
  -15.2799997       1.19521746E-24
  -15.2700005       2.39250271E-24
  -15.2600002       2.96508793E-24
  -15.2500000       1.54848436E-24
  -15.2399998      -3.15319024E-24
  -15.2299995      -1.11118797E-23
  -15.2200003      -1.93809193E-23
  -15.2100000      -2.11583807E-23
  -15.1999998      -7.07065890E-24
  -15.1899996       2.99003085E-23
  -15.1800003       8.59013674E-23
  -15.1700001       1.37170025E-22
  -15.1599998       1.37224980E-22
  -15.1499996       2.91311754E-23
  -15.1400003      -2.21070052E-22
  -15.1300001      -5.73943539E-22
  -15.1199999      -8.70661313E-22
  -15.1099997      -8.30618885E-22
  -15.1000004      -1.37388861E-22
  -15.0900002       1.36463596E-21
  -15.0799999       3.40025192E-21
  -15.0699997       5.04528031E-21
  -15.0600004       4.76380141E-21
  -15.0500002       9.09278389E-22
  -15.0400000      -7.23852264E-21
  -15.0299997      -1.81350302E-20
  -15.0200005      -2.69758833E-20
  -15.0100002      -2.60155379E-20
  -15.0000000      -7.11848532E-21
  -14.9899998       3.32419461E-20
  -14.9799995       8.77474551E-20
  -14.9700003       1.33769283E-19
  -14.9600000       1.34986299E-19
  -14.9499998       5.29873935E-20
  -14.9399996      -1.30442867E-19
  -14.9300003      -3.85782924E-19
  -14.9200001      -6.15860006E-19
  -14.9099998      -6.61631580E-19
  -14.8999996      -3.49786066E-19
  -14.8900003       4.14843459E-19
  -14.8800001       1.53360195E-18
  -14.8699999       2.62615059E-18
  -14.8599997       3.04211718E-18
  -14.8500004       2.03731607E-18
  -14.8400002      -8.69346454E-19
  -14.8299999      -5.43427264E-18
  -14.8199997      -1.03108411E-17
  -14.8100004      -1.30240257E-17
  -14.8000002      -1.05531314E-17
  -14.7900000      -6.11823054E-19
  -14.7799997       1.66092474E-17
  -14.7700005       3.68778293E-17
  -14.7600002       5.14926780E-17
  -14.7500000       4.89574853E-17
  -14.7399998       1.92129092E-17
  -14.7299995      -4.01810328E-17
  -14.7200003      -1.17919136E-16
  -14.7100000      -1.86091061E-16
  -14.6999998      -2.04059951E-16
  -14.6899996      -1.31186160E-16
  -14.6800003       5.27425612E-17
  -14.6700001       3.25071710E-16
  -14.6599998       6.05848998E-16
  -14.6499996       7.63202044E-16
  -14.6400003       6.47263879E-16
  -14.6300001       1.52318732E-16
  -14.6199999      -7.07071129E-16
  -14.6099997      -1.73479410E-15
  -14.6000004      -2.54421148E-15
  -14.5900002      -2.63419835E-15
  -14.5799999      -1.56020261E-15
  -14.5699997       8.28999828E-16
  -14.5600004       4.16409867E-15
  -14.5500002       7.44724835E-15
  -14.5400000       9.17414355E-15
  -14.5299997       7.74801281E-15
  -14.5200005       2.14601112E-15
  -14.5100002      -7.33468868E-15
  -14.5000000      -1.85436451E-14
  -14.4899998      -2.74961921E-14
  -14.4799995      -2.92027145E-14
  -14.4700003      -1.93332255E-14
  -14.4600000       3.60923068E-15
  -14.4499998       3.63033002E-14
  -14.4399996       6.97462514E-14
  -14.4300003       9.03902875E-14
  -14.4200001       8.37002112E-14
  -14.4099998       3.97224334E-14
  -14.3999996      -4.07632946E-14
  -14.3900003      -1.41794305E-13
  -14.3800001      -2.32032845E-13
  -14.3699999      -2.70717530E-13
  -14.3599997      -2.19929855E-13
  -14.3500004      -6.08657683E-14
  -14.3400002       1.90738918E-13
  -14.3299999       4.76487719E-13
  -14.3199997       7.00623424E-13
  -14.3100004       7.51974492E-13
  -14.3000002       5.40510128E-13
  -14.2900000       4.00171839E-14
  -14.2799997      -6.77138792E-13
  -14.2700005      -1.42938395E-12
  -14.2600002      -1.95240287E-12
  -14.2500000      -1.96631925E-12
  -14.2399998      -1.27319628E-12
  -14.2299995       1.40525273E-13
  -14.2200003       2.03268283E-12
  -14.2100000       3.90206270E-12
  -14.1999998       5.07757291E-12
  -14.1899996       4.89891070E-12
  -14.1800003       2.95428027E-12
  -14.1700001      -6.90944643E-13
  -14.1599998      -5.35864408E-12
  -14.1499996      -9.79292515E-12
  -14.1400003      -1.24070910E-11
  -14.1300001      -1.17224251E-11
  -14.1199999      -6.90575418E-12
  -14.1099997       1.74907679E-12
  -14.1000004       1.25767652E-11
  -14.0900002       2.26852963E-11
  -14.0799999       2.85530714E-11
  -14.0699997       2.70066261E-11
  -14.0600004       1.63597243E-11
  -14.0500002      -2.61856964E-12
  -14.0400000      -2.62712178E-11
  -14.0299997      -4.84395093E-11
  -14.0200005      -6.17570925E-11
  -14.0100002      -5.96673752E-11
  -14.0000000      -3.87001507E-11
  -13.9899998      -3.46021524E-13
  -13.9799995       4.81638514E-11
  -13.9700003       9.46808257E-11
  -13.9600000       1.24684443E-10
  -13.9499998       1.25156302E-10
  -13.9399996       8.88836713E-11
  -13.9300003       1.79628777E-11
  -13.9200001      -7.47457790E-11
  -13.9099998      -1.67094352E-10
  -13.8999996      -2.32223227E-10
  -13.8900003      -2.45495096E-10
  -13.8800001      -1.92181243E-10
  -13.8699999      -7.37525804E-11
  -13.8599997       8.93645782E-11
  -13.8500004       2.60053201E-10
  -13.8400002       3.92051724E-10
  -13.8299999       4.41520459E-10
  -13.8199997       3.79955706E-10
  -13.8100004       2.04918707E-10
  -13.8000002      -5.49044560E-11
  -13.7900000      -3.42708362E-10
  -13.7799997      -5.85059723E-10
  -13.7700005      -7.09883041E-10
  -13.7600002      -6.66748212E-10
  -13.7500000      -4.43968445E-10
  -13.7399998      -7.71415709E-11
  -13.7299995       3.54509339E-10
  -13.7200003       7.44597828E-10
  -13.7100000       9.85791337E-10
  -13.6999998       9.99484939E-10
  -13.6899996       7.60801255E-10
  -13.6800003       3.11114828E-10
  -13.6700001      -2.47004972E-10
  -13.6599998      -7.72985453E-10
  -13.6499996      -1.12480891E-09
  -13.6400003      -1.19961940E-09
  -13.6300001      -9.66724922E-10
  -13.6199999      -4.82257567E-10
  -13.6099997       1.20962379E-10
  -13.6000004       6.67986555E-10
  -13.5900002       9.92778637E-10
  -13.5799999       9.91675853E-10
  -13.5699997       6.62665145E-10
  -13.5600004       1.16168769E-10
  -13.5500002      -4.49862564E-10
  -13.5400000      -8.07377054E-10
  -13.5299997      -7.74121323E-10
  -13.5200005      -2.85933333E-10
  -13.5100002       5.58910029E-10
  -13.5000000       1.50253210E-09
  -13.4899998       2.18475282E-09
  -13.4799995       2.24592389E-09
  -13.4700003       1.45039247E-09
  -13.4600000      -2.05155809E-10
  -13.4499998      -2.43572318E-09
  -13.4399996      -4.69190553E-09
  -13.4300003      -6.27139096E-09
  -13.4200001      -6.50039089E-09
  -13.4099998      -4.94314412E-09
  -13.3999996      -1.58211666E-09
  -13.3900003       3.08948200E-09
  -13.3800001       8.10512368E-09
  -13.3699999       1.22037109E-08
  -13.3599997       1.41221879E-08
  -13.3500004       1.29379503E-08
  -13.3400002       8.37344594E-09
  -13.3299999       9.73398806E-10
  -13.3199997      -7.91187826E-09
  -13.3100004      -1.63590208E-08
  -13.3000002      -2.22856293E-08
  -13.2900000      -2.39577762E-08
  -13.2799997      -2.04673878E-08
  -13.2700005      -1.20501600E-08
  -13.2600002      -1.43717163E-10
  -13.2500000       1.28549820E-08
  -13.2399998       2.40976270E-08
  -13.2299995       3.09485841E-08
  -13.2200003       3.16445714E-08
  -13.2100000       2.57775774E-08
  -13.1999998       1.44623593E-08
  -13.1899996       1.24078178E-10
  -13.1800003      -1.40610297E-08
  -13.1700001      -2.49431356E-08
  -13.1599998      -3.01982155E-08
  -13.1499996      -2.89347266E-08
  -13.1400003      -2.19327063E-08
  -13.1300001      -1.14315339E-08
  -13.1199999      -5.03696584E-10
  -13.1099997       7.82898191E-09
  -13.1000004       1.14963621E-08
  -13.0900002       1.00362811E-08
  -13.0799999       4.79557105E-09
  -13.0699997      -1.41873058E-09
  -13.0600004      -5.17943066E-09
  -13.0500002      -3.56205954E-09
  -13.0400000       4.76136730E-09
  -13.0299997       1.87933118E-08
  -13.0200005       3.51113165E-08
  -13.0100002       4.85093992E-08
  -13.0000000       5.32896607E-08
  -12.9899998       4.49161419E-08
  -12.9799995       2.16052634E-08
  -12.9700003      -1.46065551E-08
  -12.9600000      -5.76872878E-08
  -12.9499998      -9.84945174E-08
  -12.9399996      -1.26622723E-07
  -12.9300003      -1.32846338E-07
  -12.9200001      -1.11596044E-07
  -12.9099998      -6.28400016E-08
  -12.8999996       7.16631376E-09
  -12.8900003       8.65584582E-08
  -12.8800001       1.59933037E-07
  -12.8699999       2.11425032E-07
  -12.8599997       2.28135150E-07
  -12.8500004       2.03126831E-07
  -12.8400002       1.37278931E-07
  -12.8299999       3.95273325E-08
  -12.8199997      -7.46012958E-08
  -12.8100004      -1.85856024E-07
  -12.8000002      -2.74889459E-07
  -12.7900000      -3.25833241E-07
  -12.7799997      -3.29040574E-07
  -12.7700005      -2.82444233E-07
  -12.7600002      -1.91347056E-07
  -12.7500000      -6.68636488E-08
  -12.7399998       7.64389654E-08
  -12.7299995       2.22995894E-07
  -12.7200003       3.58142529E-07
  -12.7100000       4.69057653E-07
  -12.6999998       5.44726220E-07
  -12.6899996       5.75281149E-07
  -12.6800003       5.51346545E-07
  -12.6700001       4.64065607E-07
  -12.6599998       3.06307868E-07
  -12.6499996       7.51558957E-08
  -12.6400003      -2.24724872E-07
  -12.6300001      -5.77686876E-07
  -12.6199999      -9.54795041E-07
  -12.6099997      -1.31370962E-06
  -12.6000004      -1.60150762E-06
  -12.5900002      -1.76057051E-06
  -12.5799999      -1.73692467E-06
  -12.5699997      -1.48972924E-06
  -12.5600004      -1.00016371E-06
  -12.5500002      -2.77895708E-07
  -12.5400000       6.36325865E-07
  -12.5299997       1.67268809E-06
  -12.5200005       2.73874662E-06
  -12.5100002       3.72916338E-06
  -12.5000000       4.53695429E-06
  -12.4899998       5.06418428E-06
  -12.4799995       5.23025710E-06
  -12.4700003       4.97658675E-06
  -12.4600000       4.26735778E-06
  -12.4499998       3.08703989E-06
  -12.4399996       1.43607156E-06
  -12.4300003      -6.73522209E-07
  -12.4200001      -3.22096389E-06
  -12.4099998      -6.17697560E-06
  -12.3999996      -9.50135109E-06
  -12.3900003      -1.31386269E-05
  -12.3800001      -1.70134317E-05
  -12.3699999      -2.10273211E-05
  -12.3599997      -2.50587218E-05
  -12.3500004      -2.89668769E-05
  -12.3400002      -3.25996698E-05
  -12.3299999      -3.58040961E-05
  -12.3199997      -3.84374653E-05
  -12.3100004      -4.03770027E-05
  -12.3000002      -4.15258510E-05
  -12.2900000      -4.18144045E-05
  -12.2799997      -4.11970286E-05
  -12.2700005      -3.96455580E-05
  -12.2600002      -3.71419083E-05
  -12.2500000      -3.36724079E-05
  -12.2399998      -2.92263103E-05
  -12.2299995      -2.37996919E-05
  -12.2200003      -1.74045872E-05
  -12.2100000      -1.00815869E-05
  -12.1999998      -1.91289450E-06
  -12.1899996       6.96773077E-06
  -12.1800003       1.63714813E-05
  -12.1700001       2.60595134E-05
  -12.1599998       3.57569552E-05
  -12.1499996       4.51742235E-05
  -12.1400003       5.40323199E-05
  -12.1300001       6.20878782E-05
  -12.1199999       6.91532623E-05
  -12.1099997       7.51086045E-05
  -12.1000004       7.99034460E-05
  -12.0900002       8.35486935E-05
  -12.0799999       8.61010194E-05
  -12.0699997       8.76432459E-05
  -12.0600004       8.82651002E-05
  -12.0500002       8.80479347E-05
  -12.0400000       8.70558142E-05
  -12.0299997       8.53335805E-05
  -12.0200005       8.29106211E-05
  -12.0100002       7.98079564E-05
  -12.0000000       7.60454932E-05
  -11.9899998       7.16467839E-05
  -11.9799995       6.66399501E-05
  -11.9700003       6.10545030E-05
  -11.9600000       5.49158103E-05
  -11.9499998       4.82394316E-05
  -11.9399996       4.10281355E-05
  -11.9300003       3.32736199E-05
  -11.9200001       2.49633849E-05
  -11.9099998       1.60921954E-05
  -11.8999996       6.67546374E-06
  -11.8900003      -3.23860900E-06
  -11.8800001      -1.35612581E-05
  -11.8699999      -2.41622274E-05
  -11.8599997      -3.48764697E-05
  -11.8500004      -4.55174086E-05
  -11.8400002      -5.58942447E-05
  -11.8299999      -6.58296558E-05
  -11.8199997      -7.51743573E-05
  -11.8100004      -8.38157575E-05
  -11.8000002      -9.16792123E-05
  -11.7900000      -9.87227104E-05
  -11.7799997      -1.04926694E-04
  -11.7700005      -1.10282061E-04
  -11.7600002      -1.14779541E-04
  -11.7500000      -1.18402582E-04
  -11.7399998      -1.21125297E-04
  -11.7299995      -1.22914658E-04
  -11.7200003      -1.23735954E-04
  -11.7100000      -1.23559366E-04
  -11.6999998      -1.22365469E-04
  -11.6899996      -1.20148317E-04
  -11.6800003      -1.16916082E-04
  -11.6700001      -1.12689457E-04
  -11.6599998      -1.07499254E-04
  -11.6499996      -1.01384765E-04
  -11.6400003      -9.43933919E-05
  -11.6300001      -8.65820039E-05
  -11.6199999      -7.80191258E-05
  -11.6099997      -6.87864595E-05
  -11.6000004      -5.89785013E-05
  -11.5900002      -4.86990539E-05
  -11.5799999      -3.80546480E-05
  -11.5699997      -2.71459976E-05
  -11.5600004      -1.60594336E-05
  -11.5500002      -4.86062891E-06
  -11.5400000       6.40716235E-06
  -11.5299997       1.77193997E-05
  -11.5200005       2.90613862E-05
  -11.5100002       4.04158418E-05
  -11.5000000       5.17501103E-05
  -11.4899998       6.30057475E-05
  -11.4799995       7.40938558E-05
  -11.4700003       8.48972413E-05
  -11.4600000       9.52796545E-05
  -11.4499998       1.05100073E-04
  -11.4399996       1.14229151E-04
  -11.4300003       1.22563943E-04
  -11.4200001       1.30037937E-04
  -11.4099998       1.36623683E-04
  -11.3999996       1.42328383E-04
  -11.3900003       1.47182771E-04
  -11.3800001       1.51226719E-04
  -11.3699999       1.54495065E-04
  -11.3599997       1.57006885E-04
  -11.3500004       1.58760857E-04
  -11.3400002       1.59738192E-04
  -11.3299999       1.59911826E-04
  -11.3199997       1.59260002E-04
  -11.3100004       1.57780567E-04
  -11.3000002       1.55502421E-04
  -11.2900000       1.52490844E-04
  -11.2799997       1.48845051E-04
  -11.2700005       1.44687685E-04
  -11.2600002       1.40148695E-04
  -11.2500000       1.35346345E-04
  -11.2399998       1.30370099E-04
  -11.2299995       1.25269129E-04
  -11.2200003       1.20049488E-04
  -11.2100000       1.14680704E-04
  -11.1999998       1.09111075E-04
  -11.1899996       1.03288177E-04
  -11.1800003       9.71800473E-05
  -11.1700001       9.07925714E-05
  -11.1599998       8.41788278E-05
  -11.1499996       7.74387518E-05
  -11.1400003       7.07087238E-05
  -11.1300001       6.41441147E-05
  -11.1199999       5.78987710E-05
  -11.1099997       5.21061156E-05
  -11.1000004       4.68661383E-05
  -11.0900002       4.22402263E-05
  -11.0799999       3.82547914E-05
  -11.0699997       3.49108195E-05
  -11.0600004       3.21963344E-05
  -11.0500002       3.00975153E-05
  -11.0400000       2.86050526E-05
  -11.0299997       2.77142663E-05
  -11.0200005       2.74192080E-05
  -11.0100002       2.77032468E-05
  -11.0000000       2.85290535E-05
  -10.9899998       2.98323921E-05
  -10.9799995       3.15212528E-05
  -10.9700003       3.34818360E-05
  -10.9600000       3.55897864E-05
  -10.9499998       3.77242832E-05
  -10.9399996       3.97811309E-05
  -10.9300003       4.16820512E-05
  -10.9200001       4.33779205E-05
  -10.9099998       4.48457286E-05
  -10.8999996       4.60805131E-05
  -10.8900003       4.70850173E-05
  -10.8800001       4.78597467E-05
  -10.8699999       4.83962467E-05
  -10.8599997       4.86746285E-05
  -10.8500004       4.86657991E-05
  -10.8400002       4.83369331E-05
  -10.8299999       4.76584755E-05
  -10.8199997       4.66105594E-05
  -10.8100004       4.51876112E-05
  -10.8000002       4.33998612E-05
  -10.7900000       4.12720728E-05
  -10.7799997       3.88400040E-05
  -10.7700005       3.61453931E-05
  -10.7600002       3.32304480E-05
  -10.7500000       3.01323817E-05
  -10.7399998       2.68790027E-05
  -10.7299995       2.34852469E-05
  -10.7200003       1.99516799E-05
  -10.7100000       1.62651922E-05
  -10.6999998       1.24027001E-05
  -10.6899996       8.33780268E-06
  -10.6800003       4.04996899E-06
  -10.6700001      -4.64557331E-07
  -10.6599998      -5.18198522E-06
  -10.6499996      -1.00425677E-05
  -10.6400003      -1.49462494E-05
  -10.6300001      -1.97538866E-05
  -10.6199999      -2.42944843E-05
  -10.6099997      -2.83772206E-05
  -10.6000004      -3.18069906E-05
  -10.5900002      -3.44004948E-05
  -10.5799999      -3.60006052E-05
  -10.5699997      -3.64871667E-05
  -10.5600004      -3.57832614E-05
  -10.5500002      -3.38566715E-05
  -10.5400000      -3.07174123E-05
  -10.5299997      -2.64125683E-05
  -10.5200005      -2.10197049E-05
  -10.5100002      -1.46397761E-05
  -10.5000000      -7.39026200E-06
  -10.4899998       6.01056911E-07
  -10.4799995       9.20131242E-06
  -10.4700003       1.82766435E-05
  -10.4600000       2.76947758E-05
  -10.4499998       3.73254406E-05
  -10.4399996       4.70394007E-05
  -10.4300003       5.67055722E-05
  -10.4200001       6.61876838E-05
  -10.4099998       7.53416680E-05
  -10.3999996       8.40149296E-05
  -10.3900003       9.20488528E-05
  -10.3800001       9.92849164E-05
  -10.3699999       1.05573905E-04
  -10.3599997       1.10787318E-04
  -10.3500004       1.14828945E-04
  -10.3400002       1.17645141E-04
  -10.3299999       1.19232129E-04
  -10.3199997       1.19639437E-04
  -10.3100004       1.18968812E-04
  -10.3000002       1.17369193E-04
  -10.2900000       1.15027287E-04
  -10.2799997       1.12155176E-04
  -10.2700005       1.08974600E-04
  -10.2600002       1.05699211E-04
  -10.2500000       1.02516249E-04
  -10.2399998       9.95691444E-05
  -10.2299995       9.69439134E-05
  -10.2200003       9.46620858E-05
  -10.2100000       9.26819630E-05
  -10.1999998       9.09092923E-05
  -10.1899996       8.92165044E-05
  -10.1800003       8.74675898E-05
  -10.1700001       8.55441831E-05
  -10.1599998       8.33684098E-05
  -10.1499996       8.09175908E-05
  -10.1400003       7.82282077E-05
  -10.1300001       7.53890781E-05
  -10.1199999       7.25258724E-05
  -10.1099997       6.97803553E-05
  -10.1000004       6.72896349E-05
  -10.0900002       6.51684750E-05
  -10.0799999       6.34981261E-05
  -10.0699997       6.23215747E-05
  -10.0600004       6.16444740E-05
  -10.0500002       6.14393430E-05
  -10.0400000       6.16519683E-05
  -10.0299997       6.22079460E-05
  -10.0200005       6.30199065E-05
  -10.0100002       6.39955470E-05
  -10.0000000       6.50475267E-05
  -9.98999977       6.61053200E-05
  -9.97999954       6.71271555E-05
  -9.97000027       6.81101665E-05
  -9.96000004       6.90957386E-05
  -9.94999981       7.01672252E-05
  -9.93999958       7.14394992E-05
  -9.93000031       7.30414686E-05
  -9.92000008       7.50950203E-05
  -9.90999985       7.76951638E-05
  -9.89999962       8.08962723E-05
  -9.89000034       8.47079427E-05
  -9.88000011       8.91010131E-05
  -9.86999989       9.40214668E-05
  -9.85999966       9.94082002E-05
  -9.85000038       1.05208834E-04
  -9.84000015       1.11389425E-04
  -9.82999992       1.17935022E-04
  -9.81999969       1.24842205E-04
  -9.81000042       1.32106419E-04
  -9.80000019       1.39708878E-04
  -9.78999996       1.47608080E-04
  -9.77999973       1.55739137E-04
  -9.77000046       1.64021345E-04
  -9.76000023       1.72371714E-04
  -9.75000000       1.80720497E-04
  -9.73999977       1.89023340E-04
  -9.72999954       1.97266403E-04
  -9.72000027       2.05462959E-04
  -9.71000004       2.13642023E-04
  -9.69999981       2.21832379E-04
  -9.68999958       2.30045698E-04
  -9.68000031       2.38264111E-04
  -9.67000008       2.46433716E-04
  -9.65999985       2.54465122E-04
  -9.64999962       2.62239657E-04
  -9.64000034       2.69618817E-04
  -9.63000011       2.76453648E-04
  -9.61999989       2.82592926E-04
  -9.60999966       2.87890172E-04
  -9.60000038       2.92208424E-04
  -9.59000015       2.95427482E-04
  -9.57999992       2.97452410E-04
  -9.56999969       2.98223255E-04
  -9.56000042       2.97727296E-04
  -9.55000019       2.96005775E-04
  -9.53999996       2.93157063E-04
  -9.52999973       2.89329444E-04
  -9.52000046       2.84704991E-04
  -9.51000023       2.79475818E-04
  -9.50000000       2.73817015E-04
  -9.48999977       2.67863070E-04
  -9.47999954       2.61691690E-04
  -9.47000027       2.55321822E-04
  -9.46000004       2.48722790E-04
  -9.44999981       2.41835573E-04
  -9.43999958       2.34598585E-04
  -9.43000031       2.26971868E-04
  -9.42000008       2.18953734E-04
  -9.40999985       2.10586310E-04
  -9.39999962       2.01950053E-04
  -9.39000034       1.93150830E-04
  -9.38000011       1.84304939E-04
  -9.36999989       1.75528781E-04
  -9.35999966       1.66935250E-04
  -9.35000038       1.58641371E-04
  -9.34000015       1.50781096E-04
  -9.32999992       1.43519355E-04
  -9.31999969       1.37061899E-04
  -9.31000042       1.31653273E-04
  -9.30000019       1.27563806E-04
  -9.28999996       1.25064966E-04
  -9.27999973       1.24399827E-04
  -9.27000046       1.25754435E-04
  -9.26000023       1.29237800E-04
  -9.25000000       1.34873932E-04
  -9.23999977       1.42606354E-04
  -9.22999954       1.52312699E-04
  -9.22000027       1.63824574E-04
  -9.21000004       1.76945716E-04
  -9.19999981       1.91465922E-04
  -9.18999958       2.07168778E-04
  -9.18000031       2.23834824E-04
  -9.17000008       2.41243863E-04
  -9.15999985       2.59178341E-04
  -9.14999962       2.77430401E-04
  -9.14000034       2.95810663E-04
  -9.13000011       3.14155681E-04
  -9.11999989       3.32329830E-04
  -9.10999966       3.50219343E-04
  -9.10000038       3.67718923E-04
  -9.09000015       3.84713261E-04
  -9.07999992       4.01062367E-04
  -9.06999969       4.16593160E-04
  -9.06000042       4.31106368E-04
  -9.05000019       4.44394769E-04
  -9.03999996       4.56269947E-04
  -9.02999973       4.66590311E-04
  -9.02000046       4.75278212E-04
  -9.01000023       4.82322299E-04
  -9.00000000       4.87763929E-04
  -8.98999977       4.91668296E-04
  -8.97999954       4.94095788E-04
  -8.97000027       4.95078915E-04
  -8.96000004       4.94616514E-04
  -8.94999981       4.92687046E-04
  -8.93999958       4.89277765E-04
  -8.93000031       4.84418240E-04
  -8.92000008       4.78205970E-04
  -8.90999985       4.70816944E-04
  -8.89999962       4.62490309E-04
  -8.89000034       4.53495391E-04
  -8.88000011       4.44091216E-04
  -8.86999989       4.34487010E-04
  -8.85999966       4.24821366E-04
  -8.85000038       4.15163377E-04
  -8.84000015       4.05536062E-04
  -8.82999992       3.95952578E-04
  -8.81999969       3.86453030E-04
  -8.81000042       3.77128599E-04
  -8.80000019       3.68126814E-04
  -8.78999996       3.59637052E-04
  -8.77999973       3.51862109E-04
  -8.77000046       3.44989297E-04
  -8.76000023       3.39170598E-04
  -8.75000000       3.34518234E-04
  -8.73999977       3.31117335E-04
  -8.72999954       3.29045870E-04
  -8.72000027       3.28396593E-04
  -8.71000004       3.29286093E-04
  -8.69999981       3.31846735E-04
  -8.68999958       3.36206343E-04
  -8.68000031       3.42456740E-04
  -8.67000008       3.50626826E-04
  -8.65999985       3.60665959E-04
  -8.64999962       3.72447161E-04
  -8.64000034       3.85786640E-04
  -8.63000011       4.00472374E-04
  -8.61999989       4.16292227E-04
  -8.60999966       4.33053297E-04
  -8.60000038       4.50584048E-04
  -8.59000015       4.68722021E-04
  -8.57999992       4.87292913E-04
  -8.56999969       5.06089535E-04
  -8.56000042       5.24860923E-04
  -8.55000019       5.43314323E-04
  -8.53999996       5.61135297E-04
  -8.52999973       5.78015111E-04
  -8.52000046       5.93679433E-04
  -8.51000023       6.07912894E-04
  -8.50000000       6.20570674E-04
  -8.48999977       6.31576637E-04
  -8.47999954       6.40914659E-04
  -8.47000027       6.48615009E-04
  -8.46000004       6.54744916E-04
  -8.44999981       6.59402518E-04
  -8.43999958       6.62717153E-04
  -8.43000031       6.64855412E-04
  -8.42000008       6.66022592E-04
  -8.40999985       6.66460546E-04
  -8.39999962       6.66440406E-04
  -8.39000034       6.66246633E-04
  -8.38000011       6.66159787E-04
  -8.36999989       6.66438893E-04
  -8.35999966       6.67308981E-04
  -8.35000038       6.68955443E-04
  -8.34000015       6.71523972E-04
  -8.32999992       6.75124524E-04
  -8.31999969       6.79838296E-04
  -8.31000042       6.85723790E-04
  -8.30000019       6.92817615E-04
  -8.28999996       7.01134093E-04
  -8.27999973       7.10662280E-04
  -8.27000046       7.21363002E-04
  -8.26000023       7.33165594E-04
  -8.25000000       7.45972793E-04
  -8.23999977       7.59669754E-04
  -8.22999954       7.74137618E-04
  -8.22000027       7.89275800E-04
  -8.21000004       8.05018179E-04
  -8.19999981       8.21348454E-04
  -8.18999958       8.38305044E-04
  -8.18000031       8.55971884E-04
  -8.17000008       8.74457182E-04
  -8.15999985       8.93862220E-04
  -8.14999962       9.14247707E-04
  -8.14000034       9.35607008E-04
  -8.13000011       9.57854150E-04
  -8.11999989       9.80827492E-04
  -8.10999966       1.00431475E-03
  -8.10000038       1.02808559E-03
  -8.09000015       1.05192268E-03
  -8.07999992       1.07564311E-03
  -8.06999969       1.09909906E-03
  -8.06000042       1.12215767E-03
  -8.05000019       1.14466995E-03
  -8.03999996       1.16643612E-03
  -8.02999973       1.18718727E-03
  -8.02000046       1.20658765E-03
  -8.01000023       1.22426637E-03
  -8.00000000       1.23986730E-03
  -7.98999977       1.25310337E-03
  -7.98000002       1.26380136E-03
  -7.96999979       1.27191760E-03
  -7.96000004       1.27752568E-03
  -7.94999981       1.28077623E-03
  -7.94000006       1.28184480E-03
  -7.92999983       1.28088694E-03
  -7.92000008       1.27801497E-03
  -7.90999985       1.27330527E-03
  -7.90000010       1.26683281E-03
  -7.88999987       1.25871506E-03
  -7.88000011       1.24915084E-03
  -7.86999989       1.23843900E-03
  -7.86000013       1.22695777E-03
  -7.84999990       1.21511787E-03
  -7.84000015       1.20330299E-03
  -7.82999992       1.19181536E-03
  -7.82000017       1.18083879E-03
  -7.80999994       1.17044477E-03
  -7.80000019       1.16062420E-03
  -7.78999996       1.15134078E-03
  -7.78000021       1.14258111E-03
  -7.76999998       1.13439024E-03
  -7.76000023       1.12687168E-03
  -7.75000000       1.12015998E-03
  -7.73999977       1.11437589E-03
  -7.73000002       1.10958528E-03
  -7.71999979       1.10577454E-03
  -7.71000004       1.10286148E-03
  -7.69999981       1.10073702E-03
  -7.69000006       1.09931920E-03
  -7.67999983       1.09860674E-03
  -7.67000008       1.09871151E-03
  -7.65999985       1.09985226E-03
  -7.65000010       1.10231282E-03
  -7.63999987       1.10637723E-03
  -7.63000011       1.11226237E-03
  -7.61999989       1.12007221E-03
  -7.61000013       1.12978241E-03
  -7.59999990       1.14126806E-03
  -7.59000015       1.15435454E-03
  -7.57999992       1.16888492E-03
  -7.57000017       1.18476921E-03
  -7.55999994       1.20200450E-03
  -7.55000019       1.22065831E-03
  -7.53999996       1.24082784E-03
  -7.53000021       1.26257841E-03
  -7.51999998       1.28590048E-03
  -7.51000023       1.31069147E-03
  -7.50000000       1.33677397E-03
  -7.48999977       1.36394415E-03
  -7.48000002       1.39203877E-03
  -7.46999979       1.42098742E-03
  -7.46000004       1.45084143E-03
  -7.44999981       1.48175936E-03
  -7.44000006       1.51395844E-03