  -16.0000000       0.00000000    
  -15.9899998       0.00000000    
  -15.9799995       0.00000000    
  -15.9700003       0.00000000    
  -15.9600000       0.00000000    
  -15.9499998       0.00000000    
  -15.9399996       0.00000000    
  -15.9300003       0.00000000    
  -15.9200001       0.00000000    
  -15.9099998       0.00000000    
  -15.8999996       0.00000000    
  -15.8900003       0.00000000    
  -15.8800001       0.00000000    
  -15.8699999       0.00000000    
  -15.8599997       0.00000000    
  -15.8500004       0.00000000    
  -15.8400002       0.00000000    
  -15.8299999       2.80259693E-45
  -15.8199997       1.68155816E-44
  -15.8100004       9.66895940E-44
  -15.8000002       4.58224598E-43
  -15.7900000       1.79926723E-42
  -15.7799997       6.01577431E-42
  -15.7700005       1.70369867E-41
  -15.7600002       3.97520348E-41
  -15.7500000       6.95001999E-41
  -15.7399998       5.26453820E-41
  -15.7299995      -2.19953412E-40
  -15.7200003      -1.33982770E-39
  -15.7100000      -4.65706270E-39
  -15.6999998      -1.27000254E-38
  -15.6899996      -2.91995231E-38
  -15.6800003      -5.77257055E-38
  -15.6700001      -9.74016442E-38
  -15.6599998      -1.34306510E-37
  -15.6499996      -1.29191423E-37
  -15.6400003      -7.12449146E-39
  -15.6300001       3.37648941E-37
  -15.6199999       1.00163989E-36
  -15.6099997       1.97915951E-36
  -15.6000004       3.02023880E-36
  -15.5900002       3.48864432E-36
  -15.5799999       2.32731469E-36
  -15.5699997      -1.72471367E-36
  -15.5600004      -9.55140602E-36
  -15.5500002      -2.07307038E-35
  -15.5400000      -3.24688501E-35
  -15.5299997      -3.87824945E-35
  -15.5200005      -3.03891434E-35
  -15.5100002       4.16848384E-36
  -15.5000000       7.52815109E-35
  -15.4899998       1.85145055E-34
  -15.4799995       3.14168406E-34
  -15.4700003       4.00083176E-34
  -15.4600000       3.17285004E-34
  -15.4499998      -1.18302245E-34
  -15.4399996      -1.07202366E-33
  -15.4300003      -2.49082698E-33
  -15.4200001      -3.78480785E-33
  -15.4099998      -3.54016728E-33
  -15.3999996       3.63457389E-34
  -15.3900003       9.69202219E-33
  -15.3800001       2.34806892E-32
  -15.3699999       3.48025233E-32
  -15.3599997       2.87438550E-32
  -15.3500004      -1.45398542E-32
  -15.3400002      -1.07354808E-31
  -15.3299999      -2.31500047E-31
  -15.3199997      -3.12511239E-31
  -15.3100004      -2.12055137E-31
  -15.3000002       2.29774939E-31
  -15.2900000       1.07538399E-30
  -15.2799997       2.10283902E-30
  -15.2700005       2.63311148E-30
  -15.2600002       1.54283079E-30
  -15.2500000      -2.31850650E-30
  -15.2399998      -9.17349246E-30
  -15.2299995      -1.69904577E-29
  -15.2200003      -2.04586618E-29
  -15.2100000      -1.14617365E-29
  -15.1999998       1.76225795E-29
  -15.1899996       6.72635908E-29
  -15.1800003       1.22308998E-28
  -15.1700001       1.46346854E-28
  -15.1599998       8.62892509E-29
  -15.1499996      -1.05481594E-28
  -15.1400003      -4.29709204E-28
  -15.1300001      -7.90506275E-28
  -15.1199999      -9.65232562E-28
  -15.1099997      -6.35440700E-28
  -15.1000004       4.83056212E-28
  -15.0900002       2.40658852E-27
  -15.0799999       4.61047060E-27
  -15.0699997       5.86754241E-27
  -15.0600004       4.41287904E-27
  -15.0500002      -1.37637855E-27
  -15.0400000      -1.17724247E-26
  -15.0299997      -2.42842664E-26
  -15.0200005      -3.27845508E-26
  -15.0100002      -2.82118384E-26
  -15.0000000      -1.75677783E-27
  -14.9899998       4.93732294E-26
  -14.9799995       1.15061415E-25
  -14.9700003       1.67607785E-25
  -14.9600000       1.63967981E-25
  -14.9499998       5.91383259E-26
  -14.9399996      -1.68476987E-25
  -14.9300003      -4.85414415E-25
  -14.9200001      -7.79053786E-25
  -14.9099998      -8.61037043E-25
  -14.8999996      -5.17179527E-25
  -14.8900003       3.89879613E-25
  -14.8800001       1.78465501E-24
  -14.8699999       3.26185129E-24
  -14.8599997       4.06788314E-24
  -14.8500004       3.26186766E-24
  -14.8400002       9.46895383E-26
  -14.8299999      -5.44800200E-24
  -14.8199997      -1.21193624E-23
  -14.8100004      -1.71955695E-23
  -14.8000002      -1.68959601E-23
  -14.7900000      -7.64282997E-24
  -14.7799997       1.19433801E-23
  -14.7700005       3.88689028E-23
  -14.7600002       6.44158004E-23
  -14.7500000       7.48326329E-23
  -14.7399998       5.50061728E-23
  -14.7299995      -4.87051282E-24
  -14.7200003      -1.01110618E-22
  -14.7100000      -2.09951657E-22
  -14.6999998      -2.86779641E-22
  -14.6899996      -2.74999108E-22
  -14.6800003      -1.25947462E-22
  -14.6700001       1.73265056E-22
  -14.6599998       5.72677070E-22
  -14.6499996       9.46384286E-22
  -14.6400003       1.10744025E-21
  -14.6300001       8.59386938E-22
  -14.6199999       8.07531350E-23
  -14.6099997      -1.17828718E-21
  -14.6000004      -2.62453846E-21
  -14.5900002      -3.72132321E-21
  -14.5799999      -3.79632361E-21
  -14.5699997      -2.26588095E-21
  -14.5600004       1.06367369E-21
  -14.5500002       5.71076448E-21
  -14.5400000       1.03815472E-20
  -14.5299997       1.31134946E-20
  -14.5200005       1.17749176E-20
  -14.5100002       4.87924924E-21
  -14.5000000      -7.48024679E-21
  -14.4899998      -2.29109982E-20
  -14.4799995      -3.66165263E-20
  -14.4700003      -4.22320422E-20
  -14.4600000      -3.36826298E-20
  -14.4499998      -7.76339136E-21
  -14.4399996       3.32845588E-20
  -14.4300003       8.02398734E-20
  -14.4200001       1.17469121E-19
  -14.4099998       1.26264778E-19
  -14.3999996       9.07991570E-20
  -14.3900003       5.44849491E-21
  -14.3800001      -1.18797276E-19
  -14.3699999      -2.51677999E-19
  -14.3599997      -3.47267249E-19
  -14.3500004      -3.54918204E-19
  -14.3400002      -2.36253226E-19
  -14.3299999       1.58707881E-20
  -14.3199997       3.62742247E-19
  -14.3100004       7.16534556E-19
  -14.3000002       9.53746277E-19
  -14.2900000       9.46442376E-19
  -14.2799997       6.06283995E-19
  -14.2700005      -7.00349914E-20
  -14.2600002      -9.69696387E-19
  -14.2500000      -1.86289966E-18
  -14.2399998      -2.44261472E-18
  -14.2299995      -2.40434459E-18
  -14.2200003      -1.55107191E-18
  -14.2100000       1.04860523E-19
  -14.1999998       2.27885198E-18
  -14.1899996       4.42354106E-18
  -14.1800003       5.82935850E-18
  -14.1700001       5.80935396E-18
  -14.1599998       3.93116676E-18
  -14.1499996       2.32661841E-19
  -14.1400003      -4.65444150E-18
  -14.1300001      -9.53889628E-18
  -14.1199999      -1.28939135E-17
  -14.1099997      -1.32489345E-17
  -14.1000004      -9.66720109E-18
  -14.0900002      -2.17866821E-18
  -14.0799999       7.98021751E-18
  -14.0699997       1.84430208E-17
  -14.0600004       2.61583891E-17
  -14.0500002       2.81522319E-17
  -14.0400000       2.24444673E-17
  -14.0299997       8.87329464E-18
  -14.0200005      -1.04453886E-17
  -14.0100002      -3.12419897E-17
  -14.0000000      -4.78864022E-17
  -13.9899998      -5.47498274E-17
  -13.9799995      -4.78425252E-17
  -13.9700003      -2.62945811E-17
  -13.9600000       6.78867584E-18
  -13.9499998       4.44650376E-17
  -13.9399996       7.72275077E-17
  -13.9300003       9.52392530E-17
  -13.9200001       9.10472803E-17
  -13.9099998       6.20688671E-17
  -13.8999996       1.20966794E-17
  -13.8900003      -4.87652121E-17
  -13.8800001      -1.05956430E-16
  -13.8699999      -1.43841229E-16
  -13.8599997      -1.49869854E-16
  -13.8500004      -1.18442046E-16
  -13.8400002      -5.33314079E-17
  -13.8299999       3.22093443E-17
  -13.8199997       1.17988513E-16
  -13.8100004       1.81664361E-16
  -13.8000002       2.04685975E-16
  -13.7900000       1.77819890E-16
  -13.7799997       1.04626383E-16
  -13.7700005       1.65178425E-18
  -13.7600002      -1.05085521E-16
  -13.7500000      -1.86699535E-16
  -13.7399998      -2.19536858E-16
  -13.7299995      -1.92550216E-16
  -13.7200003      -1.11678171E-16
  -13.7100000       4.12557597E-19
  -13.6999998       1.09676963E-16
  -13.6899996       1.80117996E-16
  -13.6800003       1.84923426E-16
  -13.6700001       1.16134292E-16
  -13.6599998      -1.02993424E-17
  -13.6499996      -1.56241686E-16
  -13.6400003      -2.70288081E-16
  -13.6300001      -3.02183424E-16
  -13.6199999      -2.19169682E-16
  -13.6099997      -1.96151870E-17
  -13.6000004       2.60570734E-16
  -13.5900002       5.51742809E-16
  -13.5799999       7.64988754E-16
  -13.5699997       8.14677453E-16
  -13.5600004       6.43829108E-16
  -13.5500002       2.45533623E-16
  -13.5400000      -3.26140401E-16
  -13.5299997      -9.60214125E-16
  -13.5200005      -1.50874006E-15
  -13.5100002      -1.81928892E-15
  -13.5000000      -1.77288824E-15
  -13.4899998      -1.31811487E-15
  -13.4799995      -4.92135619E-16
  -13.4700003       5.77910410E-16
  -13.4600000       1.69523713E-15
  -13.4499998       2.63202741E-15
  -13.4399996       3.17800007E-15
  -13.4300003       3.18759187E-15
  -13.4200001       2.61427148E-15
  -13.4099998       1.52339003E-15
  -13.3999996       8.02630157E-17
  -13.3900003      -1.48352294E-15
  -13.3800001      -2.91698305E-15
  -13.3699999      -3.99790784E-15
  -13.3599997      -4.57048560E-15
  -13.3500004      -4.56395328E-15
  -13.3400002      -3.98972762E-15
  -13.3299999      -2.92107232E-15
  -13.3199997      -1.46464723E-15
  -13.3100004       2.64519310E-16
  -13.3000002       2.15478935E-15
  -13.2900000       4.09200304E-15
  -13.2799997       5.93896939E-15
  -13.2700005       7.51068095E-15
  -13.2600002       8.56004974E-15
  -13.2500000       8.78857584E-15
  -13.2399998       7.89062859E-15
  -13.2299995       5.62981338E-15
  -13.2200003       1.93381561E-15
  -13.2100000      -3.01633726E-15
  -13.1999998      -8.73177551E-15
  -13.1899996      -1.44227095E-14
  -13.1800003      -1.90823750E-14
  -13.1700001      -2.16458880E-14
  -13.1599998      -2.12015582E-14
  -13.1499996      -1.72140609E-14
  -13.1400003      -9.70865691E-15
  -13.1300001       6.33038649E-16
  -13.1199999       1.25014067E-14
  -13.1099997       2.41221854E-14
  -13.1000004       3.35356912E-14
  -13.0900002       3.89439525E-14
  -13.0799999       3.90580919E-14
  -13.0699997       3.33729863E-14
  -13.0600004       2.23075918E-14
  -13.0500002       7.17600553E-15
  -13.0400000      -1.00096890E-14
  -13.0299997      -2.68671024E-14
  -13.0200005      -4.10351074E-14
  -13.0100002      -5.05498421E-14
  -13.0000000      -5.41312228E-14
  -12.9899998      -5.13297189E-14
  -12.9799995      -4.25181503E-14
  -12.9700003      -2.87505479E-14
  -12.9600000      -1.15396728E-14
  -12.9499998       7.38158805E-15
  -12.9399996       2.62562714E-14
  -12.9300003       4.34217007E-14
  -12.9200001       5.73489688E-14
  -12.9099998       6.66365360E-14
  -12.8999996       7.00126399E-14
  -12.8900003       6.64030056E-14
  -12.8800001       5.50992832E-14
  -12.8699999       3.60241825E-14
  -12.8599997       1.00413477E-14
  -12.8500004      -2.07828648E-14
  -12.8400002      -5.30788758E-14
  -12.8299999      -8.23367253E-14
  -12.8199997      -1.03389228E-13
  -12.8100004      -1.11201162E-13
  -12.8000002      -1.01866046E-13
  -12.7900000      -7.36370464E-14
  -12.7799997      -2.77726332E-14
  -12.7700005       3.10234592E-14
  -12.7600002       9.47389208E-14
  -12.7500000       1.52842203E-13
  -12.7399998       1.93677783E-13
  -12.7299995       2.06294603E-13
  -12.7200003       1.82433482E-13
  -12.7100000       1.18342985E-13
  -12.6999998       1.60980695E-14
  -12.6899996      -1.15838301E-13
  -12.6800003      -2.62958871E-13
  -12.6700001      -4.05969583E-13
  -12.6599998      -5.22833296E-13
  -12.6499996      -5.91358505E-13
  -12.6400003      -5.92026265E-13
  -12.6300001      -5.10728558E-13
  -12.6199999      -3.41117515E-13
  -12.6099997      -8.63235874E-14
  -12.6000004       2.40129151E-13
  -12.5900002       6.14313830E-13
  -12.5799999       1.00284256E-12
  -12.5699997       1.36476182E-12
  -12.5600004       1.65436469E-12
  -12.5500002       1.82483694E-12
  -12.5400000       1.83259354E-12
  -12.5299997       1.64207330E-12
  -12.5200005       1.23066390E-12
  -12.5100002       5.93314081E-13
  -12.5000000      -2.53673520E-13
  -12.4899998      -1.27021863E-12
  -12.4799995      -2.39189029E-12
  -12.4700003      -3.53154160E-12
  -12.4600000      -4.58328210E-12
  -12.4499998      -5.42863020E-12
  -12.4399996      -5.94440816E-12
  -12.4300003      -6.01166773E-12
  -12.4200001      -5.52476728E-12
  -12.4099998      -4.39964818E-12
  -12.3999996      -2.58047902E-12
  -12.3900003      -4.39999870E-14
  -12.3800001       3.19874682E-12
  -12.3699999       7.10329191E-12
  -12.3599997       1.15948614E-11
  -12.3500004       1.65731491E-11
  -12.3400002       2.19179692E-11
  -12.3299999       2.74950566E-11
  -12.3199997       3.31613591E-11
  -12.3100004       3.87693835E-11
  -12.3000002       4.41704520E-11
  -12.2900000       4.92167453E-11
  -12.2799997       5.37626159E-11
  -12.2700005       5.76652233E-11
  -12.2600002       6.07849118E-11
  -12.2500000       6.29857486E-11
  -12.2399998       6.41361755E-11
  -12.2299995       6.41101686E-11
  -12.2200003       6.27888297E-11
  -12.2100000       6.00625105E-11
  -12.1999998       5.58335912E-11
  -12.1899996       5.00197835E-11
  -12.1800003       4.25584325E-11
  -12.1700001       3.34112564E-11
  -12.1599998       2.25696146E-11
  -12.1499996       1.00600197E-11
  -12.1400003      -4.05093927E-12
  -12.1300001      -1.96527725E-11
  -12.1199999      -3.65889367E-11
  -12.1099997      -5.46574105E-11
  -12.1000004      -7.36141564E-11
  -12.0900002      -9.31794919E-11
  -12.0799999      -1.13047238E-10
  -12.0699997      -1.32895694E-10
  -12.0600004      -1.52399704E-10
  -12.0500002      -1.71242173E-10
  -12.0400000      -1.89124397E-10
  -12.0299997      -2.05773718E-10
  -12.0200005      -2.20948135E-10
  -12.0100002      -2.34438025E-10
  -12.0000000      -2.46064363E-10
  -11.9899998      -2.55675148E-10
  -11.9799995      -2.63140038E-10
  -11.9700003      -2.68344180E-10
  -11.9600000      -2.71182882E-10
  -11.9499998      -2.71556638E-10
  -11.9399996      -2.69367612E-10
  -11.9300003      -2.64518241E-10
  -11.9200001      -2.56910354E-10
  -11.9099998      -2.46447002E-10
  -11.8999996      -2.33034841E-10
  -11.8900003      -2.16587942E-10
  -11.8800001      -1.97032557E-10
  -11.8699999      -1.74312259E-10
  -11.8599997      -1.48394408E-10
  -11.8500004      -1.19275811E-10
  -11.8400002      -8.69888536E-11
  -11.8299999      -5.16065246E-11
  -11.8199997      -1.32465488E-11
  -11.8100004       2.79256496E-11
  -11.8000002       7.16963641E-11
  -11.7900000       1.17804003E-10
  -11.7799997       1.65941996E-10
  -11.7700005       2.15762130E-10
  -11.7600002       2.66880101E-10
  -11.7500000       3.18880505E-10
  -11.7399998       3.71322167E-10
  -11.7299995       4.23743374E-10
  -11.7200003       4.75666506E-10
  -11.7100000       5.26601651E-10
  -11.6999998       5.76050485E-10
  -11.6899996       6.23509522E-10
  -11.6800003       6.68472999E-10
  -11.6700001       7.10435988E-10
  -11.6599998       7.48899165E-10
  -11.6499996       7.83372367E-10
  -11.6400003       8.13378420E-10
  -11.6300001       8.38458913E-10
  -11.6199999       8.58177251E-10
  -11.6099997       8.72122985E-10
  -11.6000004       8.79914974E-10
  -11.5900002       8.81203499E-10
  -11.5799999       8.75672479E-10
  -11.5699997       8.63041250E-10
  -11.5600004       8.43066228E-10
  -11.5500002       8.15543744E-10
  -11.5400000       7.80313036E-10
  -11.5299997       7.37259032E-10
  -11.5200005       6.86316726E-10
  -11.5100002       6.27476182E-10
  -11.5000000       5.60784863E-10
  -11.4899998       4.86350904E-10
  -11.4799995       4.04341893E-10
  -11.4700003       3.14984427E-10
  -11.4600000       2.18559532E-10
  -11.4499998       1.15394562E-10
  -11.4399996       5.85725956E-12
  -11.4300003      -1.09655590E-10
  -11.4200001      -2.30725536E-10
  -11.4099998      -3.56920798E-10
  -11.3999996      -4.87804630E-10
  -11.3900003      -6.22937590E-10
  -11.3800001      -7.61883001E-10
  -11.3699999      -9.04206543E-10
  -11.3599997      -1.04947462E-09
  -11.3500004      -1.19725307E-09
  -11.3400002      -1.34710365E-09
  -11.3299999      -1.49857893E-09
  -11.3199997      -1.65121994E-09
  -11.3100004      -1.80455006E-09
  -11.3000002      -1.95807393E-09
  -11.2900000      -2.11127493E-09
  -11.2799997      -2.26361285E-09
  -11.2700005      -2.41452724E-09
  -11.2600002      -2.56344324E-09
  -11.2500000      -2.70977396E-09
  -11.2399998      -2.85293611E-09
  -11.2299995      -2.99235947E-09
  -11.2200003      -3.12750426E-09
  -11.2100000      -3.25787664E-09
  -11.1999998      -3.38304651E-09
  -11.1899996      -3.50266127E-09
  -11.1800003      -3.61646069E-09
  -11.1700001      -3.72428133E-09
  -11.1599998      -3.82606435E-09
  -11.1499996      -3.92185084E-09
  -11.1400003      -4.01177269E-09
  -11.1300001      -4.09604439E-09
  -11.1199999      -4.17494705E-09
  -11.1099997      -4.24880664E-09
  -11.1000004      -4.31798286E-09
  -11.0900002      -4.38285053E-09
  -11.0799999      -4.44378889E-09
  -11.0699997      -4.50116655E-09
  -11.0600004      -4.55533877E-09
  -11.0500002      -4.60664396E-09
  -11.0400000      -4.65539696E-09
  -11.0299997      -4.70189976E-09
  -11.0200005      -4.74643347E-09
  -11.0100002      -4.78925699E-09
  -11.0000000      -4.83062168E-09
  -10.9899998      -4.87075669E-09
  -10.9799995      -4.90988983E-09
  -10.9700003      -4.94824359E-09
  -10.9600000      -4.98603470E-09
  -10.9499998      -5.02349362E-09
  -10.9399996      -5.06086062E-09
  -10.9300003      -5.09838882E-09
  -10.9200001      -5.13636511E-09
  -10.9099998      -5.17509990E-09
  -10.8999996      -5.21491827E-09
  -10.8900003      -5.25617994E-09
  -10.8800001      -5.29924593E-09
  -10.8699999      -5.34448086E-09
  -10.8599997      -5.39222533E-09
  -10.8500004      -5.44279510E-09
  -10.8400002      -5.49645973E-09
  -10.8299999      -5.55343371E-09
  -10.8199997      -5.61385383E-09
  -10.8100004      -5.67779956E-09
  -10.8000002      -5.74526693E-09
  -10.7900000      -5.81619375E-09
  -10.7799997      -5.89044369E-09
  -10.7700005      -5.96783556E-09
  -10.7600002      -6.04813799E-09
  -10.7500000      -6.13108986E-09
  -10.7399998      -6.21640428E-09
  -10.7299995      -6.30378061E-09
  -10.7200003      -6.39290842E-09
  -10.7100000      -6.48349463E-09
  -10.6999998      -6.57525190E-09
  -10.6899996      -6.66791866E-09
  -10.6800003      -6.76126399E-09
  -10.6700001      -6.85509383E-09
  -10.6599998      -6.94926428E-09
  -10.6499996      -7.04366121E-09
  -10.6400003      -7.13822557E-09
  -10.6300001      -7.23291960E-09
  -10.6199999      -7.32774152E-09
  -10.6099997      -7.42271622E-09
  -10.6000004      -7.51787255E-09
  -10.5900002      -7.61323982E-09
  -10.5799999      -7.70884601E-09
  -10.5699997      -7.80471154E-09
  -10.5600004      -7.90085153E-09
  -10.5500002      -7.99726596E-09
  -10.5400000      -8.09396639E-09
  -10.5299997      -8.19096080E-09
  -10.5200005      -8.28827496E-09
  -10.5100002      -8.38593994E-09
  -10.5000000      -8.48398773E-09
  -10.4899998      -8.58245564E-09
  -10.4799995      -8.68137562E-09
  -10.4700003      -8.78075834E-09
  -10.4600000      -8.88058604E-09
  -10.4499998      -8.98081964E-09
  -10.4399996      -9.08136322E-09
  -10.4300003      -9.18209686E-09
  -10.4200001      -9.28285182E-09
  -10.4099998      -9.38342559E-09
  -10.3999996      -9.48360945E-09
  -10.3900003      -9.58316893E-09
  -10.3800001      -9.68185443E-09
  -10.3699999      -9.77942527E-09
  -10.3599997      -9.87561677E-09
  -10.3500004      -9.97019889E-09
  -10.3400002      -1.00629283E-08
  -10.3299999      -1.01535740E-08
  -10.3199997      -1.02419069E-08
  -10.3100004      -1.03277209E-08
  -10.3000002      -1.04108011E-08
  -10.2900000      -1.04909743E-08
  -10.2799997      -1.05680833E-08
  -10.2700005      -1.06420046E-08
  -10.2600002      -1.07126255E-08
  -10.2500000      -1.07798783E-08
  -10.2399998      -1.08437037E-08
  -10.2299995      -1.09040812E-08
  -10.2200003      -1.09609868E-08
  -10.2100000      -1.10143938E-08
  -10.1999998      -1.10642793E-08
  -10.1899996      -1.11106147E-08
  -10.1800003      -1.11533511E-08
  -10.1700001      -1.11924541E-08
  -10.1599998      -1.12278684E-08
  -10.1499996      -1.12595799E-08
  -10.1400003      -1.12875860E-08
  -10.1300001      -1.13119327E-08
  -10.1199999      -1.13327072E-08
  -10.1099997      -1.13500516E-08
  -10.1000004      -1.13641807E-08
  -10.0900002      -1.13753478E-08
  -10.0799999      -1.13838583E-08
  -10.0699997      -1.13900613E-08
  -10.0600004      -1.13943459E-08
  -10.0500002      -1.13971144E-08
  -10.0400000      -1.13987779E-08
  -10.0299997      -1.13997602E-08
  -10.0200005      -1.14004539E-08
  -10.0100002      -1.14012861E-08
  -10.0000000      -1.14026353E-08
  -9.98999977      -1.14048815E-08
  -9.97999954      -1.14083960E-08
  -9.97000027      -1.14135315E-08
  -9.96000004      -1.14206573E-08
  -9.94999981      -1.14301457E-08
  -9.93999958      -1.14423750E-08
  -9.93000031      -1.14577494E-08
  -9.92000008      -1.14766934E-08
  -9.90999985      -1.14996581E-08
  -9.89999962      -1.15271224E-08
  -9.89000034      -1.15595773E-08
  -9.88000011      -1.15975354E-08
  -9.86999989      -1.16414913E-08
  -9.85999966      -1.16919789E-08
  -9.85000038      -1.17494885E-08
  -9.84000015      -1.18145076E-08
  -9.82999992      -1.18875061E-08
  -9.81999969      -1.19689130E-08
  -9.81000042      -1.20591004E-08
  -9.80000019      -1.21584192E-08
  -9.78999996      -1.22671517E-08
  -9.77999973      -1.23855193E-08
  -9.77000046      -1.25137136E-08
  -9.76000023      -1.26518538E-08
  -9.75000000      -1.28000242E-08
  -9.73999977      -1.29582673E-08
  -9.72999954      -1.31265967E-08
  -9.72000027      -1.33049793E-08
  -9.71000004      -1.34933487E-08
  -9.69999981      -1.36915608E-08
  -9.68999958      -1.38994221E-08
  -9.68000031      -1.41166625E-08
  -9.67000008      -1.43429491E-08
  -9.65999985      -1.45778687E-08
  -9.64999962      -1.48209516E-08
  -9.64000034      -1.50716950E-08
  -9.63000011      -1.53295439E-08
  -9.61999989      -1.55939528E-08
  -9.60999966      -1.58643747E-08
  -9.60000038      -1.61402465E-08
  -9.59000015      -1.64210263E-08
  -9.57999992      -1.67061707E-08
  -9.56999969      -1.69951182E-08
  -9.56000042      -1.72873271E-08
  -9.55000019      -1.75822272E-08
  -9.53999996      -1.78792394E-08
  -9.52999973      -1.81777668E-08
  -9.52000046      -1.84772322E-08
  -9.51000023      -1.87770421E-08
  -9.50000000      -1.90766034E-08
  -9.48999977      -1.93753493E-08
  -9.47999954      -1.96727434E-08
  -9.47000027      -1.99682830E-08
  -9.46000004      -2.02615116E-08
  -9.44999981      -2.05520152E-08
  -9.43999958      -2.08394813E-08
  -9.43000031      -2.11236113E-08
  -9.42000008      -2.14042526E-08
  -9.40999985      -2.16812932E-08
  -9.39999962      -2.19547456E-08
  -9.39000034      -2.22246648E-08
  -9.38000011      -2.24912284E-08
  -9.36999989      -2.27546657E-08
  -9.35999966      -2.30153017E-08
  -9.35000038      -2.32735395E-08
  -9.34000015      -2.35298465E-08
  -9.32999992      -2.37848177E-08
  -9.31999969      -2.40390658E-08
  -9.31000042      -2.42933531E-08
  -9.30000019      -2.45484468E-08
  -9.28999996      -2.48051819E-08
  -9.27999973      -2.50645140E-08
  -9.27000046      -2.53273811E-08
  -9.26000023      -2.55948081E-08
  -9.25000000      -2.58678270E-08
  -9.23999977      -2.61474842E-08
  -9.22999954      -2.64348738E-08
  -9.22000027      -2.67310583E-08
  -9.21000004      -2.70371192E-08
  -9.19999981      -2.73540763E-08
  -9.18999958      -2.76829102E-08
  -9.18000031      -2.80245249E-08
  -9.17000008      -2.83797874E-08
  -9.15999985      -2.87493656E-08
  -9.14999962      -2.91338669E-08
  -9.14000034      -2.95337728E-08
  -9.13000011      -2.99493692E-08
  -9.11999989      -3.03808569E-08
  -9.10999966      -3.08283035E-08
  -9.10000038      -3.12916804E-08
  -9.09000015      -3.17708135E-08
  -9.07999992      -3.22654223E-08
  -9.06999969      -3.27751373E-08
  -9.06000042      -3.32995924E-08
  -9.05000019      -3.38382904E-08
  -9.03999996      -3.43906663E-08
  -9.02999973      -3.49562228E-08
  -9.02000046      -3.55344092E-08
  -9.01000023      -3.61246286E-08
  -9.00000000      -3.67263588E-08
  -8.98999977      -3.73390385E-08
  -8.97999954      -3.79620957E-08
  -8.97000027      -3.85949654E-08
  -8.96000004      -3.92370048E-08
  -8.94999981      -3.98876203E-08
  -8.93999958      -4.05461442E-08
  -8.93000031      -4.12118411E-08
  -8.92000008      -4.18840180E-08
  -8.90999985      -4.25619788E-08
  -8.89999962      -4.32449987E-08
  -8.89000034      -4.39323173E-08
  -8.88000011      -4.46233273E-08
  -8.86999989      -4.53173783E-08
  -8.85999966      -4.60138523E-08
  -8.85000038      -4.67122128E-08
  -8.84000015      -4.74119624E-08
  -8.82999992      -4.81125966E-08
  -8.81999969      -4.88137708E-08
  -8.81000042      -4.95152399E-08
  -8.80000019      -5.02168085E-08
  -8.78999996      -5.09183415E-08
  -8.77999973      -5.16198497E-08
  -8.77000046      -5.23214538E-08
  -8.76000023      -5.30232320E-08
  -8.75000000      -5.37253726E-08
  -8.73999977      -5.44282379E-08
  -8.72999954      -5.51320518E-08
  -8.72000027      -5.58371802E-08
  -8.71000004      -5.65440672E-08
  -8.69999981      -5.72531569E-08
  -8.68999958      -5.79649679E-08
  -8.68000031      -5.86800155E-08
  -8.67000008      -5.93989427E-08
  -8.65999985      -6.01222894E-08
  -8.64999962      -6.08505459E-08
  -8.64000034      -6.15842097E-08
  -8.63000011      -6.23237284E-08
  -8.61999989      -6.30694714E-08
  -8.60999966      -6.38218012E-08
  -8.60000038      -6.45808953E-08
  -8.59000015      -6.53469172E-08
  -8.57999992      -6.61199380E-08
  -8.56999969      -6.68999078E-08
  -8.56000042      -6.76868126E-08
  -8.55000019      -6.84805741E-08
  -8.53999996      -6.92809081E-08
  -8.52999973      -7.00876228E-08
  -8.52000046      -7.09003558E-08
  -8.51000023      -7.17188158E-08
  -8.50000000      -7.25425551E-08
  -8.48999977      -7.33712682E-08
  -8.47999954      -7.42046069E-08
  -8.47000027      -7.50421378E-08
  -8.46000004      -7.58835697E-08
  -8.44999981      -7.67286465E-08
  -8.43999958      -7.75770985E-08
  -8.43000031      -7.84288048E-08
  -8.42000008      -7.92834669E-08
  -8.40999985      -8.01410636E-08
  -8.39999962      -8.10015450E-08
  -8.39000034      -8.18650321E-08
  -8.38000011      -8.27316242E-08
  -8.36999989      -8.36014848E-08
  -8.35999966      -8.44747987E-08
  -8.35000038      -8.53518429E-08
  -8.34000015      -8.62327738E-08
  -8.32999992      -8.71180035E-08
  -8.31999969      -8.80078588E-08
  -8.31000042      -8.89025031E-08
  -8.30000019      -8.98024766E-08
  -8.28999996      -9.07081130E-08
  -8.27999973      -9.16196967E-08
  -8.27000046      -9.25377250E-08
  -8.26000023      -9.34625248E-08
  -8.25000000      -9.43943448E-08
  -8.23999977      -9.53336396E-08
  -8.22999954      -9.62807576E-08
  -8.22000027      -9.72359899E-08
  -8.21000004      -9.81995782E-08
  -8.19999981      -9.91719276E-08
  -8.18999958      -1.00153215E-07
  -8.18000031      -1.01143712E-07
  -8.17000008      -1.02143737E-07
  -8.15999985      -1.03153418E-07
  -8.14999962      -1.04172834E-07
  -8.14000034      -1.05202005E-07
  -8.13000011      -1.06241089E-07
  -8.11999989      -1.07289829E-07
  -8.10999966      -1.08348161E-07
  -8.10000038      -1.09415808E-07
  -8.09000015      -1.10492628E-07
  -8.07999992      -1.11578395E-07
  -8.06999969      -1.12672723E-07
  -8.06000042      -1.13775179E-07
  -8.05000019      -1.14885403E-07
  -8.03999996      -1.16002894E-07
  -8.02999973      -1.17126994E-07
  -8.02000046      -1.18257070E-07
  -8.01000023      -1.19392524E-07
  -8.00000000      -1.20532647E-07
  -7.98999977      -1.21676791E-07
  -7.98000002      -1.22824318E-07
  -7.96999979      -1.23974516E-07
  -7.96000004      -1.25126590E-07
  -7.94999981      -1.26280113E-07
  -7.94000006      -1.27434461E-07
  -7.92999983      -1.28588965E-07
  -7.92000008      -1.29743114E-07
  -7.90999985      -1.30896623E-07
  -7.90000010      -1.32048925E-07
  -7.88999987      -1.33199720E-07
  -7.88000011      -1.34348838E-07
  -7.86999989      -1.35496236E-07
  -7.86000013      -1.36641816E-07
  -7.84999990      -1.37785605E-07
  -7.84000015      -1.38927746E-07
  -7.82999992      -1.40068337E-07
  -7.82000017      -1.41207863E-07
  -7.80999994      -1.42346423E-07
  -7.80000019      -1.43484499E-07
  -7.78999996      -1.44622518E-07
  -7.78000021      -1.45761106E-07
  -7.76999998      -1.46900987E-07
  -7.76000023      -1.48042957E-07
  -7.75000000      -1.49187855E-07
  -7.73999977      -1.50336646E-07
  -7.73000002      -1.51490326E-07
  -7.71999979      -1.52650244E-07
  -7.71000004      -1.53817439E-07
  -7.69999981      -1.54993018E-07
  -7.69000006      -1.56178444E-07
  -7.67999983      -1.57375055E-07
  -7.67000008      -1.58584371E-07
  -7.65999985      -1.59807627E-07
  -7.65000010      -1.61046273E-07
  -7.63999987      -1.62301987E-07
  -7.63000011      -1.63576274E-07
  -7.61999989      -1.64870414E-07
  -7.61000013      -1.66186197E-07
  -7.59999990      -1.67524817E-07
  -7.59000015      -1.68887709E-07
  -7.57999992      -1.70276508E-07
  -7.57000017      -1.71692449E-07
  -7.55999994      -1.73136840E-07
  -7.55000019      -1.74611102E-07
  -7.53999996      -1.76116430E-07
  -7.53000021      -1.77653988E-07
  -7.51999998      -1.79224969E-07
  -7.51000023      -1.80830412E-07
  -7.50000000      -1.82471496E-07
  -7.48999977      -1.84149286E-07
  -7.48000002      -1.85864479E-07
  -7.46999979      -1.87618426E-07
  -7.46000004      -1.89411764E-07
  -7.44999981      -1.91245618E-07
  -7.44000006      -1.93120513E-07