  -16.0000000       0.00000000    
  -15.9899998       0.00000000    
  -15.9799995       0.00000000    
  -15.9700003       0.00000000    
  -15.9600000       0.00000000    
  -15.9499998       0.00000000    
  -15.9399996       0.00000000    
  -15.9300003       0.00000000    
  -15.9200001       0.00000000    
  -15.9099998       0.00000000    
  -15.8999996       0.00000000    
  -15.8900003       0.00000000    
  -15.8800001       0.00000000    
  -15.8699999       0.00000000    
  -15.8599997       0.00000000    
  -15.8500004       0.00000000    
  -15.8400002      -0.00000000    
  -15.8299999      -0.00000000    
  -15.8199997      -4.20389539E-45
  -15.8100004      -2.24207754E-44
  -15.8000002      -1.21912966E-43
  -15.7900000      -5.64723281E-43
  -15.7799997      -2.29953078E-42
  -15.7700005      -8.24944406E-42
  -15.7600002      -2.63275955E-41
  -15.7500000      -7.51600444E-41
  -15.7399998      -1.92560830E-40
  -15.7299995      -4.42510437E-40
  -15.7200003      -9.06567239E-40
  -15.7100000      -1.62890857E-39
  -15.6999998      -2.46514044E-39
  -15.6899996      -2.78082355E-39
  -15.6800003      -9.91973578E-40
  -15.6700001       5.91080024E-39
  -15.6599998       2.24144402E-38
  -15.6499996       5.32444707E-38
  -15.6400003       9.96006627E-38
  -15.6300001       1.51798526E-37
  -15.6199999       1.78722570E-37
  -15.6099997       1.18092623E-37
  -15.6000004      -1.22665576E-37
  -15.5900002      -6.39147790E-37
  -15.5799999      -1.45954011E-36
  -15.5699997      -2.42674133E-36
  -15.5600004      -3.06237874E-36
  -15.5500002      -2.49575427E-36
  -15.5400000       4.05930740E-37
  -15.5299997       6.56155723E-36
  -15.5200005       1.58034697E-35
  -15.5100002       2.57848130E-35
  -15.5000000       3.11600393E-35
  -15.4899998       2.37877898E-35
  -15.4799995      -5.30857812E-36
  -15.4700003      -6.18987086E-35
  -15.4600000      -1.42779057E-34
  -15.4499998      -2.29210401E-34
  -15.4399996      -2.80674210E-34
  -15.4300003      -2.30447127E-34
  -15.4200001       1.30012545E-35
  -15.4099998       5.47786750E-34
  -15.3999996       1.42177061E-33
  -15.3900003       2.50999819E-33
  -15.3800001       3.32091664E-33
  -15.3699999       2.80153365E-33
  -15.3599997      -6.50183145E-34
  -15.3500004      -8.60907377E-33
  -15.3400002      -2.11176605E-32
  -15.3299999      -3.42521921E-32
  -15.3199997      -3.76910714E-32
  -15.3100004      -1.46095404E-32
  -15.3000002       5.26322071E-32
  -15.2900000       1.68082762E-31
  -15.2799997       3.00133307E-31
  -15.2700005       3.61110266E-31
  -15.2600002       2.08414326E-31
  -15.2500000      -3.06466518E-31
  -15.2399998      -1.22300746E-30
  -15.2299995      -2.30609272E-30
  -15.2200003      -2.90497850E-30
  -15.2100000      -1.97894587E-30
  -15.1999998       1.54014680E-30
  -15.1899996       7.95438407E-30
  -15.1800003       1.57139378E-29
  -15.1700001       2.05511576E-29
  -15.1599998       1.57219560E-29
  -15.1499996      -5.66462076E-30
  -15.1400003      -4.57892342E-29
  -15.1300001      -9.57040029E-29
  -15.1199999      -1.30406955E-28
  -15.1099997      -1.10381473E-28
  -15.1000004       5.20797976E-30
  -15.0900002       2.31691900E-28
  -15.0799999       5.24050160E-28
  -15.0699997       7.50310528E-28
  -15.0600004       6.98676876E-28
  -15.0500002       1.44145854E-28
  -15.0400000      -1.01627414E-27
  -15.0299997      -2.58771433E-27
  -15.0200005      -3.93949933E-27
  -15.0100002      -4.02609338E-27
  -15.0000000      -1.68833856E-27
  -14.9899998       3.71995911E-27
  -14.9799995       1.15016760E-26
  -14.9700003       1.89288330E-26
  -14.9600000       2.12338969E-26
  -14.9499998       1.28265733E-26
  -14.9399996      -1.00300421E-26
  -14.9300003      -4.55425055E-26
  -14.9200001      -8.31113220E-26
  -14.9099998      -1.02680262E-25
  -14.8999996      -7.90625797E-26
  -14.8900003       7.54597995E-27
  -14.8800001       1.56320726E-25
  -14.8699999       3.31016685E-25
  -14.8599997       4.54262002E-25
  -14.8500004       4.20565957E-25
  -14.8400002       1.34014501E-25
  -14.8299999      -4.32825891E-25
  -14.8199997      -1.17619910E-24
  -14.8100004      -1.82582527E-24
  -14.8000002      -1.97420863E-24
  -14.7900000      -1.19803182E-24
  -14.7799997       7.31612185E-25
  -14.7700005       3.60196059E-24
  -14.7600002       6.57831385E-24
  -14.7500000       8.22584078E-24
  -14.7399998       6.84940156E-24
  -14.7299995       1.17769853E-24
  -14.7200003      -8.73901294E-24
  -14.7100000      -2.07337337E-23
  -14.6999998      -3.02836034E-23
  -14.6899996      -3.12745231E-23
  -14.6800003      -1.79890121E-23
  -14.6700001       1.19279926E-23
  -14.6599998       5.43795143E-23
  -14.6499996       9.69966771E-23
  -14.6400003       1.20158018E-22
  -14.6300001       1.01950938E-22
  -14.6199999       2.69444625E-23
  -14.6099997      -1.03186174E-22
  -14.6000004      -2.61031473E-22
  -14.5900002      -3.91778971E-22
  -14.5799999      -4.22904646E-22
  -14.5699997      -2.86797791E-22
  -14.5600004       4.70524323E-23
  -14.5500002       5.39586817E-22
  -14.5400000       1.06341540E-21
  -14.5299997       1.41265142E-21
  -14.5200005       1.35109401E-21
  -14.5100002       6.96770419E-22
  -14.5000000      -5.75528784E-22
  -14.4899998      -2.24822319E-21
  -14.4799995      -3.83488041E-21
  -14.4700003      -4.65243212E-21
  -14.4600000      -4.00667992E-21
  -14.4499998      -1.46639948E-21
  -14.4399996       2.84538297E-21
  -14.4300003       8.05208385E-21
  -14.4200001       1.25351475E-20
  -14.4099998       1.42416138E-20
  -14.3999996       1.12915235E-20
  -14.3900003       2.77332273E-21
  -14.3800001      -1.05026937E-20
  -14.3699999      -2.55982027E-20
  -14.3599997      -3.76803775E-20
  -14.3500004      -4.10578399E-20
  -14.3400002      -3.09417991E-20
  -14.3299999      -5.55467453E-21
  -14.3199997       3.20602539E-20
  -14.3100004       7.33007005E-20
  -14.3000002       1.04997719E-19
  -14.2900000       1.12402989E-19
  -14.2799997       8.38094356E-20
  -14.2700005       1.57357282E-20
  -14.2600002      -8.29564767E-20
  -14.2500000      -1.89811209E-19
  -14.2399998      -2.71778669E-19
  -14.2299995      -2.92826228E-19
  -14.2200003      -2.25045084E-19
  -14.2100000      -6.05996071E-20
  -14.1999998       1.79233456E-19
  -14.1899996       4.41833509E-19
  -14.1800003       6.50593527E-19
  -14.1700001       7.22274207E-19
  -14.1599998       5.91601125E-19
  -14.1499996       2.37222889E-19
  -14.1400003      -2.98896855E-19
  -14.1300001      -9.06592536E-19
  -14.1199999      -1.42252432E-18
  -14.1099997      -1.66563073E-18
  -14.1000004      -1.48725864E-18
  -14.0900002      -8.24260665E-19
  -14.0799999       2.60357140E-19
  -14.0699997       1.56445900E-18
  -14.0600004       2.77177470E-18
  -14.0500002       3.51607802E-18
  -14.0400000       3.47435461E-18
  -14.0299997       2.46810698E-18
  -14.0200005       5.45330865E-19
  -14.0100002      -1.98411161E-18
  -14.0000000      -4.57880741E-18
  -13.9899998      -6.56575438E-18
  -13.9799995      -7.29499681E-18
  -13.9700003      -6.31623618E-18
  -13.9600000      -3.53331812E-18
  -13.9499998       7.08283532E-19
  -13.9399996       5.63441478E-18
  -13.9300003       1.01668355E-17
  -13.9200001       1.31427245E-17
  -13.9099998       1.35855159E-17
  -13.8999996       1.09653436E-17
  -13.8900003       5.38366945E-18
  -13.8800001      -2.37037579E-18
  -13.8699999      -1.09169841E-17
  -13.8599997      -1.85255205E-17
  -13.8500004      -2.34519666E-17
  -13.8400002      -2.43039577E-17
  -13.8299999      -2.03553333E-17
  -13.8199997      -1.17427197E-17
  -13.8100004       4.96726507E-19
  -13.8000002       1.45525802E-17
  -13.7900000       2.81058337E-17
  -13.7799997       3.86799878E-17
  -13.7700005       4.40190383E-17
  -13.7600002       4.24392259E-17
  -13.7500000       3.31175489E-17
  -13.7399998       1.62971389E-17
  -13.7299995      -6.60052079E-18
  -13.7200003      -3.29679649E-17
  -13.7100000      -5.91313105E-17
  -13.6999998      -8.06324875E-17
  -13.6899996      -9.27107075E-17
  -13.6800003      -9.09991517E-17
  -13.6700001      -7.24034433E-17
  -13.6599998      -3.60562503E-17
  -13.6499996       1.58361925E-17
  -13.6400003       7.74973803E-17
  -13.6300001       1.39683912E-16
  -13.6199999       1.90576524E-16
  -13.6099997       2.17505805E-16
  -13.6000004       2.09361107E-16
  -13.5900002       1.59312696E-16
  -13.5799999       6.72975750E-17
  -13.5699997      -5.83627340E-17
  -13.5600004      -2.00784303E-16
  -13.5500002      -3.36135840E-16
  -13.5400000      -4.37054151E-16
  -13.5299997      -4.77450608E-16
  -13.5200005      -4.37917013E-16
  -13.5100002      -3.10682235E-16
  -13.5000000      -1.03022917E-16
  -13.4899998       1.61772136E-16
  -13.4799995       4.46367887E-16
  -13.4700003       7.04207152E-16
  -13.4600000       8.86542005E-16
  -13.4499998       9.50558267E-16
  -13.4399996       8.67226424E-16
  -13.4300003       6.27537012E-16
  -13.4200001       2.46054151E-16
  -13.4099998      -2.38822634E-16
  -13.3999996      -7.67979892E-16
  -13.3900003      -1.26772711E-15
  -13.3800001      -1.65825885E-15
  -13.3699999      -1.86359403E-15
  -13.3599997      -1.82210361E-15
  -13.3500004      -1.49674258E-15
  -13.3400002      -8.84037276E-16
  -13.3299999      -2.07460041E-17
  -13.3199997       1.01310837E-15
  -13.3100004       2.09627102E-15
  -13.3000002       3.07468661E-15
  -13.2900000       3.77713336E-15
  -13.2799997       4.03782258E-15
  -13.2700005       3.72419592E-15
  -13.2600002       2.76642697E-15
  -13.2500000       1.18356147E-15
  -13.2399998      -8.99620882E-16
  -13.2299995      -3.25069582E-15
  -13.2200003      -5.54662034E-15
  -13.2100000      -7.41069126E-15
  -13.1999998      -8.46650681E-15
  -13.1899996      -8.40191123E-15
  -13.1800003      -7.03260709E-15
  -13.1700001      -4.35348507E-15
  -13.1599998      -5.66430467E-16
  -13.1499996       3.92348287E-15
  -13.1400003       8.54633628E-15
  -13.1300001       1.26368939E-14
  -13.1199999       1.55259886E-14
  -13.1099997       1.66399013E-14
  -13.1000004       1.55921147E-14
  -13.0900002       1.22528847E-14
  -13.0799999       6.78603326E-15
  -13.0699997      -3.51930490E-16
  -13.0600004      -8.44914772E-15
  -13.0500002      -1.66059437E-14
  -13.0400000      -2.38232031E-14
  -13.0299997      -2.91018091E-14
  -13.0200005      -3.15448520E-14
  -13.0100002      -3.04568179E-14
  -13.0000000      -2.54359573E-14
  -12.9899998      -1.64563136E-14
  -12.9799995      -3.93378703E-15
  -12.9700003       1.12333925E-14
  -12.9600000       2.76638657E-14
  -12.9499998       4.35486371E-14
  -12.9399996       5.67779669E-14
  -12.9300003       6.51473572E-14
  -12.9200001       6.66367596E-14
  -12.9099998       5.97391060E-14
  -12.8999996       4.37953235E-14
  -12.8900003       1.92777025E-14
  -12.8800001      -1.20428044E-14
  -12.8699999      -4.71035022E-14
  -12.8599997      -8.17685966E-14
  -12.8500004      -1.11263741E-13
  -12.8400002      -1.30790168E-13
  -12.8299999      -1.36241455E-13
  -12.8199997      -1.24914876E-13
  -12.8100004      -9.60946478E-14
  -12.8000002      -5.13931921E-14
  -12.7900000       5.23258669E-15
  -12.7799997       6.78224770E-14
  -12.7700005       1.29084081E-13
  -12.7600002       1.81307077E-13
  -12.7500000       2.17388255E-13
  -12.7399998       2.31812670E-13
  -12.7299995       2.21440284E-13
  -12.7200003       1.85979907E-13
  -12.7100000       1.28083701E-13
  -12.6999998       5.30566192E-14
  -12.6899996      -3.17661377E-14
  -12.6800003      -1.17876276E-13
  -12.6700001      -1.96562330E-13
  -12.6599998      -2.59870006E-13
  -12.6499996      -3.01445229E-13
  -12.6400003      -3.17182316E-13
  -12.6300001      -3.05626780E-13
  -12.6199999      -2.68110593E-13
  -12.6099997      -2.08610595E-13
  -12.6000004      -1.33333936E-13
  -12.5900002      -5.00403010E-14
  -12.5799999       3.28736367E-14
  -12.5699997       1.07478012E-13
  -12.5600004       1.67510997E-13
  -12.5500002       2.09542887E-13
  -12.5400000       2.33919926E-13
  -12.5299997       2.45280467E-13
  -12.5200005       2.52438830E-13
  -12.5100002       2.67483843E-13
  -12.5000000       3.04033600E-13
  -12.4899998       3.74720925E-13
  -12.4799995       4.88134327E-13
  -12.4700003       6.45584335E-13
  -12.4600000       8.38160433E-13
  -12.4499998       1.04458445E-12
  -12.4399996       1.23031565E-12
  -12.4300003       1.34824020E-12
  -12.4200001       1.34108165E-12
  -12.4099998       1.14543368E-12
  -12.3999996       6.97102749E-13
  -12.3900003      -6.27495357E-14
  -12.3800001      -1.18130657E-12
  -12.3699999      -2.68826801E-12
  -12.3599997      -4.59111742E-12
  -12.3500004      -6.87190886E-12
  -12.3400002      -9.48590078E-12
  -12.3299999      -1.23620914E-11
  -12.3199997      -1.54056021E-11
  -12.3100004      -1.85016412E-11
  -12.3000002      -2.15208320E-11
  -12.2900000      -2.43254427E-11
  -12.2799997      -2.67762167E-11
  -12.2700005      -2.87394171E-11
  -12.2600002      -3.00936533E-11
  -12.2500000      -3.07361775E-11
  -12.2399998      -3.05881154E-11
  -12.2299995      -2.95983064E-11
  -12.2200003      -2.77453008E-11
  -12.2100000      -2.50373403E-11
  -12.1999998      -2.15100802E-11
  -12.1899996      -1.72222583E-11
  -12.1800003      -1.22496926E-11
  -12.1700001      -6.67821310E-12
  -12.1599998      -5.96346215E-13
  -12.1499996       5.91125803E-12
  -12.1400003       1.27688034E-11
  -12.1300001       1.99121050E-11
  -12.1199999       2.72887650E-11
  -12.1099997       3.48557745E-11
  -12.1000004       4.25750234E-11
  -12.0900002       5.04075254E-11
  -12.0799999       5.83072826E-11
  -12.0699997       6.62159355E-11
  -12.0600004       7.40588146E-11
  -12.0500002       8.17430290E-11
  -12.0400000       8.91580143E-11
  -12.0299997       9.61777324E-11
  -12.0200005       1.02664682E-10
  -12.0100002       1.08474722E-10
  -12.0000000       1.13461900E-10
  -11.9899998       1.17483218E-10
  -11.9799995       1.20402369E-10
  -11.9700003       1.22093197E-10
  -11.9600000       1.22442126E-10
  -11.9499998       1.21350568E-10
  -11.9399996       1.18737020E-10
  -11.9300003       1.14539198E-10
  -11.9200001       1.08716113E-10
  -11.9099998       1.01249856E-10
  -11.8999996       9.21468735E-11
  -11.8900003       8.14381618E-11
  -11.8800001       6.91783922E-11
  -11.8699999       5.54440001E-11
  -11.8599997       4.03297395E-11
  -11.8500004       2.39457881E-11
  -11.8400002       6.41338024E-12
  -11.8299999      -1.21377552E-11
  -11.8199997      -3.15716515E-11
  -11.8100004      -5.17473807E-11
  -11.8000002      -7.25191157E-11
  -11.7900000      -9.37354777E-11
  -11.7799997      -1.15239034E-10
  -11.7700005      -1.36865755E-10
  -11.7600002      -1.58445673E-10
  -11.7500000      -1.79803797E-10
  -11.7399998      -2.00762448E-10
  -11.7299995      -2.21143798E-10
  -11.7200003      -2.40772291E-10
  -11.7100000      -2.59477079E-10
  -11.6999998      -2.77093321E-10
  -11.6899996      -2.93462060E-10
  -11.6800003      -3.08429893E-10
  -11.6700001      -3.21847049E-10
  -11.6599998      -3.33565980E-10
  -11.6499996      -3.43439027E-10
  -11.6400003      -3.51318002E-10
  -11.6300001      -3.57053415E-10
  -11.6199999      -3.60495744E-10
  -11.6099997      -3.61497277E-10
  -11.6000004      -3.59914543E-10
  -11.5900002      -3.55611818E-10
  -11.5799999      -3.48464896E-10
  -11.5699997      -3.38364059E-10
  -11.5600004      -3.25218186E-10
  -11.5500002      -3.08957554E-10
  -11.5400000      -2.89536894E-10
  -11.5299997      -2.66937417E-10
  -11.5200005      -2.41169140E-10
  -11.5100002      -2.12271881E-10
  -11.5000000      -1.80315193E-10
  -11.4899998      -1.45397860E-10
  -11.4799995      -1.07645316E-10
  -11.4700003      -6.72071565E-11
  -11.4600000      -2.42520500E-11
  -11.4499998       2.10369985E-11
  -11.4399996       6.84679674E-11
  -11.4300003       1.17844248E-10
  -11.4200001       1.68970449E-10
  -11.4099998       2.21655500E-10
  -11.3999996       2.75715728E-10
  -11.3900003       3.30976913E-10
  -11.3800001       3.87274601E-10
  -11.3699999       4.44456361E-10
  -11.3599997       5.02380082E-10
  -11.3500004       5.60915092E-10
  -11.3400002       6.19941820E-10
  -11.3299999       6.79351186E-10
  -11.3199997       7.39043104E-10
  -11.3100004       7.98925592E-10
  -11.3000002       8.58911442E-10
  -11.2900000       9.18915166E-10
  -11.2799997       9.78849335E-10
  -11.2700005       1.03861930E-09
  -11.2600002       1.09812059E-09
  -11.2500000       1.15723409E-09
  -11.2399998       1.21582677E-09
  -11.2299995       1.27374922E-09
  -11.2200003       1.33083877E-09
  -11.2100000       1.38692202E-09
  -11.1999998       1.44182122E-09
  -11.1899996       1.49535695E-09
  -11.1800003       1.54735413E-09
  -11.1700001       1.59764713E-09
  -11.1599998       1.64608438E-09
  -11.1499996       1.69252967E-09
  -11.1400003       1.73686721E-09
  -11.1300001       1.77899950E-09
  -11.1199999       1.81885440E-09
  -11.1099997       1.85638149E-09
  -11.1000004       1.89155536E-09
  -11.0900002       1.92437621E-09
  -11.0799999       1.95486849E-09
  -11.0699997       1.98308325E-09
  -11.0600004       2.00909156E-09
  -11.0500002       2.03298711E-09
  -11.0400000       2.05487294E-09
  -11.0299997       2.07486162E-09
  -11.0200005       2.09306905E-09
  -11.0100002       2.10960049E-09
  -11.0000000       2.12455298E-09
  -10.9899998       2.13800599E-09
  -10.9799995       2.15001905E-09
  -10.9700003       2.16062390E-09
  -10.9600000       2.16983187E-09
  -10.9499998       2.17762919E-09
  -10.9399996       2.18397367E-09
  -10.9300003       2.18880114E-09
  -10.9200001       2.19202345E-09
  -10.9099998       2.19352514E-09
  -10.8999996       2.19317342E-09
  -10.8900003       2.19081153E-09
  -10.8800001       2.18626850E-09
  -10.8699999       2.17936069E-09
  -10.8599997       2.16990492E-09
  -10.8500004       2.15771934E-09
  -10.8400002       2.14263229E-09
  -10.8299999       2.12449947E-09
  -10.8199997       2.10320095E-09
  -10.8100004       2.07865480E-09
  -10.8000002       2.05082085E-09
  -10.7900000       2.01969219E-09
  -10.7799997       1.98530814E-09
  -10.7700005       1.94774441E-09
  -10.7600002       1.90710781E-09
  -10.7500000       1.86353444E-09
  -10.7399998       1.81717819E-09
  -10.7299995       1.76821735E-09
  -10.7200003       1.71683257E-09
  -10.7100000       1.66321590E-09
  -10.6999998       1.60755675E-09
  -10.6899996       1.55004054E-09
  -10.6800003       1.49084300E-09
  -10.6700001       1.43012913E-09
  -10.6599998       1.36804246E-09
  -10.6499996       1.30470545E-09
  -10.6400003       1.24021438E-09
  -10.6300001       1.17463628E-09
  -10.6199999       1.10800802E-09
  -10.6099997       1.04034159E-09
  -10.6000004       9.71621561E-10
  -10.5900002       9.01810182E-10
  -10.5799999       8.30858160E-10
  -10.5699997       7.58705487E-10
  -10.5600004       6.85286494E-10
  -10.5500002       6.10560658E-10
  -10.5400000       5.34498168E-10
  -10.5299997       4.57100802E-10
  -10.5200005       3.78408305E-10
  -10.5100002       2.98513991E-10
  -10.5000000       2.17561635E-10
  -10.4899998       1.35756628E-10
  -10.4799995       5.33724592E-11
  -10.4700003      -2.92532873E-11
  -10.4600000      -1.11721896E-10
  -10.4499998      -1.93574184E-10
  -10.4399996      -2.74302692E-10
  -10.4300003      -3.53364032E-10
  -10.4200001      -4.30190522E-10
  -10.4099998      -5.04200182E-10
  -10.3999996      -5.74822967E-10
  -10.3900003      -6.41505349E-10
  -10.3800001      -7.03728797E-10
  -10.3699999      -7.61021801E-10
  -10.3599997      -8.12970191E-10
  -10.3500004      -8.59221416E-10
  -10.3400002      -8.99498032E-10
  -10.3299999      -9.33594757E-10
  -10.3199997      -9.61388413E-10
  -10.3100004      -9.82835702E-10
  -10.3000002      -9.97971927E-10
  -10.2900000      -1.00691000E-09
  -10.2799997      -1.00983999E-09
  -10.2700005      -1.00702358E-09
  -10.2600002      -9.98785610E-10
  -10.2500000      -9.85509008E-10
  -10.2399998      -9.67627312E-10
  -10.2299995      -9.45612255E-10
  -10.2200003      -9.19962495E-10
  -10.2100000      -8.91193508E-10
  -10.1999998      -8.59824323E-10
  -10.1899996      -8.26363034E-10
  -10.1800003      -7.91299304E-10
  -10.1700001      -7.55087326E-10
  -10.1599998      -7.18141213E-10
  -10.1499996      -6.80824563E-10
  -10.1400003      -6.43443909E-10
  -10.1300001      -6.06246997E-10
  -10.1199999      -5.69421843E-10
  -10.1099997      -5.33096123E-10
  -10.1000004      -4.97342445E-10
  -10.0900002      -4.62183569E-10
  -10.0799999      -4.27601538E-10
  -10.0699997      -3.93546196E-10
  -10.0600004      -3.59947655E-10
  -10.0500002      -3.26727756E-10
  -10.0400000      -2.93811392E-10
  -10.0299997      -2.61138444E-10
  -10.0200005      -2.28671110E-10
  -10.0100002      -1.96402158E-10
  -10.0000000      -1.64359290E-10
  -9.98999977      -1.32607425E-10
  -9.97999954      -1.01249814E-10
  -9.97000027      -7.04263176E-11
  -9.96000004      -4.03133846E-11
  -9.94999981      -1.11203833E-11
  -9.93999958       1.69103516E-11
  -9.93000031       4.35089846E-11
  -9.92000008       6.83795173E-11
  -9.90999985       9.12017059E-11
  -9.89999962       1.11637546E-10
  -9.89000034       1.29332683E-10
  -9.88000011       1.43922416E-10
  -9.86999989       1.55036275E-10
  -9.85999966       1.62301075E-10
  -9.85000038       1.65343045E-10
  -9.84000015       1.63795977E-10
  -9.82999992       1.57301436E-10
  -9.81999969       1.45513407E-10
  -9.81000042       1.28098976E-10
  -9.80000019       1.04744831E-10
  -9.78999996       7.51632159E-11
  -9.77999973       3.90916605E-11
  -9.77000046      -3.69684144E-12
  -9.76000023      -5.33912879E-11
  -9.75000000      -1.10134526E-10
  -9.73999977      -1.74016856E-10
  -9.72999954      -2.45068077E-10
  -9.72000027      -3.23255783E-10
  -9.71000004      -4.08474615E-10
  -9.69999981      -5.00536723E-10
  -9.68999958      -5.99177929E-10
  -9.68000031      -7.04053260E-10
  -9.67000008      -8.14727286E-10
  -9.65999985      -9.30689970E-10
  -9.64999962      -1.05134812E-09
  -9.64000034      -1.17603105E-09
  -9.63000011      -1.30400224E-09
  -9.61999989      -1.43445145E-09
  -9.60999966      -1.56651470E-09
  -9.60000038      -1.69927850E-09
  -9.59000015      -1.83178250E-09
  -9.57999992      -1.96304861E-09
  -9.56999969      -2.09207718E-09
  -9.56000042      -2.21786145E-09
  -9.55000019      -2.33940867E-09
  -9.53999996      -2.45574605E-09
  -9.52999973      -2.56592769E-09
  -9.52000046      -2.66904876E-09
  -9.51000023      -2.76424639E-09
  -9.50000000      -2.85072210E-09
  -9.48999977      -2.92774716E-09
  -9.47999954      -2.99466674E-09
  -9.47000027      -3.05093684E-09
  -9.46000004      -3.09612269E-09
  -9.44999981      -3.12992099E-09
  -9.43999958      -3.15218207E-09
  -9.43000031      -3.16290816E-09
  -9.42000008      -3.16227533E-09
  -9.40999985      -3.15063020E-09
  -9.39999962      -3.12849768E-09
  -9.39000034      -3.09658255E-09
  -9.38000011      -3.05575387E-09
  -9.36999989      -3.00706260E-09
  -9.35999966      -2.95171798E-09
  -9.35000038      -2.89109137E-09
  -9.34000015      -2.82670443E-09
  -9.32999992      -2.76021295E-09
  -9.31999969      -2.69338907E-09
  -9.31000042      -2.62810351E-09
  -9.30000019      -2.56631116E-09
  -9.28999996      -2.51001775E-09
  -9.27999973      -2.46126053E-09
  -9.27000046      -2.42208520E-09
  -9.26000023      -2.39450459E-09
  -9.25000000      -2.38049047E-09
  -9.23999977      -2.38193909E-09
  -9.22999954      -2.40062858E-09
  -9.22000027      -2.43822695E-09
  -9.21000004      -2.49622389E-09
  -9.19999981      -2.57595123E-09
  -9.18999958      -2.67850986E-09
  -9.18000031      -2.80481927E-09
  -9.17000008      -2.95552693E-09
  -9.15999985      -3.13105675E-09
  -9.14999962      -3.33158390E-09
  -9.14000034      -3.55701224E-09
  -9.13000011      -3.80699205E-09
  -9.11999989      -4.08089917E-09
  -9.10999966      -4.37784564E-09
  -9.10000038      -4.69668526E-09
  -9.09000015      -5.03600894E-09
  -9.07999992      -5.39415668E-09
  -9.06999969      -5.76924375E-09
  -9.06000042      -6.15913187E-09
  -9.05000019      -6.56150645E-09
  -9.03999996      -6.97385838E-09
  -9.02999973      -7.39351380E-09
  -9.02000046      -7.81766474E-09
  -9.01000023      -8.24337043E-09
  -9.00000000      -8.66762395E-09
  -8.98999977      -9.08734243E-09
  -8.97999954      -9.49943946E-09
  -8.97000027      -9.90080107E-09
  -8.96000004      -1.02883568E-08
  -8.94999981      -1.06590798E-08
  -8.93999958      -1.10100187E-08
  -8.93000031      -1.13383161E-08
  -8.92000008      -1.16412160E-08
  -8.90999985      -1.19161063E-08
  -8.89999962      -1.21605028E-08
  -8.89000034      -1.23721060E-08
  -8.88000011      -1.25487567E-08
  -8.86999989      -1.26885098E-08
  -8.85999966      -1.27896351E-08
  -8.85000038      -1.28506183E-08
  -8.84000015      -1.28701911E-08
  -8.82999992      -1.28473099E-08
  -8.81999969      -1.27811939E-08
  -8.81000042      -1.26713271E-08
  -8.80000019      -1.25174138E-08
  -8.78999996      -1.23194424E-08
  -8.77999973      -1.20776260E-08
  -8.77000046      -1.17924319E-08
  -8.76000023      -1.14645573E-08
  -8.75000000      -1.10949516E-08
  -8.73999977      -1.06847660E-08
  -8.72999954      -1.02353610E-08
  -8.72000027      -9.74827685E-09
  -8.71000004      -9.22522680E-09
  -8.69999981      -8.66805827E-09
  -8.68999958      -8.07872524E-09
  -8.68000031      -7.45927142E-09
  -8.67000008      -6.81181644E-09
  -8.65999985      -6.13852036E-09
  -8.64999962      -5.44155077E-09
  -8.64000034      -4.72309747E-09
  -8.63000011      -3.98529743E-09
  -8.61999989      -3.23027494E-09
  -8.60999966      -2.46007392E-09
  -8.60000038      -1.67665748E-09
  -8.59000015      -8.81871187E-10
  -8.57999992      -7.74173295E-11
  -8.56999969       7.35085548E-10
  -8.56000042       1.55420787E-09
  -8.55000019       2.37863174E-09
  -8.53999996       3.20717675E-09
  -8.52999973       4.03880973E-09
  -8.52000046       4.87261520E-09
  -8.51000023       5.70780934E-09
  -8.50000000       6.54374999E-09
  -8.48999977       7.37988337E-09
  -8.47999954       8.21579338E-09
  -8.47000027       9.05114561E-09
  -8.46000004       9.88569226E-09
  -8.44999981       1.07192228E-08
  -8.43999958       1.15515757E-08
  -8.43000031       1.23825732E-08
  -8.42000008       1.32120190E-08
  -8.40999985       1.40397045E-08
  -8.39999962       1.48653347E-08
  -8.39000034       1.56885545E-08
  -8.38000011       1.65089435E-08
  -8.36999989       1.73259789E-08
  -8.35999966       1.81390583E-08
  -8.35000038       1.89474587E-08
  -8.34000015       1.97503489E-08
  -8.32999992       2.05467661E-08
  -8.31999969       2.13356071E-08
  -8.31000042       2.21156782E-08
  -8.30000019       2.28856489E-08
  -8.28999996       2.36440503E-08
  -8.27999973       2.43893332E-08
  -8.27000046       2.51199097E-08
  -8.26000023       2.58340211E-08
  -8.25000000       2.65299072E-08
  -8.23999977       2.72057417E-08
  -8.22999954       2.78596062E-08
  -8.22000027       2.84895947E-08
  -8.21000004       2.90937159E-08
  -8.19999981       2.96700211E-08
  -8.18999958       3.02165297E-08
  -8.18000031       3.07313037E-08
  -8.17000008       3.12124655E-08
  -8.15999985       3.16581961E-08
  -8.14999962       3.20667795E-08
  -8.14000034       3.24366454E-08
  -8.13000011       3.27663088E-08
  -8.11999989       3.30544729E-08
  -8.10999966       3.32999974E-08
  -8.10000038       3.35019124E-08
  -8.09000015       3.36594326E-08
  -8.07999992       3.37719754E-08
  -8.06999969       3.38391324E-08
  -8.06000042       3.38607258E-08
  -8.05000019       3.38367840E-08
  -8.03999996       3.37675132E-08
  -8.02999973       3.36533361E-08
  -8.02000046       3.34948780E-08
  -8.01000023       3.32929311E-08
  -8.00000000       3.30485115E-08
  -7.98999977       3.27628022E-08
  -7.98000002       3.24371641E-08
  -7.96999979       3.20731317E-08
  -7.96000004       3.16723785E-08
  -7.94999981       3.12367376E-08
  -7.94000006       3.07681667E-08
  -7.92999983       3.02687333E-08
  -7.92000008       2.97406313E-08
  -7.90999985       2.91861291E-08
  -7.90000010       2.86075998E-08
  -7.88999987       2.80074861E-08
  -7.88000011       2.73883032E-08
  -7.86999989       2.67526197E-08
  -7.86000013       2.61030504E-08
  -7.84999990       2.54422616E-08
  -7.84000015       2.47729197E-08
  -7.82999992       2.40977034E-08
  -7.82000017       2.34192967E-08
  -7.80999994       2.27403518E-08
  -7.80000019       2.20634870E-08
  -7.78999996       2.13912585E-08
  -7.78000021       2.07261621E-08
  -7.76999998       2.00706154E-08
  -7.76000023       1.94269383E-08
  -7.75000000       1.87973654E-08
  -7.73999977       1.81840072E-08
  -7.73000002       1.75888371E-08
  -7.71999979       1.70137060E-08
  -7.71000004       1.64602838E-08
  -7.69999981       1.59300750E-08
  -7.69000006       1.54243800E-08
  -7.67999983       1.49443107E-08
  -7.67000008       1.44907517E-08
  -7.65999985       1.40643941E-08
  -7.65000010       1.36657237E-08
  -7.63999987       1.32950300E-08
  -7.63000011       1.29524187E-08
  -7.61999989       1.26378463E-08
  -7.61000013       1.23510695E-08
  -7.59999990       1.20917116E-08
  -7.59000015       1.18592336E-08
  -7.57999992       1.16529515E-08
  -7.57000017       1.14720731E-08
  -7.55999994       1.13156746E-08
  -7.55000019       1.11827605E-08
  -7.53999996       1.10722427E-08
  -7.53000021       1.09829834E-08
  -7.51999998       1.09138005E-08
  -7.51000023       1.08634710E-08
  -7.50000000       1.08307274E-08
  -7.48999977       1.08142997E-08
  -7.48000002       1.08128972E-08
  -7.46999979       1.08252403E-08
  -7.46000004       1.08500471E-08
  -7.44999981       1.08860823E-08
  -7.44000006       1.09321707E-08