  -16.0000000       0.00000000    
  -15.9899998       0.00000000    
  -15.9799995       0.00000000    
  -15.9700003       0.00000000    
  -15.9600000       0.00000000    
  -15.9499998       0.00000000    
  -15.9399996       0.00000000    
  -15.9300003       0.00000000    
  -15.9200001       0.00000000    
  -15.9099998       0.00000000    
  -15.8999996       0.00000000    
  -15.8900003       0.00000000    
  -15.8800001       0.00000000    
  -15.8699999      -1.40129846E-45
  -15.8599997      -3.22298647E-44
  -15.8500004      -3.37712930E-43
  -15.8400002      -2.10334899E-42
  -15.8299999      -8.09670253E-42
  -15.8199997      -1.45594910E-41
  -15.8100004       3.99314010E-41
  -15.8000002       4.32666315E-40
  -15.7900000       1.89802794E-39
  -15.7799997       5.41503345E-39
  -15.7700005       9.84841949E-39
  -15.7600002       4.95583495E-39
  -15.7500000      -3.92975265E-38
  -15.7399998      -1.72898505E-37
  -15.7299995      -4.20697690E-37
  -15.7200003      -6.60611557E-37
  -15.7100000      -4.88274715E-37
  -15.6999998       6.38443194E-37
  -15.6899996       2.47055834E-36
  -15.6800003       2.10628746E-36
  -15.6700001      -7.27416338E-36
  -15.6599998      -3.27370786E-35
  -15.6499996      -6.79052035E-35
  -15.6400003      -7.25954489E-35
  -15.6300001       2.74144396E-35
  -15.6199999       2.66166038E-34
  -15.6099997       4.51160655E-34
  -15.6000004      -2.87426592E-35
  -15.5900002      -1.97867713E-33
  -15.5799999      -5.01604194E-33
  -15.5699997      -4.55984067E-33
  -15.5600004       1.14715450E-32
  -15.5500002       6.09968427E-32
  -15.5400000       1.51400017E-31
  -15.5299997       2.39374237E-31
  -15.5200005       1.73710006E-31
  -15.5100002      -3.32764818E-31
  -15.5000000      -1.59998793E-30
  -15.4899998      -3.61442395E-30
  -15.4799995      -5.35172523E-30
  -15.4700003      -4.03894856E-30
  -15.4600000       4.86049122E-30
  -15.4499998       2.56126685E-29
  -15.4399996       5.68491848E-29
  -15.4300003       8.31353420E-29
  -15.4200001       6.74738241E-29
  -15.4099998      -4.58513033E-29
  -15.3999996      -3.04678121E-28
  -15.3900003      -6.88666085E-28
  -15.3800001      -1.02362464E-27
  -15.3699999      -9.15216354E-28
  -15.3599997       2.07981175E-28
  -15.3500004       2.82780346E-27
  -15.3400002       6.77832431E-27
  -15.3299999       1.04956079E-26
  -15.3199997       1.04709321E-26
  -15.3100004       1.63516402E-27
  -15.3000002      -2.04647698E-26
  -15.2900000      -5.52502278E-26
  -15.2799997      -9.12781586E-26
  -15.2700005      -1.01911437E-25
  -15.2600002      -4.76343735E-26
  -15.2500000       1.09080321E-25
  -15.2399998       3.73319080E-25
  -15.2299995       6.76924353E-25
  -15.2200003       8.45851274E-25
  -15.2100000       6.08025587E-25
  -15.1999998      -3.20939875E-25
  -15.1899996      -2.05300498E-24
  -15.1800003      -4.27000468E-24
  -15.1700001      -5.99492952E-24
  -15.1599998      -5.57481770E-24
  -15.1499996      -1.09357480E-24
  -15.1400003       8.64160440E-24
  -15.1300001       2.26342385E-23
  -15.1199999       3.62412324E-23
  -15.1099997       4.06513908E-23
  -15.1000004       2.44727340E-23
  -15.0900002      -2.16658817E-23
  -15.0799999      -9.76466039E-23
  -15.0699997      -1.85534216E-22
  -15.0600004      -2.44602038E-22
  -15.0500002      -2.15461895E-22
  -15.0400000      -3.84556060E-23
  -15.0299997       3.12590867E-22
  -15.0200005       7.88041651E-22
  -15.0100002       1.22854123E-21
  -15.0000000       1.36499331E-21
  -14.9899998       8.78665537E-22
  -14.9799995      -4.65444544E-22
  -14.9700003      -2.62876565E-21
  -14.9600000      -5.11225689E-21
  -14.9499998      -6.87338864E-21
  -14.9399996      -6.46551711E-21
  -14.9300003      -2.48592351E-21
  -14.9200001       5.68032722E-21
  -14.9099998       1.69934838E-20
  -14.8999996       2.81212198E-20
  -14.8900003       3.35024433E-20
  -14.8800001       2.65487269E-20
  -14.8699999       2.14328596E-21
  -14.8599997      -3.99321828E-20
  -14.8500004      -9.16947997E-20
  -14.8400002      -1.35431968E-19
  -14.8299999      -1.45772812E-19
  -14.8199997      -9.66035480E-20
  -14.8100004       2.74392062E-20
  -14.8000002       2.17434505E-19
  -14.7900000       4.29556185E-19
  -14.7799997       5.83851167E-19
  -14.7700005       5.78359049E-19
  -14.7600002       3.21004627E-19
  -14.7500000      -2.24815722E-19
  -14.7399998      -9.93266485E-19
  -14.7299995      -1.78725772E-18
  -14.7200003      -2.28984273E-18
  -14.7100000      -2.13225531E-18
  -14.6999998      -1.01944623E-18
  -14.6899996       1.10971315E-18
  -14.6800003       3.93633209E-18
  -14.6700001       6.69650600E-18
  -14.6599998       8.26380646E-18
  -14.6499996       7.41748985E-18
  -14.6400003       3.27785000E-18
  -14.6300001      -4.18537715E-18
  -14.6199999      -1.37378876E-17
  -14.6099997      -2.27636167E-17
  -14.6000004      -2.76250234E-17
  -14.5900002      -2.45741314E-17
  -14.5799999      -1.11075947E-17
  -14.5699997       1.25552633E-17
  -14.5600004       4.23734353E-17
  -14.5500002       7.03300588E-17
  -14.5400000       8.56668212E-17
  -14.5299997       7.76143172E-17
  -14.5200005       3.92206827E-17
  -14.5100002      -2.86705598E-17
  -14.5000000      -1.14655121E-16
  -14.4899998      -1.96647381E-16
  -14.4799995      -2.45423058E-16
  -14.4700003      -2.31918786E-16
  -14.4600000      -1.37106391E-16
  -14.4499998       3.80359980E-17
  -14.4399996       2.65804074E-16
  -14.4300003       4.91646933E-16
  -14.4200001       6.42849356E-16
  -14.4099998       6.45978613E-16
  -14.3999996       4.50135807E-16
  -14.3900003       5.02446279E-17
  -14.3800001      -4.97101508E-16
  -14.3699999      -1.07247574E-15
  -14.3599997      -1.51170701E-15
  -14.3500004      -1.64293253E-15
  -14.3400002      -1.33626764E-15
  -14.3299999      -5.54164000E-16
  -14.3199997       6.12706735E-16
  -14.3100004       1.93847598E-15
  -14.3000002       3.09308586E-15
  -14.2900000       3.71101905E-15
  -14.2799997       3.48615214E-15
  -14.2700005       2.27098342E-15
  -14.2600002       1.52700704E-16
  -14.2500000      -2.52012821E-15
  -14.2399998      -5.17723012E-15
  -14.2299995      -7.13389021E-15
  -14.2200003      -7.74825421E-15
  -14.2100000      -6.59441662E-15
  -14.1999998      -3.60764080E-15
  -14.1899996       8.40537157E-16
  -14.1800003       5.96612484E-15
  -14.1700001       1.07014634E-14
  -14.1599998       1.39082945E-14
  -14.1499996       1.46308797E-14
  -14.1400003       1.23314216E-14
  -14.1300001       7.05100210E-15
  -14.1199999      -5.45039602E-16
  -14.1099997      -9.25165553E-15
  -14.1000004      -1.75225672E-14
  -14.0900002      -2.37408766E-14
  -14.0799999      -2.65061309E-14
  -14.0699997      -2.48832090E-14
  -14.0600004      -1.85729711E-14
  -14.0500002      -7.98675836E-15
  -14.0400000       5.77151267E-15
  -14.0299997       2.09985668E-14
  -14.0200005       3.55414923E-14
  -14.0100002       4.69944077E-14
  -14.0000000       5.29449497E-14
  -13.9899998       5.12806621E-14
  -13.9799995       4.05583702E-14
  -13.9700003       2.04143343E-14
  -13.9600000      -8.04462088E-15
  -13.9499998      -4.19693035E-14
  -13.9399996      -7.67391386E-14
  -13.9300003      -1.06291583E-13
  -13.9200001      -1.23874313E-13
  -13.9099998      -1.23192621E-13
  -13.8999996      -9.98105339E-14
  -13.8900003      -5.25518654E-14
  -13.8800001       1.54245902E-14
  -13.8699999       9.62053855E-14
  -13.8599997       1.77609162E-13
  -13.8500004       2.44670630E-13
  -13.8400002       2.82001907E-13
  -13.8299999       2.76691213E-13
  -13.8199997       2.21228282E-13
  -13.8100004       1.15864105E-13
  -13.8000002      -3.01437105E-14
  -13.7900000      -1.98786002E-13
  -13.7799997      -3.65182710E-13
  -13.7700005      -5.00913113E-13
  -13.7600002      -5.78340815E-13
  -13.7500000      -5.75269216E-13
  -13.7399998      -4.79186298E-13
  -13.7299995      -2.90396857E-13
  -13.7200003      -2.35072327E-14
  -13.7100000       2.93035236E-13
  -13.6999998       6.19386974E-13
  -13.6899996       9.08520871E-13
  -13.6800003       1.11179826E-12
  -13.6700001       1.18535455E-12
  -13.6599998       1.09666128E-12
  -13.6499996       8.30570964E-13
  -13.6400003       3.94125704E-13
  -13.6300001      -1.80608837E-13
  -13.6199999      -8.36388684E-13
  -13.6099997      -1.49390526E-12
  -13.6000004      -2.05851699E-12
  -13.5900002      -2.43055402E-12
  -13.5799999      -2.51859731E-12
  -13.5699997      -2.25450496E-12
  -13.5600004      -1.60829466E-12
  -13.5500002      -6.00516544E-13
  -13.5400000       6.90462553E-13
  -13.5299997       2.12859461E-12
  -13.5200005       3.52932527E-12
  -13.5100002       4.67822786E-12
  -13.5000000       5.35798402E-12
  -13.4899998       5.38096043E-12
  -13.4799995       4.62317511E-12
  -13.4700003       3.05446358E-12
  -13.4600000       7.59422635E-13
  -13.4499998      -2.05566705E-12
  -13.4399996      -5.07319534E-12
  -13.4300003      -7.89288600E-12
  -13.4200001      -1.00770954E-11
  -13.4099998      -1.12083728E-11
  -13.3999996      -1.09525167E-11
  -13.3900003      -9.11879166E-12
  -13.3800001      -5.70840554E-12
  -13.3699999      -9.42931063E-13
  -13.3599997       4.73383355E-12
  -13.3500004       1.06842452E-11
  -13.3400002       1.61356119E-11
  -13.3299999       2.02655774E-11
  -13.3199997       2.23063876E-11
  -13.3100004       2.16568725E-11
  -13.3000002       1.79883504E-11
  -13.2900000       1.13296299E-11
  -13.2799997       2.11660138E-12
  -13.2700005      -8.80561075E-12
  -13.2600002      -2.02354244E-11
  -13.2500000      -3.07238679E-11
  -13.2399998      -3.87336899E-11
  -13.2299995      -4.28342604E-11
  -13.2200003      -4.19105237E-11
  -13.2100000      -3.53591392E-11
  -13.1999998      -2.32421547E-11
  -13.1899996      -6.37080102E-12
  -13.1800003       1.37022850E-11
  -13.1700001       3.47934181E-11
  -13.1599998       5.42985379E-11
  -13.1499996       6.94871868E-11
  -13.1400003       7.78486997E-11
  -13.1300001       7.74487280E-11
  -13.1199999       6.72486580E-11
  -13.1099997       4.73407286E-11
  -13.1000004       1.90597781E-11
  -13.0900002      -1.50545184E-11
  -13.0799999      -5.14530675E-11
  -13.0699997      -8.59182447E-11
  -13.0600004      -1.14019093E-10
  -13.0500002      -1.31633565E-10
  -13.0400000      -1.35479239E-10
  -13.0299997      -1.23589514E-10
  -13.0200005      -9.56753912E-11
  -13.0100002      -5.33216735E-11
  -13.0000000       1.85713973E-14
  -12.9899998       5.92467603E-11
  -12.9799995       1.18053303E-10
  -12.9700003       1.69533235E-10
  -12.9600000       2.06931042E-10
  -12.9499998       2.24442007E-10
  -12.9399996       2.17984131E-10
  -12.9300003       1.85847462E-10
  -12.9200001       1.29132316E-10
  -12.9099998       5.19004353E-11
  -12.8999996      -3.90088448E-11
  -12.8900003      -1.34511555E-10
  -12.8800001      -2.24132241E-10
  -12.8699999      -2.97104702E-10
  -12.8599997      -3.43608642E-10
  -12.8500004      -3.56002561E-10
  -12.8400002      -3.29899219E-10
  -12.8299999      -2.64939903E-10
  -12.8199997      -1.65147854E-10
  -12.8100004      -3.87908004E-11
  -12.8000002       1.02263899E-10
  -12.7900000       2.43651627E-10
  -12.7799997       3.69965170E-10
  -12.7700005       4.66407191E-10
  -12.7600002       5.20459065E-10
  -12.7500000       5.23377897E-10
  -12.7399998       4.71349404E-10
  -12.7299995       3.66159297E-10
  -12.7200003       2.15296891E-10
  -12.7100000       3.14643832E-11
  -12.6999998      -1.68476483E-10
  -12.6899996      -3.65027619E-10
  -12.6800003      -5.37912048E-10
  -12.6700001      -6.68090527E-10
  -12.6599998      -7.39743100E-10
  -12.6499996      -7.42022055E-10
  -12.6400003      -6.70390687E-10
  -12.6300001      -5.27399235E-10
  -12.6199999      -3.22792237E-10
  -12.6099997      -7.29075827E-11
  -12.6000004       2.00609737E-10
  -12.5900002       4.72679451E-10
  -12.5799999       7.17078785E-10
  -12.5699997       9.08939590E-10
  -12.5600004       1.02719966E-09
  -12.5500002       1.05675801E-09
  -12.5400000       9.90104665E-10
  -12.5299997       8.28251079E-10
  -12.5200005       5.80865966E-10
  -12.5100002       2.65599293E-10
  -12.5000000      -9.33225094E-11
  -12.4899998      -4.67084371E-10
  -12.4799995      -8.24642021E-10
  -12.4700003      -1.13522336E-09
  -12.4600000      -1.37074652E-09
  -12.4499998      -1.50794643E-09
  -12.4399996      -1.53007251E-09
  -12.4300003      -1.42805623E-09
  -12.4200001      -1.20111354E-09
  -12.4099998      -8.56792526E-10
  -12.3999996      -4.10511125E-10
  -12.3900003       1.15356009E-10
  -12.3800001       6.92771840E-10
  -12.3699999       1.28964950E-09
  -12.3599997       1.87169569E-09
  -12.3500004       2.40442843E-09
  -12.3400002       2.85526469E-09
  -12.3299999       3.19557070E-09
  -12.3199997       3.40254869E-09
  -12.3100004       3.46082718E-09
  -12.3000002       3.36359296E-09
  -12.2900000       3.11318438E-09
  -12.2799997       2.72101586E-09
  -12.2700005       2.20684027E-09
  -12.2600002       1.59735036E-09
  -12.2500000       9.24233523E-10
  -12.2399998       2.21799731E-10
  -12.2299995      -4.75613604E-10
  -12.2200003      -1.13627463E-09
  -12.2100000      -1.73352799E-09
  -12.1999998      -2.24793162E-09
  -12.1899996      -2.66890177E-09
  -12.1800003      -2.99571501E-09
  -12.1700001      -3.23784044E-09
  -12.1599998      -3.41446826E-09
  -12.1499996      -3.55326413E-09
  -12.1400003      -3.68831321E-09
  -12.1300001      -3.85737398E-09
  -12.1199999      -4.09849799E-09
  -12.1099997      -4.44624293E-09
  -12.1000004      -4.92776220E-09
  -12.0900002      -5.55904833E-09
  -12.0799999      -6.34175290E-09
  -12.0699997      -7.26093807E-09
  -12.0600004      -8.28407476E-09
  -12.0500002      -9.36154887E-09
  -12.0400000      -1.04287743E-08
  -12.0299997      -1.14098313E-08
  -12.0200005      -1.22224231E-08
  -12.0100002      -1.27837536E-08
  -12.0000000      -1.30168072E-08
  -11.9899998      -1.28564741E-08
  -11.9799995      -1.22550139E-08
  -11.9700003      -1.11862448E-08
  -11.9600000      -9.64822622E-09
  -11.9499998      -7.66409247E-09
  -11.9399996      -5.28110666E-09
  -11.9300003      -2.56797605E-09
  -11.9200001       3.89429156E-10
  -11.9099998       3.49331675E-09
  -11.8999996       6.64015021E-09
  -11.8900003       9.72700498E-09
  -11.8800001       1.26578037E-08
  -11.8699999       1.53490305E-08
  -11.8599997       1.77344379E-08
  -11.8500004       1.97683985E-08
  -11.8400002       2.14280096E-08
  -11.8299999       2.27132801E-08
  -11.8199997       2.36457929E-08
  -11.8100004       2.42658533E-08
  -11.8000002       2.46282870E-08
  -11.7900000       2.47973180E-08
  -11.7799997       2.48409187E-08
  -11.7700005       2.48251766E-08
  -11.7600002       2.48089300E-08
  -11.7500000       2.48392809E-08
  -11.7399998       2.49480614E-08
  -11.7299995       2.51495411E-08
  -11.7200003       2.54393679E-08
  -11.7100000       2.57946589E-08
  -11.6999998       2.61752149E-08
  -11.6899996       2.65255604E-08
  -11.6800003       2.67776770E-08
  -11.6700001       2.68544635E-08
  -11.6599998       2.66734936E-08
  -11.6499996       2.61511577E-08
  -11.6400003       2.52071661E-08
  -11.6300001       2.37688500E-08
  -11.6199999       2.17757314E-08
  -11.6099997       1.91835721E-08
  -11.6000004       1.59681957E-08
  -11.5900002       1.21282548E-08
  -11.5799999       7.68697550E-09
  -11.5699997       2.69288014E-09
  -11.5600004      -2.78086398E-09
  -11.5500002      -8.63909122E-09
  -11.5400000      -1.47680685E-08
  -11.5299997      -2.10407247E-08
  -11.5200005      -2.73224856E-08
  -11.5100002      -3.34779386E-08
  -11.5000000      -3.93775998E-08
  -11.4899998      -4.49044570E-08
  -11.4799995      -4.99596702E-08
  -11.4700003      -5.44673142E-08
  -11.4600000      -5.83775055E-08
  -11.4499998      -6.16679188E-08
  -11.4399996      -6.43440146E-08
  -11.4300003      -6.64369821E-08
  -11.4200001      -6.80008796E-08
  -11.4099998      -6.91082533E-08
  -11.3999996      -6.98448019E-08
  -11.3900003      -7.03035710E-08
  -11.3800001      -7.05789915E-08
  -11.3699999      -7.07607484E-08
  -11.3599997      -7.09281025E-08
  -11.3500004      -7.11450028E-08
  -11.3400002      -7.14558226E-08
  -11.3299999      -7.18823117E-08
  -11.3199997      -7.24218765E-08
  -11.3100004      -7.30471399E-08
  -11.3000002      -7.37070067E-08
  -11.2900000      -7.43291153E-08
  -11.2799997      -7.48236317E-08
  -11.2700005      -7.50880389E-08
  -11.2600002      -7.50127356E-08
  -11.2500000      -7.44870405E-08
  -11.2399998      -7.34052321E-08
  -11.2299995      -7.16720479E-08
  -11.2200003      -6.92082054E-08
  -11.2100000      -6.59539054E-08
  -11.1999998      -6.18723703E-08
  -11.1899996      -5.69517056E-08
  -11.1800003      -5.12047933E-08
  -11.1700001      -4.46709265E-08
  -11.1599998      -3.74122386E-08
  -11.1499996      -2.95119893E-08
  -11.1400003      -2.10716831E-08
  -11.1300001      -1.22059163E-08
  -11.1199999      -3.03703618E-09
  -11.1099997       6.30979846E-09
  -11.1000004       1.57132103E-08
  -11.0900002       2.50609080E-08
  -11.0799999       3.42556916E-08
  -11.0699997       4.32199911E-08
  -11.0600004       5.18987875E-08
  -11.0500002       6.02624439E-08
  -11.0400000       6.83067469E-08
  -11.0299997       7.60525225E-08
  -11.0200005       8.35427016E-08
  -11.0100002       9.08402455E-08
  -11.0000000       9.80228663E-08
  -10.9899998       1.05179218E-07
  -10.9799995       1.12404052E-07
  -10.9700003       1.19793967E-07
  -10.9600000       1.27441169E-07
  -10.9499998       1.35429403E-07
  -10.9399996       1.43830718E-07
  -10.9300003       1.52700210E-07
  -10.9200001       1.62073633E-07
  -10.9099998       1.71966619E-07
  -10.8999996       1.82373114E-07
  -10.8900003       1.93265208E-07
  -10.8800001       2.04597384E-07
  -10.8699999       2.16307541E-07
  -10.8599997       2.28323728E-07
  -10.8500004       2.40566834E-07
  -10.8400002       2.52957676E-07
  -10.8299999       2.65421193E-07
  -10.8199997       2.77889995E-07
  -10.8100004       2.90307270E-07
  -10.8000002       3.02629928E-07
  -10.7900000       3.14828043E-07
  -10.7799997       3.26884873E-07
  -10.7700005       3.38794877E-07
  -10.7600002       3.50562544E-07
  -10.7500000       3.62200296E-07
  -10.7399998       3.73727232E-07
  -10.7299995       3.85165464E-07
  -10.7200003       3.96540884E-07
  -10.7100000       4.07880378E-07
  -10.6999998       4.19211545E-07
  -10.6899996       4.30560959E-07
  -10.6800003       4.41954541E-07
  -10.6700001       4.53413662E-07
  -10.6599998       4.64955065E-07
  -10.6499996       4.76590856E-07
  -10.6400003       4.88324872E-07
  -10.6300001       5.00155409E-07
  -10.6199999       5.12073939E-07
  -10.6099997       5.24066934E-07
  -10.6000004       5.36118819E-07
  -10.5900002       5.48212938E-07
  -10.5799999       5.60334740E-07
  -10.5699997       5.72474221E-07
  -10.5600004       5.84626491E-07
  -10.5500002       5.96792859E-07
  -10.5400000       6.08981622E-07
  -10.5299997       6.21205345E-07
  -10.5200005       6.33480397E-07
  -10.5100002       6.45825196E-07
  -10.5000000       6.58257704E-07
  -10.4899998       6.70793213E-07
  -10.4799995       6.83443091E-07
  -10.4700003       6.96211089E-07
  -10.4600000       7.09092205E-07
  -10.4499998       7.22069842E-07
  -10.4399996       7.35113758E-07
  -10.4300003       7.48177911E-07
  -10.4200001       7.61199715E-07
  -10.4099998       7.74099533E-07
  -10.3999996       7.86781641E-07
  -10.3900003       7.99137013E-07
  -10.3800001       8.11046846E-07
  -10.3699999       8.22387847E-07
  -10.3599997       8.33038030E-07
  -10.3500004       8.42882400E-07
  -10.3400002       8.51819607E-07
  -10.3299999       8.59765919E-07
  -10.3199997       8.66660855E-07
  -10.3100004       8.72468661E-07
  -10.3000002       8.77180241E-07
  -10.2900000       8.80814184E-07
  -10.2799997       8.83415737E-07
  -10.2700005       8.85056295E-07
  -10.2600002       8.85830957E-07
  -10.2500000       8.85857389E-07
  -10.2399998       8.85273039E-07
  -10.2299995       8.84233884E-07
  -10.2200003       8.82906875E-07
  -10.2100000       8.81468679E-07
  -10.1999998       8.80099606E-07
  -10.1899996       8.78977119E-07
  -10.1800003       8.78268622E-07
  -10.1700001       8.78127707E-07
  -10.1599998       8.78684318E-07
  -10.1499996       8.80044013E-07
  -10.1400003       8.82284439E-07
  -10.1300001       8.85451811E-07
  -10.1199999       8.89563637E-07
  -10.1099997       8.94610935E-07
  -10.1000004       9.00559314E-07
  -10.0900002       9.07354945E-07
  -10.0799999       9.14928876E-07
  -10.0699997       9.23197661E-07
  -10.0600004       9.32071316E-07
  -10.0500002       9.41449798E-07
  -10.0400000       9.51235336E-07
  -10.0299997       9.61324304E-07
  -10.0200005       9.71617055E-07
  -10.0100002       9.82016445E-07
  -10.0000000       9.92430273E-07
  -9.98999977       1.00277350E-06
  -9.97999954       1.01297508E-06
  -9.97000027       1.02297554E-06
  -9.96000004       1.03273214E-06
  -9.94999981       1.04222056E-06
  -9.93999958       1.05143761E-06
  -9.93000031       1.06040352E-06
  -9.92000008       1.06915729E-06
  -9.90999985       1.07776236E-06
  -9.89999962       1.08629752E-06
  -9.89000034       1.09486371E-06
  -9.88000011       1.10357371E-06
  -9.86999989       1.11255281E-06
  -9.85999966       1.12193607E-06
  -9.85000038       1.13186320E-06
  -9.84000015       1.14247712E-06
  -9.82999992       1.15391992E-06
  -9.81999969       1.16633021E-06
  -9.81000042       1.17984098E-06
  -9.80000019       1.19457991E-06
  -9.78999996       1.21065716E-06
  -9.77999973       1.22817175E-06
  -9.77000046       1.24720543E-06
  -9.76000023       1.26782152E-06
  -9.75000000       1.29006366E-06
  -9.73999977       1.31395404E-06
  -9.72999954       1.33949823E-06
  -9.72000027       1.36667677E-06
  -9.71000004       1.39545580E-06
  -9.69999981       1.42577221E-06
  -9.68999958       1.45755075E-06
  -9.68000031       1.49069228E-06
  -9.67000008       1.52507403E-06
  -9.65999985       1.56054978E-06
  -9.64999962       1.59695094E-06
  -9.64000034       1.63408959E-06
  -9.63000011       1.67175347E-06
  -9.61999989       1.70970873E-06
  -9.60999966       1.74770730E-06
  -9.60000038       1.78548669E-06
  -9.59000015       1.82277552E-06
  -9.57999992       1.85928991E-06
  -9.56999969       1.89474724E-06
  -9.56000042       1.92887160E-06
  -9.55000019       1.96138899E-06
  -9.53999996       1.99204237E-06
  -9.52999973       2.02059164E-06
  -9.52000046       2.04682556E-06
  -9.51000023       2.07056087E-06
  -9.50000000       2.09165501E-06
  -9.48999977       2.11001179E-06
  -9.47999954       2.12558120E-06
  -9.47000027       2.13836893E-06
  -9.46000004       2.14843362E-06
  -9.44999981       2.15588625E-06
  -9.43999958       2.16090439E-06
  -9.43000031       2.16369654E-06
  -9.42000008       2.16453031E-06
  -9.40999985       2.16371200E-06
  -9.39999962       2.16157264E-06
  -9.39000034       2.15848354E-06
  -9.38000011       2.15482805E-06
  -9.36999989       2.15101704E-06
  -9.35999966       2.14747388E-06
  -9.35000038       2.14463012E-06
  -9.34000015       2.14292936E-06
  -9.32999992       2.14283023E-06
  -9.31999969       2.14478473E-06
  -9.31000042       2.14923602E-06
  -9.30000019       2.15662999E-06
  -9.28999996       2.16739295E-06
  -9.27999973       2.18192349E-06
  -9.27000046       2.20059360E-06
  -9.26000023       2.22374388E-06
  -9.25000000       2.25167992E-06
  -9.23999977       2.28465865E-06
  -9.22999954       2.32289335E-06
  -9.22000027       2.36655342E-06
  -9.21000004       2.41575276E-06
  -9.19999981       2.47055459E-06
  -9.18999958       2.53096823E-06
  -9.18000031       2.59694389E-06
  -9.17000008       2.66837060E-06
  -9.15999985       2.74508238E-06
  -9.14999962       2.82686051E-06
  -9.14000034       2.91342985E-06
  -9.13000011       3.00446482E-06
  -9.11999989       3.09960933E-06
  -9.10999966       3.19844639E-06
  -9.10000038       3.30054218E-06
  -9.09000015       3.40541965E-06
  -9.07999992       3.51257495E-06
  -9.06999969       3.62148103E-06
  -9.06000042       3.73159378E-06
  -9.05000019       3.84235318E-06
  -9.03999996       3.95320421E-06
  -9.02999973       4.06356503E-06
  -9.02000046       4.17286947E-06
  -9.01000023       4.28054909E-06
  -9.00000000       4.38604275E-06
  -8.98999977       4.48879882E-06
  -8.97999954       4.58828436E-06
  -8.97000027       4.68396911E-06
  -8.96000004       4.77532876E-06
  -8.94999981       4.86187037E-06
  -8.93999958       4.94311780E-06
  -8.93000031       5.01858813E-06
  -8.92000008       5.08787798E-06
  -8.90999985       5.15059946E-06
  -8.89999962       5.20640424E-06
  -8.89000034       5.25498854E-06
  -8.88000011       5.29613317E-06
  -8.86999989       5.32965032E-06
  -8.85999966       5.35542631E-06
  -8.85000038       5.37343340E-06
  -8.84000015       5.38369159E-06
  -8.82999992       5.38627410E-06
  -8.81999969       5.38135919E-06
  -8.81000042       5.36917287E-06
  -8.80000019       5.34996889E-06
  -8.78999996       5.32408922E-06
  -8.77999973       5.29189356E-06
  -8.77000046       5.25379755E-06
  -8.76000023       5.21023503E-06
  -8.75000000       5.16169848E-06
  -8.73999977       5.10866357E-06
  -8.72999954       5.05165144E-06
  -8.72000027       4.99118005E-06
  -8.71000004       4.92779782E-06
  -8.69999981       4.86201498E-06
  -8.68999958       4.79436585E-06
  -8.68000031       4.72536703E-06
  -8.67000008       4.65552966E-06
  -8.65999985       4.58531576E-06
  -8.64999962       4.51518918E-06
  -8.64000034       4.44558191E-06
  -8.63000011       4.37688095E-06
  -8.61999989       4.30944465E-06
  -8.60999966       4.24362088E-06
  -8.60000038       4.17968795E-06
  -8.59000015       4.11788642E-06
  -8.57999992       4.05844003E-06
  -8.56999969       4.00151794E-06
  -8.56000042       3.94726976E-06
  -8.55000019       3.89578918E-06
  -8.53999996       3.84715531E-06
  -8.52999973       3.80142319E-06
  -8.52000046       3.75862896E-06
  -8.51000023       3.71876740E-06
  -8.50000000       3.68181259E-06
  -8.48999977       3.64771904E-06
  -8.47999954       3.61642674E-06
  -8.47000027       3.58780812E-06
  -8.46000004       3.56178407E-06
  -8.44999981       3.53820838E-06
  -8.43999958       3.51695644E-06
  -8.43000031       3.49788957E-06
  -8.42000008       3.48093522E-06
  -8.40999985       3.46598426E-06
  -8.39999962       3.45296417E-06
  -8.39000034       3.44183400E-06
  -8.38000011       3.43255601E-06
  -8.36999989       3.42513363E-06
  -8.35999966       3.41961390E-06
  -8.35000038       3.41603891E-06
  -8.34000015       3.41447617E-06
  -8.32999992       3.41501300E-06
  -8.31999969       3.41777900E-06
  -8.31000042       3.42295402E-06
  -8.30000019       3.43070519E-06
  -8.28999996       3.44123418E-06
  -8.27999973       3.45475655E-06
  -8.27000046       3.47147648E-06
  -8.26000023       3.49161746E-06
  -8.25000000       3.51540439E-06
  -8.23999977       3.54308372E-06
  -8.22999954       3.57491467E-06
  -8.22000027       3.61112370E-06
  -8.21000004       3.65199708E-06
  -8.19999981       3.69779491E-06
  -8.18999958       3.74882097E-06
  -8.18000031       3.80536198E-06
  -8.17000008       3.86767579E-06
  -8.15999985       3.93601658E-06
  -8.14999962       4.01061197E-06
  -8.14000034       4.09171071E-06
  -8.13000011       4.17950332E-06
  -8.11999989       4.27416398E-06
  -8.10999966       4.37584049E-06
  -8.10000038       4.48462015E-06
  -8.09000015       4.60057981E-06
  -8.07999992       4.72376951E-06
  -8.06999969       4.85417195E-06
  -8.06000042       4.99176849E-06
  -8.05000019       5.13647046E-06
  -8.03999996       5.28814962E-06
  -8.02999973       5.44665818E-06
  -8.02000046       5.61181014E-06
  -8.01000023       5.78340359E-06
  -8.00000000       5.96114160E-06
  -7.98999977       6.14473129E-06
  -7.98000002       6.33382251E-06
  -7.96999979       6.52802373E-06
  -7.96000004       6.72687838E-06
  -7.94999981       6.92994308E-06
  -7.94000006       7.13671079E-06
  -7.92999983       7.34665446E-06
  -7.92000008       7.55926521E-06
  -7.90999985       7.77402602E-06
  -7.90000010       7.99039935E-06
  -7.88999987       8.20790774E-06
  -7.88000011       8.42600548E-06
  -7.86999989       8.64421963E-06
  -7.86000013       8.86205635E-06
  -7.84999990       9.07902813E-06
  -7.84000015       9.29472662E-06
  -7.82999992       9.50871072E-06
  -7.82000017       9.72061844E-06
  -7.80999994       9.93014964E-06
  -7.80000019       1.01370088E-05
  -7.78999996       1.03409038E-05
  -7.78000021       1.05416430E-05
  -7.76999998       1.07390351E-05
  -7.76000023       1.09329085E-05
  -7.75000000       1.11231539E-05
  -7.73999977       1.13096876E-05
  -7.73000002       1.14924096E-05
  -7.71999979       1.16713236E-05
  -7.71000004       1.18464413E-05
  -7.69999981       1.20177629E-05
  -7.69000006       1.21853991E-05
  -7.67999983       1.23494065E-05
  -7.67000008       1.25098932E-05
  -7.65999985       1.26669611E-05
  -7.65000010       1.28207394E-05
  -7.63999987       1.29713862E-05
  -7.63000011       1.31190991E-05
  -7.61999989       1.32641062E-05
  -7.61000013       1.34065995E-05
  -7.59999990       1.35468954E-05
  -7.59000015       1.36852987E-05
  -7.57999992       1.38220912E-05
  -7.57000017       1.39576523E-05
  -7.55999994       1.40922939E-05
  -7.55000019       1.42263307E-05
  -7.53999996       1.43601546E-05
  -7.53000021       1.44941341E-05
  -7.51999998       1.46285947E-05
  -7.51000023       1.47639366E-05
  -7.50000000       1.49005255E-05
  -7.48999977       1.50387114E-05
  -7.48000002       1.51788618E-05
  -7.46999979       1.53213332E-05
  -7.46000004       1.54664231E-05
  -7.44999981       1.56144288E-05
  -7.44000006       1.57656032E-05