  -16.0000000       0.00000000    
  -15.9899998       0.00000000    
  -15.9799995       0.00000000    
  -15.9700003       0.00000000    
  -15.9600000       0.00000000    
  -15.9499998       0.00000000    
  -15.9399996       0.00000000    
  -15.9300003       0.00000000    
  -15.9200001       0.00000000    
  -15.9099998       0.00000000    
  -15.8999996       0.00000000    
  -15.8900003       0.00000000    
  -15.8800001       0.00000000    
  -15.8699999       0.00000000    
  -15.8599997       0.00000000    
  -15.8500004       0.00000000    
  -15.8400002       0.00000000    
  -15.8299999       0.00000000    
  -15.8199997       1.40129846E-45
  -15.8100004       5.60519386E-45
  -15.8000002       3.78350585E-44
  -15.7900000       1.96181785E-43
  -15.7799997       8.75811540E-43
  -15.7700005       3.48222668E-42
  -15.7600002       1.23874784E-41
  -15.7500000       3.98515270E-41
  -15.7399998       1.16722557E-40
  -15.7299995       3.12776824E-40
  -15.7200003       7.69314258E-40
  -15.7100000       1.73947382E-39
  -15.6999998       3.61377498E-39
  -15.6899996       6.87656393E-39
  -15.6800003       1.18997509E-38
  -15.6700001       1.84601020E-38
  -15.6599998       2.49187048E-38
  -15.6499996       2.71994722E-38
  -15.6400003       1.80945201E-38
  -15.6300001      -1.20552614E-38
  -15.6199999      -7.18848176E-38
  -15.6099997      -1.61640507E-37
  -15.6000004      -2.62520174E-37
  -15.5900002      -3.26701751E-37
  -15.5799999      -2.76411458E-37
  -15.5699997      -2.32238974E-38
  -15.5600004       4.84082971E-37
  -15.5500002       1.18757171E-36
  -15.5400000       1.85170996E-36
  -15.5299997       2.05182919E-36
  -15.5200005       1.28276538E-36
  -15.5100002      -7.79210015E-37
  -15.5000000      -3.91349433E-36
  -15.4899998      -7.06792309E-36
  -15.4799995      -8.42150584E-36
  -15.4700003      -6.03693261E-36
  -15.4600000       9.16295120E-37
  -15.4499998       1.08553775E-35
  -15.4399996       1.93475235E-35
  -15.4300003       2.05556654E-35
  -15.4200001       1.08171998E-35
  -15.4099998      -7.03866560E-36
  -15.3999996      -2.18755395E-35
  -15.3900003      -1.87209113E-35
  -15.3800001       9.16366651E-36
  -15.3699999       4.53354938E-35
  -15.3599997       4.44320621E-35
  -15.3500004      -4.92089199E-35
  -15.3400002      -2.51727799E-34
  -15.3299999      -4.74964094E-34
  -15.3199997      -4.94016011E-34
  -15.3100004      -1.27750967E-35
  -15.3000002       1.13028915E-33
  -15.2900000       2.65838323E-33
  -15.2799997       3.62663995E-33
  -15.2700005       2.54294766E-33
  -15.2600002      -1.91766383E-33
  -15.2500000      -9.63217263E-33
  -15.2399998      -1.77037736E-32
  -15.2299995      -2.01230130E-32
  -15.2200003      -9.57346330E-33
  -15.2100000       1.81477255E-32
  -15.1999998       5.82551725E-32
  -15.1899996       9.28753855E-32
  -15.1800003       9.31950494E-32
  -15.1700001       3.11515231E-32
  -15.1599998      -1.00587827E-31
  -15.1499996      -2.68587482E-31
  -15.1400003      -3.92649696E-31
  -15.1300001      -3.67503756E-31
  -15.1199999      -1.14881780E-31
  -15.1099997       3.51609098E-31
  -15.1000004       8.86784099E-31
  -15.0900002       1.24177531E-30
  -15.0799999       1.17585471E-30
  -15.0699997       6.11515060E-31
  -15.0600004      -2.70085508E-31
  -15.0500002      -1.11380798E-30
  -15.0400000      -1.69699198E-30
  -15.0299997      -2.31404320E-30
  -15.0200005      -3.87983628E-30
  -15.0100002      -7.31735340E-30
  -15.0000000      -1.20647572E-29
  -14.9899998      -1.42433578E-29
  -14.9799995      -5.97004617E-30
  -14.9700003       2.21155152E-29
  -14.9600000       7.36644431E-29
  -14.9499998       1.35835899E-28
  -14.9399996       1.70153118E-28
  -14.9300003       1.14338489E-28
  -14.9200001      -9.47616936E-29
  -14.9099998      -4.73306336E-28
  -14.8999996      -9.28833931E-28
  -14.8900003      -1.21682276E-27
  -14.8800001      -9.63994382E-28
  -14.8699999       1.95926189E-28
  -14.8599997       2.36527482E-27
  -14.8500004       5.07020086E-27
  -14.8400002       7.05254977E-27
  -14.8299999       6.39133526E-27
  -14.8199997       1.15278232E-27
  -14.8100004      -9.40650223E-27
  -14.8000002      -2.33865149E-26
  -14.7900000      -3.52376463E-26
  -14.7799997      -3.61636211E-26
  -14.7700005      -1.67792702E-26
  -14.7600002       2.78406855E-26
  -14.7500000       9.18933468E-26
  -14.7399998       1.54091504E-25
  -14.7299995       1.78238721E-25
  -14.7200003       1.22616311E-25
  -14.7100000      -4.08785225E-26
  -14.6999998      -3.01686221E-25
  -14.6899996      -5.89332542E-25
  -14.6800003      -7.70060575E-25
  -14.6700001      -6.75037447E-25
  -14.6599998      -1.65792998E-25
  -14.6499996       7.73558138E-25
  -14.6400003       1.94843299E-24
  -14.6300001       2.91844338E-24
  -14.6199999       3.06532533E-24
  -14.6099997       1.79280414E-24
  -14.6000004      -1.16266955E-24
  -14.5900002      -5.39948784E-24
  -14.5799999      -9.64866265E-24
  -14.5699997      -1.18768350E-23
  -14.5600004      -9.81928853E-24
  -14.5500002      -1.92888876E-24
  -14.5400000       1.14814626E-23
  -14.5299997       2.73393694E-23
  -14.5200005       3.97131134E-23
  -14.5100002       4.09886068E-23
  -14.5000000       2.44551914E-23
  -14.4899998      -1.21517996E-23
  -14.4799995      -6.32751959E-23
  -14.4700003      -1.13944432E-22
  -14.4600000      -1.41586371E-22
  -14.4499998      -1.22129413E-22
  -14.4399996      -3.98112035E-23
  -14.4300003       1.01822297E-22
  -14.4200001       2.71958270E-22
  -14.4099998       4.12492767E-22
  -14.3999996       4.49676868E-22
  -14.3900003       3.17867349E-22
  -14.3800001      -9.14456870E-24
  -14.3699999      -4.88979055E-22
  -14.3599997      -9.96834023E-22
  -14.3500004      -1.33945421E-21
  -14.3400002      -1.30326233E-21
  -14.3299999      -7.31673059E-22
  -14.3199997       3.87340953E-22
  -14.3100004       1.85434789E-21
  -14.3000002       3.24745858E-21
  -14.2900000       3.99438167E-21
  -14.2799997       3.53266989E-21
  -14.2700005       1.53071358E-21
  -14.2600002      -1.89219928E-21
  -14.2500000      -6.03159464E-21
  -14.2399998      -9.63317174E-21
  -14.2299995      -1.11483283E-20
  -14.2200003      -9.19578141E-21
  -14.2100000      -3.13309985E-21
  -14.1999998       6.43313145E-21
  -14.1899996       1.74070531E-20
  -14.1800003       2.64152148E-20
  -14.1700001       2.95503811E-20
  -14.1599998       2.35633432E-20
  -14.1499996       7.23099562E-21
  -14.1400003      -1.75214415E-20
  -14.1300001      -4.52155405E-20
  -14.1199999      -6.75029463E-20
  -14.1099997      -7.50475573E-20
  -14.1000004      -6.03413910E-20
  -14.0900002      -2.07930442E-20
  -14.0799999       3.88607610E-20
  -14.0699997       1.05821028E-19
  -14.0600004       1.60903741E-19
  -14.0500002       1.82780704E-19
  -14.0400000       1.54146464E-19
  -14.0299997       6.83786139E-20
  -14.0200005      -6.52845578E-20
  -14.0100002      -2.20078252E-19
  -14.0000000      -3.55018759E-19
  -13.9899998      -4.23473977E-19
  -13.9799995      -3.85738902E-19
  -13.9700003      -2.22823432E-19
  -13.9600000       5.23905892E-20
  -13.9499998       3.90600036E-19
  -13.9399996       7.11097136E-19
  -13.9300003       9.17174865E-19
  -13.9200001       9.19895462E-19
  -13.9099998       6.65323287E-19
  -13.8999996       1.58237131E-19
  -13.8900003      -5.25184467E-19
  -13.8800001      -1.24169478E-18
  -13.8699999      -1.80481587E-18
  -13.8599997      -2.02576222E-18
  -13.8500004      -1.76383568E-18
  -13.8400002      -9.74575306E-19
  -13.8299999       2.57729135E-19
  -13.8199997       1.71489678E-18
  -13.8100004       3.07372230E-18
  -13.8000002       3.96769671E-18
  -13.7900000       4.07163361E-18
  -13.7799997       3.19159306E-18
  -13.7700005       1.33818364E-18
  -13.7600002      -1.23799459E-18
  -13.7500000      -4.06374727E-18
  -13.7399998      -6.51762778E-18
  -13.7299995      -7.95185845E-18
  -13.7200003      -7.83959185E-18
  -13.7100000      -5.91630469E-18
  -13.6999998      -2.28165840E-18
  -13.6899996       2.56649887E-18
  -13.6800003       7.78185630E-18
  -13.6700001       1.23016729E-17
  -13.6599998       1.50415466E-17
  -13.6499996       1.51183023E-17
  -13.6400003       1.20580310E-17
  -13.6300001       5.94654683E-18
  -13.6199999      -2.51160572E-18
  -13.6099997      -1.20441302E-17
  -13.6000004      -2.09717913E-17
  -13.5900002      -2.74604525E-17
  -13.5799999      -2.98307038E-17
  -13.5699997      -2.68812838E-17
  -13.5600004      -1.81777158E-17
  -13.5500002      -4.25799409E-18
  -13.5400000       1.32883604E-17
  -13.5299997       3.19019409E-17
  -13.5200005       4.83151167E-17
  -13.5100002       5.89912192E-17
  -13.5000000       6.07093924E-17
  -13.4899998       5.12285163E-17
  -13.4799995       2.99284335E-17
  -13.4700003      -1.70059070E-18
  -13.4600000      -3.98575655E-17
  -13.4499998      -7.86371425E-17
  -13.4399996      -1.10706339E-16
  -13.4300003      -1.28430338E-16
  -13.4200001      -1.25321463E-16
  -13.4099998      -9.75823050E-17
  -13.3999996      -4.54388773E-17
  -13.3900003       2.60643403E-17
  -13.3800001       1.07087365E-16
  -13.3699999       1.83996586E-16
  -13.3599997       2.41326172E-16
  -13.3500004       2.64472353E-16
  -13.3400002       2.42699927E-16
  -13.3299999       1.71905668E-16
  -13.3199997       5.65454182E-17
  -13.3100004      -8.97890394E-17
  -13.3000002      -2.45461969E-16
  -13.2900000      -3.83588479E-16
  -13.2799997      -4.76239298E-16
  -13.2700005      -4.99452183E-16
  -13.2600002      -4.38217498E-16
  -13.2500000      -2.90501305E-16
  -13.2399998      -6.94331436E-17
  -13.2299995       1.96983031E-16
  -13.2200003       4.68898328E-16
  -13.2100000       7.00177657E-16
  -13.1999998       8.45786379E-16
  -13.1899996       8.69875732E-16
  -13.1800003       7.53172326E-16
  -13.1700001       4.98240079E-16
  -13.1599998       1.31411391E-16
  -13.1499996      -2.99320850E-16
  -13.1400003      -7.30476184E-16
  -13.1300001      -1.09257425E-15
  -13.1199999      -1.32149210E-15
  -13.1099997      -1.36974926E-15
  -13.1000004      -1.21565237E-15
  -13.0900002      -8.68483315E-16
  -13.0799999      -3.68587128E-16
  -13.0699997       2.17889458E-16
  -13.0600004       8.08832079E-16
  -13.0500002       1.31892210E-15
  -13.0400000       1.67311453E-15
  -13.0299997       1.81850965E-15
  -13.0200005       1.73260949E-15
  -13.0100002       1.42665399E-15
  -13.0000000       9.43614291E-16
  -12.9899998       3.51287883E-16
  -12.9799995      -2.68357270E-16
  -12.9700003      -8.32009018E-16
  -12.9600000      -1.26825597E-15
  -12.9499998      -1.52951587E-15
  -12.9399996      -1.60099836E-15
  -12.9300003      -1.50515648E-15
  -12.9200001      -1.30024174E-15
  -12.9099998      -1.07189235E-15
  -12.8999996      -9.17359869E-16
  -12.8900003      -9.23152516E-16
  -12.8800001      -1.13853436E-15
  -12.8699999      -1.54927154E-15
  -12.8599997      -2.05774034E-15
  -12.8500004      -2.47644482E-15
  -12.8400002      -2.54137307E-15
  -12.8299999      -1.94911726E-15
  -12.8199997      -4.17264788E-16
  -12.8100004       2.23817085E-15
  -12.8000002       6.02046328E-15
  -12.7900000       1.06818029E-14
  -12.7799997       1.56835469E-14
  -12.7700005       2.02036755E-14
  -12.7600002       2.32020010E-14
  -12.7500000       2.35440702E-14
  -12.7399998       2.01735127E-14
  -12.7299995       1.23118628E-14
  -12.7200003      -3.42685919E-16
  -12.7100000      -1.74492497E-14
  -12.6999998      -3.79198524E-14
  -12.6899996      -5.98982059E-14
  -12.6800003      -8.08328420E-14
  -12.6700001      -9.76439524E-14
  -12.6599998      -1.06974068E-13
  -12.6499996      -1.05506864E-13
  -12.6400003      -9.03346679E-14
  -12.6300001      -5.93551290E-14
  -12.6199999      -1.16776680E-14
  -12.6099997       5.19836181E-14
  -12.6000004       1.28959858E-13
  -12.5900002       2.14360065E-13
  -12.5799999       3.00939395E-13
  -12.5699997       3.79165557E-13
  -12.5600004       4.37547541E-13
  -12.5500002       4.63282028E-13
  -12.5400000       4.43249170E-13
  -12.5299997       3.65347076E-13
  -12.5200005       2.20109873E-13
  -12.5100002       2.49856911E-15
  -12.5000000      -2.86291878E-13
  -12.4899998      -6.37198519E-13
  -12.4799995      -1.03203156E-12
  -12.4700003      -1.44277645E-12
  -12.4600000      -1.83161472E-12
  -12.4499998      -2.15175772E-12
  -12.4399996      -2.34912502E-12
  -12.4300003      -2.36483597E-12
  -12.4200001      -2.13839558E-12
  -12.4099998      -1.61141792E-12
  -12.3999996      -7.31669011E-13
  -12.3900003       5.42815467E-13
  -12.3800001       2.23981402E-12
  -12.3699999       4.36945749E-12
  -12.3599997       6.92150243E-12
  -12.3500004       9.86352666E-12
  -12.3400002       1.31402380E-11
  -12.3299999       1.66739816E-11
  -12.3199997       2.03664516E-11
  -12.3100004       2.41015732E-11
  -12.3000002       2.77493115E-11
  -12.2900000       3.11703025E-11
  -12.2799997       3.42210149E-11
  -12.2700005       3.67591131E-11
  -12.2600002       3.86488203E-11
  -12.2500000       3.97660203E-11
  -12.2399998       4.00028170E-11
  -12.2299995       3.92715443E-11
  -12.2200003       3.75077677E-11
  -12.2100000       3.46723761E-11
  -12.1999998       3.07525672E-11
  -12.1899996       2.57617521E-11
  -12.1800003       1.97381868E-11
  -12.1700001       1.27426741E-11
  -12.1599998       4.85546065E-12
  -12.1499996      -3.82757064E-12
  -12.1400003      -1.31986895E-11
  -12.1300001      -2.31421080E-11
  -12.1199999      -3.35372112E-11
  -12.1099997      -4.42609074E-11
  -12.1000004      -5.51893080E-11
  -12.0900002      -6.61984426E-11
  -12.0799999      -7.71643721E-11
  -12.0699997      -8.79628037E-11
  -12.0600004      -9.84685666E-11
  -12.0500002      -1.08555012E-10
  -12.0400000      -1.18093882E-10
  -12.0299997      -1.26955127E-10
  -12.0200005      -1.35007255E-10
  -12.0100002      -1.42117651E-10
  -12.0000000      -1.48153240E-10
  -11.9899998      -1.52981378E-10
  -11.9799995      -1.56470933E-10
  -11.9700003      -1.58493982E-10
  -11.9600000      -1.58928051E-10
  -11.9499998      -1.57658872E-10
  -11.9399996      -1.54584012E-10
  -11.9300003      -1.49616999E-10
  -11.9200001      -1.42690998E-10
  -11.9099998      -1.33763084E-10
  -11.8999996      -1.22816909E-10
  -11.8900003      -1.09864569E-10
  -11.8800001      -9.49473000E-11
  -11.8699999      -7.81342352E-11
  -11.8599997      -5.95198474E-11
  -11.8500004      -3.92213623E-11
  -11.8400002      -1.73744474E-11
  -11.8299999       5.87017154E-12
  -11.8199997       3.03500801E-11
  -11.8100004       5.58936022E-11
  -11.8000002       8.23216009E-11
  -11.7900000       1.09447909E-10
  -11.7799997       1.37079598E-10
  -11.7700005       1.65016542E-10
  -11.7600002       1.93050659E-10
  -11.7500000       2.20965315E-10
  -11.7399998       2.48535442E-10
  -11.7299995       2.75527295E-10
  -11.7200003       3.01700137E-10
  -11.7100000       3.26807997E-10
  -11.6999998       3.50602242E-10
  -11.6899996       3.72835207E-10
  -11.6800003       3.93263505E-10
  -11.6700001       4.11652296E-10
  -11.6599998       4.27778646E-10
  -11.6499996       4.41433889E-10
  -11.6400003       4.52426291E-10
  -11.6300001       4.60581434E-10
  -11.6199999       4.65742167E-10
  -11.6099997       4.67768102E-10
  -11.6000004       4.66533645E-10
  -11.5900002       4.61927024E-10
  -11.5799999       4.53849652E-10
  -11.5699997       4.42214626E-10
  -11.5600004       4.26947394E-10
  -11.5500002       4.07986339E-10
  -11.5400000       3.85284443E-10
  -11.5299997       3.58809316E-10
  -11.5200005       3.28545385E-10
  -11.5100002       2.94494346E-10
  -11.5000000       2.56676902E-10
  -11.4899998       2.15132703E-10
  -11.4799995       1.69921244E-10
  -11.4700003       1.21121668E-10
  -11.4600000       6.88330087E-11
  -11.4499998       1.31744424E-11
  -11.4399996      -4.57149908E-11
  -11.4300003      -1.07677867E-10
  -11.4200001      -1.72538539E-10
  -11.4099998      -2.40105741E-10
  -11.3999996      -3.10174053E-10
  -11.3900003      -3.82525817E-10
  -11.3800001      -4.56933547E-10
  -11.3699999      -5.33162292E-10
  -11.3599997      -6.10971440E-10
  -11.3500004      -6.90115853E-10
  -11.3400002      -7.70348507E-10
  -11.3299999      -8.51422433E-10
  -11.3199997      -9.33093158E-10
  -11.3100004      -1.01512188E-09
  -11.3000002      -1.09727849E-09
  -11.2900000      -1.17934584E-09
  -11.2799997      -1.26112343E-09
  -11.2700005      -1.34242994E-09
  -11.2600002      -1.42310452E-09
  -11.2500000      -1.50300794E-09
  -11.2399998      -1.58202129E-09
  -11.2299995      -1.66004333E-09
  -11.2200003      -1.73698533E-09
  -11.2100000      -1.81276794E-09
  -11.1999998      -1.88731675E-09
  -11.1899996      -1.96055461E-09
  -11.1800003      -2.03240003E-09
  -11.1700001      -2.10276596E-09
  -11.1599998      -2.17155494E-09
  -11.1499996      -2.23866525E-09
  -11.1400003      -2.30398700E-09
  -11.1300001      -2.36741471E-09
  -11.1199999      -2.42885156E-09
  -11.1099997      -2.48821141E-09
  -11.1000004      -2.54543342E-09
  -11.0900002      -2.60048449E-09
  -11.0799999      -2.65336153E-09
  -11.0699997      -2.70409495E-09
  -11.0600004      -2.75274292E-09
  -11.0500002      -2.79938783E-09
  -11.0400000      -2.84412183E-09
  -11.0299997      -2.88703350E-09
  -11.0200005      -2.92820346E-09
  -11.0100002      -2.96768299E-09
  -11.0000000      -3.00549585E-09
  -10.9899998      -3.04162850E-09
  -10.9799995      -3.07603742E-09
  -10.9700003      -3.10864934E-09
  -10.9600000      -3.13937831E-09
  -10.9499998      -3.16813709E-09
  -10.9399996      -3.19483884E-09
  -10.9300003      -3.21942140E-09
  -10.9200001      -3.24184368E-09
  -10.9099998      -3.26209482E-09
  -10.8999996      -3.28019345E-09
  -10.8900003      -3.29617289E-09
  -10.8800001      -3.31008732E-09
  -10.8699999      -3.32199446E-09
  -10.8599997      -3.33195027E-09
  -10.8500004      -3.33999139E-09
  -10.8400002      -3.34613870E-09
  -10.8299999      -3.35037309E-09
  -10.8199997      -3.35265704E-09
  -10.8100004      -3.35291772E-09
  -10.8000002      -3.35106920E-09
  -10.7900000      -3.34700223E-09
  -10.7799997      -3.34060335E-09
  -10.7700005      -3.33177153E-09
  -10.7600002      -3.32042682E-09
  -10.7500000      -3.30651995E-09
  -10.7399998      -3.29003713E-09
  -10.7299995      -3.27102279E-09
  -10.7200003      -3.24954552E-09
  -10.7100000      -3.22572191E-09
  -10.6999998      -3.19970783E-09
  -10.6899996      -3.17167514E-09
  -10.6800003      -3.14182880E-09
  -10.6700001      -3.11036730E-09
  -10.6599998      -3.07750225E-09
  -10.6499996      -3.04344261E-09
  -10.6400003      -3.00839131E-09
  -10.6300001      -2.97255265E-09
  -10.6199999      -2.93613689E-09
  -10.6099997      -2.89933388E-09
  -10.6000004      -2.86235347E-09
  -10.5900002      -2.82541279E-09
  -10.5799999      -2.78871592E-09
  -10.5699997      -2.75250378E-09
  -10.5600004      -2.71701284E-09
  -10.5500002      -2.68248379E-09
  -10.5400000      -2.64915911E-09
  -10.5299997      -2.61727351E-09
  -10.5200005      -2.58704880E-09
  -10.5100002      -2.55867283E-09
  -10.5000000      -2.53231502E-09
  -10.4899998      -2.50809440E-09
  -10.4799995      -2.48608978E-09
  -10.4700003      -2.46634890E-09
  -10.4600000      -2.44888598E-09
  -10.4499998      -2.43368281E-09
  -10.4399996      -2.42073428E-09
  -10.4300003      -2.40998954E-09
  -10.4200001      -2.40143727E-09
  -10.4099998      -2.39503883E-09
  -10.3999996      -2.39078402E-09
  -10.3900003      -2.38867437E-09
  -10.3800001      -2.38869502E-09
  -10.3699999      -2.39086329E-09
  -10.3599997      -2.39517695E-09
  -10.3500004      -2.40164133E-09
  -10.3400002      -2.41023868E-09
  -10.3299999      -2.42095899E-09
  -10.3199997      -2.43376475E-09
  -10.3100004      -2.44859555E-09
  -10.3000002      -2.46539966E-09
  -10.2900000      -2.48407384E-09
  -10.2799997      -2.50454235E-09
  -10.2700005      -2.52671906E-09
  -10.2600002      -2.55051491E-09
  -10.2500000      -2.57587551E-09
  -10.2399998      -2.60272759E-09
  -10.2299995      -2.63103250E-09
  -10.2200003      -2.66073585E-09
  -10.2100000      -2.69181433E-09
  -10.1999998      -2.72422440E-09
  -10.1899996      -2.75791590E-09
  -10.1800003      -2.79284618E-09
  -10.1700001      -2.82893686E-09
  -10.1599998      -2.86615909E-09
  -10.1499996      -2.90446311E-09
  -10.1400003      -2.94382896E-09
  -10.1300001      -2.98426994E-09
  -10.1199999      -3.02581271E-09
  -10.1099997      -3.06852366E-09
  -10.1000004      -3.11249515E-09
  -10.0900002      -3.15783977E-09
  -10.0799999      -3.20471072E-09
  -10.0699997      -3.25327942E-09
  -10.0600004      -3.30372707E-09
  -10.0500002      -3.35627703E-09
  -10.0400000      -3.41113293E-09
  -10.0299997      -3.46850548E-09
  -10.0200005      -3.52859963E-09
  -10.0100002      -3.59159391E-09
  -10.0000000      -3.65764330E-09
  -9.98999977      -3.72686593E-09
  -9.97999954      -3.79935150E-09
  -9.97000027      -3.87515309E-09
  -9.96000004      -3.95430710E-09
  -9.94999981      -4.03685085E-09
  -9.93999958      -4.12279544E-09
  -9.93000031      -4.21217372E-09
  -9.92000008      -4.30501412E-09
  -9.90999985      -4.40135794E-09
  -9.89999962      -4.50123183E-09
  -9.89000034      -4.60467042E-09
  -9.88000011      -4.71168882E-09
  -9.86999989      -4.82228879E-09
  -9.85999966      -4.93644770E-09
  -9.85000038      -5.05411757E-09
  -9.84000015      -5.17523446E-09
  -9.82999992      -5.29971222E-09
  -9.81999969      -5.42746115E-09
  -9.81000042      -5.55836799E-09
  -9.80000019      -5.69236214E-09
  -9.78999996      -5.82936721E-09
  -9.77999973      -5.96931660E-09
  -9.77000046      -6.11217787E-09
  -9.76000023      -6.25796881E-09
  -9.75000000      -6.40674003E-09
  -9.73999977      -6.55856525E-09
  -9.72999954      -6.71353195E-09
  -9.72000027      -6.87174051E-09
  -9.71000004      -7.03329972E-09
  -9.69999981      -7.19827131E-09
  -9.68999958      -7.36671435E-09
  -9.68000031      -7.53863283E-09
  -9.67000008      -7.71396991E-09
  -9.65999985      -7.89262788E-09
  -9.64999962      -8.07443268E-09
  -9.64000034      -8.25915691E-09
  -9.63000011      -8.44654213E-09
  -9.61999989      -8.63625615E-09
  -9.60999966      -8.82794371E-09
  -9.60000038      -9.02120600E-09
  -9.59000015      -9.21560694E-09
  -9.57999992      -9.41069533E-09
  -9.56999969      -9.60599777E-09
  -9.56000042      -9.80103110E-09
  -9.55000019      -9.99529259E-09
  -9.53999996      -1.01882760E-08
  -9.52999973      -1.03794733E-08
  -9.52000046      -1.05683906E-08
  -9.51000023      -1.07544782E-08
  -9.50000000      -1.09372431E-08
  -9.48999977      -1.11161951E-08
  -9.47999954      -1.12908465E-08
  -9.47000027      -1.14607905E-08
  -9.46000004      -1.16256595E-08
  -9.44999981      -1.17851737E-08
  -9.43999958      -1.19391483E-08
  -9.43000031      -1.20874963E-08
  -9.42000008      -1.22302497E-08
  -9.40999985      -1.23675514E-08
  -9.39999962      -1.24996697E-08
  -9.39000034      -1.26269768E-08
  -9.38000011      -1.27499442E-08
  -9.36999989      -1.28691360E-08
  -9.35999966      -1.29852511E-08
  -9.35000038      -1.30990383E-08
  -9.34000015      -1.32113351E-08
  -9.32999992      -1.33230813E-08
  -9.31999969      -1.34352360E-08
  -9.31000042      -1.35488207E-08
  -9.30000019      -1.36648453E-08
  -9.28999996      -1.37843683E-08
  -9.27999973      -1.39083731E-08
  -9.27000046      -1.40378633E-08
  -9.26000023      -1.41737617E-08
  -9.25000000      -1.43169672E-08
  -9.23999977      -1.44683518E-08
  -9.22999954      -1.46287071E-08
  -9.22000027      -1.47987693E-08
  -9.21000004      -1.49792143E-08
  -9.19999981      -1.51706523E-08
  -9.18999958      -1.53736135E-08
  -9.18000031      -1.55884976E-08
  -9.17000008      -1.58156492E-08
  -9.15999985      -1.60552602E-08
  -9.14999962      -1.63074390E-08
  -9.14000034      -1.65721730E-08
  -9.13000011      -1.68493255E-08
  -9.11999989      -1.71386709E-08
  -9.10999966      -1.74398895E-08
  -9.10000038      -1.77525212E-08
  -9.09000015      -1.80760420E-08
  -9.07999992      -1.84098301E-08
  -9.06999969      -1.87531519E-08
  -9.06000042      -1.91051726E-08
  -9.05000019      -1.94650482E-08
  -9.03999996      -1.98317984E-08
  -9.02999973      -2.02044159E-08
  -9.02000046      -2.05818687E-08
  -9.01000023      -2.09630215E-08
  -9.00000000      -2.13467857E-08
  -8.98999977      -2.17319851E-08
  -8.97999954      -2.21175007E-08
  -8.97000027      -2.25021672E-08
  -8.96000004      -2.28848140E-08
  -8.94999981      -2.32643753E-08
  -8.93999958      -2.36397195E-08
  -8.93000031      -2.40097968E-08
  -8.92000008      -2.43735947E-08
  -8.90999985      -2.47301930E-08
  -8.89999962      -2.50786663E-08
  -8.89000034      -2.54181618E-08
  -8.88000011      -2.57479211E-08
  -8.86999989      -2.60672532E-08
  -8.85999966      -2.63755791E-08
  -8.85000038      -2.66722981E-08
  -8.84000015      -2.69570446E-08
  -8.82999992      -2.72294862E-08
  -8.81999969      -2.74893637E-08
  -8.81000042      -2.77366166E-08
  -8.80000019      -2.79711703E-08
  -8.78999996      -2.81930994E-08
  -8.77999973      -2.84026438E-08
  -8.77000046      -2.85999935E-08
  -8.76000023      -2.87855659E-08
  -8.75000000      -2.89598692E-08
  -8.73999977      -2.91234770E-08
  -8.72999954      -2.92770093E-08
  -8.72000027      -2.94212796E-08
  -8.71000004      -2.95570342E-08
  -8.69999981      -2.96851095E-08
  -8.68999958      -2.98064116E-08
  -8.68000031      -2.99218677E-08
  -8.67000008      -3.00325418E-08
  -8.65999985      -3.01392795E-08
  -8.64999962      -3.02431289E-08
  -8.64000034      -3.03450385E-08
  -8.63000011      -3.04459924E-08
  -8.61999989      -3.05468966E-08
  -8.60999966      -3.06487102E-08
  -8.60000038      -3.07521724E-08
  -8.59000015      -3.08580717E-08
  -8.57999992      -3.09670618E-08
  -8.56999969      -3.10796580E-08
  -8.56000042      -3.11964392E-08
  -8.55000019      -3.13177431E-08
  -8.53999996      -3.14438573E-08
  -8.52999973      -3.15750590E-08
  -8.52000046      -3.17114406E-08
  -8.51000023      -3.18531015E-08
  -8.50000000      -3.20000524E-08
  -8.48999977      -3.21523181E-08
  -8.47999954      -3.23098739E-08
  -8.47000027      -3.24726201E-08
  -8.46000004      -3.26405321E-08
  -8.44999981      -3.28135528E-08
  -8.43999958      -3.29916823E-08
  -8.43000031      -3.31748495E-08
  -8.42000008      -3.33631611E-08
  -8.40999985      -3.35565886E-08
  -8.39999962      -3.37553914E-08
  -8.39000034      -3.39596617E-08
  -8.38000011      -3.41696094E-08
  -8.36999989      -3.43854865E-08
  -8.35999966      -3.46076412E-08
  -8.35000038      -3.48364004E-08
  -8.34000015      -3.50721727E-08
  -8.32999992      -3.53153631E-08
  -8.31999969      -3.55665257E-08
  -8.31000042      -3.58260976E-08
  -8.30000019      -3.60945549E-08
  -8.28999996      -3.63722705E-08
  -8.27999973      -3.66598414E-08
  -8.27000046      -3.69576050E-08
  -8.26000023      -3.72659343E-08
  -8.25000000      -3.75852380E-08
  -8.23999977      -3.79157186E-08
  -8.22999954      -3.82576140E-08
  -8.22000027      -3.86111729E-08
  -8.21000004      -3.89764985E-08
  -8.19999981      -3.93536581E-08
  -8.18999958      -3.97428828E-08
  -8.18000031      -4.01441547E-08
  -8.17000008      -4.05575946E-08
  -8.15999985      -4.09831920E-08
  -8.14999962      -4.14209573E-08
  -8.14000034      -4.18710187E-08
  -8.13000011      -4.23333013E-08
  -8.11999989      -4.28078124E-08
  -8.10999966      -4.32945377E-08
  -8.10000038      -4.37934631E-08
  -8.09000015      -4.43044073E-08
  -8.07999992      -4.48272175E-08
  -8.06999969      -4.53616700E-08
  -8.06000042      -4.59076546E-08
  -8.05000019      -4.64648267E-08
  -8.03999996      -4.70328594E-08
  -8.02999973      -4.76114508E-08
  -8.02000046      -4.81999578E-08
  -8.01000023      -4.87981389E-08
  -8.00000000      -4.94052124E-08
  -7.98999977      -5.00206454E-08
  -7.98000002      -5.06437736E-08
  -7.96999979      -5.12737053E-08
  -7.96000004      -5.19096552E-08
  -7.94999981      -5.25508987E-08
  -7.94000006      -5.31964588E-08
  -7.92999983      -5.38456462E-08
  -7.92000008      -5.44972245E-08
  -7.90999985      -5.51505757E-08
  -7.90000010      -5.58046338E-08
  -7.88999987      -5.64584539E-08
  -7.88000011      -5.71111336E-08
  -7.86999989      -5.77616959E-08
  -7.86000013      -5.84094231E-08
  -7.84999990      -5.90533276E-08
  -7.84000015      -5.96927876E-08
  -7.82999992      -6.03270323E-08
  -7.82000017      -6.09555002E-08
  -7.80999994      -6.15776159E-08
  -7.80000019      -6.21928322E-08
  -7.78999996      -6.28007655E-08
  -7.78000021      -6.34013020E-08
  -7.76999998      -6.39940509E-08
  -7.76000023      -6.45789910E-08
  -7.75000000      -6.51562289E-08
  -7.73999977      -6.57258781E-08
  -7.73000002      -6.62882300E-08
  -7.71999979      -6.68435334E-08
  -7.71000004      -6.73924418E-08
  -7.69999981      -6.79353107E-08
  -7.69000006      -6.84728789E-08
  -7.67999983      -6.90059139E-08
  -7.67000008      -6.95352966E-08
  -7.65999985      -7.00618514E-08
  -7.65000010      -7.05868572E-08
  -7.63999987      -7.11111454E-08
  -7.63000011      -7.16359239E-08
  -7.61999989      -7.21622158E-08
  -7.61000013      -7.26912219E-08
  -7.59999990      -7.32241432E-08
  -7.59000015      -7.37622656E-08
  -7.57999992      -7.43066693E-08
  -7.57000017      -7.48585620E-08
  -7.55999994      -7.54193792E-08
  -7.55000019      -7.59901511E-08
  -7.53999996      -7.65720714E-08
  -7.53000021      -7.71664403E-08
  -7.51999998      -7.77744731E-08
  -7.51000023      -7.83974983E-08
  -7.50000000      -7.90365462E-08
  -7.48999977      -7.96927466E-08
  -7.48000002      -8.03674141E-08
  -7.46999979      -8.10616356E-08
  -7.46000004      -8.17764416E-08
  -7.44999981      -8.25129050E-08
  -7.44000006      -8.32717646E-08