  -16.0000000       0.00000000    
  -15.9899998       0.00000000    
  -15.9799995       0.00000000    
  -15.9700003       0.00000000    
  -15.9600000       0.00000000    
  -15.9499998       0.00000000    
  -15.9399996       0.00000000    
  -15.9300003       0.00000000    
  -15.9200001       0.00000000    
  -15.9099998       0.00000000    
  -15.8999996       0.00000000    
  -15.8900003       0.00000000    
  -15.8800001       0.00000000    
  -15.8699999       4.20389539E-45
  -15.8599997       3.57331108E-43
  -15.8500004       9.62131526E-42
  -15.8400002       1.38672496E-40
  -15.8299999       1.43848893E-39
  -15.8199997       1.11108815E-38
  -15.8100004       6.73351153E-38
  -15.8000002       3.29884694E-37
  -15.7900000       1.33047043E-36
  -15.7799997       4.39022459E-36
  -15.7700005       1.13834912E-35
  -15.7600002       1.95148377E-35
  -15.7500000      -3.57578293E-36
  -15.7399998      -2.03195242E-34
  -15.7299995      -1.06175196E-33
  -15.7200003      -3.90102788E-33
  -15.7100000      -1.18187927E-32
  -15.6999998      -3.10795946E-32
  -15.6899996      -7.24828272E-32
  -15.6800003      -1.51167610E-31
  -15.6700001      -2.81693797E-31
  -15.6599998      -4.63787299E-31
  -15.6499996      -6.54668821E-31
  -15.6400003      -7.29581807E-31
  -15.6300001      -4.46009217E-31
  -15.6199999       5.50694089E-31
  -15.6099997       2.62035107E-30
  -15.6000004       5.85831853E-30
  -15.5900002       9.65330255E-30
  -15.5799999       1.21948853E-29
  -15.5699997       1.02600058E-29
  -15.5600004      -1.97259378E-31
  -15.5500002      -2.21259815E-29
  -15.5400000      -5.40367433E-29
  -15.5299997      -8.61702946E-29
  -15.5200005      -9.85414575E-29
  -15.5100002      -6.43287264E-29
  -15.5000000       3.84367739E-29
  -15.4899998       2.07354453E-28
  -15.4799995       3.95320714E-28
  -15.4700003       5.03752351E-28
  -15.4600000       4.06658134E-28
  -15.4499998       1.44707951E-29
  -15.4399996      -6.36870221E-28
  -15.4300003      -1.31907327E-27
  -15.4200001      -1.63766946E-27
  -15.4099998      -1.20634137E-27
  -15.3999996       5.29097433E-29
  -15.3900003       1.63513282E-27
  -15.3800001       2.46854588E-27
  -15.3699999       1.46747850E-27
  -15.3599997      -1.39577593E-27
  -15.3500004      -4.02509960E-27
  -15.3400002      -2.18975327E-27
  -15.3299999       8.30759203E-27
  -15.3199997       2.70558521E-26
  -15.3100004       4.38536559E-26
  -15.3000002       3.71880679E-26
  -15.2900000      -1.82248178E-26
  -15.2799997      -1.31969860E-25
  -15.2700005      -2.71287515E-25
  -15.2600002      -3.43127253E-25
  -15.2500000      -2.09277008E-25
  -15.2399998       2.44791107E-25
  -15.2299995       9.91212010E-25
  -15.2200003       1.73952606E-24
  -15.2100000       1.91014720E-24
  -15.1999998       8.10376593E-25
  -15.1899996      -1.93803995E-24
  -15.1800003      -5.82233898E-24
  -15.1700001      -9.02082009E-24
  -15.1599998      -8.59864698E-24
  -15.1499996      -1.70003193E-24
  -15.1400003       1.23000557E-23
  -15.1300001       2.94643492E-23
  -15.1199999       4.03349472E-23
  -15.1099997       3.21640395E-23
  -15.1000004      -4.70195849E-24
  -15.0900002      -6.75419362E-23
  -15.0799999      -1.33406123E-22
  -15.0699997      -1.59358574E-22
  -15.0600004      -9.69055416E-23
  -15.0500002       7.86371576E-23
  -15.0400000       3.32983792E-22
  -15.0299997       5.51991699E-22
  -15.0200005       5.60208726E-22
  -15.0100002       1.95403295E-22
  -15.0000000      -5.70678589E-22
  -14.9899998      -1.51398225E-21
  -14.9799995      -2.12470024E-21
  -14.9700003      -1.74339219E-21
  -14.9600000       1.02158263E-22
  -14.9499998       3.24106590E-21
  -14.9399996       6.50432553E-21
  -14.9300003       7.78042126E-21
  -14.9200001       4.73902436E-21
  -14.9099998      -3.77834617E-21
  -14.8999996      -1.61400127E-20
  -14.8900003      -2.69741514E-20
  -14.8800001      -2.79763146E-20
  -14.8699999      -1.11906793E-20
  -14.8599997       2.56051723E-20
  -14.8500004       7.33665841E-20
  -14.8400002       1.09490744E-19
  -14.8299999       1.02432289E-19
  -14.8199997       2.50942703E-20
  -14.8100004      -1.25277266E-19
  -14.8000002      -3.08439081E-19
  -14.7900000      -4.35840793E-19
  -14.7799997      -3.90722691E-19
  -14.7700005      -7.84462615E-20
  -14.7600002       5.02767821E-19
  -14.7500000       1.19868542E-18
  -14.7399998       1.68479237E-18
  -14.7299995       1.54018497E-18
  -14.7200003       4.23257127E-19
  -14.7100000      -1.68580060E-18
  -14.6999998      -4.26934218E-18
  -14.6899996      -6.21831867E-18
  -14.6800003      -6.06728914E-18
  -14.6700001      -2.56416208E-18
  -14.6599998       4.53255395E-18
  -14.6499996       1.37181676E-17
  -14.6400003       2.14900315E-17
  -14.6300001       2.29867851E-17
  -14.6199999       1.36918939E-17
  -14.6099997      -8.07435398E-18
  -14.6000004      -3.87013291E-17
  -14.5900002      -6.81233262E-17
  -14.5799999      -8.12176880E-17
  -14.5699997      -6.24384249E-17
  -14.5600004      -3.12301585E-18
  -14.5500002       9.06748836E-17
  -14.5400000       1.93314677E-16
  -14.5299997       2.61473274E-16
  -14.5200005       2.45312521E-16
  -14.5100002       1.08265124E-16
  -14.5000000      -1.49523841E-16
  -14.4899998      -4.73104165E-16
  -14.4799995      -7.50743830E-16
  -14.4700003      -8.36505916E-16
  -14.4600000      -5.98665946E-16
  -14.4499998       1.57311058E-17
  -14.4399996       9.21247962E-16
  -14.4300003       1.86754650E-15
  -14.4200001       2.47196211E-15
  -14.4099998       2.32282671E-15
  -14.3999996       1.13983710E-15
  -14.3900003      -1.05188554E-15
  -14.3800001      -3.80102393E-15
  -14.3699999      -6.23429505E-15
  -14.3599997      -7.23462275E-15
  -14.3500004      -5.79015629E-15
  -14.3400002      -1.44109156E-15
  -14.3299999       5.31619519E-15
  -14.3199997       1.28435826E-14
  -14.3100004       1.85498352E-14
  -14.3000002       1.95192271E-14
  -14.2900000       1.35006015E-14
  -14.2799997       1.04537845E-17
  -14.2700005      -1.88258494E-14
  -14.2600002      -3.81011683E-14
  -14.2500000      -5.09202665E-14
  -14.2399998      -5.01994517E-14
  -14.2299995      -3.11629554E-14
  -14.2200003       6.13300897E-15
  -14.2100000       5.51365967E-14
  -14.1999998       1.02867672E-13
  -14.1899996       1.32255358E-13
  -14.1800003       1.26661268E-13
  -14.1700001       7.57303630E-14
  -14.1599998      -1.90038279E-14
  -14.1499996      -1.40727043E-13
  -14.1400003      -2.57982736E-13
  -14.1300001      -3.30364533E-13
  -14.1199999      -3.18936202E-13
  -14.1099997      -1.99415761E-13
  -14.1000004       2.53125056E-14
  -14.0900002       3.17557477E-13
  -14.0799999       6.05962871E-13
  -14.0699997       7.97660223E-13
  -14.0600004       8.00895537E-13
  -14.0500002       5.54146301E-13
  -14.0400000       5.45685526E-14
  -14.0299997      -6.23192199E-13
  -14.0200005      -1.32649913E-12
  -14.0100002      -1.84800179E-12
  -14.0000000      -1.97253173E-12
  -13.9899998      -1.54018953E-12
  -13.9799995      -5.11098488E-13
  -13.9700003       9.87260295E-13
  -13.9600000       2.64949933E-12
  -13.9499998       4.03206678E-12
  -13.9399996       4.64563978E-12
  -13.9300003       4.08696644E-12
  -13.9200001       2.18181181E-12
  -13.9099998      -9.00667832E-13
  -13.8999996      -4.60367074E-12
  -13.8900003      -8.04037479E-12
  -13.8800001      -1.01628133E-11
  -13.8699999      -1.00208713E-11
  -13.8599997      -7.05847100E-12
  -13.8500004      -1.36967683E-12
  -13.8400002       6.16873653E-12
  -13.8299999       1.39554939E-11
  -13.8199997       1.99401207E-11
  -13.8100004       2.20856493E-11
  -13.8000002       1.89278419E-11
  -13.7900000       1.00946846E-11
  -13.7799997      -3.36657416E-12
  -13.7700005      -1.89816132E-11
  -13.7600002      -3.32216303E-11
  -13.7500000      -4.22226004E-11
  -13.7399998      -4.27163825E-11
  -13.7299995      -3.29603879E-11
  -13.7200003      -1.34217047E-11
  -13.7100000       1.29958336E-11
  -13.6999998       4.12987526E-11
  -13.6899996       6.53058510E-11
  -13.6800003       7.89382934E-11
  -13.6700001       7.76199036E-11
  -13.6599998       5.94587504E-11
  -13.6499996       2.59162258E-11
  -13.6400003      -1.82159461E-11
  -13.6300001      -6.55473800E-11
  -13.6199999      -1.07375234E-10
  -13.6099997      -1.35245981E-10
  -13.6000004      -1.42457476E-10
  -13.5900002      -1.25217017E-10
  -13.5799999      -8.32749078E-11
  -13.5699997      -2.00198799E-11
  -13.5600004       5.78583917E-11
  -13.5500002       1.40953943E-10
  -13.5400000       2.17828311E-10
  -13.5299997       2.75747231E-10
  -13.5200005       3.01579095E-10
  -13.5100002       2.83079782E-10
  -13.5000000       2.10809717E-10
  -13.4899998       8.07667544E-11
  -13.4799995      -1.02464204E-10
  -13.4700003      -3.22684379E-10
  -13.4600000      -5.50204660E-10
  -13.4499998      -7.42369888E-10
  -13.4399996      -8.47652282E-10
  -13.4300003      -8.13913770E-10
  -13.4200001      -6.00461847E-10
  -13.4099998      -1.92235186E-10
  -13.3999996       3.86882609E-10
  -13.3900003       1.06553322E-09
  -13.3800001       1.72525927E-09
  -13.3699999       2.21287455E-09
  -13.3599997       2.36581932E-09
  -13.3500004       2.04821959E-09
  -13.3400002       1.19181609E-09
  -13.3299999      -1.67280856E-10
  -13.3199997      -1.86662819E-09
  -13.3100004      -3.62022967E-09
  -13.3000002      -5.05221331E-09
  -13.2900000      -5.76154013E-09
  -13.2799997      -5.40932232E-09
  -13.2700005      -3.81315779E-09
  -13.2600002      -1.02655451E-09
  -13.2500000       2.61930233E-09
  -13.2399998       6.53006627E-09
  -13.2299995       9.92726612E-09
  -13.2200003       1.19860584E-08
  -13.2100000       1.20099770E-08
  -13.1999998       9.60787805E-09
  -13.1899996       4.83237317E-09
  -13.1800003      -1.75928805E-09
  -13.1700001      -9.14669585E-09
  -13.1599998      -1.59953348E-08
  -13.1499996      -2.08924895E-08
  -13.1400003      -2.26274537E-08
  -13.1300001      -2.04585380E-08
  -13.1199999      -1.43069432E-08
  -13.1099997      -4.83069984E-09
  -13.1000004       6.64460087E-09
  -13.0900002       1.83304643E-08
  -13.0799999       2.82767818E-08
  -13.0699997       3.47109221E-08
  -13.0600004       3.63463073E-08
  -13.0500002       3.26017080E-08
  -13.0400000       2.36943176E-08
  -13.0299997       1.05978906E-08
  -13.0200005      -5.11379605E-09
  -13.0100002      -2.14980211E-08
  -13.0000000      -3.65009925E-08
  -12.9899998      -4.82012510E-08
  -12.9799995      -5.50113199E-08
  -12.9700003      -5.58281776E-08
  -12.9600000      -5.01352204E-08
  -12.9499998      -3.80628791E-08
  -12.9399996      -2.04082102E-08
  -12.9300003       1.39512046E-09
  -12.9200001       2.53732289E-08
  -12.9099998       4.91894880E-08
  -12.8999996       7.04012777E-08
  -12.8900003       8.67661569E-08
  -12.8800001       9.65401128E-08
  -12.8699999       9.86870958E-08
  -12.8599997       9.29274222E-08
  -12.8500004       7.95795785E-08
  -12.8400002       5.92203584E-08
  -12.8299999       3.22532401E-08
  -12.8199997      -1.45275281E-09
  -12.8100004      -4.26680913E-08
  -12.8000002      -9.24925700E-08
  -12.7900000      -1.51566610E-07
  -12.7799997      -2.18880459E-07
  -12.7700005      -2.90426044E-07
  -12.7600002      -3.58067922E-07
  -12.7500000      -4.09072015E-07
  -12.7399998      -4.26688644E-07
  -12.7299995      -3.92024873E-07
  -12.7200003      -2.87168461E-07
  -12.7100000      -9.92460443E-08
  -12.6999998       1.75212818E-07
  -12.6899996       5.26399390E-07
  -12.6800003       9.28690383E-07
  -12.6700001       1.34016273E-06
  -12.6599998       1.70463272E-06
  -12.6499996       1.95626649E-06
  -12.6400003       2.02648062E-06
  -12.6300001       1.85249064E-06
  -12.6199999       1.38657276E-06
  -12.6099997       6.05159471E-07
  -12.6000004      -4.83270185E-07
  -12.5900002      -1.83231123E-06
  -12.5799999      -3.35446612E-06
  -12.5699997      -4.92126946E-06
  -12.5600004      -6.36720642E-06
  -12.5500002      -7.49768606E-06
  -12.5400000      -8.10134225E-06
  -12.5299997      -7.96657787E-06
  -12.5200005      -6.90208208E-06
  -12.5100002      -4.76041168E-06
  -12.5000000      -1.46322429E-06
  -12.4899998       2.97348015E-06
  -12.4799995       8.41658766E-06
  -12.4700003       1.45980484E-05
  -12.4600000       2.11042025E-05
  -12.4499998       2.73747173E-05
  -12.4399996       3.27125017E-05
  -12.4300003       3.63051622E-05
  -12.4200001       3.72583891E-05
  -12.4099998       3.46399829E-05
  -12.3999996       2.75331695E-05
  -12.3900003       1.50963524E-05
  -12.3800001      -3.37325537E-06
  -12.3699999      -2.83762147E-05
  -12.3599997      -6.01513711E-05
  -12.3500004      -9.86248342E-05
  -12.3400002      -1.43370926E-04
  -12.3299999      -1.93589614E-04
  -12.3199997      -2.48102791E-04
  -12.3100004      -3.05372261E-04
  -12.3000002      -3.63537984E-04
  -12.2900000      -4.20476194E-04
  -12.2799997      -4.73877357E-04
  -12.2700005      -5.21333015E-04
  -12.2600002      -5.60437038E-04
  -12.2500000      -5.88889001E-04
  -12.2399998      -6.04594825E-04
  -12.2299995      -6.05764100E-04
  -12.2200003      -5.90993848E-04
  -12.2100000      -5.59335458E-04
  -12.1999998      -5.10342827E-04
  -12.1899996      -4.44089732E-04
  -12.1800003      -3.61166167E-04
  -12.1700001      -2.62636953E-04
  -12.1599998      -1.49971893E-04
  -12.1499996      -2.49578643E-05
  -12.1400003       1.10406763E-04
  -12.1300001       2.54030427E-04
  -12.1199999       4.03824961E-04
  -12.1099997       5.57798659E-04
  -12.1000004       7.14104914E-04
  -12.0900002       8.71071883E-04
  -12.0799999       1.02719024E-03
  -12.0699997       1.18107814E-03
  -12.0600004       1.33142085E-03
  -12.0500002       1.47691718E-03
  -12.0400000       1.61620975E-03
  -12.0299997       1.74784975E-03
  -12.0200005       1.87026721E-03
  -12.0100002       1.98176294E-03
  -12.0000000       2.08051945E-03
  -11.9899998       2.16461322E-03
  -11.9799995       2.23206007E-03
  -11.9700003       2.28082715E-03
  -11.9600000       2.30887835E-03
  -11.9499998       2.31421064E-03
  -11.9399996       2.29489640E-03
  -11.9300003       2.24914704E-03
  -11.9200001       2.17536720E-03
  -11.9099998       2.07223021E-03
  -11.8999996       1.93876051E-03
  -11.8900003       1.77439023E-03
  -11.8800001       1.57903717E-03
  -11.8699999       1.35312392E-03
  -11.8599997       1.09759939E-03
  -11.8500004       8.13944207E-04
  -11.8400002       5.04112628E-04
  -11.8299999       1.70495230E-04
  -11.8199997      -1.84147648E-04
  -11.8100004      -5.56768733E-04
  -11.8000002      -9.44105966E-04
  -11.7900000      -1.34276913E-03
  -11.7799997      -1.74931646E-03
  -11.7700005      -2.16032611E-03
  -11.7600002      -2.57246336E-03
  -11.7500000      -2.98252655E-03
  -11.7399998      -3.38747213E-03
  -11.7299995      -3.78441531E-03
  -11.7200003      -4.17060824E-03
  -11.7100000      -4.54339292E-03
  -11.6999998      -4.90011787E-03
  -11.6899996      -5.23808086E-03
  -11.6800003      -5.55444881E-03
  -11.6700001      -5.84619958E-03
  -11.6599998      -6.11011451E-03
  -11.6499996      -6.34278078E-03
  -11.6400003      -6.54063933E-03
  -11.6300001      -6.70007523E-03
  -11.6199999      -6.81750756E-03
  -11.6099997      -6.88951742E-03
  -11.6000004      -6.91296114E-03
  -11.5900002      -6.88507408E-03
  -11.5799999      -6.80356566E-03
  -11.5699997      -6.66669477E-03
  -11.5600004      -6.47329818E-03
  -11.5500002      -6.22279197E-03
  -11.5400000      -5.91517240E-03
  -11.5299997      -5.55090606E-03
  -11.5200005      -5.13088517E-03
  -11.5100002      -4.65626689E-03
  -11.5000000      -4.12836764E-03
  -11.4899998      -3.54851573E-03
  -11.4799995      -2.91794143E-03
  -11.4700003      -2.23771576E-03
  -11.4600000      -1.50872266E-03
  -11.4499998      -7.31701904E-04
  -11.4399996       9.26457869E-05
  -11.4300003       9.63525206E-04
  -11.4200001       1.87985355E-03
  -11.4099998       2.84010009E-03
  -11.3999996       3.84217431E-03
  -11.3900003       4.88327397E-03
  -11.3800001       5.95995225E-03
  -11.3699999       7.06811296E-03
  -11.3599997       8.20318237E-03
  -11.3500004       9.36028920E-03
  -11.3400002       1.05344793E-02
  -11.3299999       1.17209386E-02
  -11.3199997       1.29152080E-02
  -11.3100004       1.41133191E-02
  -11.3000002       1.53118791E-02
  -11.2900000       1.65081117E-02
  -11.2799997       1.76997669E-02
  -11.2700005       1.88850388E-02
  -11.2600002       2.00623982E-02
  -11.2500000       2.12304350E-02
  -11.2399998       2.23876927E-02
  -11.2299995       2.35325433E-02
  -11.2200003       2.46631410E-02
  -11.2100000       2.57773809E-02
  -11.1999998       2.68729199E-02
  -11.1899996       2.79473495E-02
  -11.1800003       2.89982371E-02
  -11.1700001       3.00233420E-02
  -11.1599998       3.10206451E-02
  -11.1499996       3.19885015E-02
  -11.1400003       3.29256281E-02
  -11.1300001       3.38311195E-02
  -11.1199999       3.47043797E-02
  -11.1099997       3.55450027E-02
  -11.1000004       3.63527909E-02
  -11.0900002       3.71275693E-02
  -11.0799999       3.78692262E-02
  -11.0699997       3.85776944E-02
  -11.0600004       3.92529406E-02
  -11.0500002       3.98950279E-02
  -11.0400000       4.05041389E-02
  -11.0299997       4.10805494E-02
  -11.0200005       4.16246764E-02
  -11.0100002       4.21370305E-02
  -11.0000000       4.26181071E-02
  -10.9899998       4.30684052E-02
  -10.9799995       4.34883125E-02
  -10.9700003       4.38781530E-02
  -10.9600000       4.42380868E-02
  -10.9499998       4.45681326E-02
  -10.9399996       4.48682383E-02
  -10.9300003       4.51382548E-02
  -10.9200001       4.53779064E-02
  -10.9099998       4.55868319E-02
  -10.8999996       4.57645394E-02
  -10.8900003       4.59104404E-02
  -10.8800001       4.60237637E-02
  -10.8699999       4.61036786E-02
  -10.8599997       4.61492576E-02
  -10.8500004       4.61596437E-02
  -10.8400002       4.61339839E-02
  -10.8299999       4.60716523E-02
  -10.8199997       4.59721796E-02
  -10.8100004       4.58353013E-02
  -10.8000002       4.56610657E-02
  -10.7900000       4.54495400E-02
  -10.7799997       4.52010706E-02
  -10.7700005       4.49159555E-02
  -10.7600002       4.45946455E-02
  -10.7500000       4.42375280E-02
  -10.7399998       4.38450612E-02
  -10.7299995       4.34176885E-02
  -10.7200003       4.29558940E-02
  -10.7100000       4.24601994E-02
  -10.6999998       4.19312306E-02
  -10.6899996       4.13697176E-02
  -10.6800003       4.07766588E-02
  -10.6700001       4.01532762E-02
  -10.6599998       3.95011790E-02
  -10.6499996       3.88223715E-02
  -10.6400003       3.81193683E-02
  -10.6300001       3.73950824E-02
  -10.6199999       3.66528779E-02
  -10.6099997       3.58963087E-02
  -10.6000004       3.51290703E-02
  -10.5900002       3.43548208E-02
  -10.5799999       3.35770324E-02
  -10.5699997       3.27988304E-02
  -10.5600004       3.20231393E-02
  -10.5500002       3.12525406E-02
  -10.5400000       3.04894429E-02
  -10.5299997       2.97361631E-02
  -10.5200005       2.89949849E-02
  -10.5100002       2.82682329E-02
  -10.5000000       2.75582485E-02
  -10.4899998       2.68674400E-02
  -10.4799995       2.61981171E-02
  -10.4700003       2.55525783E-02
  -10.4600000       2.49328986E-02
  -10.4499998       2.43410207E-02
  -10.4399996       2.37786863E-02
  -10.4300003       2.32473481E-02
  -10.4200001       2.27481574E-02
  -10.4099998       2.22819895E-02
  -10.3999996       2.18492895E-02
  -10.3900003       2.14501508E-02
  -10.3800001       2.10842453E-02
  -10.3699999       2.07509212E-02
  -10.3599997       2.04493050E-02
  -10.3500004       2.01783869E-02
  -10.3400002       1.99372414E-02
  -10.3299999       1.97249483E-02
  -10.3199997       1.95408165E-02
  -10.3100004       1.93842668E-02
  -10.3000002       1.92547962E-02
  -10.2900000       1.91518608E-02
  -10.2799997       1.90747343E-02
  -10.2700005       1.90225318E-02
  -10.2600002       1.89942271E-02
  -10.2500000       1.89886186E-02
  -10.2399998       1.90043785E-02
  -10.2299995       1.90404486E-02
  -10.2200003       1.90957505E-02
  -10.2100000       1.91695094E-02
  -10.1999998       1.92612410E-02
  -10.1899996       1.93706378E-02
  -10.1800003       1.94977168E-02
  -10.1700001       1.96425244E-02
  -10.1599998       1.98054053E-02
  -10.1499996       1.99869126E-02
  -10.1400003       2.01876480E-02
  -10.1300001       2.04084255E-02
  -10.1199999       2.06501018E-02
  -10.1099997       2.09134724E-02
  -10.1000004       2.11993251E-02
  -10.0900002       2.15082280E-02
  -10.0799999       2.18407065E-02
  -10.0699997       2.21971143E-02
  -10.0600004       2.25775857E-02
  -10.0500002       2.29826830E-02
  -10.0400000       2.34128702E-02
  -10.0299997       2.38688514E-02
  -10.0200005       2.43515614E-02
  -10.0100002       2.48619262E-02
  -10.0000000       2.54010018E-02
  -9.98999977       2.59694867E-02
  -9.97999954       2.65681166E-02
  -9.97000027       2.71973424E-02
  -9.96000004       2.78577469E-02
  -9.94999981       2.85498518E-02
  -9.93999958       2.92743836E-02
  -9.93000031       3.00325006E-02
  -9.92000008       3.08254566E-02
  -9.90999985       3.16546969E-02
  -9.89999962       3.25215831E-02
  -9.89000034       3.34271602E-02
  -9.88000011       3.43721434E-02
  -9.86999989       3.53568792E-02
  -9.85999966       3.63810100E-02
  -9.85000038       3.74440886E-02
  -9.84000015       3.85456681E-02
  -9.82999992       3.96851934E-02
  -9.81999969       4.08622399E-02
  -9.81000042       4.20766026E-02
  -9.80000019       4.33280356E-02
  -9.78999996       4.46164832E-02
  -9.77999973       4.59416099E-02
  -9.77000046       4.73033488E-02
  -9.76000023       4.87012826E-02
  -9.75000000       5.01351878E-02
  -9.73999977       5.16048819E-02
  -9.72999954       5.31104542E-02
  -9.72000027       5.46520613E-02
  -9.71000004       5.62298559E-02
  -9.69999981       5.78439906E-02
  -9.68999958       5.94942048E-02
  -9.68000031       6.11799620E-02
  -9.67000008       6.29001930E-02
  -9.65999985       6.46534041E-02
  -9.64999962       6.64379373E-02
  -9.64000034       6.82516620E-02
  -9.63000011       7.00926036E-02
  -9.61999989       7.19585270E-02
  -9.60999966       7.38469288E-02
  -9.60000038       7.57553726E-02
  -9.59000015       7.76809007E-02
  -9.57999992       7.96202123E-02
  -9.56999969       8.15692842E-02
  -9.56000042       8.35241526E-02
  -9.55000019       8.54801685E-02
  -9.53999996       8.74327645E-02
  -9.52999973       8.93773735E-02
  -9.52000046       9.13094655E-02
  -9.51000023       9.32250693E-02
  -9.50000000       9.51198265E-02
  -9.48999977       9.69903916E-02
  -9.47999954       9.88334268E-02
  -9.47000027      0.100645669    
  -9.46000004      0.102424495    
  -9.44999981      0.104167350    
  -9.43999958      0.105872117    
  -9.43000031      0.107537344    
  -9.42000008      0.109161995    
  -9.40999985      0.110745735    
  -9.39999962      0.112288848    
  -9.39000034      0.113792494    
  -9.38000011      0.115258813    
  -9.36999989      0.116690509    
  -9.35999966      0.118091390    
  -9.35000038      0.119466133    
  -9.34000015      0.120819777    
  -9.32999992      0.122158460    
  -9.31999969      0.123488083    
  -9.31000042      0.124815054    
  -9.30000019      0.126145378    
  -9.28999996      0.127484798    
  -9.27999973      0.128839180    
  -9.27000046      0.130213469    
  -9.26000023      0.131612748    
  -9.25000000      0.133041665    
  -9.23999977      0.134504765    
  -9.22999954      0.136006713    
  -9.22000027      0.137551978    
  -9.21000004      0.139144793    
  -9.19999981      0.140788823    
  -9.18999958      0.142487735    
  -9.18000031      0.144244418    
  -9.17000008      0.146060914    
  -9.15999985      0.147939056    
  -9.14999962      0.149879768    
  -9.14000034      0.151883408    
  -9.13000011      0.153949872    
  -9.11999989      0.156078368    
  -9.10999966      0.158267692    
  -9.10000038      0.160515994    
  -9.09000015      0.162820891    
  -9.07999992      0.165178999    
  -9.06999969      0.167586014    
  -9.06000042      0.170037016    
  -9.05000019      0.172526002    
  -9.03999996      0.175046548    
  -9.02999973      0.177591711    
  -9.02000046      0.180154085    
  -9.01000023      0.182726502    
  -9.00000000      0.185301840    
  -8.98999977      0.187873036    
  -8.97999954      0.190433487    
  -8.97000027      0.192976490    
  -8.96000004      0.195495769    
  -8.94999981      0.197984457    
  -8.93999958      0.200436816    
  -8.93000031      0.202846408    
  -8.92000008      0.205207601    
  -8.90999985      0.207515314    
  -8.89999962      0.209765136    
  -8.89000034      0.211952925    
  -8.88000011      0.214075893    
  -8.86999989      0.216131479    
  -8.85999966      0.218118221    
  -8.85000038      0.220035493    
  -8.84000015      0.221883237    
  -8.82999992      0.223662153    
  -8.81999969      0.225373894    
  -8.81000042      0.227021009    
  -8.80000019      0.228606373    
  -8.78999996      0.230133817    
  -8.77999973      0.231606767    
  -8.77000046      0.233029544    
  -8.76000023      0.234405905    
  -8.75000000      0.235740095    
  -8.73999977      0.237036347    
  -8.72999954      0.238298416    
  -8.72000027      0.239531144    
  -8.71000004      0.240739599    
  -8.69999981      0.241929159    
  -8.68999958      0.243105531    
  -8.68000031      0.244275287    
  -8.67000008      0.245445088    
  -8.65999985      0.246621326    
  -8.64999962      0.247810692    
  -8.64000034      0.249020234    
  -8.63000011      0.250255883    
  -8.61999989      0.251524359    
  -8.60999966      0.252832025    
  -8.60000038      0.254185021    
  -8.59000015      0.255588740    
  -8.57999992      0.257048219    
  -8.56999969      0.258568347    
  -8.56000042      0.260152817    
  -8.55000019      0.261805236    
  -8.53999996      0.263527989    
  -8.52999973      0.265324146    
  -8.52000046      0.267196238    
  -8.51000023      0.269145727    
  -8.50000000      0.271174610    
  -8.48999977      0.273284137    
  -8.47999954      0.275474608    
  -8.47000027      0.277745962    
  -8.46000004      0.280097753    
  -8.44999981      0.282528788    
  -8.43999958      0.285037637    
  -8.43000031      0.287622899    
  -8.42000008      0.290283173    
  -8.40999985      0.293017209    
  -8.39999962      0.295823514    
  -8.39000034      0.298701853    
  -8.38000011      0.301651359    
  -8.36999989      0.304671288    
  -8.35999966      0.307761133    
  -8.35000038      0.310920984    
  -8.34000015      0.314151227    
  -8.32999992      0.317452580    
  -8.31999969      0.320825726    
  -8.31000042      0.324271858    
  -8.30000019      0.327792615    
  -8.28999996      0.331389129    
  -8.27999973      0.335062534    
  -8.27000046      0.338813573    
  -8.26000023      0.342644006    
  -8.25000000      0.346553415    
  -8.23999977      0.350543112    
  -8.22999954      0.354613483    
  -8.22000027      0.358766824    
  -8.21000004      0.363002986    
  -8.19999981      0.367323965    
  -8.18999958      0.371731460    
  -8.18000031      0.376225442    
  -8.17000008      0.380807161    
  -8.15999985      0.385477275    
  -8.14999962      0.390236139    
  -8.14000034      0.395083457    
  -8.13000011      0.400020659    
  -8.11999989      0.405045807    
  -8.10999966      0.410159707    
  -8.10000038      0.415360689    
  -8.09000015      0.420647532    
  -8.07999992      0.426017076    
  -8.06999969      0.431468099    
  -8.06000042      0.436994791    
  -8.05000019      0.442593992    
  -8.03999996      0.448260069    
  -8.02999973      0.453987777    
  -8.02000046      0.459770769    
  -8.01000023      0.465601802    
  -8.00000000      0.471475005    
  -7.98999977      0.477380961    
  -7.98000002      0.483312219    
  -7.96999979      0.489260197    
  -7.96000004      0.495214939    
  -7.94999981      0.501168549    
  -7.94000006      0.507110655    
  -7.92999983      0.513032913    
  -7.92000008      0.518927515    
  -7.90999985      0.524785757    
  -7.90000010      0.530601144    
  -7.88999987      0.536365986    
  -7.88000011      0.542075157    
  -7.86999989      0.547722578    
  -7.86000013      0.553303361    
  -7.84999990      0.558812618    
  -7.84000015      0.564247966    
  -7.82999992      0.569607198    
  -7.82000017      0.574886858    
  -7.80999994      0.580087841    
  -7.80000019      0.585208416    
  -7.78999996      0.590248883    
  -7.78000021      0.595210850    
  -7.76999998      0.600095749    
  -7.76000023      0.604904294    
  -7.75000000      0.609639347    
  -7.73999977      0.614303589    
  -7.73000002      0.618900478    
  -7.71999979      0.623434305    
  -7.71000004      0.627911150    
  -7.69999981      0.632334530    
  -7.69000006      0.636712909    
  -7.67999983      0.641052306    
  -7.67000008      0.645359993    
  -7.65999985      0.649645567    
  -7.65000010      0.653914988    
  -7.63999987      0.658179343    
  -7.63000011      0.662447333    
  -7.61999989      0.666727722    
  -7.61000013      0.671032548    
  -7.59999990      0.675371170    
  -7.59000015      0.679754734    
  -7.57999992      0.684194207    
  -7.57000017      0.688699126    
  -7.55999994      0.693279862    
  -7.55000019      0.697947979    
  -7.53999996      0.702710986    
  -7.53000021      0.707581460    
  -7.51999998      0.712567389    
  -7.51000023      0.717678487    
  -7.50000000      0.722924650    
  -7.48999977      0.728312671    
  -7.48000002      0.733851969    
  -7.46999979      0.739548206    
  -7.46000004      0.745406806    
  -7.44999981      0.751434088    
  -7.44000006      0.757634044    