  -16.0000000       0.00000000    
  -15.9899998       0.00000000    
  -15.9799995       0.00000000    
  -15.9700003       0.00000000    
  -15.9600000       0.00000000    
  -15.9499998       0.00000000    
  -15.9399996       0.00000000    
  -15.9300003       0.00000000    
  -15.9200001       0.00000000    
  -15.9099998       0.00000000    
  -15.8999996       0.00000000    
  -15.8900003       0.00000000    
  -15.8800001      -2.80259693E-44
  -15.8699999      -2.49431127E-42
  -15.8599997      -7.37713577E-41
  -15.8500004      -1.13733447E-39
  -15.8400002      -1.15294396E-38
  -15.8299999      -8.65908340E-38
  -15.8199997      -5.16548434E-37
  -15.8100004      -2.55852634E-36
  -15.8000002      -1.08407527E-35
  -15.7900000      -4.01094198E-35
  -15.7799997      -1.31424057E-34
  -15.7700005      -3.84894664E-34
  -15.7600002      -1.01264467E-33
  -15.7500000      -2.39609573E-33
  -15.7399998      -5.08103245E-33
  -15.7299995      -9.55669340E-33
  -15.7200003      -1.55772720E-32
  -15.7100000      -2.08164327E-32
  -15.6999998      -1.90151992E-32
  -15.6899996       1.29724544E-33
  -15.6800003       5.50508572E-32
  -15.6700001       1.52381684E-31
  -15.6599998       2.81588097E-31
  -15.6499996       3.86593808E-31
  -15.6400003       3.52822937E-31
  -15.6300001       2.68913993E-32
  -15.6199999      -7.03094063E-31
  -15.6099997      -1.76365662E-30
  -15.6000004      -2.74259289E-30
  -15.5900002      -2.85389434E-30
  -15.5799999      -1.18465192E-30
  -15.5699997       2.69388849E-30
  -15.5600004       7.91967370E-30
  -15.5500002       1.18643551E-29
  -15.5400000       1.07430908E-29
  -15.5299997       1.79723532E-30
  -15.5200005      -1.34752864E-29
  -15.5100002      -2.70923544E-29
  -15.5000000      -2.64582932E-29
  -15.4899998      -2.45337125E-30
  -15.4799995       3.82314337E-29
  -15.4700003       6.48011810E-29
  -15.4600000       3.08656424E-29
  -15.4499998      -9.12737080E-29
  -15.4399996      -2.58464637E-28
  -15.4300003      -3.21500397E-28
  -15.4200001      -6.25670180E-29
  -15.4099998       6.50896047E-28
  -15.3999996       1.61980569E-27
  -15.3900003       2.11549634E-27
  -15.3800001       9.79325554E-28
  -15.3699999      -2.74080612E-27
  -15.3599997      -8.61668145E-27
  -15.3500004      -1.36153956E-26
  -15.3400002      -1.18695224E-26
  -15.3299999       3.28917711E-27
  -15.3199997       3.43846473E-26
  -15.3100004       7.30538878E-26
  -15.3000002       9.51830077E-26
  -15.2900000       6.36901088E-26
  -15.2799997      -5.56843046E-26
  -15.2700005      -2.65038233E-25
  -15.2600002      -5.00425502E-25
  -15.2500000      -6.13886971E-25
  -15.2399998      -3.98755925E-25
  -15.2299995       3.20604042E-25
  -15.2200003       1.53920124E-24
  -15.2100000       2.91040646E-24
  -15.1999998       3.66956321E-24
  -15.1899996       2.76216846E-24
  -15.1800003      -7.36638067E-25
  -15.1700001      -6.93684364E-24
  -15.1599998      -1.43905363E-23
  -15.1499996      -1.96929659E-23
  -15.1400003      -1.79287526E-23
  -15.1300001      -4.34293172E-24
  -15.1199999       2.28122023E-23
  -15.1099997       5.90091749E-23
  -15.1000004       9.12869272E-23
  -15.0900002       9.91897105E-23
  -15.0799999       6.04541788E-23
  -15.0699997      -3.83785248E-23
  -15.0600004      -1.88810727E-22
  -15.0500002      -3.50023768E-22
  -15.0400000      -4.48582510E-22
  -15.0299997      -3.94742286E-22
  -15.0200005      -1.17148217E-22
  -15.0100002       3.90910290E-22
  -15.0000000       1.03063120E-21
  -14.9899998       1.58602956E-21
  -14.9799995       1.76318354E-21
  -14.9700003       1.28707476E-21
  -14.9600000       3.56983793E-23
  -14.9499998      -1.83856764E-21
  -14.9399996      -3.86749305E-21
  -14.9300003      -5.35910286E-21
  -14.9200001      -5.62526922E-21
  -14.9099998      -4.26703421E-21
  -14.8999996      -1.36882892E-21
  -14.8900003       2.55532530E-21
  -14.8800001       6.91998621E-21
  -14.8699999       1.15792442E-20
  -14.8599997       1.70915726E-20
  -14.8500004       2.42279731E-20
  -14.8400002       3.24092466E-20
  -14.8299999       3.73864020E-20
  -14.8199997       2.94397005E-20
  -14.8100004      -5.76750067E-21
  -14.8000002      -8.14608178E-20
  -14.7900000      -1.98366919E-19
  -14.7799997      -3.30123207E-19
  -14.7700005      -4.12358428E-19
  -14.7600002      -3.46013217E-19
  -14.7500000      -2.55567386E-20
  -14.7399998       6.03719321E-19
  -14.7299995       1.46922466E-18
  -14.7200003       2.30445033E-18
  -14.7100000       2.63809735E-18
  -14.6999998       1.88821945E-18
  -14.6899996      -4.11458972E-19
  -14.6800003      -4.27782534E-18
  -14.6700001      -8.93765095E-18
  -14.6599998      -1.26532958E-17
  -14.6499996      -1.29196389E-17
  -14.6400003      -7.18296264E-18
  -14.6300001       5.93406592E-18
  -14.6199999       2.51796756E-17
  -14.6099997       4.55599865E-17
  -14.6000004       5.83187478E-17
  -14.5900002       5.26915473E-17
  -14.5799999       1.96792819E-17
  -14.5699997      -4.27278888E-17
  -14.5600004      -1.24452288E-16
  -14.5500002      -2.00767786E-16
  -14.5400000      -2.34885492E-16
  -14.5299997      -1.87393797E-16
  -14.5200005      -3.21100496E-17
  -14.5100002       2.25192100E-16
  -14.5000000       5.31840500E-16
  -14.4899998       7.85597171E-16
  -14.4799995       8.51763150E-16
  -14.4700003       6.02881471E-16
  -14.4600000      -2.43616436E-17
  -14.4499998      -9.70349086E-16
  -14.4399996      -2.01532707E-15
  -14.4300003      -2.78959650E-15
  -14.4200001      -2.84953255E-15
  -14.4099998      -1.81960782E-15
  -14.3999996       4.25965008E-16
  -14.3900003       3.59629268E-15
  -14.3800001       6.90426762E-15
  -14.3699999       9.14481588E-15
  -14.3599997       8.97018479E-15
  -14.3500004       5.34183276E-15
  -14.3400002      -1.93841838E-15
  -14.3299999      -1.17865829E-14
  -14.3199997      -2.16890223E-14
  -14.3100004      -2.80271818E-14
  -14.3000002      -2.69481381E-14
  -14.2900000      -1.56803806E-14
  -14.2799997       6.01000750E-15
  -14.2700005       3.46995754E-14
  -14.2600002       6.30640966E-14
  -14.2500000       8.09406185E-14
  -14.2399998       7.78186516E-14
  -14.2299995       4.64166229E-14
  -14.2200003      -1.35148071E-14
  -14.2100000      -9.24184774E-14
  -14.1999998      -1.70541234E-13
  -14.1899996      -2.20938190E-13
  -14.1800003      -2.16060731E-13
  -14.1700001      -1.36939098E-13
  -14.1599998       1.72703445E-14
  -14.1499996       2.22511761E-13
  -14.1400003       4.29095236E-13
  -14.1300001       5.69336841E-13
  -14.1199999       5.73847610E-13
  -14.1099997       3.93919841E-13
  -14.1000004       2.45730306E-14
  -14.0900002      -4.79194592E-13
  -14.0799999      -1.00054372E-12
  -14.0699997      -1.37856415E-12
  -14.0600004      -1.44609791E-12
  -14.0500002      -1.08153916E-12
  -14.0400000      -2.62091211E-13
  -14.0299997       8.98358211E-13
  -14.0200005       2.14361363E-12
  -14.0100002       3.11323645E-12
  -14.0000000       3.42493503E-12
  -13.9899998       2.78784374E-12
  -13.9799995       1.11950271E-12
  -13.9700003      -1.36943256E-12
  -13.9600000      -4.15837286E-12
  -13.9499998      -6.49163579E-12
  -13.9399996      -7.54607054E-12
  -13.9300003      -6.66371992E-12
  -13.9200001      -3.59422713E-12
  -13.9099998       1.32535291E-12
  -13.8999996       7.12416194E-12
  -13.8900003       1.23313495E-11
  -13.8800001       1.52924375E-11
  -13.8699999       1.46151459E-11
  -13.8599997       9.63975948E-12
  -13.8500004       7.98166221E-13
  -13.8400002      -1.02703419E-11
  -13.8299999      -2.09331632E-11
  -13.8199997      -2.81140822E-11
  -13.8100004      -2.90847103E-11
  -13.8000002      -2.23132970E-11
  -13.7900000      -8.13347566E-12
  -13.7799997       1.09959177E-11
  -13.7700005       3.07904743E-11
  -13.7600002       4.60125410E-11
  -13.7500000       5.17645024E-11
  -13.7399998       4.49029390E-11
  -13.7299995       2.51898294E-11
  -13.7200003      -4.18814462E-12
  -13.7100000      -3.69750862E-11
  -13.6999998      -6.51041998E-11
  -13.6899996      -8.06320496E-11
  -13.6800003      -7.78976328E-11
  -13.6700001      -5.53311633E-11
  -13.6599998      -1.63632632E-11
  -13.6499996       3.09266640E-11
  -13.6400003       7.54686175E-11
  -13.6300001       1.05847539E-10
  -13.6199999       1.13300556E-10
  -13.6099997       9.42649500E-11
  -13.6000004       5.17220156E-11
  -13.5900002      -5.14610793E-12
  -13.5799999      -6.30302754E-11
  -13.5699997      -1.07846905E-10
  -13.5600004      -1.28505789E-10
  -13.5500002      -1.20034732E-10
  -13.5400000      -8.51039517E-11
  -13.5299997      -3.33928579E-11
  -13.5200005       2.11504581E-11
  -13.5100002       6.44535744E-11
  -13.5000000       8.66630379E-11
  -13.4899998       8.53048326E-11
  -13.4799995       6.61238772E-11
  -13.4700003       4.11029648E-11
  -13.4600000       2.40456075E-11
  -13.4499998       2.49843583E-11
  -13.4399996       4.52629496E-11
  -13.4300003       7.51990067E-11
  -13.4200001       9.56627277E-11
  -13.4099998       8.37829875E-11
  -13.3999996       2.15935915E-11
  -13.3900003      -9.48363402E-11
  -13.3800001      -2.48937315E-10
  -13.3699999      -4.02775424E-10
  -13.3599997      -5.03489805E-10
  -13.3500004      -4.96685859E-10
  -13.3400002      -3.44069800E-10
  -13.3299999      -4.06186751E-11
  -13.3199997       3.74319659E-10
  -13.3100004       8.16920753E-10
  -13.3000002       1.17232757E-09
  -13.2900000       1.32056188E-09
  -13.2799997       1.16980059E-09
  -13.2700005       6.88669621E-10
  -13.2600002      -7.21148072E-11
  -13.2500000      -9.77093739E-10
  -13.2399998      -1.82667570E-09
  -13.2299995      -2.39925302E-09
  -13.2200003      -2.50655519E-09
  -13.2100000      -2.04880424E-09
  -13.1999998      -1.05420939E-09
  -13.1899996       3.10522164E-10
  -13.1800003       1.76565840E-09
  -13.1700001       2.97766323E-09
  -13.1599998       3.64005293E-09
  -13.1499996       3.55610674E-09
  -13.1400003       2.70064238E-09
  -13.1300001       1.24126420E-09
  -13.1199999      -4.91310048E-10
  -13.1099997      -2.08090079E-09
  -13.1000004      -3.13454684E-09
  -13.0900002      -3.39443962E-09
  -13.0799999      -2.82127743E-09
  -13.0699997      -1.62187830E-09
  -13.0600004      -2.06858003E-10
  -13.0500002       9.17193932E-10
  -13.0400000       1.29715849E-09
  -13.0299997       6.85648427E-10
  -13.0200005      -8.48269177E-10
  -13.0100002      -2.88784219E-09
  -13.0000000      -4.73692507E-09
  -12.9899998      -5.58217117E-09
  -12.9799995      -4.71633754E-09
  -12.9700003      -1.76875548E-09
  -12.9600000       3.11981196E-09
  -12.9499998       9.23328880E-09
  -12.9399996       1.53595359E-08
  -12.9300003       2.00104289E-08
  -12.9200001       2.17430660E-08
  -12.9099998       1.95116776E-08
  -12.8999996       1.29648488E-08
  -12.8900003       2.60868060E-09
  -12.8800001      -1.02159357E-08
  -12.8699999      -2.35503403E-08
  -12.8599997      -3.51887692E-08
  -12.8500004      -4.31199645E-08
  -12.8400002      -4.59339304E-08
  -12.8299999      -4.30916351E-08
  -12.8199997      -3.49868223E-08
  -12.8100004      -2.27817676E-08
  -12.8000002      -8.06003797E-09
  -12.7900000       7.60744445E-09
  -12.7799997       2.30568595E-08
  -12.7700005       3.77640212E-08
  -12.7600002       5.18320817E-08
  -12.7500000       6.57180905E-08
  -12.7399998       7.97599284E-08
  -12.7299995       9.36330480E-08
  -12.7200003       1.05903993E-07
  -12.7100000       1.13842660E-07
  -12.6999998       1.13603612E-07
  -12.6899996       1.00800662E-07
  -12.6800003       7.13975155E-08
  -12.6700001       2.27466206E-08
  -12.6599998      -4.54448248E-08
  -12.6499996      -1.30444690E-07
  -12.6400003      -2.26290908E-07
  -12.6300001      -3.24122993E-07
  -12.6199999      -4.13006006E-07
  -12.6099997      -4.81097629E-07
  -12.6000004      -5.16942691E-07
  -12.5900002      -5.10672464E-07
  -12.5799999      -4.54934479E-07
  -12.5699997      -3.45474433E-07
  -12.5600004      -1.81402356E-07
  -12.5500002       3.47337092E-08
  -12.5400000       2.96897127E-07
  -12.5299997       5.95386155E-07
  -12.5200005       9.16463705E-07
  -12.5100002       1.24185158E-06
  -12.5000000       1.54827512E-06
  -12.4899998       1.80733878E-06
  -12.4799995       1.98604107E-06
  -12.4700003       2.04816752E-06
  -12.4600000       1.95665439E-06
  -12.4499998       1.67680878E-06
  -12.4399996       1.18005016E-06
  -12.4300003       4.47661876E-07
  -12.4200001      -5.26036729E-07
  -12.4099998      -1.73165472E-06
  -12.3999996      -3.14422300E-06
  -12.3900003      -4.72434976E-06
  -12.3800001      -6.42086161E-06
  -12.3699999      -8.17449381E-06
  -12.3599997      -9.92197147E-06
  -12.3500004      -1.15998273E-05
  -12.3400002      -1.31473462E-05
  -12.3299999      -1.45083386E-05
  -12.3199997      -1.56317001E-05
  -12.3100004      -1.64710873E-05
  -12.3000002      -1.69842642E-05
  -12.2900000      -1.71327065E-05
  -12.2799997      -1.68820570E-05
  -12.2700005      -1.62036758E-05
  -12.2600002      -1.50772603E-05
  -12.2500000      -1.34940719E-05
  -12.2399998      -1.14600853E-05
  -12.2299995      -8.99829047E-06
  -12.2200003      -6.14945520E-06
  -12.2100000      -2.97096631E-06
  -12.1999998       4.66180524E-07
  -12.1899996       4.08181404E-06
  -12.1800003       7.79163565E-06
  -12.1700001       1.15119683E-05
  -12.1599998       1.51635004E-05
  -12.1499996       1.86734742E-05
  -12.1400003       2.19763788E-05
  -12.1300001       2.50135326E-05
  -12.1199999       2.77322761E-05
  -12.1099997       3.00856354E-05
  -12.1000004       3.20329491E-05
  -12.0900002       3.35417899E-05
  -12.0799999       3.45908556E-05
  -12.0699997       3.51731323E-05
  -12.0600004       3.52983625E-05
  -12.0500002       3.49937691E-05
  -12.0400000       3.43024185E-05
  -12.0299997       3.32790332E-05
  -12.0200005       3.19836072E-05
  -12.0100002       3.04738969E-05
  -12.0000000       2.87981020E-05
  -11.9899998       2.69890206E-05
  -11.9799995       2.50608791E-05
  -11.9700003       2.30093792E-05
  -11.9600000       2.08148467E-05
  -11.9499998       1.84478686E-05
  -11.9399996       1.58762305E-05
  -11.9300003       1.30718417E-05
  -11.9200001       1.00164752E-05
  -11.9099998       6.70542977E-06
  -11.8999996       3.14884801E-06
  -11.8900003      -6.29197530E-07
  -11.8800001      -4.59315879E-06
  -11.8699999      -8.69925134E-06
  -11.8599997      -1.28985721E-05
  -11.8500004      -1.71395350E-05
  -11.8400002      -2.13692783E-05
  -11.8299999      -2.55341529E-05
  -11.8199997      -2.95796635E-05
  -11.8100004      -3.34503966E-05
  -11.8000002      -3.70904854E-05
  -11.7900000      -4.04449165E-05
  -11.7799997      -4.34616995E-05
  -11.7700005      -4.60947631E-05
  -11.7600002      -4.83068252E-05
  -11.7500000      -5.00716669E-05
  -11.7399998      -5.13752166E-05
  -11.7299995      -5.22150040E-05
  -11.7200003      -5.25979340E-05
  -11.7100000      -5.25368268E-05
  -11.6999998      -5.20464091E-05
  -11.6899996      -5.11396611E-05
  -11.6800003      -4.98254594E-05
  -11.6700001      -4.81079551E-05
  -11.6599998      -4.59880575E-05
  -11.6499996      -4.34665199E-05
  -11.6400003      -4.05479150E-05
  -11.6300001      -3.72444119E-05
  -11.6199999      -3.35782934E-05
  -11.6099997      -2.95825084E-05
  -11.6000004      -2.52988975E-05
  -11.5900002      -2.07745234E-05
  -11.5799999      -1.60569052E-05
  -11.5699997      -1.11893560E-05
  -11.5600004      -6.20757191E-06
  -11.5500002      -1.13838382E-06
  -11.5400000       3.99906412E-06
  -11.5299997       9.18995374E-06
  -11.5200005       1.44192036E-05
  -11.5100002       1.96667952E-05
  -11.5000000       2.49042878E-05
  -11.4899998       3.00932170E-05
  -11.4799995       3.51858798E-05
  -11.4700003       4.01280449E-05
  -11.4600000       4.48628780E-05
  -11.4499998       4.93349471E-05
  -11.4399996       5.34933715E-05
  -11.4300003       5.72935460E-05
  -11.4200001       6.06972899E-05
  -11.4099998       6.36719633E-05
  -11.3999996       6.61893646E-05
  -11.3900003       6.82250829E-05
  -11.3800001       6.97593423E-05
  -11.3699999       7.07789804E-05
  -11.3599997       7.12804758E-05
  -11.3500004       7.12730616E-05
  -11.3400002       7.07806976E-05
  -11.3299999       6.98421936E-05
  -11.3199997       6.85087653E-05
  -11.3100004       6.68393259E-05
  -11.3000002       6.48941204E-05
  -11.2900000       6.27281624E-05
  -11.2799997       6.03856715E-05
  -11.2700005       5.78967702E-05
  -11.2600002       5.52768979E-05
  -11.2500000       5.25293217E-05
  -11.2399998       4.96494285E-05
  -11.2299995       4.66302372E-05
  -11.2200003       4.34674184E-05
  -11.2100000       4.01629186E-05
  -11.1999998       3.67266875E-05
  -11.1899996       3.31762567E-05
  -11.1800003       2.95348818E-05
  -11.1700001       2.58291111E-05
  -11.1599998       2.20867896E-05
  -11.1499996       1.83362135E-05
  -11.1400003       1.46068887E-05
  -11.1300001       1.09317070E-05
  -11.1199999       7.34989044E-06
  -11.1099997       3.90976265E-06
  -11.1000004       6.70218981E-07
  -11.0900002      -2.29989337E-06
  -11.0799999      -4.92511072E-06
  -11.0699997      -7.12924520E-06
  -11.0600004      -8.84322617E-06
  -11.0500002      -1.00136913E-05
  -11.0400000      -1.06108337E-05
  -11.0299997      -1.06339303E-05
  -11.0200005      -1.01133464E-05
  -11.0100002      -9.10827748E-06
  -11.0000000      -7.70036968E-06
  -10.9899998      -5.98417455E-06
  -10.9799995      -4.05598666E-06
  -10.9700003      -2.00314207E-06
  -10.9600000       1.04240527E-07
  -10.9499998       2.21769619E-06
  -10.9399996       4.31028820E-06
  -10.9300003       6.37245330E-06
  -10.9200001       8.40494795E-06
  -10.9099998       1.04108958E-05
  -10.8999996       1.23888203E-05
  -10.8900003       1.43282123E-05
  -10.8800001       1.62083343E-05
  -10.8699999       1.80000006E-05
  -10.8599997       1.96692308E-05
  -10.8500004       2.11813094E-05
  -10.8400002       2.25037238E-05
  -10.8299999       2.36071191E-05
  -10.8199997       2.44641597E-05
  -10.8100004       2.50470894E-05
  -10.8000002       2.53252601E-05
  -10.7900000       2.52641439E-05
  -10.7799997       2.48267916E-05
  -10.7700005       2.39780275E-05
  -10.7600002       2.26907014E-05
  -10.7500000       2.09526097E-05
  -10.7399998       1.87722853E-05
  -10.7299995       1.61820280E-05
  -10.7200003       1.32372516E-05
  -10.7100000       1.00119332E-05
  -10.6999998       6.59108582E-06
  -10.6899996       3.06174888E-06
  -10.6800003      -4.95709173E-07
  -10.6700001      -4.01424677E-06
  -10.6599998      -7.44368390E-06
  -10.6499996      -1.07506066E-05
  -10.6400003      -1.39149943E-05
  -10.6300001      -1.69244086E-05
  -10.6199999      -1.97670324E-05
  -10.6099997      -2.24248124E-05
  -10.6000004      -2.48679971E-05
  -10.5900002      -2.70519049E-05
  -10.5799999      -2.89166037E-05
  -10.5699997      -3.03895995E-05
  -10.5600004      -3.13914206E-05
  -10.5500002      -3.18433813E-05
  -10.5400000      -3.16766927E-05
  -10.5299997      -3.08416020E-05
  -10.5200005      -2.93153571E-05
  -10.5100002      -2.71076951E-05
  -10.5000000      -2.42631195E-05
  -10.4899998      -2.08594174E-05
  -10.4799995      -1.70026415E-05
  -10.4700003      -1.28192860E-05
  -10.4600000      -8.44673741E-06
  -10.4499998      -4.02320802E-06
  -10.4399996       3.21471077E-07
  -10.4300003       4.47325419E-06
  -10.4200001       8.33867307E-06
  -10.4099998       1.18467942E-05
  -10.3999996       1.49482803E-05
  -10.3900003       1.76120138E-05
  -10.3800001       1.98200123E-05
  -10.3699999       2.15616001E-05
  -10.3599997       2.28280060E-05
  -10.3500004       2.36086235E-05
  -10.3400002       2.38898756E-05
  -10.3299999       2.36572978E-05
  -10.3199997       2.29006691E-05
  -10.3100004       2.16213484E-05
  -10.3000002       1.98401376E-05
  -10.2900000       1.76036956E-05
  -10.2799997       1.49875113E-05
  -10.2700005       1.20940667E-05
  -10.2600002       9.04575336E-06
  -10.2500000       5.97337930E-06
  -10.2399998       3.00228021E-06
  -10.2299995       2.38546505E-07
  -10.2200003      -2.24183555E-06
  -10.2100000      -4.39884843E-06
  -10.1999998      -6.22840889E-06
  -10.1899996      -7.75670014E-06
  -10.1800003      -9.03048931E-06
  -10.1700001      -1.01057076E-05
  -10.1599998      -1.10367291E-05
  -10.1499996      -1.18682692E-05
  -10.1400003      -1.26308942E-05
  -10.1300001      -1.33401809E-05
  -10.1199999      -1.39985368E-05
  -10.1099997      -1.45983668E-05
  -10.1000004      -1.51253016E-05
  -10.0900002      -1.55606140E-05
  -10.0799999      -1.58826479E-05
  -10.0699997      -1.60678392E-05
  -10.0600004      -1.60921536E-05
  -10.0500002      -1.59338160E-05
  -10.0400000      -1.55776961E-05
  -10.0299997      -1.50208989E-05
  -10.0200005      -1.42783092E-05
  -10.0100002      -1.33862331E-05
  -10.0000000      -1.24021362E-05
  -9.98999977      -1.13991082E-05
  -9.97999954      -1.04547416E-05
  -9.97000027      -9.63569528E-06
  -9.96000004      -8.98075996E-06
  -9.94999981      -8.48622494E-06
  -9.93999958      -8.09761150E-06
  -9.93000031      -7.71093164E-06
  -9.92000008      -7.18466845E-06
  -9.90999985      -6.36125560E-06
  -9.89999962      -5.09423353E-06
  -9.89000034      -3.27550947E-06
  -9.88000011      -8.56620318E-07
  -9.86999989       2.14100510E-06
  -9.85999966       5.62932973E-06
  -9.85000038       9.46984437E-06
  -9.84000015       1.34986776E-05
  -9.82999992       1.75546647E-05
  -9.81999969       2.15038654E-05
  -9.81000042       2.52550763E-05
  -9.80000019       2.87637504E-05
  -9.78999996       3.20248655E-05
  -9.77999973       3.50579649E-05
  -9.77000046       3.78894911E-05
  -9.76000023       4.05372884E-05
  -9.75000000       4.30007494E-05
  -9.73999977       4.52579443E-05
  -9.72999954       4.72685206E-05
  -9.72000027       4.89800186E-05
  -9.71000004       5.03346928E-05
  -9.69999981       5.12750667E-05
  -9.68999958       5.17476255E-05
  -9.68000031       5.17055341E-05
  -9.67000008       5.11117469E-05
  -9.65999985       4.99434718E-05
  -9.64999962       4.81978968E-05
  -9.64000034       4.58976938E-05
  -9.63000011       4.30942382E-05
  -9.61999989       3.98665761E-05
  -9.60999966       3.63155923E-05
  -9.60000038       3.25544970E-05
  -9.59000015       2.86984960E-05
  -9.57999992       2.48567794E-05
  -9.56999969       2.11294609E-05
  -9.56000042       1.76098420E-05
  -9.55000019       1.43902898E-05
  -9.53999996       1.15679086E-05
  -9.52999973       9.24618598E-06
  -9.52000046       7.52986398E-06
  -9.51000023       6.51353457E-06
  -9.50000000       6.26701330E-06
  -9.48999977       6.82308064E-06
  -9.47999954       8.17287219E-06
  -9.47000027       1.02723561E-05
  -9.46000004       1.30589642E-05
  -9.44999981       1.64735284E-05
  -9.43999958       2.04798653E-05
  -9.43000031       2.50738831E-05
  -9.42000008       3.02773897E-05
  -9.40999985       3.61163802E-05
  -9.39999962       4.25898361E-05
  -9.39000034       4.96384564E-05
  -9.38000011       5.71243581E-05
  -9.36999989       6.48295681E-05
  -9.35999966       7.24756464E-05
  -9.35000038       7.97600296E-05
  -9.34000015       8.63988171E-05
  -9.32999992       9.21642786E-05
  -9.31999969       9.69061366E-05
  -9.31000042       1.00552046E-04
  -9.30000019       1.03089042E-04
  -9.28999996       1.04533923E-04
  -9.27999973       1.04904124E-04
  -9.27000046       1.04198865E-04
  -9.26000023       1.02396749E-04
  -9.25000000       9.94690490E-05
  -9.23999977       9.54020143E-05
  -9.22999954       9.02184038E-05
  -9.22000027       8.39890345E-05
  -9.21000004       7.68289101E-05
  -9.19999981       6.88783839E-05
  -9.18999958       6.02756954E-05
  -9.18000031       5.11299077E-05
  -9.17000008       4.15032227E-05
  -9.15999985       3.14084173E-05
  -9.14999962       2.08212623E-05
  -9.14000034       9.70354904E-06
  -9.13000011      -1.97129452E-06
  -9.11999989      -1.41976680E-05
  -9.10999966      -2.69270913E-05
  -9.10000038      -4.00684075E-05
  -9.09000015      -5.34954124E-05
  -9.07999992      -6.70569134E-05
  -9.06999969      -8.05847594E-05
  -9.06000042      -9.38970843E-05
  -9.05000019      -1.06798689E-04
  -9.03999996      -1.19081495E-04
  -9.02999973      -1.30529952E-04
  -9.02000046      -1.40933655E-04
  -9.01000023      -1.50106483E-04
  -9.00000000      -1.57907853E-04
  -8.98999977      -1.64259298E-04
  -8.97999954      -1.69150968E-04
  -8.97000027      -1.72633183E-04
  -8.96000004      -1.74795117E-04
  -8.94999981      -1.75735026E-04
  -8.93999958      -1.75531575E-04
  -8.93000031      -1.74223402E-04
  -8.92000008      -1.71803971E-04
  -8.90999985      -1.68232102E-04
  -8.89999962      -1.63454737E-04
  -8.89000034      -1.57434042E-04
  -8.88000011      -1.50169959E-04
  -8.86999989      -1.41711411E-04
  -8.85999966      -1.32152782E-04
  -8.85000038      -1.21617632E-04
  -8.84000015      -1.10235327E-04
  -8.82999992      -9.81185221E-05
  -8.81999969      -8.53483070E-05
  -8.81000042      -7.19716336E-05
  -8.80000019      -5.80105843E-05
  -8.78999996      -4.34797803E-05
  -8.77999973      -2.84056641E-05
  -8.77000046      -1.28409401E-05
  -8.76000023       3.13033343E-06
  -8.75000000       1.93977648E-05
  -8.73999977       3.58382276E-05
  -8.72999954       5.23321251E-05
  -8.72000027       6.87765496E-05
  -8.71000004       8.50912911E-05
  -8.69999981       1.01214551E-04
  -8.68999958       1.17091186E-04
  -8.68000031       1.32657267E-04
  -8.67000008       1.47827275E-04
  -8.65999985       1.62489028E-04
  -8.64999962       1.76509508E-04
  -8.64000034       1.89749786E-04
  -8.63000011       2.02084848E-04
  -8.61999989       2.13420542E-04
  -8.60999966       2.23701849E-04
  -8.60000038       2.32907449E-04
  -8.59000015       2.41031681E-04
  -8.57999992       2.48059892E-04
  -8.56999969       2.53945182E-04
  -8.56000042       2.58597458E-04
  -8.55000019       2.61890556E-04
  -8.53999996       2.63688504E-04
  -8.52999973       2.63885420E-04
  -8.52000046       2.62446643E-04
  -8.51000023       2.59438879E-04
  -8.50000000       2.55036488E-04
  -8.48999977       2.49501871E-04
  -8.47999954       2.43142349E-04
  -8.47000027       2.36258391E-04
  -8.46000004       2.29097495E-04
  -8.44999981       2.21830400E-04
  -8.43999958       2.14556538E-04
  -8.43000031       2.07336969E-04
  -8.42000008       2.00241411E-04
  -8.40999985       1.93392843E-04
  -8.39999962       1.86989360E-04
  -8.39000034       1.81295312E-04
  -8.38000011       1.76600428E-04
  -8.36999989       1.73161374E-04
  -8.35999966       1.71143911E-04
  -8.35000038       1.70588784E-04
  -8.34000015       1.71411870E-04
  -8.32999992       1.73442051E-04
  -8.31999969       1.76481146E-04
  -8.31000042       1.80365925E-04
  -8.30000019       1.85008903E-04
  -8.28999996       1.90401464E-04
  -8.27999973       1.96578796E-04
  -8.27000046       2.03558535E-04
  -8.26000023       2.11279461E-04
  -8.25000000       2.19563299E-04
  -8.23999977       2.28118719E-04
  -8.22999954       2.36590524E-04
  -8.22000027       2.44637893E-04
  -8.21000004       2.52016587E-04
  -8.19999981       2.58634303E-04
  -8.18999958       2.64556962E-04
  -8.18000031       2.69963115E-04
  -8.17000008       2.75058119E-04
  -8.15999985       2.79978616E-04
  -8.14999962       2.84721027E-04
  -8.14000034       2.89119460E-04
  -8.13000011       2.92882120E-04
  -8.11999989       2.95675709E-04
  -8.10999966       2.97227467E-04
  -8.10000038       2.97409104E-04
  -8.09000015       2.96273327E-04
  -8.07999992       2.94028752E-04
  -8.06999969       2.90961878E-04
  -8.06000042       2.87333707E-04
  -8.05000019       2.83287576E-04
  -8.03999996       2.78799620E-04
  -8.02999973       2.73690675E-04
  -8.02000046       2.67692958E-04
  -8.01000023       2.60547502E-04
  -8.00000000       2.52096361E-04
  -7.98999977       2.42335824E-04
  -7.98000002       2.31410726E-04
  -7.96999979       2.19553098E-04
  -7.96000004       2.06986049E-04
  -7.94999981       1.93829939E-04
  -7.94000006       1.80045361E-04
  -7.92999983       1.65434190E-04
  -7.92000008       1.49701184E-04
  -7.90999985       1.32554705E-04
  -7.90000010       1.13812443E-04
  -7.88999987       9.34753625E-05
  -7.88000011       7.17453950E-05
  -7.86999989       4.89806625E-05
  -7.86000013       2.56058338E-05
  -7.84999990       2.01001217E-06
  -7.84000015      -2.15321161E-05
  -7.82999992      -4.48872015E-05
  -7.82000017      -6.80306475E-05
  -7.80999994      -9.09681548E-05
  -7.80000019      -1.13641210E-04
  -7.78999996      -1.35854032E-04
  -7.78000021      -1.57250688E-04
  -7.76999998      -1.77353882E-04
  -7.76000023      -1.95654386E-04
  -7.75000000      -2.11720660E-04
  -7.73999977      -2.25290583E-04
  -7.73000002      -2.36312495E-04
  -7.71999979      -2.44919007E-04
  -7.71000004      -2.51342281E-04
  -7.69999981      -2.55798019E-04
  -7.69000006      -2.58380227E-04
  -7.67999983      -2.59002962E-04
  -7.67000008      -2.57412554E-04
  -7.65999985      -2.53267935E-04
  -7.65000010      -2.46263517E-04
  -7.63999987      -2.36253982E-04
  -7.63000011      -2.23338182E-04
  -7.61999989      -2.07872785E-04
  -7.61000013      -1.90410647E-04
  -7.59999990      -1.71582113E-04
  -7.59000015      -1.51959830E-04
  -7.57999992      -1.31950772E-04
  -7.57000017      -1.11750036E-04
  -7.55999994      -9.13705662E-05
  -7.55000019      -7.07332583E-05
  -7.53999996      -4.97836772E-05
  -7.53000021      -2.85902861E-05
  -7.51999998      -7.38708923E-06
  -7.51000023       1.34569591E-05
  -7.50000000       3.35311342E-05
  -7.48999977       5.25052710E-05
  -7.48000002       7.02360267E-05
  -7.46999979       8.68158750E-05
  -7.46000004       1.02544320E-04
  -7.44999981       1.17827723E-04
  -7.44000006       1.33040652E-04