  -16.0000000       0.00000000    
  -15.9899998       0.00000000    
  -15.9799995       0.00000000    
  -15.9700003       0.00000000    
  -15.9600000       0.00000000    
  -15.9499998       0.00000000    
  -15.9399996       0.00000000    
  -15.9300003       0.00000000    
  -15.9200001       0.00000000    
  -15.9099998       0.00000000    
  -15.8999996       0.00000000    
  -15.8900003       0.00000000    
  -15.8800001       0.00000000    
  -15.8699999       0.00000000    
  -15.8599997      -0.00000000    
  -15.8500004      -1.40129846E-45
  -15.8400002      -1.26116862E-44
  -15.8299999      -1.38728548E-43
  -15.8199997      -1.22893875E-42
  -15.8100004      -8.71187255E-42
  -15.8000002      -5.13309640E-41
  -15.7900000      -2.58484916E-40
  -15.7799997      -1.13500411E-39
  -15.7700005      -4.41342875E-39
  -15.7600002      -1.53765475E-38
  -15.7500000      -4.84285498E-38
  -15.7399998      -1.38789140E-37
  -15.7299995      -3.63579622E-37
  -15.7200003      -8.72939618E-37
  -15.7100000      -1.92212823E-36
  -15.6999998      -3.87438748E-36
  -15.6899996      -7.11163966E-36
  -15.6800003      -1.17588164E-35
  -15.6700001      -1.71349955E-35
  -15.6599998      -2.09531868E-35
  -15.6499996      -1.85638927E-35
  -15.6400003      -2.97511565E-36
  -15.6300001       3.31933058E-35
  -15.6199999       9.26807788E-35
  -15.6099997       1.65438306E-34
  -15.6000004       2.19962888E-34
  -15.5900002       2.00542642E-34
  -15.5799999       3.98469023E-35
  -15.5699997      -3.05307911E-34
  -15.5600004      -7.97466388E-34
  -15.5500002      -1.26358415E-33
  -15.5400000      -1.38610262E-33
  -15.5299997      -7.91799862E-34
  -15.5200005       7.39875705E-34
  -15.5100002       3.00595377E-33
  -15.5000000       5.20731361E-33
  -15.4899998       6.09164940E-33
  -15.4799995       4.53665147E-33
  -15.4700003       3.95538237E-34
  -15.4600000      -4.99379902E-33
  -15.4499998      -9.45823105E-33
  -15.4399996      -1.21783419E-32
  -15.4300003      -1.64031141E-32
  -15.4200001      -2.97317110E-32
  -15.4099998      -5.80051390E-32
  -15.3999996      -9.11198258E-32
  -15.3900003      -8.63054476E-32
  -15.3800001       3.48336710E-32
  -15.3699999       3.51787726E-31
  -15.3599997       8.57148475E-31
  -15.3500004       1.33314150E-30
  -15.3400002       1.26946591E-30
  -15.3299999      -4.38339022E-32
  -15.3199997      -3.11521877E-30
  -15.3100004      -7.53253771E-30
  -15.3000002      -1.11906265E-29
  -15.2900000      -1.00801059E-29
  -15.2799997       5.44124768E-31
  -15.2700005       2.30668825E-29
  -15.2600002       5.29553517E-29
  -15.2500000       7.48906225E-29
  -15.2399998       6.33968952E-29
  -15.2299995      -7.94104024E-30
  -15.2200003      -1.47237236E-28
  -15.2100000      -3.19938564E-28
  -15.1999998      -4.32813996E-28
  -15.1899996      -3.46169200E-28
  -15.1800003       6.84439632E-29
  -15.1700001       8.25472833E-28
  -15.1599998       1.71115370E-27
  -15.1499996       2.22927508E-27
  -15.1400003       1.69764292E-27
  -15.1300001      -4.42705379E-28
  -15.1199999      -4.13981453E-27
  -15.1099997      -8.25099819E-27
  -15.1000004      -1.04046031E-26
  -15.0900002      -7.57445367E-27
  -15.0799999       2.44688340E-27
  -15.0699997       1.89455947E-26
  -15.0600004       3.64523873E-26
  -15.0500002       4.45875924E-26
  -15.0400000       3.09680753E-26
  -15.0299997      -1.23964977E-26
  -15.0200005      -8.07291839E-26
  -15.0100002      -1.50026159E-25
  -15.0000000      -1.78012922E-25
  -14.9899998      -1.17272333E-25
  -14.9799995       5.89912280E-26
  -14.9700003       3.25679450E-25
  -14.9600000       5.84565850E-25
  -14.9499998       6.73187963E-25
  -14.9399996       4.19175096E-25
  -14.9300003      -2.62113506E-25
  -14.9200001      -1.25658935E-24
  -14.9099998      -2.18515674E-24
  -14.8999996      -2.45179961E-24
  -14.8900003      -1.45294423E-24
  -14.8800001       1.07050791E-24
  -14.8699999       4.65374055E-24
  -14.8599997       7.90661796E-24
  -14.8500004       8.72241294E-24
  -14.8400002       5.03662957E-24
  -14.8299999      -3.95512375E-24
  -14.8199997      -1.65324451E-23
  -14.8100004      -2.78328776E-23
  -14.8000002      -3.06341321E-23
  -14.7900000      -1.79540466E-23
  -14.7799997       1.28829955E-23
  -14.7700005       5.60951669E-23
  -14.7600002       9.54608028E-23
  -14.7500000       1.06893328E-22
  -14.7399998       6.68652450E-23
  -14.7299995      -3.44620576E-23
  -14.7200003      -1.79751525E-22
  -14.7100000      -3.17681153E-22
  -14.6999998      -3.70279293E-22
  -14.6899996      -2.58590094E-22
  -14.6800003       5.64569638E-23
  -14.6700001       5.30761874E-22
  -14.6599998       1.01241464E-21
  -14.6499996       1.25863002E-21
  -14.6400003       1.00830772E-21
  -14.6300001       1.03594419E-22
  -14.6199999      -1.37429869E-21
  -14.6099997      -3.01504183E-21
  -14.6000004      -4.10333888E-21
  -14.5900002      -3.80474042E-21
  -14.5799999      -1.50598671E-21
  -14.5699997       2.77543188E-21
  -14.5600004       8.07304448E-21
  -14.5500002       1.24404305E-20
  -14.5400000       1.33628677E-20
  -14.5299997       8.63477928E-21
  -14.5200005      -2.47807842E-21
  -14.5100002      -1.81876418E-20
  -14.5000000      -3.37711801E-20
  -14.4899998      -4.22762188E-20
  -14.4799995      -3.65370006E-20
  -14.4700003      -1.22027849E-20
  -14.4600000       2.90958034E-20
  -14.4499998       7.77491098E-20
  -14.4399996       1.16695565E-19
  -14.4300003       1.25316493E-19
  -14.4200001       8.64646466E-20
  -14.4099998      -5.01128472E-21
  -14.3999996      -1.35148827E-19
  -14.3900003      -2.68617831E-19
  -14.3800001      -3.54132331E-19
  -14.3699999      -3.38303998E-19
  -14.3599997      -1.85643783E-19
  -14.3500004       1.00830454E-19
  -14.3400002       4.66118912E-19
  -14.3299999       8.04583589E-19
  -14.3199997       9.80771509E-19
  -14.3100004       8.68610160E-19
  -14.3000002       4.00677991E-19
  -14.2900000      -3.87094496E-19
  -14.2799997      -1.33284253E-18
  -14.2700005      -2.16329464E-18
  -14.2600002      -2.55173928E-18
  -14.2500000      -2.21251871E-18
  -14.2399998      -1.01059850E-18
  -14.2299995       9.46181400E-19
  -14.2200003       3.26758097E-18
  -14.2100000       5.32159575E-18
  -14.1999998       6.36395706E-18
  -14.1899996       5.73935298E-18
  -14.1800003       3.11087491E-18
  -14.1700001      -1.34477813E-18
  -14.1599998      -6.84321144E-18
  -14.1499996      -1.20523607E-17
  -14.1400003      -1.53278702E-17
  -14.1300001      -1.51009878E-17
  -14.1199999      -1.03496152E-17
  -14.1099997      -1.04460741E-18
  -14.1000004       1.15554716E-17
  -14.0900002       2.48795795E-17
  -14.0799999       3.53689228E-17
  -14.0699997       3.91625021E-17
  -14.0600004       3.30668428E-17
  -14.0500002       1.56380000E-17
  -14.0400000      -1.18762365E-17
  -14.0299997      -4.50295089E-17
  -14.0200005      -7.63814673E-17
  -14.0100002      -9.65904558E-17
  -14.0000000      -9.63891002E-17
  -13.9899998      -6.91891518E-17
  -13.9799995      -1.37974115E-17
  -13.9700003       6.34867142E-17
  -13.9600000       1.48197295E-16
  -13.9499998       2.19119734E-16
  -13.9399996       2.52084946E-16
  -13.9300003       2.25828036E-16
  -13.9200001       1.28892329E-16
  -13.9099998      -3.40734322E-17
  -13.8999996      -2.38620272E-16
  -13.8900003      -4.41262449E-16
  -13.8800001      -5.85829903E-16
  -13.8699999      -6.15267104E-16
  -13.8599997      -4.87137542E-16
  -13.8500004      -1.89549880E-16
  -13.8400002       2.46810313E-16
  -13.8299999       7.44951183E-16
  -13.8199997       1.18943670E-15
  -13.8100004       1.44681232E-15
  -13.8000002       1.39640052E-15
  -13.7900000       9.65904492E-16
  -13.7799997       1.63548840E-16
  -13.7700005      -9.02662683E-16
  -13.7600002      -2.02696255E-15
  -13.7500000      -2.93399253E-15
  -13.7399998      -3.33239639E-15
  -13.7299995      -2.98626527E-15
  -13.7200003      -1.79035596E-15
  -13.7100000       1.69520118E-16
  -13.6999998       2.59034131E-15
  -13.6899996       4.97533008E-15
  -13.6800003       6.71333877E-15
  -13.6700001       7.20742029E-15
  -13.6599998       6.03128412E-15
  -13.6499996       3.07958394E-15
  -13.6400003      -1.32886446E-15
  -13.6300001      -6.43343038E-15
  -13.6199999      -1.11246698E-14
  -13.6099997      -1.41494812E-14
  -13.6000004      -1.43998583E-14
  -13.5900002      -1.12275140E-14
  -13.5799999      -4.70622602E-15
  -13.5699997       4.23958540E-15
  -13.5600004       1.39024610E-14
  -13.5500002       2.20777359E-14
  -13.5400000       2.65336967E-14
  -13.5299997       2.55745149E-14
  -13.5200005       1.85607450E-14
  -13.5100002       6.23899863E-15
  -13.5000000      -9.24063987E-15
  -13.4899998      -2.46740291E-14
  -13.4799995      -3.64793035E-14
  -13.4700003      -4.15607930E-14
  -13.4600000      -3.81470910E-14
  -13.4499998      -2.63667245E-14
  -13.4399996      -8.36875413E-15
  -13.4300003       1.20959837E-14
  -13.4200001       3.05684026E-14
  -13.4099998       4.30346270E-14
  -13.3999996       4.70203913E-14
  -13.3900003       4.22891872E-14
  -13.3800001       3.08926130E-14
  -13.3699999       1.64996851E-14
  -13.3599997       3.15807785E-15
  -13.3500004      -6.15171358E-15
  -13.3400002      -1.06883479E-14
  -13.3299999      -1.23912162E-14
  -13.3199997      -1.53153281E-14
  -13.3100004      -2.40878484E-14
  -13.3000002      -4.17631865E-14
  -13.2900000      -6.77378956E-14
  -13.2799997      -9.65034937E-14
  -13.2700005      -1.17895236E-13
  -13.2600002      -1.19135862E-13
  -13.2500000      -8.84457099E-14
  -13.2399998      -1.94316829E-14
  -13.2299995       8.49544637E-14
  -13.2200003       2.10227370E-13
  -13.2100000       3.31038094E-13
  -13.1999998       4.15168984E-13
  -13.1899996       4.30447290E-13
  -13.1800003       3.53265296E-13
  -13.1700001       1.76702999E-13
  -13.1599998      -8.39930474E-14
  -13.1499996      -3.90490483E-13
  -13.1400003      -6.86022094E-13
  -13.1300001      -9.05323288E-13
  -13.1199999      -9.88171025E-13
  -13.1099997      -8.93705953E-13
  -13.1000004      -6.12167218E-13
  -13.0900002      -1.70929880E-13
  -13.0799999       3.67198242E-13
  -13.0699997       9.13758218E-13
  -13.0600004       1.37089222E-12
  -13.0500002       1.65074193E-12
  -13.0400000       1.69362712E-12
  -13.0299997       1.48065620E-12
  -13.0200005       1.03751252E-12
  -13.0100002       4.28222047E-13
  -13.0000000      -2.59766330E-13
  -12.9899998      -9.35484979E-13
  -12.9799995      -1.52401561E-12
  -12.9700003      -1.98015150E-12
  -12.9600000      -2.29183816E-12
  -12.9499998      -2.47174481E-12
  -12.9399996      -2.53881811E-12
  -12.9300003      -2.49514732E-12
  -12.9200001      -2.30593257E-12
  -12.9099998      -1.89090930E-12
  -12.8999996      -1.13380215E-12
  -12.8900003       8.77731522E-14
  -12.8800001       1.85523732E-12
  -12.8699999       4.15413363E-12
  -12.8599997       6.82540873E-12
  -12.8500004       9.53882112E-12
  -12.8400002       1.18023308E-11
  -12.8299999       1.30151749E-11
  -12.8199997       1.25629255E-11
  -12.8100004       9.94201076E-12
  -12.8000002       4.89173589E-12
  -12.7900000      -2.49390222E-12
  -12.7799997      -1.17019658E-11
  -12.7700005      -2.18042806E-11
  -12.7600002      -3.15367871E-11
  -12.7500000      -3.94463663E-11
  -12.7399998      -4.40816758E-11
  -12.7299995      -4.41940061E-11
  -12.7200003      -3.89114921E-11
  -12.7100000      -2.78566285E-11
  -12.6999998      -1.11918617E-11
  -12.6899996       1.04028331E-11
  -12.6800003       3.57978681E-11
  -12.6700001       6.34931344E-11
  -12.6599998       9.16731621E-11
  -12.6499996       1.18215174E-10
  -12.6400003       1.40649548E-10
  -12.6300001       1.56100521E-10
  -12.6199999       1.61260338E-10
  -12.6099997       1.52464485E-10
  -12.6000004       1.25932278E-10
  -12.5900002       7.82138729E-11
  -12.5799999       6.84285181E-12
  -12.5699997      -8.88577337E-11
  -12.5600004      -2.06918954E-10
  -12.5500002      -3.41961126E-10
  -12.5400000      -4.84678742E-10
  -12.5299997      -6.21720841E-10
  -12.5200005      -7.36075922E-10
  -12.5100002      -8.08012157E-10
  -12.5000000      -8.16555712E-10
  -12.4899998      -7.41429029E-10
  -12.4799995      -5.65317682E-10
  -12.4700003      -2.76308282E-10
  -12.4600000       1.29672953E-10
  -12.4499998       6.46580900E-10
  -12.4399996       1.25627897E-09
  -12.4300003       1.92699967E-09
  -12.4200001       2.61234989E-09
  -12.4099998       3.25097127E-09
  -12.3999996       3.76693698E-09
  -12.3900003       4.07097644E-09
  -12.3800001       4.06257383E-09
  -12.3699999       3.63296260E-09
  -12.3599997       2.66897171E-09
  -12.3500004       1.05762143E-09
  -12.3400002      -1.30869293E-09
  -12.3299999      -4.52665194E-09
  -12.3199997      -8.67635652E-09
  -12.3100004      -1.38158365E-08
  -12.3000002      -1.99759977E-08
  -12.2900000      -2.71562701E-08
  -12.2799997      -3.53211362E-08
  -12.2700005      -4.43978365E-08
  -12.2600002      -5.42752261E-08
  -12.2500000      -6.48040910E-08
  -12.2399998      -7.57988445E-08
  -12.2299995      -8.70406680E-08
  -12.2200003      -9.82819088E-08
  -12.2100000      -1.09251680E-07
  -12.1999998      -1.19662445E-07
  -12.1899996      -1.29217000E-07
  -12.1800003      -1.37615757E-07
  -12.1700001      -1.44563870E-07
  -12.1599998      -1.49777989E-07
  -12.1499996      -1.52992101E-07
  -12.1400003      -1.53962773E-07
  -12.1300001      -1.52473589E-07
  -12.1199999      -1.48338529E-07
  -12.1099997      -1.41404740E-07
  -12.1000004      -1.31554529E-07
  -12.0900002      -1.18706645E-07
  -12.0799999      -1.02816898E-07
  -12.0699997      -8.38779783E-08
  -12.0600004      -6.19187546E-08
  -12.0500002      -3.70029731E-08
  -12.0400000      -9.22774479E-09
  -12.0299997       2.12780300E-08
  -12.0200005       5.43549454E-08
  -12.0100002       8.98138381E-08
  -12.0000000       1.27435840E-07
  -11.9899998       1.66971688E-07
  -11.9799995       2.08140747E-07
  -11.9700003       2.50629796E-07
  -11.9600000       2.94092303E-07
  -11.9499998       3.38148510E-07
  -11.9399996       3.82386531E-07
  -11.9300003       4.26364977E-07
  -11.9200001       4.69616253E-07
  -11.9099998       5.11651479E-07
  -11.8999996       5.51965343E-07
  -11.8900003       5.90040656E-07
  -11.8800001       6.25353721E-07
  -11.8699999       6.57378564E-07
  -11.8599997       6.85590749E-07
  -11.8500004       7.09471578E-07
  -11.8400002       7.28512475E-07
  -11.8299999       7.42219072E-07
  -11.8199997       7.50117579E-07
  -11.8100004       7.51760751E-07
  -11.8000002       7.46735736E-07
  -11.7900000       7.34671517E-07
  -11.7799997       7.15247666E-07
  -11.7700005       6.88201169E-07
  -11.7600002       6.53334666E-07
  -11.7500000       6.10521454E-07
  -11.7399998       5.59709974E-07
  -11.7299995       5.00926262E-07
  -11.7200003       4.34274114E-07
  -11.7100000       3.59933637E-07
  -11.6999998       2.78157216E-07
  -11.6899996       1.89265080E-07
  -11.6800003       9.36390734E-08
  -11.6700001      -8.28363422E-09
  -11.6599998      -1.16016018E-07
  -11.6499996      -2.29025943E-07
  -11.6400003      -3.46739085E-07
  -11.6300001      -4.68540293E-07
  -11.6199999      -5.93773223E-07
  -11.6099997      -7.21739696E-07
  -11.6000004      -8.51697280E-07
  -11.5900002      -9.82859547E-07
  -11.5799999      -1.11439590E-06
  -11.5699997      -1.24543271E-06
  -11.5600004      -1.37505742E-06
  -11.5500002      -1.50232290E-06
  -11.5400000      -1.62625213E-06
  -11.5299997      -1.74584284E-06
  -11.5200005      -1.86007242E-06
  -11.5100002      -1.96790188E-06
  -11.5000000      -2.06827849E-06
  -11.4899998      -2.16013837E-06
  -11.4799995      -2.24241012E-06
  -11.4700003      -2.31401896E-06
  -11.4600000      -2.37388963E-06
  -11.4499998      -2.42095598E-06
  -11.4399996      -2.45416550E-06
  -11.4300003      -2.47248886E-06
  -11.4200001      -2.47492744E-06
  -11.4099998      -2.46052036E-06
  -11.3999996      -2.42835154E-06
  -11.3900003      -2.37755421E-06
  -11.3800001      -2.30731644E-06
  -11.3699999      -2.21688288E-06
  -11.3599997      -2.10555845E-06
  -11.3500004      -1.97270924E-06
  -11.3400002      -1.81776443E-06
  -11.3299999      -1.64021435E-06
  -11.3199997      -1.43961029E-06
  -11.3100004      -1.21556138E-06
  -11.3000002      -9.67729306E-07
  -11.2900000      -6.95824383E-07
  -11.2799997      -3.99598775E-07
  -11.2700005      -7.88424970E-08
  -11.2600002       2.66622010E-07
  -11.2500000       6.36940683E-07
  -11.2399998       1.03222919E-06
  -11.2299995       1.45256899E-06
  -11.2200003       1.89800630E-06
  -11.2100000       2.36854498E-06
  -11.1999998       2.86414479E-06
  -11.1899996       3.38471477E-06
  -11.1800003       3.93011533E-06
  -11.1700001       4.50015523E-06
  -11.1599998       5.09459551E-06
  -11.1499996       5.71315195E-06
  -11.1400003       6.35550259E-06
  -11.1300001       7.02128864E-06
  -11.1199999       7.71012674E-06
  -11.1099997       8.42161171E-06
  -11.1000004       9.15531928E-06
  -11.0900002       9.91081652E-06
  -11.0799999       1.06876541E-05
  -11.0699997       1.14853747E-05
  -11.0600004       1.23035043E-05
  -11.0500002       1.31415500E-05
  -11.0400000       1.39989961E-05
  -11.0299997       1.48752970E-05
  -11.0200005       1.57698778E-05
  -11.0100002       1.66821264E-05
  -11.0000000       1.76114008E-05
  -10.9899998       1.85570261E-05
  -10.9799995       1.95183165E-05
  -10.9700003       2.04945663E-05
  -10.9600000       2.14850643E-05
  -10.9499998       2.24891137E-05
  -10.9399996       2.35060234E-05
  -10.9300003       2.45351075E-05
  -10.9200001       2.55757022E-05
  -10.9099998       2.66271381E-05
  -10.8999996       2.76887477E-05
  -10.8900003       2.87598432E-05
  -10.8800001       2.98396990E-05
  -10.8699999       3.09275783E-05
  -10.8599997       3.20226754E-05
  -10.8500004       3.31241645E-05
  -10.8400002       3.42311578E-05
  -10.8299999       3.53427422E-05
  -10.8199997       3.64579791E-05
  -10.8100004       3.75759046E-05
  -10.8000002       3.86955762E-05
  -10.7900000       3.98160482E-05
  -10.7799997       4.09364220E-05
  -10.7700005       4.20558245E-05
  -10.7600002       4.31734516E-05
  -10.7500000       4.42885212E-05
  -10.7399998       4.54003130E-05
  -10.7299995       4.65081430E-05
  -10.7200003       4.76113491E-05
  -10.7100000       4.87092766E-05
  -10.6999998       4.98012960E-05
  -10.6899996       5.08867670E-05
  -10.6800003       5.19650748E-05
  -10.6700001       5.30356374E-05
  -10.6599998       5.40978726E-05
  -10.6499996       5.51512821E-05
  -10.6400003       5.61954257E-05
  -10.6300001       5.72299577E-05
  -10.6199999       5.82546527E-05
  -10.6099997       5.92693796E-05
  -10.6000004       6.02741202E-05
  -10.5900002       6.12689983E-05
  -10.5799999       6.22542066E-05
  -10.5699997       6.32300507E-05
  -10.5600004       6.41968654E-05
  -10.5500002       6.51550654E-05
  -10.5400000       6.61050944E-05
  -10.5299997       6.70473964E-05
  -10.5200005       6.79824007E-05
  -10.5100002       6.89105727E-05
  -10.5000000       6.98323638E-05
  -10.4899998       7.07482395E-05
  -10.4799995       7.16586655E-05
  -10.4700003       7.25641148E-05
  -10.4600000       7.34651039E-05
  -10.4499998       7.43621567E-05
  -10.4399996       7.52557971E-05
  -10.4300003       7.61465926E-05
  -10.4200001       7.70351035E-05
  -10.4099998       7.79218826E-05
  -10.3999996       7.88074176E-05
  -10.3900003       7.96922322E-05
  -10.3800001       8.05767850E-05
  -10.3699999       8.14614687E-05
  -10.3599997       8.23466326E-05
  -10.3500004       8.32325532E-05
  -10.3400002       8.41194706E-05
  -10.3299999       8.50075448E-05
  -10.3199997       8.58968924E-05
  -10.3100004       8.67876006E-05
  -10.3000002       8.76796548E-05
  -10.2900000       8.85730988E-05
  -10.2799997       8.94679033E-05
  -10.2700005       9.03640321E-05
  -10.2600002       9.12614414E-05
  -10.2500000       9.21600804E-05
  -10.2399998       9.30598835E-05
  -10.2299995       9.39607489E-05
  -10.2200003       9.48625457E-05
  -10.2100000       9.57651355E-05
  -10.1999998       9.66683074E-05
  -10.1899996       9.75718795E-05
  -10.1800003       9.84756480E-05
  -10.1700001       9.93793728E-05
  -10.1599998       1.00282930E-04
  -10.1499996       1.01186175E-04
  -10.1400003       1.02089078E-04
  -10.1300001       1.02991638E-04
  -10.1199999       1.03893966E-04
  -10.1099997       1.04796221E-04
  -10.1000004       1.05698637E-04
  -10.0900002       1.06601539E-04
  -10.0799999       1.07505264E-04
  -10.0699997       1.08410241E-04
  -10.0600004       1.09316941E-04
  -10.0500002       1.10225883E-04
  -10.0400000       1.11137662E-04
  -10.0299997       1.12052949E-04
  -10.0200005       1.12972491E-04
  -10.0100002       1.13897055E-04
  -10.0000000       1.14827504E-04
  -9.98999977       1.15764822E-04
  -9.97999954       1.16709998E-04
  -9.97000027       1.17664094E-04
  -9.96000004       1.18628232E-04
  -9.94999981       1.19603537E-04
  -9.93999958       1.20591139E-04
  -9.93000031       1.21592209E-04
  -9.92000008       1.22607933E-04
  -9.90999985       1.23639431E-04
  -9.89999962       1.24687940E-04
  -9.89000034       1.25754552E-04
  -9.88000011       1.26840518E-04
  -9.86999989       1.27946914E-04
  -9.85999966       1.29074921E-04
  -9.85000038       1.30225657E-04
  -9.84000015       1.31400215E-04
  -9.82999992       1.32599715E-04
  -9.81999969       1.33825204E-04
  -9.81000042       1.35077818E-04
  -9.80000019       1.36358620E-04
  -9.78999996       1.37668787E-04
  -9.77999973       1.39009528E-04
  -9.77000046       1.40382093E-04
  -9.76000023       1.41787852E-04
  -9.75000000       1.43228201E-04
  -9.73999977       1.44704609E-04
  -9.72999954       1.46218692E-04
  -9.72000027       1.47771963E-04
  -9.71000004       1.49366111E-04
  -9.69999981       1.51002765E-04
  -9.68999958       1.52683569E-04
  -9.68000031       1.54410212E-04
  -9.67000008       1.56184266E-04
  -9.65999985       1.58007359E-04
  -9.64999962       1.59881005E-04
  -9.64000034       1.61806733E-04
  -9.63000011       1.63785895E-04
  -9.61999989       1.65819802E-04
  -9.60999966       1.67909515E-04
  -9.60000038       1.70055995E-04
  -9.59000015       1.72260014E-04
  -9.57999992       1.74522036E-04
  -9.56999969       1.76842324E-04
  -9.56000042       1.79220850E-04
  -9.55000019       1.81657233E-04
  -9.53999996       1.84150835E-04
  -9.52999973       1.86700665E-04
  -9.52000046       1.89305429E-04
  -9.51000023       1.91963452E-04
  -9.50000000       1.94672786E-04
  -9.48999977       1.97431174E-04
  -9.47999954       2.00236042E-04
  -9.47000027       2.03084652E-04
  -9.46000004       2.05973934E-04
  -9.44999981       2.08900688E-04
  -9.43999958       2.11861523E-04
  -9.43000031       2.14853004E-04
  -9.42000008       2.17871711E-04
  -9.40999985       2.20914255E-04
  -9.39999962       2.23977258E-04
  -9.39000034       2.27057593E-04
  -9.38000011       2.30152436E-04
  -9.36999989       2.33259168E-04
  -9.35999966       2.36375621E-04
  -9.35000038       2.39500063E-04
  -9.34000015       2.42631257E-04
  -9.32999992       2.45768548E-04
  -9.31999969       2.48911761E-04
  -9.31000042       2.52061320E-04
  -9.30000019       2.55218300E-04
  -9.28999996       2.58384360E-04
  -9.27999973       2.61561712E-04
  -9.27000046       2.64753238E-04
  -9.26000023       2.67962343E-04
  -9.25000000       2.71193043E-04
  -9.23999977       2.74449907E-04
  -9.22999954       2.77738116E-04
  -9.22000027       2.81063200E-04
  -9.21000004       2.84431211E-04
  -9.19999981       2.87848583E-04
  -9.18999958       2.91322038E-04
  -9.18000031       2.94858648E-04
  -9.17000008       2.98465544E-04
  -9.15999985       3.02150118E-04
  -9.14999962       3.05919762E-04
  -9.14000034       3.09781870E-04
  -9.13000011       3.13743833E-04
  -9.11999989       3.17812839E-04
  -9.10999966       3.21995874E-04
  -9.10000038       3.26299662E-04
  -9.09000015       3.30730662E-04
  -9.07999992       3.35294753E-04
  -9.06999969       3.39997438E-04
  -9.06000042       3.44843516E-04
  -9.05000019       3.49837384E-04
  -9.03999996       3.54982563E-04
  -9.02999973       3.60282051E-04
  -9.02000046       3.65738000E-04
  -9.01000023       3.71351751E-04
  -9.00000000       3.77124059E-04
  -8.98999977       3.83054605E-04
  -8.97999954       3.89142398E-04
  -8.97000027       3.95385636E-04
  -8.96000004       4.01781464E-04
  -8.94999981       4.08326538E-04
  -8.93999958       4.15016460E-04
  -8.93000031       4.21846227E-04
  -8.92000008       4.28809726E-04
  -8.90999985       4.35900409E-04
  -8.89999962       4.43110970E-04
  -8.89000034       4.50433348E-04
  -8.88000011       4.57858609E-04
  -8.86999989       4.65377438E-04
  -8.85999966       4.72979853E-04
  -8.85000038       4.80655348E-04
  -8.84000015       4.88392951E-04
  -8.82999992       4.96181310E-04
  -8.81999969       5.04008785E-04
  -8.81000042       5.11863444E-04
  -8.80000019       5.19733061E-04
  -8.78999996       5.27605589E-04
  -8.77999973       5.35468804E-04
  -8.77000046       5.43310482E-04
  -8.76000023       5.51118690E-04
  -8.75000000       5.58881729E-04
  -8.73999977       5.66588191E-04
  -8.72999954       5.74227015E-04
  -8.72000027       5.81787608E-04
  -8.71000004       5.89260017E-04
  -8.69999981       5.96634811E-04
  -8.68999958       6.03903201E-04
  -8.68000031       6.11057039E-04
  -8.67000008       6.18088990E-04
  -8.65999985       6.24992361E-04
  -8.64999962       6.31761213E-04
  -8.64000034       6.38390542E-04
  -8.63000011       6.44876156E-04
  -8.61999989       6.51214272E-04
  -8.60999966       6.57402386E-04
  -8.60000038       6.63438463E-04
  -8.59000015       6.69320929E-04
  -8.57999992       6.75049319E-04
  -8.56999969       6.80623227E-04
  -8.56000042       6.86043000E-04
  -8.55000019       6.91309571E-04
  -8.53999996       6.96423871E-04
  -8.52999973       7.01387413E-04
  -8.52000046       7.06202001E-04
  -8.51000023       7.10869557E-04
  -8.50000000       7.15392060E-04
  -8.48999977       7.19771488E-04
  -8.47999954       7.24010286E-04
  -8.47000027       7.28110550E-04
  -8.46000004       7.32074666E-04
  -8.44999981       7.35905021E-04
  -8.43999958       7.39603769E-04
  -8.43000031       7.43173703E-04
  -8.42000008       7.46617210E-04
  -8.40999985       7.49937026E-04
  -8.39999962       7.53136119E-04
  -8.39000034       7.56217574E-04
  -8.38000011       7.59184652E-04
  -8.36999989       7.62040843E-04
  -8.35999966       7.64790049E-04
  -8.35000038       7.67436344E-04
  -8.34000015       7.69984443E-04
  -8.32999992       7.72439176E-04
  -8.31999969       7.74806016E-04
  -8.31000042       7.77090667E-04
  -8.30000019       7.79299415E-04
  -8.28999996       7.81438546E-04
  -8.27999973       7.83515454E-04
  -8.27000046       7.85537180E-04
  -8.26000023       7.87511817E-04
  -8.25000000       7.89447047E-04
  -8.23999977       7.91351427E-04
  -8.22999954       7.93233397E-04
  -8.22000027       7.95101805E-04
  -8.21000004       7.96965731E-04
  -8.19999981       7.98834371E-04
  -8.18999958       8.00717156E-04
  -8.18000031       8.02623399E-04
  -8.17000008       8.04562937E-04
  -8.15999985       8.06545198E-04
  -8.14999962       8.08580080E-04
  -8.14000034       8.10677535E-04
  -8.13000011       8.12847691E-04
  -8.11999989       8.15100677E-04
  -8.10999966       8.17446678E-04
  -8.10000038       8.19896115E-04
  -8.09000015       8.22459580E-04
  -8.07999992       8.25147668E-04
  -8.06999969       8.27971089E-04
  -8.06000042       8.30940844E-04
  -8.05000019       8.34067992E-04
  -8.03999996       8.37363536E-04
  -8.02999973       8.40838475E-04
  -8.02000046       8.44504044E-04
  -8.01000023       8.48371652E-04
  -8.00000000       8.52452067E-04
  -7.98999977       8.56755942E-04
  -7.98000002       8.61294509E-04
  -7.96999979       8.66077607E-04
  -7.96000004       8.71115539E-04
  -7.94999981       8.76418082E-04
  -7.94000006       8.81994201E-04
  -7.92999983       8.87852977E-04
  -7.92000008       8.94002034E-04
  -7.90999985       9.00449173E-04
  -7.90000010       9.07201029E-04
  -7.88999987       9.14263655E-04
  -7.88000011       9.21642466E-04
  -7.86999989       9.29341593E-04
  -7.86000013       9.37365170E-04
  -7.84999990       9.45715699E-04
  -7.84000015       9.54395335E-04
  -7.82999992       9.63405822E-04
  -7.82000017       9.72747453E-04
  -7.80999994       9.82420519E-04
  -7.80000019       9.92424437E-04
  -7.78999996       1.00275758E-03
  -7.78000021       1.01341819E-03
  -7.76999998       1.02440349E-03
  -7.76000023       1.03571068E-03
  -7.75000000       1.04733626E-03
  -7.73999977       1.05927594E-03
  -7.73000002       1.07152597E-03
  -7.71999979       1.08408125E-03
  -7.71000004       1.09693711E-03
  -7.69999981       1.11008855E-03
  -7.69000006       1.12353009E-03
  -7.67999983       1.13725569E-03
  -7.67000008       1.15125987E-03
  -7.65999985       1.16553693E-03
  -7.65000010       1.18008058E-03
  -7.63999987       1.19488488E-03
  -7.63000011       1.20994390E-03
  -7.61999989       1.22525205E-03
  -7.61000013       1.24080328E-03
  -7.59999990       1.25659211E-03
  -7.59000015       1.27261353E-03
  -7.57999992       1.28886173E-03
  -7.57000017       1.30533171E-03
  -7.55999994       1.32201880E-03
  -7.55000019       1.33891881E-03
  -7.53999996       1.35602755E-03
  -7.53000021       1.37334142E-03
  -7.51999998       1.39085692E-03
  -7.51000023       1.40857138E-03
  -7.50000000       1.42648246E-03
  -7.48999977       1.44458842E-03
  -7.48000002       1.46288762E-03
  -7.46999979       1.48137915E-03
  -7.46000004       1.50006253E-03
  -7.44999981       1.51893776E-03
  -7.44000006       1.53800519E-03