  -16.0000000       0.00000000    
  -15.9899998       0.00000000    
  -15.9799995       0.00000000    
  -15.9700003       0.00000000    
  -15.9600000       0.00000000    
  -15.9499998       0.00000000    
  -15.9399996       0.00000000    
  -15.9300003       0.00000000    
  -15.9200001       0.00000000    
  -15.9099998       0.00000000    
  -15.8999996       0.00000000    
  -15.8900003       0.00000000    
  -15.8800001       0.00000000    
  -15.8699999      -0.00000000    
  -15.8599997      -5.60519386E-45
  -15.8500004      -1.68155816E-44
  -15.8400002       3.57331108E-43
  -15.8299999       5.68646917E-42
  -15.8199997       4.72265608E-41
  -15.8100004       2.80745943E-40
  -15.8000002       1.31806414E-39
  -15.7900000       5.12811759E-39
  -15.7799997       1.70095661E-38
  -15.7700005       4.89700396E-38
  -15.7600002       1.23687391E-37
  -15.7500000       2.75075785E-37
  -15.7399998       5.34952751E-37
  -15.7299995       8.83528861E-37
  -15.7200003       1.12351151E-36
  -15.7100000       6.22834120E-37
  -15.6999998      -2.09538576E-36
  -15.6899996      -9.73801862E-36
  -15.6800003      -2.58851346E-35
  -15.6700001      -5.22649297E-35
  -15.6599998      -8.14010151E-35
  -15.6499996      -8.40176494E-35
  -15.6400003       2.26594778E-36
  -15.6300001       2.62123325E-34
  -15.6199999       7.34095258E-34
  -15.6099997       1.25759363E-33
  -15.6000004       1.27936223E-33
  -15.5900002      -1.77560522E-34
  -15.5799999      -3.99041541E-33
  -15.5699997      -9.47417296E-33
  -15.5600004      -1.21916257E-32
  -15.5500002      -2.74230985E-33
  -15.5400000       2.97549388E-32
  -15.5299997       8.50889873E-32
  -15.5200005       1.29989892E-31
  -15.5100002       7.86463731E-32
  -15.5000000      -1.93576683E-31
  -15.4899998      -7.59508717E-31
  -15.4799995      -1.44831578E-30
  -15.4700003      -1.61104642E-30
  -15.4600000      -5.44722084E-32
  -15.4499998       4.49091391E-30
  -15.4399996       1.20196543E-29
  -15.4300003       1.91056960E-29
  -15.4200001       1.70709826E-29
  -15.4099998      -7.05306541E-30
  -15.3999996      -6.35108742E-29
  -15.3900003      -1.44960293E-28
  -15.3800001      -2.07361988E-28
  -15.3699999      -1.59584337E-28
  -15.3599997       1.15775822E-28
  -15.3500004       6.87119467E-28
  -15.3400002       1.44115036E-27
  -15.3299999       1.93919979E-27
  -15.3199997       1.37912040E-27
  -15.3100004      -1.16736035E-27
  -15.3000002      -6.10302547E-27
  -15.2900000      -1.22900307E-26
  -15.2799997      -1.60940382E-26
  -15.2700005      -1.13618018E-26
  -15.2600002       8.54836640E-27
  -15.2500000       4.59571597E-26
  -15.2399998       9.19682578E-26
  -15.2299995       1.20603939E-25
  -15.2200003       8.96933802E-26
  -15.2100000      -4.48202509E-26
  -15.1999998      -2.97642273E-25
  -15.1899996      -6.11508851E-25
  -15.1800003      -8.22896457E-25
  -15.1700001      -6.69649083E-25
  -15.1599998       1.22651822E-25
  -15.1499996       1.65873585E-24
  -15.1400003       3.63039508E-24
  -15.1300001       5.12178040E-24
  -15.1199999       4.64332049E-24
  -15.1099997       5.86244644E-25
  -15.1000004      -7.81713431E-24
  -15.0900002      -1.92017122E-23
  -15.0799999      -2.89947056E-23
  -15.0699997      -2.94478273E-23
  -15.0600004      -1.17286064E-23
  -15.0500002       2.94707485E-23
  -15.0400000       8.95459301E-23
  -15.0299997       1.48279319E-22
  -15.0200005       1.68900156E-22
  -15.0100002       1.06394238E-22
  -15.0000000      -7.24258056E-23
  -14.9899998      -3.59616923E-22
  -14.9799995      -6.77539682E-22
  -14.9700003      -8.68279736E-22
  -14.9600000      -7.21046837E-22
  -14.9499998      -5.08038761E-23
  -14.9399996       1.17790368E-21
  -14.9300003       2.71784064E-21
  -14.9200001       3.96388221E-21
  -14.9099998       4.01906299E-21
  -14.8999996       1.96688343E-21
  -14.8900003      -2.65158501E-21
  -14.8800001      -9.26833339E-21
  -14.8699999      -1.58652595E-20
  -14.8599997      -1.90191118E-20
  -14.8500004      -1.47056735E-20
  -14.8400002       4.80537744E-23
  -14.8299999       2.49531326E-20
  -14.8199997       5.44489700E-20
  -14.8100004       7.70333982E-20
  -14.8000002       7.71121936E-20
  -14.7900000       4.00258417E-20
  -14.7799997      -4.02516490E-20
  -14.7700005      -1.52855132E-19
  -14.7600002      -2.64851522E-19
  -14.7500000      -3.23443853E-19
  -14.7399998      -2.68835741E-19
  -14.7299995      -5.78847680E-20
  -14.7200003       3.06306299E-19
  -14.7100000       7.49174120E-19
  -14.6999998       1.11784247E-18
  -14.6899996       1.20584270E-18
  -14.6800003       8.15413296E-19
  -14.6700001      -1.50327074E-19
  -14.6599998      -1.59038945E-18
  -14.6499996      -3.14425103E-18
  -14.6400003      -4.21063883E-18
  -14.6300001      -4.07957992E-18
  -14.6199999      -2.17788632E-18
  -14.6099997       1.62029803E-18
  -14.6000004       6.71735302E-18
  -14.5900002       1.16828798E-17
  -14.5799999       1.44362009E-17
  -14.5699997       1.27823178E-17
  -14.5600004       5.24552201E-18
  -14.5500002      -8.00236528E-18
  -14.5400000      -2.44511032E-17
  -14.5299997      -3.91805347E-17
  -14.5200005      -4.57084092E-17
  -14.5100002      -3.78202957E-17
  -14.5000000      -1.20833220E-17
  -14.4899998       2.96455245E-17
  -14.4799995       7.86859594E-17
  -14.4700003       1.19959572E-16
  -14.4600000       1.34998020E-16
  -14.4499998       1.07421499E-16
  -14.4399996       2.97995224E-17
  -14.4300003      -9.01240343E-17
  -14.4200001      -2.26374479E-16
  -14.4099998      -3.37152094E-16
  -14.3999996      -3.73821421E-16
  -14.3900003      -2.95608305E-16
  -14.3800001      -8.67643641E-17
  -14.3699999       2.29039006E-16
  -14.3599997       5.83102193E-16
  -14.3500004       8.69781076E-16
  -14.3400002       9.69962415E-16
  -14.3299999       7.86816263E-16
  -14.3199997       2.85486340E-16
  -14.3100004      -4.75526149E-16
  -14.3000002      -1.33440152E-15
  -14.2900000      -2.04720431E-15
  -14.2799997      -2.34233536E-15
  -14.2700005      -1.99982509E-15
  -14.2600002      -9.36500167E-16
  -14.2500000       7.29031464E-16
  -14.2399998       2.65795339E-15
  -14.2299995       4.33749352E-15
  -14.2200003       5.19372397E-15
  -14.2100000       4.75195309E-15
  -14.1999998       2.80606409E-15
  -14.1899996      -4.53745968E-16
  -14.1800003      -4.40388777E-15
  -14.1700001      -8.07265004E-15
  -14.1599998      -1.03485615E-14
  -14.1499996      -1.02748383E-14
  -14.1400003      -7.35912050E-15
  -14.1300001      -1.80914210E-15
  -14.1199999       5.38962363E-15
  -14.1099997       1.26062931E-14
  -14.1000004       1.79053753E-14
  -14.0900002       1.95323866E-14
  -14.0799999       1.64276263E-14
  -14.0699997       8.62481558E-15
  -14.0600004      -2.59617208E-15
  -14.0500002      -1.48803191E-14
  -14.0400000      -2.52865813E-14
  -14.0299997      -3.09967336E-14
  -14.0200005      -3.00704150E-14
  -14.0100002      -2.20400412E-14
  -14.0000000      -8.16371371E-15
  -13.9899998       8.76515962E-15
  -13.9799995       2.50341960E-14
  -13.9700003       3.69125744E-14
  -13.9600000       4.16004782E-14
  -13.9499998       3.79623430E-14
  -13.9399996       2.68252421E-14
  -13.9300003       1.07410613E-14
  -13.9200001      -6.73287855E-15
  -13.9099998      -2.20298413E-14
  -13.8999996      -3.25458010E-14
  -13.8900003      -3.72798716E-14
  -13.8800001      -3.69284512E-14
  -13.8699999      -3.33876027E-14
  -13.8599997      -2.88179921E-14
  -13.8500004      -2.45920854E-14
  -13.8400002      -2.05167761E-14
  -13.8299999      -1.46709528E-14
  -13.8199997      -4.02016533E-15
  -13.8100004       1.42871300E-14
  -13.8000002       4.12992055E-14
  -13.7900000       7.48547071E-14
  -13.7799997       1.08956789E-13
  -13.7700005       1.34339358E-13
  -13.7600002       1.40323381E-13
  -13.7500000       1.17663312E-13
  -13.7399998       6.17175446E-14
  -13.7299995      -2.49426741E-14
  -13.7200003      -1.31357490E-13
  -13.7100000      -2.39032752E-13
  -13.6999998      -3.24935120E-13
  -13.6899996      -3.66159983E-13
  -13.6800003      -3.45289118E-13
  -13.6700001      -2.55159880E-13
  -13.6599998      -1.01791873E-13
  -13.6499996       9.54066741E-14
  -13.6400003       3.06400386E-13
  -13.6300001       4.95756051E-13
  -13.6199999       6.29202365E-13
  -13.6099997       6.80024234E-13
  -13.6000004       6.33840690E-13
  -13.5900002       4.90763409E-13
  -13.5799999       2.64653696E-13
  -13.5699997      -2.00014464E-14
  -13.5600004      -3.32458155E-13
  -13.5500002      -6.39954832E-13
  -13.5400000      -9.10675506E-13
  -13.5299997      -1.11494700E-12
  -13.5200005      -1.22503494E-12
  -13.5100002      -1.21467875E-12
  -13.5000000      -1.05989403E-12
  -13.4899998      -7.42353932E-13
  -13.4799995      -2.55817177E-13
  -13.4700003       3.85225787E-13
  -13.4600000       1.13688497E-12
  -13.4499998       1.92038486E-12
  -13.4399996       2.62313760E-12
  -13.4300003       3.10887362E-12
  -13.4200001       3.23744807E-12
  -13.4099998       2.89231811E-12
  -13.3999996       2.01109095E-12
  -13.3900003       6.12568048E-13
  -13.3800001      -1.18692805E-12
  -13.3699999      -3.17399752E-12
  -13.3599997      -5.05858680E-12
  -13.3500004      -6.51354014E-12
  -13.3400002      -7.22798297E-12
  -13.3299999      -6.96546640E-12
  -13.3199997      -5.61572967E-12
  -13.3100004      -3.22925367E-12
  -13.3000002      -2.64346870E-14
  -13.2900000       3.62212517E-12
  -13.2799997       7.24207369E-12
  -13.2700005       1.03210556E-11
  -13.2600002       1.23825993E-11
  -13.2500000       1.30556312E-11
  -13.2399998       1.21284016E-11
  -13.2299995       9.57926013E-12
  -13.2200003       5.58156516E-12
  -13.2100000       4.84890611E-13
  -13.1999998      -5.22178134E-12
  -13.1899996      -1.09574910E-11
  -13.1800003      -1.61007891E-11
  -13.1700001      -2.00408856E-11
  -13.1599998      -2.22271038E-11
  -13.1499996      -2.22175004E-11
  -13.1400003      -1.97280577E-11
  -13.1300001      -1.46820785E-11
  -13.1199999      -7.25605079E-12
  -13.1099997       2.08624936E-12
  -13.1000004       1.25829165E-11
  -13.0900002       2.31988890E-11
  -13.0799999       3.26963630E-11
  -13.0699997       3.97538634E-11
  -13.0600004       4.31270401E-11
  -13.0500002       4.18340917E-11
  -13.0400000       3.53387493E-11
  -13.0299997       2.36991919E-11
  -13.0200005       7.65141162E-12
  -13.0100002      -1.13967169E-11
  -13.0000000      -3.14715892E-11
  -12.9899998      -5.02343687E-11
  -12.9799995      -6.52540313E-11
  -12.9700003      -7.43165321E-11
  -12.9600000      -7.57276880E-11
  -12.9499998      -6.85660903E-11
  -12.9399996      -5.28507065E-11
  -12.9300003      -2.96000377E-11
  -12.9200001      -7.75542120E-13
  -12.9099998       3.08829108E-11
  -12.8999996       6.21101434E-11
  -12.8900003       8.94302410E-11
  -12.8800001       1.09503531E-10
  -12.8699999       1.19477150E-10
  -12.8599997       1.17312826E-10
  -12.8500004       1.02067396E-10
  -12.8400002       7.41012945E-11
  -12.8299999       3.51899516E-11
  -12.8199997      -1.14885219E-11
  -12.8100004      -6.15122467E-11
  -12.8000002      -1.09535811E-10
  -12.7900000      -1.49771556E-10
  -12.7799997      -1.76606882E-10
  -12.7700005      -1.85307783E-10
  -12.7600002      -1.72729761E-10
  -12.7500000      -1.37940340E-10
  -12.7399998      -8.26492694E-11
  -12.7299995      -1.13539022E-11
  -12.7200003       6.88641158E-11
  -12.7100000       1.48910204E-10
  -12.6999998       2.18583499E-10
  -12.6899996       2.67732003E-10
  -12.6800003       2.87527002E-10
  -12.6700001       2.71700357E-10
  -12.6599998       2.17586213E-10
  -12.6499996       1.26827673E-10
  -12.6400003       5.64652665E-12
  -12.6300001      -1.35374878E-10
  -12.6199999      -2.81997148E-10
  -12.6099997      -4.17460511E-10
  -12.6000004      -5.23966925E-10
  -12.5900002      -5.84390314E-10
  -12.5799999      -5.84083837E-10
  -12.5699997      -5.12649978E-10
  -12.5600004      -3.65532854E-10
  -12.5500002      -1.45293166E-10
  -12.5400000       1.37570774E-10
  -12.5299997       4.64386835E-10
  -12.5200005       8.08773049E-10
  -12.5100002       1.13788456E-09
  -12.5000000       1.41446732E-09
  -12.4899998       1.59968105E-09
  -12.4799995       1.65655423E-09
  -12.4700003       1.55385582E-09
  -12.4600000       1.27007671E-09
  -12.4499998       7.97175104E-10
  -12.4399996       1.43704340E-10
  -12.4300003      -6.63011201E-10
  -12.4200001      -1.57592073E-09
  -12.4099998      -2.52868104E-09
  -12.3999996      -3.43750672E-09
  -12.3900003      -4.20434088E-09
  -12.3800001      -4.72114303E-09
  -12.3699999      -4.87499996E-09
  -12.3599997      -4.55372584E-09
  -12.3500004      -3.65161812E-09
  -12.3400002      -2.07505013E-09
  -12.3299999       2.52375454E-10
  -12.3199997       3.38533601E-09
  -12.3100004       7.35311234E-09
  -12.3000002       1.21568595E-08
  -12.2900000       1.77679542E-08
  -12.2799997       2.41274147E-08
  -12.2700005       3.11464312E-08
  -12.2600002       3.87080057E-08
  -12.2500000       4.66695766E-08
  -12.2399998       5.48663728E-08
  -12.2299995       6.31154720E-08
  -12.2200003       7.12201000E-08
  -12.2100000       7.89739616E-08
  -12.1999998       8.61653646E-08
  -12.1899996       9.25808052E-08
  -12.1800003       9.80080301E-08
  -12.1700001       1.02238602E-07
  -12.1599998       1.05069923E-07
  -12.1499996       1.06307176E-07
  -12.1400003       1.05764968E-07
  -12.1300001       1.03269585E-07
  -12.1199999       9.86612960E-08
  -12.1099997       9.17974816E-08
  -12.1000004       8.25560207E-08
  -12.0900002       7.08391710E-08
  -12.0799999       5.65775800E-08
  -12.0699997       3.97342568E-08
  -12.0600004       2.03082724E-08
  -12.0500002      -1.66207437E-09
  -12.0400000      -2.60965507E-08
  -12.0299997      -5.28710693E-08
  -12.0200005      -8.18164239E-08
  -12.0100002      -1.12717629E-07
  -12.0000000      -1.45314303E-07
  -11.9899998      -1.79301281E-07
  -11.9799995      -2.14330313E-07
  -11.9700003      -2.50012761E-07
  -11.9600000      -2.85923107E-07
  -11.9499998      -3.21603324E-07
  -11.9399996      -3.56568734E-07
  -11.9300003      -3.90314142E-07
  -11.9200001      -4.22321392E-07
  -11.9099998      -4.52067241E-07
  -11.8999996      -4.79031087E-07
  -11.8900003      -5.02702960E-07
  -11.8800001      -5.22592018E-07
  -11.8699999      -5.38232825E-07
  -11.8599997      -5.49192748E-07
  -11.8500004      -5.55077918E-07
  -11.8400002      -5.55538179E-07
  -11.8299999      -5.50271977E-07
  -11.8199997      -5.39029656E-07
  -11.8100004      -5.21616471E-07
  -11.8000002      -4.97894519E-07
  -11.7900000      -4.67783025E-07
  -11.7799997      -4.31258570E-07
  -11.7700005      -3.88353470E-07
  -11.7600002      -3.39153559E-07
  -11.7500000      -2.83795515E-07
  -11.7399998      -2.22463214E-07
  -11.7299995      -1.55384825E-07
  -11.7200003      -8.28298710E-08
  -11.7100000      -5.10710896E-09
  -11.6999998       7.74364750E-08
  -11.6899996       1.64415638E-07
  -11.6800003       2.55405581E-07
  -11.6700001       3.49940137E-07
  -11.6599998       4.47508171E-07
  -11.6499996       5.47551224E-07
  -11.6400003       6.49459651E-07
  -11.6300001       7.52569804E-07
  -11.6199999       8.56161989E-07
  -11.6099997       9.59459953E-07
  -11.6000004       1.06163031E-06
  -11.5900002       1.16178580E-06
  -11.5799999       1.25898816E-06
  -11.5699997       1.35225469E-06
  -11.5600004       1.44056594E-06
  -11.5500002       1.52287589E-06
  -11.5400000       1.59812339E-06
  -11.5299997       1.66524626E-06
  -11.5200005       1.72319528E-06
  -11.5100002       1.77095035E-06
  -11.5000000       1.80753568E-06
  -11.4899998       1.83203520E-06
  -11.4799995       1.84360670E-06
  -11.4700003       1.84149428E-06
  -11.4600000       1.82503834E-06
  -11.4499998       1.79368328E-06
  -11.4399996       1.74698255E-06
  -11.4300003       1.68460008E-06
  -11.4200001       1.60631009E-06
  -11.4099998       1.51199231E-06
  -11.3999996       1.40162649E-06
  -11.3900003       1.27528324E-06
  -11.3800001       1.13311444E-06
  -11.3699999       9.75341550E-07
  -11.3599997       8.02243790E-07
  -11.3500004       6.14145961E-07
  -11.3400002       4.11407257E-07
  -11.3299999       1.94411712E-07
  -11.3199997      -3.64404897E-08
  -11.3100004      -2.80738078E-07
  -11.3000002      -5.38062807E-07
  -11.2900000      -8.07989068E-07
  -11.2799997      -1.09008215E-06
  -11.2700005      -1.38389453E-06
  -11.2600002      -1.68895770E-06
  -11.2500000      -2.00477552E-06
  -11.2399998      -2.33081437E-06
  -11.2299995      -2.66649295E-06
  -11.2200003      -3.01117302E-06
  -11.2100000      -3.36415292E-06
  -11.1999998      -3.72465661E-06
  -11.1899996      -4.09183349E-06
  -11.1800003      -4.46475360E-06
  -11.1700001      -4.84241446E-06
  -11.1599998      -5.22373966E-06
  -11.1499996      -5.60759509E-06
  -11.1400003      -5.99279656E-06
  -11.1300001      -6.37813218E-06
  -11.1199999      -6.76237323E-06
  -11.1099997      -7.14430280E-06
  -11.1000004      -7.52272672E-06
  -11.0900002      -7.89649857E-06
  -11.0799999      -8.26453561E-06
  -11.0699997      -8.62583329E-06
  -11.0600004      -8.97948121E-06
  -11.0500002      -9.32466446E-06
  -11.0400000      -9.66067819E-06
  -11.0299997      -9.98692485E-06
  -11.0200005      -1.03029106E-05
  -11.0100002      -1.06082516E-05
  -11.0000000      -1.09026441E-05
  -10.9899998      -1.11858772E-05
  -10.9799995      -1.14578070E-05
  -10.9700003      -1.17183417E-05
  -10.9600000      -1.19674223E-05
  -10.9499998      -1.22050151E-05
  -10.9399996      -1.24310736E-05
  -10.9300003      -1.26455534E-05
  -10.9200001      -1.28483680E-05
  -10.9099998      -1.30393973E-05
  -10.8999996      -1.32184723E-05
  -10.8900003      -1.33853709E-05
  -10.8800001      -1.35398222E-05
  -10.8699999      -1.36815033E-05
  -10.8599997      -1.38100449E-05
  -10.8500004      -1.39250442E-05
  -10.8400002      -1.40260618E-05
  -10.8299999      -1.41126447E-05
  -10.8199997      -1.41843257E-05
  -10.8100004      -1.42406407E-05
  -10.8000002      -1.42811332E-05
  -10.7900000      -1.43053621E-05
  -10.7799997      -1.43129155E-05
  -10.7700005      -1.43034149E-05
  -10.7600002      -1.42765139E-05
  -10.7500000      -1.42319086E-05
  -10.7399998      -1.41693326E-05
  -10.7299995      -1.40885604E-05
  -10.7200003      -1.39894000E-05
  -10.7100000      -1.38716905E-05
  -10.6999998      -1.37352863E-05
  -10.6899996      -1.35800619E-05
  -10.6800003      -1.34058919E-05
  -10.6700001      -1.32126434E-05
  -10.6599998      -1.30001717E-05
  -10.6499996      -1.27683070E-05
  -10.6400003      -1.25168508E-05
  -10.6300001      -1.22455722E-05
  -10.6199999      -1.19541992E-05
  -10.6099997      -1.16424299E-05
  -10.6000004      -1.13099322E-05
  -10.5900002      -1.09563416E-05
  -10.5799999      -1.05812778E-05
  -10.5699997      -1.01843452E-05
  -10.5600004      -9.76515184E-06
  -10.5500002      -9.32330477E-06
  -10.5400000      -8.85843383E-06
  -10.5299997      -8.37018979E-06
  -10.5200005      -7.85825796E-06
  -10.5100002      -7.32235958E-06
  -10.5000000      -6.76226773E-06
  -10.4899998      -6.17781052E-06
  -10.4799995      -5.56887426E-06
  -10.4700003      -4.93541393E-06
  -10.4600000      -4.27746136E-06
  -10.4499998      -3.59512865E-06
  -10.4399996      -2.88861747E-06
  -10.4300003      -2.15823025E-06
  -10.4200001      -1.40436919E-06
  -10.4099998      -6.27545887E-07
  -10.3999996       1.71614701E-07
  -10.3900003       9.92373316E-07
  -10.3800001       1.83387442E-06
  -10.3699999       2.69514499E-06
  -10.3599997       3.57509862E-06
  -10.3500004       4.47253706E-06
  -10.3400002       5.38615677E-06
  -10.3299999       6.31455077E-06
  -10.3199997       7.25622158E-06
  -10.3100004       8.20958849E-06
  -10.3000002       9.17300076E-06
  -10.2900000       1.01447522E-05
  -10.2799997       1.11230975E-05
  -10.2700005       1.21062694E-05
  -10.2600002       1.30925055E-05
  -10.2500000       1.40800621E-05
  -10.2399998       1.50672295E-05
  -10.2299995       1.60523668E-05
  -10.2200003       1.70339044E-05
  -10.2100000       1.80103707E-05
  -10.1999998       1.89804068E-05
  -10.1899996       1.99427759E-05
  -10.1800003       2.08963902E-05
  -10.1700001       2.18402911E-05
  -10.1599998       2.27737091E-05
  -10.1499996       2.36960259E-05
  -10.1400003       2.46068012E-05
  -10.1300001       2.55057803E-05
  -10.1199999       2.63928741E-05
  -10.1099997       2.72681573E-05
  -10.1000004       2.81318662E-05
  -10.0900002       2.89843847E-05
  -10.0799999       2.98262148E-05
  -10.0699997       3.06579714E-05
  -10.0600004       3.14803474E-05
  -10.0500002       3.22941050E-05
  -10.0400000       3.31000447E-05
  -10.0299997       3.38990067E-05
  -10.0200005       3.46918168E-05
  -10.0100002       3.54793010E-05
  -10.0000000       3.62622632E-05
  -9.98999977       3.70414491E-05
  -9.97999954       3.78175791E-05
  -9.97000027       3.85912863E-05
  -9.96000004       3.93631235E-05
  -9.94999981       4.01335928E-05
  -9.93999958       4.09031054E-05
  -9.93000031       4.16719886E-05
  -9.92000008       4.24405080E-05
  -9.90999985       4.32088964E-05
  -9.89999962       4.39773394E-05
  -9.89000034       4.47460225E-05
  -9.88000011       4.55151494E-05
  -9.86999989       4.62849748E-05
  -9.85999966       4.70558080E-05
  -9.85000038       4.78280708E-05
  -9.84000015       4.86022691E-05
  -9.82999992       4.93790649E-05
  -9.81999969       5.01591894E-05
  -9.81000042       5.09435813E-05
  -9.80000019       5.17332592E-05
  -9.78999996       5.25293872E-05
  -9.77999973       5.33332459E-05
  -9.77000046       5.41462505E-05
  -9.76000023       5.49698925E-05
  -9.75000000       5.58057618E-05
  -9.73999977       5.66555500E-05
  -9.72999954       5.75209706E-05
  -9.72000027       5.84037844E-05
  -9.71000004       5.93057994E-05
  -9.69999981       6.02287764E-05
  -9.68999958       6.11744617E-05
  -9.68000031       6.21445142E-05
  -9.67000008       6.31405419E-05
  -9.65999985       6.41640290E-05
  -9.64999962       6.52162926E-05
  -9.64000034       6.62985185E-05
  -9.63000011       6.74116673E-05
  -9.61999989       6.85565319E-05
  -9.60999966       6.97336291E-05
  -9.60000038       7.09432497E-05
  -9.59000015       7.21853939E-05
  -9.57999992       7.34597852E-05
  -9.56999969       7.47658487E-05
  -9.56000042       7.61026968E-05
  -9.55000019       7.74691289E-05
  -9.53999996       7.88636462E-05
  -9.52999973       8.02844443E-05
  -9.52000046       8.17294567E-05
  -9.51000023       8.31962898E-05
  -9.50000000       8.46823314E-05
  -9.48999977       8.61846929E-05
  -9.47999954       8.77003185E-05
  -9.47000027       8.92258977E-05
  -9.46000004       9.07579961E-05
  -9.44999981       9.22930121E-05
  -9.43999958       9.38273006E-05
  -9.43000031       9.53571071E-05
  -9.42000008       9.68787426E-05
  -9.40999985       9.83885329E-05
  -9.39999962       9.98829200E-05
  -9.39000034       1.01358513E-04
  -9.38000011       1.02812141E-04
  -9.36999989       1.04240942E-04
  -9.35999966       1.05642335E-04
  -9.35000038       1.07014130E-04
  -9.34000015       1.08354572E-04
  -9.32999992       1.09662411E-04
  -9.31999969       1.10936802E-04
  -9.31000042       1.12177535E-04
  -9.30000019       1.13384936E-04
  -9.28999996       1.14559916E-04
  -9.27999973       1.15704046E-04
  -9.27000046       1.16819436E-04
  -9.26000023       1.17908887E-04
  -9.25000000       1.18975746E-04
  -9.23999977       1.20023979E-04
  -9.22999954       1.21058154E-04
  -9.22000027       1.22083278E-04
  -9.21000004       1.23104997E-04
  -9.19999981       1.24129350E-04
  -9.18999958       1.25162769E-04
  -9.18000031       1.26212122E-04
  -9.17000008       1.27284540E-04
  -9.15999985       1.28387430E-04
  -9.14999962       1.29528344E-04
  -9.14000034       1.30714965E-04
  -9.13000011       1.31955050E-04
  -9.11999989       1.33256297E-04
  -9.10999966       1.34626287E-04
  -9.10000038       1.36072456E-04
  -9.09000015       1.37601965E-04
  -9.07999992       1.39221680E-04
  -9.06999969       1.40938006E-04
  -9.06000042       1.42756879E-04
  -9.05000019       1.44683712E-04
  -9.03999996       1.46723251E-04
  -9.02999973       1.48879568E-04
  -9.02000046       1.51155968E-04
  -9.01000023       1.53554953E-04
  -9.00000000       1.56078226E-04
  -8.98999977       1.58726572E-04
  -8.97999954       1.61499833E-04
  -8.97000027       1.64396944E-04
  -8.96000004       1.67415914E-04
  -8.94999981       1.70553685E-04
  -8.93999958       1.73806417E-04
  -8.93000031       1.77169073E-04
  -8.92000008       1.80635936E-04
  -8.90999985       1.84200268E-04
  -8.89999962       1.87854472E-04
  -8.89000034       1.91590239E-04
  -8.88000011       1.95398417E-04
  -8.86999989       1.99269183E-04
  -8.85999966       2.03192161E-04
  -8.85000038       2.07156249E-04
  -8.84000015       2.11150094E-04
  -8.82999992       2.15161737E-04
  -8.81999969       2.19179012E-04
  -8.81000042       2.23189490E-04
  -8.80000019       2.27180542E-04
  -8.78999996       2.31139536E-04
  -8.77999973       2.35053842E-04
  -8.77000046       2.38910929E-04
  -8.76000023       2.42698370E-04
  -8.75000000       2.46404146E-04
  -8.73999977       2.50016368E-04
  -8.72999954       2.53523729E-04
  -8.72000027       2.56915286E-04
  -8.71000004       2.60180619E-04
  -8.69999981       2.63309979E-04
  -8.68999958       2.66294199E-04
  -8.68000031       2.69124779E-04
  -8.67000008       2.71793979E-04
  -8.65999985       2.74294725E-04
  -8.64999962       2.76620820E-04
  -8.64000034       2.78766645E-04
  -8.63000011       2.80727574E-04
  -8.61999989       2.82499677E-04
  -8.60999966       2.84079724E-04
  -8.60000038       2.85465328E-04
  -8.59000015       2.86654860E-04
  -8.57999992       2.87647330E-04
  -8.56999969       2.88442592E-04
  -8.56000042       2.89040880E-04
  -8.55000019       2.89443356E-04
  -8.53999996       2.89651623E-04
  -8.52999973       2.89667718E-04
  -8.52000046       2.89494434E-04
  -8.51000023       2.89134798E-04
  -8.50000000       2.88592448E-04
  -8.48999977       2.87871168E-04
  -8.47999954       2.86975352E-04
  -8.47000027       2.85909482E-04
  -8.46000004       2.84678244E-04
  -8.44999981       2.83286674E-04
  -8.43999958       2.81739747E-04
  -8.43000031       2.80042674E-04
  -8.42000008       2.78200692E-04
  -8.40999985       2.76219071E-04
  -8.39999962       2.74102989E-04
  -8.39000034       2.71857687E-04
  -8.38000011       2.69488432E-04
  -8.36999989       2.67000316E-04
  -8.35999966       2.64398521E-04
  -8.35000038       2.61688081E-04
  -8.34000015       2.58874119E-04
  -8.32999992       2.55961728E-04
  -8.31999969       2.52956088E-04
  -8.31000042       2.49862234E-04
  -8.30000019       2.46685435E-04
  -8.28999996       2.43431074E-04
  -8.27999973       2.40104462E-04
  -8.27000046       2.36711188E-04
  -8.26000023       2.33256869E-04
  -8.25000000       2.29747471E-04
  -8.23999977       2.26188989E-04
  -8.22999954       2.22587798E-04
  -8.22000027       2.18950372E-04
  -8.21000004       2.15283610E-04
  -8.19999981       2.11594583E-04
  -8.18999958       2.07890756E-04
  -8.18000031       2.04179771E-04
  -8.17000008       2.00469687E-04
  -8.15999985       1.96768844E-04
  -8.14999962       1.93086002E-04
  -8.14000034       1.89430153E-04
  -8.13000011       1.85810626E-04
  -8.11999989       1.82237141E-04
  -8.10999966       1.78719667E-04
  -8.10000038       1.75268462E-04
  -8.09000015       1.71894004E-04
  -8.07999992       1.68607046E-04
  -8.06999969       1.65418591E-04
  -8.06000042       1.62339536E-04
  -8.05000019       1.59381132E-04
  -8.03999996       1.56554568E-04
  -8.02999973       1.53871049E-04
  -8.02000046       1.51341723E-04
  -8.01000023       1.48977662E-04
  -8.00000000       1.46789855E-04
  -7.98999977       1.44788952E-04
  -7.98000002       1.42985504E-04
  -7.96999979       1.41389552E-04
  -7.96000004       1.40010990E-04
  -7.94999981       1.38859148E-04
  -7.94000006       1.37942989E-04
  -7.92999983       1.37270967E-04
  -7.92000008       1.36850955E-04
  -7.90999985       1.36690229E-04
  -7.90000010       1.36795585E-04
  -7.88999987       1.37173076E-04
  -7.88000011       1.37827956E-04
  -7.86999989       1.38764954E-04
  -7.86000013       1.39987867E-04
  -7.84999990       1.41499782E-04
  -7.84000015       1.43302939E-04
  -7.82999992       1.45398866E-04
  -7.82000017       1.47788174E-04
  -7.80999994       1.50470602E-04
  -7.80000019       1.53445260E-04
  -7.78999996       1.56710506E-04
  -7.78000021       1.60263648E-04
  -7.76999998       1.64101424E-04
  -7.76000023       1.68219820E-04
  -7.75000000       1.72614134E-04
  -7.73999977       1.77278940E-04
  -7.73000002       1.82208256E-04
  -7.71999979       1.87395577E-04
  -7.71000004       1.92833817E-04
  -7.69999981       1.98515379E-04
  -7.69000006       2.04432363E-04
  -7.67999983       2.10576516E-04
  -7.67000008       2.16939137E-04
  -7.65999985       2.23511393E-04
  -7.65000010       2.30284044E-04
  -7.63999987       2.37248154E-04
  -7.63000011       2.44394178E-04
  -7.61999989       2.51712947E-04
  -7.61000013       2.59195105E-04
  -7.59999990       2.66831514E-04
  -7.59000015       2.74613063E-04
  -7.57999992       2.82531197E-04
  -7.57000017       2.90577154E-04
  -7.55999994       2.98742787E-04
  -7.55000019       3.07020266E-04
  -7.53999996       3.15401994E-04
  -7.53000021       3.23881017E-04
  -7.51999998       3.32450931E-04
  -7.51000023       3.41105537E-04
  -7.50000000       3.49839509E-04
  -7.48999977       3.58647812E-04
  -7.48000002       3.67526198E-04
  -7.46999979       3.76470882E-04
  -7.46000004       3.85478721E-04
  -7.44999981       3.94546776E-04
  -7.44000006       4.03673126E-04