  -16.0000000       0.00000000    
  -15.9899998       0.00000000    
  -15.9799995       0.00000000    
  -15.9700003       0.00000000    
  -15.9600000       0.00000000    
  -15.9499998       0.00000000    
  -15.9399996       0.00000000    
  -15.9300003       0.00000000    
  -15.9200001       0.00000000    
  -15.9099998       0.00000000    
  -15.8999996       0.00000000    
  -15.8900003       0.00000000    
  -15.8800001       0.00000000    
  -15.8699999      -5.60519386E-45
  -15.8599997      -9.24856986E-44
  -15.8500004      -7.41286888E-43
  -15.8400002      -3.92223440E-42
  -15.8299999      -1.67511218E-41
  -15.8199997      -7.34224343E-41
  -15.8100004      -3.69673745E-40
  -15.8000002      -1.87103333E-39
  -15.7900000      -8.29525811E-39
  -15.7799997      -3.06630280E-38
  -15.7700005      -9.34954295E-38
  -15.7600002      -2.33351126E-37
  -15.7500000      -4.65214902E-37
  -15.7399998      -6.86870948E-37
  -15.7299995      -5.43234403E-37
  -15.7200003       5.65686881E-37
  -15.7100000       2.94807548E-36
  -15.6999998       5.35396279E-36
  -15.6899996       4.21769798E-36
  -15.6800003      -2.05282790E-36
  -15.6700001       4.04047843E-36
  -15.6599998       9.21994173E-35
  -15.6499996       4.09858146E-34
  -15.6400003       1.11735734E-33
  -15.6300001       2.08202384E-33
  -15.6199999       2.20456306E-33
  -15.6099997      -1.43987736E-33
  -15.6000004      -1.36872755E-32
  -15.5900002      -3.85309004E-32
  -15.5799999      -7.09585931E-32
  -15.5699997      -8.29471719E-32
  -15.5600004      -1.04359051E-32
  -15.5500002       2.39087228E-31
  -15.5400000       7.26411968E-31
  -15.5299997       1.34059723E-30
  -15.5200005       1.59897005E-30
  -15.5100002       5.14904800E-31
  -15.5000000      -3.19149312E-30
  -15.4899998      -1.01798872E-29
  -15.4799995      -1.86880671E-29
  -15.4700003      -2.23146203E-29
  -15.4600000      -9.05356119E-30
  -15.4499998       3.54447605E-29
  -15.4399996       1.17156618E-28
  -15.4300003       2.14861415E-28
  -15.4200001       2.59496503E-28
  -15.4099998       1.28692071E-28
  -15.3999996      -3.16906765E-28
  -15.3900003      -1.13076595E-27
  -15.3800001      -2.11292965E-27
  -15.3699999      -2.63940687E-27
  -15.3599997      -1.63240358E-27
  -15.3500004       2.12233050E-27
  -15.3400002       9.13914849E-27
  -15.3299999       1.79236362E-26
  -15.3199997       2.36772472E-26
  -15.3100004       1.80644217E-26
  -15.3000002      -8.52832594E-27
  -15.2900000      -6.11127893E-26
  -15.2799997      -1.30967834E-25
  -15.2700005      -1.86474984E-25
  -15.2600002      -1.70651161E-25
  -15.2500000      -1.43964511E-26
  -15.2399998       3.27381935E-25
  -15.2299995       8.18441365E-25
  -15.2200003       1.28088676E-24
  -15.2100000       1.37034892E-24
  -15.1999998       6.38835289E-25
  -15.1899996      -1.27092532E-24
  -15.1800003      -4.30130195E-24
  -15.1700001      -7.61398764E-24
  -15.1599998      -9.37952698E-24
  -15.1499996      -6.99939794E-24
  -15.1400003       1.98579344E-24
  -15.1300001       1.82521004E-23
  -15.1199999       3.86715898E-23
  -15.1099997       5.48142019E-23
  -15.1000004       5.33187047E-23
  -15.0900002       1.94927561E-23
  -15.0799999      -5.52757171E-23
  -15.0699997      -1.63461307E-22
  -15.0600004      -2.72315971E-22
  -15.0500002      -3.21686749E-22
  -15.0400000      -2.35400537E-22
  -15.0299997       4.95527206E-23
  -15.0200005       5.38409710E-22
  -15.0100002       1.13115646E-21
  -15.0000000       1.59557021E-21
  -14.9899998       1.59022292E-21
  -14.9799995       7.61620592E-22
  -14.9700003      -1.08202191E-21
  -14.9600000      -3.75588950E-21
  -14.9499998      -6.52362129E-21
  -14.9399996      -8.07830725E-21
  -14.9300003      -6.79485414E-21
  -14.9200001      -1.31035759E-21
  -14.9099998       8.63572036E-21
  -14.8999996       2.13408301E-20
  -14.8900003       3.26593072E-20
  -14.8800001       3.63740461E-20
  -14.8699999       2.57779707E-20
  -14.8599997      -3.52782070E-21
  -14.8500004      -5.01743073E-20
  -14.8400002      -1.04095019E-19
  -14.8299999      -1.45775384E-19
  -14.8199997      -1.49295296E-19
  -14.8100004      -8.99967854E-20
  -14.8000002       4.39820042E-20
  -14.7900000       2.39194525E-19
  -14.7799997       4.48290688E-19
  -14.7700005       5.91181796E-19
  -14.7600002       5.70738027E-19
  -14.7500000       3.04098089E-19
  -14.7399998      -2.35347101E-19
  -14.7299995      -9.77209359E-19
  -14.7200003      -1.73202128E-18
  -14.7100000      -2.20618189E-18
  -14.6999998      -2.06622872E-18
  -14.6899996      -1.05074685E-18
  -14.6800003       8.91616948E-19
  -14.6700001       3.48000963E-18
  -14.6599998       6.05009371E-18
  -14.6499996       7.62608495E-18
  -14.6400003       7.14427292E-18
  -14.6300001       3.81072141E-18
  -14.6199999      -2.48260352E-18
  -14.6099997      -1.08131341E-17
  -14.6000004      -1.91122099E-17
  -14.5900002      -2.44168613E-17
  -14.5799999      -2.35486756E-17
  -14.5699997      -1.41482362E-17
  -14.5600004       4.16178844E-18
  -14.5500002       2.88451578E-17
  -14.5400000       5.41671912E-17
  -14.5299997       7.18989888E-17
  -14.5200005       7.31355908E-17
  -14.5100002       5.10158614E-17
  -14.5000000       3.74820186E-18
  -14.4899998      -6.29586421E-17
  -14.4799995      -1.35069316E-16
  -14.4700003      -1.91810267E-16
  -14.4600000      -2.09955433E-16
  -14.4499998      -1.70306535E-16
  -14.4399996      -6.49999319E-17
  -14.4300003       9.63996220E-17
  -14.4200001       2.84289350E-16
  -14.4099998       4.51735112E-16
  -14.3999996       5.43209588E-16
  -14.3900003       5.08423321E-16
  -14.3800001       3.18519064E-16
  -14.3699999      -1.95238613E-17
  -14.3599997      -4.54954049E-16
  -14.3500004      -8.95719978E-16
  -14.3400002      -1.22320981E-15
  -14.3299999      -1.31804690E-15
  -14.3199997      -1.09229938E-15
  -14.3100004      -5.20686399E-16
  -14.3000002       3.37937029E-16
  -14.2900000       1.33662297E-15
  -14.2799997       2.25849392E-15
  -14.2700005       2.85658007E-15
  -14.2600002       2.90913212E-15
  -14.2500000       2.27913887E-15
  -14.2399998       9.63959281E-16
  -14.2299995      -8.78724791E-16
  -14.2200003      -2.93848520E-15
  -14.2100000      -4.79632068E-15
  -14.1999998      -6.00018277E-15
  -14.1899996      -6.15876640E-15
  -14.1800003      -5.03503616E-15
  -14.1700001      -2.61934351E-15
  -14.1599998       8.35158922E-16
  -14.1499996       4.82538873E-15
  -14.1400003       8.66101776E-15
  -14.1300001       1.15690208E-14
  -14.1199999       1.28242440E-14
  -14.1099997       1.18854681E-14
  -14.1000004       8.51533742E-15
  -14.0900002       2.86483505E-15
  -14.0799999      -4.49250563E-15
  -14.0699997      -1.25858737E-14
  -14.0600004      -2.01350997E-14
  -14.0500002      -2.56990152E-14
  -14.0400000      -2.78755765E-14
  -14.0299997      -2.55378740E-14
  -14.0200005      -1.80815242E-14
  -14.0100002      -5.64882673E-15
  -14.0000000       1.07134955E-14
  -13.9899998       2.90107158E-14
  -13.9799995       4.64140885E-14
  -13.9700003       5.95600433E-14
  -13.9600000       6.50331365E-14
  -13.9499998       5.99916438E-14
  -13.9399996       4.28501737E-14
  -13.9300003       1.38955696E-14
  -13.9200001      -2.43089172E-14
  -13.9099998      -6.68705949E-14
  -13.8999996      -1.06963260E-13
  -13.8900003      -1.36697660E-13
  -13.8800001      -1.48395497E-13
  -13.8699999      -1.36094017E-13
  -13.8599997      -9.70237142E-14
  -13.8500004      -3.27570985E-14
  -13.8400002       5.02600653E-14
  -13.8299999       1.41007675E-13
  -13.8199997       2.25097257E-13
  -13.8100004       2.86794243E-13
  -13.8000002       3.11592007E-13
  -13.7900000       2.88933211E-13
  -13.7799997       2.14603874E-13
  -13.7700005       9.23329609E-14
  -13.7600002      -6.57616119E-14
  -13.7500000      -2.40067379E-13
  -13.7399998      -4.05675629E-13
  -13.7299995      -5.35631543E-13
  -13.7200003      -6.04801040E-13
  -13.7100000      -5.93811946E-13
  -13.6999998      -4.92505179E-13
  -13.6899996      -3.02394991E-13
  -13.6800003      -3.77644219E-14
  -13.6700001       2.74812101E-13
  -13.6599998       5.98549313E-13
  -13.6499996       8.90007089E-13
  -13.6400003       1.10384629E-12
  -13.6300001       1.19839273E-12
  -13.6199999       1.14151603E-12
  -13.6099997       9.16220225E-13
  -13.6000004       5.25281750E-13
  -13.5900002      -5.79806080E-15
  -13.5799999      -6.28220837E-13
  -13.5699997      -1.27228339E-12
  -13.5600004      -1.85305504E-12
  -13.5500002      -2.27927117E-12
  -13.5400000      -2.46486468E-12
  -13.5299997      -2.34200073E-12
  -13.5200005      -1.87398209E-12
  -13.5100002      -1.06604547E-12
  -13.5000000       2.79951741E-14
  -13.4899998       1.30503811E-12
  -13.4799995       2.61908355E-12
  -13.4700003       3.79493745E-12
  -13.4600000       4.64835332E-12
  -13.4499998       5.01058960E-12
  -13.4399996       4.75440911E-12
  -13.4300003       3.81793208E-12
  -13.4200001       2.22262595E-12
  -13.4099998       8.21586383E-14
  -13.3999996      -2.40025990E-12
  -13.3900003      -4.94699290E-12
  -13.3800001      -7.23295772E-12
  -13.3699999      -8.92215815E-12
  -13.3599997      -9.71006608E-12
  -13.3500004      -9.36698288E-12
  -13.3400002      -7.77699433E-12
  -13.3299999      -4.96718422E-12
  -13.3199997      -1.12240436E-12
  -13.3100004       3.41776195E-12
  -13.3000002       8.18148067E-12
  -13.2900000       1.26061167E-11
  -13.2799997       1.60958989E-11
  -13.2700005       1.80908621E-11
  -13.2600002       1.81401474E-11
  -13.2500000       1.59715158E-11
  -13.2399998       1.15480420E-11
  -13.2299995       5.10356557E-12
  -13.2200003      -2.85026625E-12
  -13.2100000      -1.15501254E-11
  -13.1999998      -2.00413384E-11
  -13.1899996      -2.72697281E-11
  -13.1800003      -3.21975190E-11
  -13.1700001      -3.39321279E-11
  -13.1599998      -3.18533082E-11
  -13.1499996      -2.57224554E-11
  -13.1400003      -1.57583113E-11
  -13.1300001      -2.66545466E-12
  -13.1199999       1.23934283E-11
  -13.1099997       2.78842470E-11
  -13.1000004       4.20430288E-11
  -13.0900002       5.30603651E-11
  -13.0799999       5.92907112E-11
  -13.0699997       5.94635591E-11
  -13.0600004       5.28711658E-11
  -13.0500002       3.95084521E-11
  -13.0400000       2.01444122E-11
  -13.0299997      -3.68915315E-12
  -13.0200005      -2.97973035E-11
  -13.0100002      -5.55057493E-11
  -13.0000000      -7.79146817E-11
  -12.9899998      -9.42001199E-11
  -12.9799995      -1.01933018E-10
  -12.9700003      -9.93828075E-11
  -12.9600000      -8.57708835E-11
  -12.9499998      -6.14431631E-11
  -12.9399996      -2.79364344E-11
  -12.9300003       1.20771136E-11
  -12.9200001       5.49711214E-11
  -12.9099998       9.64638994E-11
  -12.8999996       1.32012831E-10
  -12.8900003       1.57271571E-10
  -12.8800001       1.68566883E-10
  -12.8699999       1.63347738E-10
  -12.8599997       1.40555942E-10
  -12.8500004       1.00873317E-10
  -12.8400002       4.68082136E-11
  -12.8299999      -1.74018785E-11
  -12.8199997      -8.60777838E-11
  -12.8100004      -1.52562046E-10
  -12.8000002      -2.09824616E-10
  -12.7900000      -2.51159316E-10
  -12.7799997      -2.70905021E-10
  -12.7700005      -2.65116790E-10
  -12.7600002      -2.32112926E-10
  -12.7500000      -1.72829723E-10
  -12.7399998      -9.09325809E-11
  -12.7299995       7.34580018E-12
  -12.7200003       1.13642429E-10
  -12.7100000       2.18148069E-10
  -12.6999998       3.10482556E-10
  -12.6899996       3.80683457E-10
  -12.6800003       4.20211671E-10
  -12.6700001       4.22873597E-10
  -12.6599998       3.85565135E-10
  -12.6499996       3.08755271E-10
  -12.6400003       1.96653804E-10
  -12.6300001       5.70352515E-11
  -12.6199999      -9.92743110E-11
  -12.6099997      -2.59212041E-10
  -12.6000004      -4.08529433E-10
  -12.5900002      -5.32995204E-10
  -12.5799999      -6.19650886E-10
  -12.5699997      -6.58015920E-10
  -12.5600004      -6.41140696E-10
  -12.5500002      -5.66416747E-10
  -12.5400000      -4.36065850E-10
  -12.5299997      -2.57253718E-10
  -12.5200005      -4.17973468E-11
  -12.5100002       1.94534916E-10
  -12.5000000       4.33100028E-10
  -12.4899998       6.53769150E-10
  -12.4799995       8.36530123E-10
  -12.4700003       9.63179425E-10
  -12.4600000       1.01895636E-09
  -12.4499998       9.93971017E-10
  -12.4399996       8.84274709E-10
  -12.4300003       6.92460145E-10
  -12.4200001       4.27707952E-10
  -12.4099998       1.05250891E-10
  -12.3999996      -2.54710281E-10
  -12.3900003      -6.28551822E-10
  -12.3800001      -9.91095761E-10
  -12.3699999      -1.31763589E-09
  -12.3599997      -1.58593383E-09
  -12.3500004      -1.77800152E-09
  -12.3400002      -1.88153071E-09
  -12.3299999      -1.89083615E-09
  -12.3199997      -1.80725179E-09
  -12.3100004      -1.63896163E-09
  -12.3000002      -1.40028078E-09
  -12.2900000      -1.11044884E-09
  -12.2799997      -7.92030330E-10
  -12.2700005      -4.69034089E-10
  -12.2600002      -1.64870617E-10
  -12.2500000       9.96797436E-11
  -12.2399998       3.08368664E-10
  -12.2299995       4.51087306E-10
  -12.2200003       5.25028077E-10
  -12.2100000       5.35286815E-10
  -12.1999998       4.94800867E-10
  -12.1899996       4.23589969E-10
  -12.1800003       3.47298024E-10
  -12.1700001       2.95143104E-10
  -12.1599998       2.97408653E-10
  -12.1499996       3.82690990E-10
  -12.1400003       5.75146375E-10
  -12.1300001       8.92003749E-10
  -12.1199999       1.34156364E-09
  -12.1099997       1.92188865E-09
  -12.1000004       2.62031685E-09
  -12.0900002       3.41382056E-09
  -12.0799999       4.27018199E-09
  -12.0699997       5.14989429E-09
  -12.0600004       6.00860073E-09
  -12.0500002       6.79986645E-09
  -12.0400000       7.47809459E-09
  -12.0299997       8.00138888E-09
  -12.0200005       8.33411029E-09
  -12.0100002       8.44910630E-09
  -12.0000000       8.32934077E-09
  -11.9899998       7.96894462E-09
  -11.9799995       7.37358041E-09
  -11.9700003       6.56014931E-09
  -11.9600000       5.55574742E-09
  -11.9499998       4.39602887E-09
  -11.9399996       3.12302562E-09
  -11.9300003       1.78250048E-09
  -11.9200001       4.21098795E-10
  -11.9099998      -9.16604737E-10
  -11.8999996      -2.19088436E-09
  -11.8900003      -3.36926753E-09
  -11.8800001      -4.42840031E-09
  -11.8699999      -5.35525713E-09
  -11.8599997      -6.14760243E-09
  -11.8500004      -6.81366341E-09
  -11.8400002      -7.37110284E-09
  -11.8299999      -7.84535548E-09
  -11.8199997      -8.26755375E-09
  -11.8100004      -8.67201599E-09
  -11.8000002      -9.09367603E-09
  -11.7900000      -9.56538582E-09
  -11.7799997      -1.01153557E-08
  -11.7700005      -1.07647695E-08
  -11.7600002      -1.15258008E-08
  -11.7500000      -1.24000010E-08
  -11.7399998      -1.33773090E-08
  -11.7299995      -1.44357504E-08
  -11.7200003      -1.55417617E-08
  -11.7100000      -1.66514997E-08
  -11.6999998      -1.77128410E-08
  -11.6899996      -1.86680467E-08
  -11.6800003      -1.94570600E-08
  -11.6700001      -2.00210746E-08
  -11.6599998      -2.03061106E-08
  -11.6499996      -2.02664037E-08
  -11.6400003      -1.98672421E-08
  -11.6300001      -1.90871265E-08
  -11.6199999      -1.79190458E-08
  -11.6099997      -1.63708815E-08
  -11.6000004      -1.44649803E-08
  -11.5900002      -1.22367263E-08
  -11.5799999      -9.73282166E-09
  -11.5699997      -7.00856218E-09
  -11.5600004      -4.12523216E-09
  -11.5500002      -1.14667487E-09
  -11.5400000       1.86363591E-09
  -11.5299997       4.84601870E-09
  -11.5200005       7.74757059E-09
  -11.5100002       1.05246496E-08
  -11.5000000       1.31450131E-08
  -11.4899998       1.55889488E-08
  -11.4799995       1.78497412E-08
  -11.4700003       1.99330081E-08
  -11.4600000       2.18550973E-08
  -11.4499998       2.36409381E-08
  -11.4399996       2.53210626E-08
  -11.4300003       2.69285465E-08
  -11.4200001       2.84960446E-08
  -11.4099998       3.00529770E-08
  -11.3999996       3.16235109E-08
  -11.3900003       3.32248398E-08
  -11.3800001       3.48665488E-08
  -11.3699999       3.65500767E-08
  -11.3599997       3.82688334E-08
  -11.3500004       4.00086222E-08
  -11.3400002       4.17482724E-08
  -11.3299999       4.34603358E-08
  -11.3199997       4.51119604E-08
  -11.3100004       4.66660914E-08
  -11.3000002       4.80828390E-08
  -11.2900000       4.93211552E-08
  -11.2799997       5.03406099E-08
  -11.2700005       5.11034770E-08
  -11.2600002       5.15765457E-08
  -11.2500000       5.17330676E-08
  -11.2399998       5.15533038E-08
  -11.2299995       5.10259639E-08
  -11.2200003       5.01476798E-08
  -11.2100000       4.89226650E-08
  -11.1999998       4.73618762E-08
  -11.1899996       4.54818903E-08
  -11.1800003       4.33034728E-08
  -11.1700001       4.08506295E-08
  -11.1599998       3.81496079E-08
  -11.1499996       3.52280765E-08
  -11.1400003       3.21140412E-08
  -11.1300001       2.88357960E-08
  -11.1199999       2.54204089E-08
  -11.1099997       2.18931273E-08
  -11.1000004       1.82760242E-08
  -11.0900002       1.45869983E-08
  -11.0799999       1.08394183E-08
  -11.0699997       7.04091674E-09
  -11.0600004       3.19418136E-09
  -11.0500002      -7.03170300E-10
  -11.0400000      -4.65716443E-09
  -11.0299997      -8.67593908E-09
  -11.0200005      -1.27691369E-08
  -11.0100002      -1.69448331E-08
  -11.0000000      -2.12101412E-08
  -10.9899998      -2.55694950E-08
  -10.9799995      -3.00253902E-08
  -10.9700003      -3.45777877E-08
  -10.9600000      -3.92263502E-08
  -10.9499998      -4.39699157E-08
  -10.9399996      -4.88085377E-08
  -10.9300003      -5.37436442E-08
  -10.9200001      -5.87793139E-08
  -10.9099998      -6.39218811E-08
  -10.8999996      -6.91796060E-08
  -10.8900003      -7.45633955E-08
  -10.8800001      -8.00854352E-08
  -10.8699999      -8.57588276E-08
  -10.8599997      -9.15970091E-08
  -10.8500004      -9.76139560E-08
  -10.8400002      -1.03822231E-07
  -10.8299999      -1.10233977E-07
  -10.8199997      -1.16859098E-07
  -10.8100004      -1.23704595E-07
  -10.8000002      -1.30773614E-07
  -10.7900000      -1.38064877E-07
  -10.7799997      -1.45570624E-07
  -10.7700005      -1.53277313E-07
  -10.7600002      -1.61164536E-07
  -10.7500000      -1.69205634E-07
  -10.7399998      -1.77368889E-07
  -10.7299995      -1.85617921E-07
  -10.7200003      -1.93914715E-07
  -10.7100000      -2.02221486E-07
  -10.6999998      -2.10504282E-07
  -10.6899996      -2.18733959E-07
  -10.6800003      -2.26889142E-07
  -10.6700001      -2.34957540E-07
  -10.6599998      -2.42936551E-07
  -10.6499996      -2.50833864E-07
  -10.6400003      -2.58666432E-07
  -10.6300001      -2.66459921E-07
  -10.6199999      -2.74246759E-07
  -10.6099997      -2.82064946E-07
  -10.6000004      -2.89956830E-07
  -10.5900002      -2.97966238E-07
  -10.5799999      -3.06138304E-07
  -10.5699997      -3.14517308E-07
  -10.5600004      -3.23145059E-07
  -10.5500002      -3.32059813E-07
  -10.5400000      -3.41294367E-07
  -10.5299997      -3.50874814E-07
  -10.5200005      -3.60818007E-07
  -10.5100002      -3.71130909E-07
  -10.5000000      -3.81808832E-07
  -10.4899998      -3.92833925E-07
  -10.4799995      -4.04175239E-07
  -10.4700003      -4.15789344E-07
  -10.4600000      -4.27620478E-07
  -10.4499998      -4.39602928E-07
  -10.4399996      -4.51663055E-07
  -10.4300003      -4.63722074E-07
  -10.4200001      -4.75699778E-07
  -10.4099998      -4.87517070E-07
  -10.3999996      -4.99099826E-07
  -10.3900003      -5.10381881E-07
  -10.3800001      -5.21306447E-07
  -10.3699999      -5.31829073E-07
  -10.3599997      -5.41918666E-07
  -10.3500004      -5.51556980E-07
  -10.3400002      -5.60738840E-07
  -10.3299999      -5.69472377E-07
  -10.3199997      -5.77775552E-07
  -10.3100004      -5.85676105E-07
  -10.3000002      -5.93209109E-07
  -10.2900000      -6.00414182E-07
  -10.2799997      -6.07335949E-07
  -10.2700005      -6.14019825E-07
  -10.2600002      -6.20512026E-07
  -10.2500000      -6.26857968E-07
  -10.2399998      -6.33100910E-07
  -10.2299995      -6.39282518E-07
  -10.2200003      -6.45440991E-07
  -10.2100000      -6.51614130E-07
  -10.1999998      -6.57835699E-07
  -10.1899996      -6.64140032E-07
  -10.1800003      -6.70560155E-07
  -10.1700001      -6.77132334E-07
  -10.1599998      -6.83892097E-07
  -10.1499996      -6.90878949E-07
  -10.1400003      -6.98135580E-07
  -10.1300001      -7.05704224E-07
  -10.1199999      -7.13629220E-07
  -10.1099997      -7.21950812E-07
  -10.1000004      -7.30706120E-07
  -10.0900002      -7.39924189E-07
  -10.0799999      -7.49624576E-07
  -10.0699997      -7.59815691E-07
  -10.0600004      -7.70493216E-07
  -10.0500002      -7.81640495E-07
  -10.0400000      -7.93229219E-07
  -10.0299997      -8.05218690E-07
  -10.0200005      -8.17559737E-07
  -10.0100002      -8.30194267E-07
  -10.0000000      -8.43058558E-07
  -9.98999977      -8.56084739E-07
  -9.97999954      -8.69204030E-07
  -9.97000027      -8.82346342E-07
  -9.96000004      -8.95446703E-07
  -9.94999981      -9.08445372E-07
  -9.93999958      -9.21295111E-07
  -9.93000031      -9.33958290E-07
  -9.92000008      -9.46416094E-07
  -9.90999985      -9.58665623E-07
  -9.89999962      -9.70726433E-07
  -9.89000034      -9.82635811E-07
  -9.88000011      -9.94449920E-07
  -9.86999989      -1.00624493E-06
  -9.85999966      -1.01811111E-06
  -9.85000038      -1.03015066E-06
  -9.84000015      -1.04247295E-06
  -9.82999992      -1.05519450E-06
  -9.81999969      -1.06843379E-06
  -9.81000042      -1.08230449E-06
  -9.80000019      -1.09692144E-06
  -9.78999996      -1.11239160E-06
  -9.77999973      -1.12881560E-06
  -9.77000046      -1.14628381E-06
  -9.76000023      -1.16487593E-06
  -9.75000000      -1.18465812E-06
  -9.73999977      -1.20568461E-06
  -9.72999954      -1.22799349E-06
  -9.72000027      -1.25160750E-06
  -9.71000004      -1.27653186E-06
  -9.69999981      -1.30275293E-06
  -9.68999958      -1.33024264E-06
  -9.68000031      -1.35895209E-06
  -9.67000008      -1.38880989E-06
  -9.65999985      -1.41973533E-06
  -9.64999962      -1.45162142E-06
  -9.64000034      -1.48434287E-06
  -9.63000011      -1.51775885E-06
  -9.61999989      -1.55171165E-06
  -9.60999966      -1.58603075E-06
  -9.60000038      -1.62052982E-06
  -9.59000015      -1.65501297E-06
  -9.57999992      -1.68928966E-06
  -9.56999969      -1.72316061E-06
  -9.56000042      -1.75643572E-06
  -9.55000019      -1.78893276E-06
  -9.53999996      -1.82048836E-06
  -9.52999973      -1.85095189E-06
  -9.52000046      -1.88018998E-06
  -9.51000023      -1.90809283E-06
  -9.50000000      -1.93457095E-06
  -9.48999977      -1.95955613E-06
  -9.47999954      -1.98298949E-06
  -9.47000027      -2.00485101E-06
  -9.46000004      -2.02512479E-06
  -9.44999981      -2.04383150E-06
  -9.43999958      -2.06101095E-06
  -9.43000031      -2.07672747E-06
  -9.42000008      -2.09107634E-06
  -9.40999985      -2.10417670E-06
  -9.39999962      -2.11617453E-06
  -9.39000034      -2.12724558E-06
  -9.38000011      -2.13759085E-06
  -9.36999989      -2.14743727E-06
  -9.35999966      -2.15703790E-06
  -9.35000038      -2.16667036E-06
  -9.34000015      -2.17662659E-06
  -9.32999992      -2.18721379E-06
  -9.31999969      -2.19875233E-06
  -9.31000042      -2.21156506E-06
  -9.30000019      -2.22597259E-06
  -9.28999996      -2.24228461E-06
  -9.27999973      -2.26080761E-06
  -9.27000046      -2.28182103E-06
  -9.26000023      -2.30559544E-06
  -9.25000000      -2.33237142E-06
  -9.23999977      -2.36235746E-06
  -9.22999954      -2.39574797E-06
  -9.22000027      -2.43270642E-06
  -9.21000004      -2.47336015E-06
  -9.19999981      -2.51781967E-06
  -9.18999958      -2.56615613E-06
  -9.18000031      -2.61841296E-06
  -9.17000008      -2.67460382E-06
  -9.15999985      -2.73471983E-06
  -9.14999962      -2.79870869E-06
  -9.14000034      -2.86649106E-06
  -9.13000011      -2.93797052E-06
  -9.11999989      -3.01300611E-06
  -9.10999966      -3.09143843E-06
  -9.10000038      -3.17308513E-06
  -9.09000015      -3.25772294E-06
  -9.07999992      -3.34511537E-06
  -9.06999969      -3.43499460E-06
  -9.06000042      -3.52706229E-06
  -9.05000019      -3.62100673E-06
  -9.03999996      -3.71648525E-06
  -9.02999973      -3.81312998E-06
  -9.02000046      -3.91053891E-06
  -9.01000023      -4.00829003E-06
  -9.00000000      -4.10596658E-06
  -8.98999977      -4.20309925E-06
  -8.97999954      -4.29924012E-06
  -8.97000027      -4.39392716E-06
  -8.96000004      -4.48670971E-06
  -8.94999981      -4.57715305E-06
  -8.93999958      -4.66483243E-06
  -8.93000031      -4.74935814E-06
  -8.92000008      -4.83035365E-06
  -8.90999985      -4.90749699E-06
  -8.89999962      -4.98048166E-06
  -8.89000034      -5.04903073E-06
  -8.88000011      -5.11292092E-06
  -8.86999989      -5.17194576E-06
  -8.85999966      -5.22592291E-06
  -8.85000038      -5.27473230E-06
  -8.84000015      -5.31828664E-06
  -8.82999992      -5.35650224E-06
  -8.81999969      -5.38935547E-06
  -8.81000042      -5.41686177E-06
  -8.80000019      -5.43905890E-06
  -8.78999996      -5.45602052E-06
  -8.77999973      -5.46786168E-06
  -8.77000046      -5.47473201E-06
  -8.76000023      -5.47681020E-06
  -8.75000000      -5.47430409E-06
  -8.73999977      -5.46744332E-06
  -8.72999954      -5.45647572E-06
  -8.72000027      -5.44166505E-06
  -8.71000004      -5.42328917E-06
  -8.69999981      -5.40163637E-06
  -8.68999958      -5.37701362E-06
  -8.68000031      -5.34969968E-06
  -8.67000008      -5.32001741E-06
  -8.65999985      -5.28828377E-06
  -8.64999962      -5.25481573E-06
  -8.64000034      -5.21993070E-06
  -8.63000011      -5.18394882E-06
  -8.61999989      -5.14717021E-06
  -8.60999966      -5.10988093E-06
  -8.60000038      -5.07240657E-06
  -8.59000015      -5.03498768E-06
  -8.57999992      -4.99790349E-06
  -8.56999969      -4.96139683E-06
  -8.56000042      -4.92568643E-06
  -8.55000019      -4.89097738E-06
  -8.53999996      -4.85745568E-06
  -8.52999973      -4.82527366E-06
  -8.52000046      -4.79459413E-06
  -8.51000023      -4.76551486E-06
  -8.50000000      -4.73812997E-06
  -8.48999977      -4.71250723E-06
  -8.47999954      -4.68871713E-06
  -8.47000027      -4.66678739E-06
  -8.46000004      -4.64674804E-06
  -8.44999981      -4.62859680E-06
  -8.43999958      -4.61235140E-06
  -8.43000031      -4.59796274E-06
  -8.42000008      -4.58540080E-06
  -8.40999985      -4.57459737E-06
  -8.39999962      -4.56549969E-06
  -8.39000034      -4.55803865E-06
  -8.38000011      -4.55216059E-06
  -8.36999989      -4.54779456E-06
  -8.35999966      -4.54490601E-06
  -8.35000038      -4.54349311E-06
  -8.34000015      -4.54353949E-06
  -8.32999992      -4.54504789E-06
  -8.31999969      -4.54804422E-06
  -8.31000042      -4.55259442E-06
  -8.30000019      -4.55875215E-06
  -8.28999996      -4.56660700E-06
  -8.27999973      -4.57627220E-06
  -8.27000046      -4.58789236E-06
  -8.26000023      -4.60161982E-06
  -8.25000000      -4.61766513E-06
  -8.23999977      -4.63621654E-06
  -8.22999954      -4.65748599E-06
  -8.22000027      -4.68176358E-06
  -8.21000004      -4.70926898E-06
  -8.19999981      -4.74024773E-06
  -8.18999958      -4.77495996E-06
  -8.18000031      -4.81364850E-06
  -8.17000008      -4.85655710E-06
  -8.15999985      -4.90392222E-06
  -8.14999962      -4.95601171E-06
  -8.14000034      -5.01301292E-06
  -8.13000011      -5.07511368E-06
  -8.11999989      -5.14251678E-06
  -8.10999966      -5.21539096E-06
  -8.10000038      -5.29386307E-06
  -8.09000015      -5.37805317E-06
  -8.07999992      -5.46805404E-06
  -8.06999969      -5.56393388E-06
  -8.06000042      -5.66572089E-06
  -8.05000019      -5.77341461E-06
  -8.03999996      -5.88699731E-06
  -8.02999973      -6.00637532E-06
  -8.02000046      -6.13147040E-06
  -8.01000023      -6.26216979E-06
  -8.00000000      -6.39826976E-06
  -7.98999977      -6.53959842E-06
  -7.98000002      -6.68595158E-06
  -7.96999979      -6.83709732E-06
  -7.96000004      -6.99281463E-06
  -7.94999981      -7.15285842E-06
  -7.94000006      -7.31699720E-06
  -7.92999983      -7.48494313E-06
  -7.92000008      -7.65646200E-06
  -7.90999985      -7.83125051E-06
  -7.90000010      -8.00904672E-06
  -7.88999987      -8.18954231E-06
  -7.88000011      -8.37242533E-06
  -7.86999989      -8.55740655E-06
  -7.86000013      -8.74415946E-06
  -7.84999990      -8.93238212E-06
  -7.84000015      -9.12175619E-06
  -7.82999992      -9.31199611E-06
  -7.82000017      -9.50276171E-06
  -7.80999994      -9.69375469E-06
  -7.80000019      -9.88469310E-06
  -7.78999996      -1.00752150E-05
  -7.78000021      -1.02650783E-05
  -7.76999998      -1.04539467E-05
  -7.76000023      -1.06415782E-05
  -7.75000000      -1.08277281E-05
  -7.73999977      -1.10121418E-05
  -7.73000002      -1.11946520E-05
  -7.71999979      -1.13750693E-05
  -7.71000004      -1.15532257E-05
  -7.69999981      -1.17290083E-05
  -7.69000006      -1.19023198E-05
  -7.67999983      -1.20731365E-05
  -7.67000008      -1.22413921E-05
  -7.65999985      -1.24071248E-05
  -7.65000010      -1.25703609E-05
  -7.63999987      -1.27312633E-05
  -7.63000011      -1.28898982E-05
  -7.61999989      -1.30464077E-05
  -7.61000013      -1.32009818E-05
  -7.59999990      -1.33538442E-05
  -7.59000015      -1.35051323E-05
  -7.57999992      -1.36551489E-05
  -7.57000017      -1.38040878E-05
  -7.55999994      -1.39522272E-05
  -7.55000019      -1.40998091E-05
  -7.53999996      -1.42471354E-05
  -7.53000021      -1.43944553E-05
  -7.51999998      -1.45420445E-05
  -7.51000023      -1.46902476E-05
  -7.50000000      -1.48392310E-05
  -7.48999977      -1.49893058E-05
  -7.48000002      -1.51406066E-05
  -7.46999979      -1.52933844E-05
  -7.46000004      -1.54478712E-05
  -7.44999981      -1.56042224E-05
  -7.44000006      -1.57625600E-05