  -16.0000000       0.00000000    
  -15.9899998       0.00000000    
  -15.9799995       0.00000000    
  -15.9700003       0.00000000    
  -15.9600000       0.00000000    
  -15.9499998       0.00000000    
  -15.9399996       0.00000000    
  -15.9300003       0.00000000    
  -15.9200001       0.00000000    
  -15.9099998       0.00000000    
  -15.8999996       0.00000000    
  -15.8900003       0.00000000    
  -15.8800001       0.00000000    
  -15.8699999       0.00000000    
  -15.8599997       0.00000000    
  -15.8500004      -0.00000000    
  -15.8400002      -1.40129846E-45
  -15.8299999      -1.82168800E-44
  -15.8199997      -1.66754517E-43
  -15.8100004      -1.18269590E-42
  -15.8000002      -6.94763779E-42
  -15.7900000      -3.50212512E-41
  -15.7799997      -1.54247928E-40
  -15.7700005      -6.01503162E-40
  -15.7600002      -2.09584224E-39
  -15.7500000      -6.56767150E-39
  -15.7399998      -1.85897207E-38
  -15.7299995      -4.76330551E-38
  -15.7200003      -1.10466914E-37
  -15.7100000      -2.31047100E-37
  -15.6999998      -4.31873281E-37
  -15.6899996      -7.07034445E-37
  -15.6800003      -9.66338291E-37
  -15.6700001      -9.48236385E-37
  -15.6599998      -1.24189023E-37
  -15.6499996       2.33718486E-36
  -15.6400003       7.41841255E-36
  -15.6300001       1.57392839E-35
  -15.6199999       2.65224271E-35
  -15.6099997       3.60318549E-35
  -15.6000004       3.58453830E-35
  -15.5900002       1.19580198E-35
  -15.5799999      -5.34391498E-35
  -15.5699997      -1.74915316E-34
  -15.5600004      -3.49045736E-34
  -15.5500002      -5.31883046E-34
  -15.5400000      -6.14787494E-34
  -15.5299997      -4.15244619E-34
  -15.5200005       2.88829362E-34
  -15.5100002       1.64847324E-33
  -15.5000000       3.54225304E-33
  -15.4899998       5.32577919E-33
  -15.4799995       5.66936444E-33
  -15.4700003       2.72277516E-33
  -15.4600000      -5.12593267E-33
  -15.4499998      -1.77894422E-32
  -15.4399996      -3.16427827E-32
  -15.4300003      -3.82965509E-32
  -15.4200001      -2.55914054E-32
  -15.4099998       1.75295478E-32
  -15.3999996       9.17686752E-32
  -15.3900003       1.76049851E-31
  -15.3800001       2.19965438E-31
  -15.3699999       1.49488310E-31
  -15.3599997      -1.04533633E-31
  -15.3500004      -5.51792753E-31
  -15.3400002      -1.07297394E-30
  -15.3299999      -1.36763755E-30
  -15.3199997      -9.73257883E-31
  -15.3100004       5.82723442E-31
  -15.3000002       3.45973867E-30
  -15.2900000       7.04642772E-30
  -15.2799997       9.53820040E-30
  -15.2700005       7.88757838E-30
  -15.2600002      -1.41114429E-30
  -15.2500000      -2.03071723E-29
  -15.2399998      -4.59941110E-29
  -15.2299995      -6.75150450E-29
  -15.2200003      -6.44839563E-29
  -15.2100000      -1.13556411E-29
  -15.1999998       1.09550097E-28
  -15.1899996       2.86069617E-28
  -15.1800003       4.51730817E-28
  -15.1700001       4.74538449E-28
  -15.1599998       1.82254518E-28
  -15.1499996      -5.54717224E-28
  -15.1400003      -1.68244233E-27
  -15.1300001      -2.80749087E-27
  -15.1199999      -3.12555030E-27
  -15.1099997      -1.57522205E-27
  -15.1000004       2.66418088E-27
  -15.0900002       9.34373078E-27
  -15.0799999       1.62510308E-26
  -15.0699997       1.88258219E-26
  -15.0600004       1.10520407E-26
  -15.0500002      -1.17778913E-26
  -15.0400000      -4.85832222E-26
  -15.0299997      -8.77942715E-26
  -15.0200005      -1.05446569E-25
  -15.0100002      -6.98996213E-26
  -15.0000000       4.40622480E-26
  -14.9899998       2.32858674E-25
  -14.9799995       4.41047498E-25
  -14.9700003       5.52083861E-25
  -14.9600000       4.10663608E-25
  -14.9499998      -1.11224223E-25
  -14.9399996      -1.01047718E-24
  -14.9300003      -2.04609949E-24
  -14.9200001      -2.69408542E-24
  -14.9099998      -2.24128774E-24
  -14.8999996      -6.99605731E-26
  -14.8900003       3.89258523E-24
  -14.8800001       8.70501304E-24
  -14.8699999       1.21912876E-23
  -14.8599997       1.12866503E-23
  -14.8500004       3.16615339E-24
  -14.8400002      -1.29329651E-23
  -14.8299999      -3.37541054E-23
  -14.8199997      -5.09647816E-23
  -14.8100004      -5.22455352E-23
  -14.8000002      -2.54078624E-23
  -14.7900000       3.46875361E-23
  -14.7799997       1.18374864E-22
  -14.7700005       1.96341383E-22
  -14.7600002       2.22329099E-22
  -14.7500000       1.46898863E-22
  -14.7399998      -5.79883384E-23
  -14.7299995      -3.69851314E-22
  -14.7200003      -6.94754974E-22
  -14.7100000      -8.70924250E-22
  -14.6999998      -7.10412538E-22
  -14.6899996      -8.05746946E-23
  -14.6800003       9.92705996E-22
  -14.6700001       2.24030984E-21
  -14.6599998       3.13845976E-21
  -14.6499996       3.02011215E-21
  -14.6400003       1.32504913E-21
  -14.6300001      -2.05643118E-21
  -14.6199999      -6.46428280E-21
  -14.6099997      -1.03466554E-20
  -14.6000004      -1.15069006E-20
  -14.5900002      -7.80521810E-21
  -14.5799999       1.77485252E-21
  -14.5699997       1.60109467E-20
  -14.5600004       3.07866995E-20
  -14.5500002       3.94569644E-20
  -14.5400000       3.46027357E-20
  -14.5299997       1.10809333E-20
  -14.5200005      -3.03823956E-20
  -14.5100002      -8.04436506E-20
  -14.5000000      -1.20935848E-19
  -14.4899998      -1.28581297E-19
  -14.4799995      -8.28894492E-20
  -14.4700003       2.32614740E-20
  -14.4600000       1.73794938E-19
  -14.4499998       3.25099610E-19
  -14.4399996       4.11727702E-19
  -14.4300003       3.64362979E-19
  -14.4200001       1.37951871E-19
  -14.4099998      -2.57496801E-19
  -14.3999996      -7.35476268E-19
  -14.3900003      -1.13429778E-18
  -14.3800001      -1.25075395E-18
  -14.3699999      -9.06220615E-19
  -14.3599997      -3.16797088E-20
  -14.3500004       1.25551479E-18
  -14.3400002       2.61832773E-18
  -14.3299999       3.54214496E-18
  -14.3199997       3.46652266E-18
  -14.3100004       1.99018104E-18
  -14.3000002      -9.03305010E-19
  -14.2900000      -4.68078637E-18
  -14.2799997      -8.24518993E-18
  -14.2700005      -1.01360065E-17
  -14.2600002      -8.94944076E-18
  -14.2500000      -3.89911062E-18
  -14.2399998       4.64559397E-18
  -14.2299995       1.48577272E-17
  -14.2200003       2.35891148E-17
  -14.2100000       2.70522454E-17
  -14.1999998       2.19876386E-17
  -14.1899996       7.05403331E-18
  -14.1800003      -1.59945033E-17
  -14.1700001      -4.18496182E-17
  -14.1599998      -6.23188344E-17
  -14.1499996      -6.82602875E-17
  -14.1400003      -5.25047898E-17
  -14.1300001      -1.30439616E-17
  -14.1199999       4.45596538E-17
  -14.1099997       1.06634791E-16
  -14.1000004       1.53509131E-16
  -14.0900002       1.64344469E-16
  -14.0799999       1.23861257E-16
  -14.0699997       2.92152880E-17
  -14.0600004      -1.05266125E-16
  -14.0500002      -2.47708883E-16
  -14.0400000      -3.54050534E-16
  -14.0299997      -3.78964341E-16
  -14.0200005      -2.90279647E-16
  -14.0100002      -8.31167292E-17
  -14.0000000       2.10950803E-16
  -13.9899998       5.23993798E-16
  -13.9799995       7.63466318E-16
  -13.9700003       8.34817409E-16
  -13.9600000       6.70539339E-16
  -13.9499998       2.58084719E-16
  -13.9399996      -3.42374105E-16
  -13.9300003      -9.98308373E-16
  -13.9200001      -1.52748162E-15
  -13.9099998      -1.74108353E-15
  -13.8999996      -1.49884195E-15
  -13.8900003      -7.62060296E-16
  -13.8800001       3.71861916E-16
  -13.8699999       1.66775758E-15
  -13.8599997       2.79129395E-15
  -13.8500004       3.38474387E-15
  -13.8400002       3.16515291E-15
  -13.8299999       2.02061700E-15
  -13.8199997       7.63210699E-17
  -13.8100004      -2.29449663E-15
  -13.8000002      -4.52796878E-15
  -13.7900000      -5.99130163E-15
  -13.7799997      -6.14541504E-15
  -13.7700005      -4.70950403E-15
  -13.7600002      -1.78150045E-15
  -13.7500000       2.12632735E-15
  -13.7399998       6.15972608E-15
  -13.7299995       9.29881663E-15
  -13.7200003       1.06047187E-14
  -13.7100000       9.47831308E-15
  -13.6999998       5.86190676E-15
  -13.6899996       3.21663541E-16
  -13.6800003      -6.02569540E-15
  -13.6700001      -1.17392566E-14
  -13.6599998      -1.53879544E-14
  -13.6499996      -1.59122610E-14
  -13.6400003      -1.29183849E-14
  -13.6300001      -6.82032750E-15
  -13.6199999       1.21879941E-15
  -13.6099997       9.54174738E-15
  -13.6000004       1.63877463E-14
  -13.5900002       2.03158887E-14
  -13.5799999       2.05438422E-14
  -13.5699997       1.71050782E-14
  -13.5600004       1.07796259E-14
  -13.5500002       2.82311719E-15
  -13.5400000      -5.41489401E-15
  -13.5299997      -1.28519818E-14
  -13.5200005      -1.88836746E-14
  -13.5100002      -2.33631524E-14
  -13.5000000      -2.63527959E-14
  -13.4899998      -2.77450656E-14
  -13.4799995      -2.69226034E-14
  -13.4700003      -2.26469065E-14
  -13.4600000      -1.33147354E-14
  -13.4499998       2.39519953E-15
  -13.4399996       2.46175218E-14
  -13.4300003       5.14161840E-14
  -13.4200001       7.82838285E-14
  -13.4099998       9.83643573E-14
  -13.3999996       1.03590822E-13
  -13.3900003       8.66766985E-14
  -13.3800001       4.35969518E-14
  -13.3699999      -2.40688867E-14
  -13.3599997      -1.07692291E-13
  -13.3500004      -1.91741385E-13
  -13.3400002      -2.55912370E-13
  -13.3299999      -2.79158288E-13
  -13.3199997      -2.44961928E-13
  -13.3100004      -1.46697636E-13
  -13.3000002       8.34796625E-15
  -13.2900000       1.97654610E-13
  -13.2799997       3.85743331E-13
  -13.2700005       5.30150414E-13
  -13.2600002       5.90240422E-13
  -13.2500000       5.37109907E-13
  -13.2399998       3.62267752E-13
  -13.2299995       8.27471162E-14
  -13.2200003      -2.59112556E-13
  -13.2100000      -6.01851522E-13
  -13.1999998      -8.76241029E-13
  -13.1899996      -1.01960823E-12
  -13.1800003      -9.89970909E-13
  -13.1700001      -7.76571570E-13
  -13.1599998      -4.04041628E-13
  -13.1499996       7.11604847E-14
  -13.1400003       5.71510558E-13
  -13.1300001       1.01397525E-12
  -13.1199999       1.32662577E-12
  -13.1099997       1.46218714E-12
  -13.1000004       1.40515789E-12
  -13.0900002       1.17086570E-12
  -13.0799999       7.97146312E-13
  -13.0699997       3.31521784E-13
  -13.0600004      -1.81795063E-13
  -13.0500002      -7.10595320E-13
  -13.0400000      -1.23586959E-12
  -13.0299997      -1.74475506E-12
  -13.0200005      -2.21744671E-12
  -13.0100002      -2.61286088E-12
  -13.0000000      -2.85916017E-12
  -12.9899998      -2.85475463E-12
  -12.9799995      -2.48295395E-12
  -12.9700003      -1.63965998E-12
  -12.9600000      -2.69210327E-13
  -12.9499998       1.59994218E-12
  -12.9399996       3.82960287E-12
  -12.9300003       6.16516473E-12
  -12.9200001       8.25330169E-12
  -12.9099998       9.68424993E-12
  -12.8999996       1.00532239E-11
  -12.8900003       9.03093919E-12
  -12.8800001       6.43091700E-12
  -12.8699999       2.26170992E-12
  -12.8599997      -3.24457843E-12
  -12.8500004      -9.63153949E-12
  -12.8400002      -1.62446324E-11
  -12.8299999      -2.22799904E-11
  -12.8199997      -2.68502946E-11
  -12.8100004      -2.90629517E-11
  -12.8000002      -2.81080298E-11
  -12.7900000      -2.33551199E-11
  -12.7799997      -1.44581786E-11
  -12.7700005      -1.46434579E-12
  -12.7600002       1.50833634E-11
  -12.7500000       3.40667217E-11
  -12.7399998       5.37600832E-11
  -12.7299995       7.18712867E-11
  -12.7200003       8.56776525E-11
  -12.7100000       9.22675339E-11
  -12.6999998       8.88806043E-11
  -12.6899996       7.33188024E-11
  -12.6800003       4.43805340E-11
  -12.6700001       2.25696241E-12
  -12.6599998      -5.11747381E-11
  -12.6499996      -1.12218956E-10
  -12.6400003      -1.75429643E-10
  -12.6300001      -2.33894543E-10
  -12.6199999      -2.79725076E-10
  -12.6099997      -3.04718528E-10
  -12.6000004      -3.01144443E-10
  -12.5900002      -2.62600358E-10
  -12.5799999      -1.84882484E-10
  -12.5699997      -6.68197650E-11
  -12.5600004       8.89774851E-11
  -12.5500002       2.75509809E-10
  -12.5400000       4.80985751E-10
  -12.5299997       6.88708479E-10
  -12.5200005       8.77349193E-10
  -12.5100002       1.02171638E-09
  -12.5000000       1.09411891E-09
  -12.4899998       1.06639308E-09
  -12.4799995       9.12603382E-10
  -12.4700003       6.12357776E-10
  -12.4600000       1.54573798E-10
  -12.4499998      -4.58548949E-10
  -12.4399996      -1.20768340E-09
  -12.4300003      -2.05304285E-09
  -12.4200001      -2.93196956E-09
  -12.4099998      -3.75781628E-09
  -12.3999996      -4.42044668E-09
  -12.3900003      -4.78854734E-09
  -12.3800001      -4.71382577E-09
  -12.3699999      -4.03700762E-09
  -12.3599997      -2.59540278E-09
  -12.3500004      -2.31634045E-10
  -12.3400002       3.19692228E-09
  -12.3299999       7.80856890E-09
  -12.3199997       1.36881670E-08
  -12.3100004       2.08790176E-08
  -12.3000002       2.93762330E-08
  -12.2900000       3.91219537E-08
  -12.2799997       5.00026971E-08
  -12.2700005       6.18489437E-08
  -12.2600002       7.44370112E-08
  -12.2500000       8.74930635E-08
  -12.2399998       1.00699197E-07
  -12.2299995       1.13701383E-07
  -12.2200003       1.26118763E-07
  -12.2100000       1.37554295E-07
  -12.1999998       1.47606102E-07
  -12.1899996       1.55879235E-07
  -12.1800003       1.61997008E-07
  -12.1700001       1.65611638E-07
  -12.1599998       1.66413486E-07
  -12.1499996       1.64138370E-07
  -12.1400003       1.58572675E-07
  -12.1300001       1.49556001E-07
  -12.1199999       1.36981654E-07
  -12.1099997       1.20795107E-07
  -12.1000004       1.00991123E-07
  -12.0900002       7.76099824E-08
  -12.0799999       5.07336608E-08
  -12.0699997       2.04823269E-08
  -12.0600004      -1.29884912E-08
  -12.0500002      -4.94897030E-08
  -12.0400000      -8.87997231E-08
  -12.0299997      -1.30664489E-07
  -12.0200005      -1.74797151E-07
  -12.0100002      -2.20877070E-07
  -12.0000000      -2.68548916E-07
  -11.9899998      -3.17420813E-07
  -11.9799995      -3.67063166E-07
  -11.9700003      -4.17006930E-07
  -11.9600000      -4.66742421E-07
  -11.9499998      -5.15719194E-07
  -11.9399996      -5.63346305E-07
  -11.9300003      -6.08995947E-07
  -11.9200001      -6.52008055E-07
  -11.9099998      -6.91698574E-07
  -11.8999996      -7.27369923E-07
  -11.8900003      -7.58324177E-07
  -11.8800001      -7.83877113E-07
  -11.8699999      -8.03373666E-07
  -11.8599997      -8.16201236E-07
  -11.8500004      -8.21802246E-07
  -11.8400002      -8.19684203E-07
  -11.8299999      -8.09426240E-07
  -11.8199997      -7.90682634E-07
  -11.8100004      -7.63183607E-07
  -11.8000002      -7.26734470E-07
  -11.7900000      -6.81212441E-07
  -11.7799997      -6.26564486E-07
  -11.7700005      -5.62803450E-07
  -11.7600002      -4.90006698E-07
  -11.7500000      -4.08314435E-07
  -11.7399998      -3.17930812E-07
  -11.7299995      -2.19124956E-07
  -11.7200003      -1.12233998E-07
  -11.7100000       2.33283748E-09
  -11.6999998       1.24090462E-07
  -11.6899996       2.52473512E-07
  -11.6800003       3.86833193E-07
  -11.6700001       5.26435940E-07
  -11.6599998       6.70463180E-07
  -11.6499996       8.18014541E-07
  -11.6400003       9.68112886E-07
  -11.6300001       1.11971224E-06
  -11.6199999       1.27170574E-06
  -11.6099997       1.42293698E-06
  -11.6000004       1.57220791E-06
  -11.5900002       1.71829026E-06
  -11.5799999       1.85993179E-06
  -11.5699997       1.99586407E-06
  -11.5600004       2.12480791E-06
  -11.5500002       2.24547807E-06
  -11.5400000       2.35659036E-06
  -11.5299997       2.45686556E-06
  -11.5200005       2.54503948E-06
  -11.5100002       2.61986906E-06
  -11.5000000       2.68014378E-06
  -11.4899998       2.72469515E-06
  -11.4799995       2.75240768E-06
  -11.4700003       2.76222659E-06
  -11.4600000       2.75316643E-06
  -11.4499998       2.72431680E-06
  -11.4399996       2.67484575E-06
  -11.4300003       2.60399997E-06
  -11.4200001       2.51110623E-06
  -11.4099998       2.39556903E-06
  -11.3999996       2.25686813E-06
  -11.3900003       2.09455675E-06
  -11.3800001       1.90825995E-06
  -11.3699999       1.69767520E-06
  -11.3599997       1.46257241E-06
  -11.3500004       1.20279697E-06
  -11.3400002       9.18272974E-07
  -11.3299999       6.09007088E-07
  -11.3199997       2.75091907E-07
  -11.3100004      -8.32906935E-08
  -11.3000002      -4.65869334E-07
  -11.2900000      -8.72283863E-07
  -11.2799997      -1.30208809E-06
  -11.2700005      -1.75475589E-06
  -11.2600002      -2.22968629E-06
  -11.2500000      -2.72621219E-06
  -11.2399998      -3.24360894E-06
  -11.2299995      -3.78110190E-06
  -11.2200003      -4.33787136E-06
  -11.2100000      -4.91306309E-06
  -11.1999998      -5.50578989E-06
  -11.1899996      -6.11513360E-06
  -11.1800003      -6.74014973E-06
  -11.1700001      -7.37986966E-06
  -11.1599998      -8.03329021E-06
  -11.1499996      -8.69938322E-06
  -11.1400003      -9.37708592E-06
  -11.1300001      -1.00653033E-05
  -11.1199999      -1.07629057E-05
  -11.1099997      -1.14687309E-05
  -11.1000004      -1.21815920E-05
  -11.0900002      -1.29002910E-05
  -11.0799999      -1.36236240E-05
  -11.0699997      -1.43504039E-05
  -11.0600004      -1.50794731E-05
  -11.0500002      -1.58097337E-05
  -11.0400000      -1.65401325E-05
  -11.0299997      -1.72697037E-05
  -11.0200005      -1.79975414E-05
  -11.0100002      -1.87228088E-05
  -11.0000000      -1.94447202E-05
  -10.9899998      -2.01625317E-05
  -10.9799995      -2.08755118E-05
  -10.9700003      -2.15829332E-05
  -10.9600000      -2.22840499E-05
  -10.9499998      -2.29780999E-05
  -10.9399996      -2.36642882E-05
  -10.9300003      -2.43417890E-05
  -10.9200001      -2.50097601E-05
  -10.9099998      -2.56673411E-05
  -10.8999996      -2.63136571E-05
  -10.8900003      -2.69478660E-05
  -10.8800001      -2.75691109E-05
  -10.8699999      -2.81765624E-05
  -10.8599997      -2.87694165E-05
  -10.8500004      -2.93468856E-05
  -10.8400002      -2.99082112E-05
  -10.8299999      -3.04526329E-05
  -10.8199997      -3.09794159E-05
  -10.8100004      -3.14878016E-05
  -10.8000002      -3.19770406E-05
  -10.7900000      -3.24463617E-05
  -10.7799997      -3.28949354E-05
  -10.7700005      -3.33219432E-05
  -10.7600002      -3.37265155E-05
  -10.7500000      -3.41077539E-05
  -10.7399998      -3.44647488E-05
  -10.7299995      -3.47965906E-05
  -10.7200003      -3.51023955E-05
  -10.7100000      -3.53812684E-05
  -10.6999998      -3.56323544E-05
  -10.6899996      -3.58548350E-05
  -10.6800003      -3.60479135E-05
  -10.6700001      -3.62108149E-05
  -10.6599998      -3.63427644E-05
  -10.6499996      -3.64430125E-05
  -10.6400003      -3.65107808E-05
  -10.6300001      -3.65452906E-05
  -10.6199999      -3.65457599E-05
  -10.6099997      -3.65114174E-05
  -10.6000004      -3.64415064E-05
  -10.5900002      -3.63352992E-05
  -10.5799999      -3.61921448E-05
  -10.5699997      -3.60114536E-05
  -10.5600004      -3.57927311E-05
  -10.5500002      -3.55355805E-05
  -10.5400000      -3.52397219E-05
  -10.5299997      -3.49049769E-05
  -10.5200005      -3.45313019E-05
  -10.5100002      -3.41187442E-05
  -10.5000000      -3.36674457E-05
  -10.4899998      -3.31776464E-05
  -10.4799995      -3.26496811E-05
  -10.4700003      -3.20839463E-05
  -10.4600000      -3.14809440E-05
  -10.4499998      -3.08412273E-05
  -10.4399996      -3.01654654E-05
  -10.4300003      -2.94544097E-05
  -10.4200001      -2.87089151E-05
  -10.4099998      -2.79299511E-05
  -10.3999996      -2.71185891E-05
  -10.3900003      -2.62760313E-05
  -10.3800001      -2.54035567E-05
  -10.3699999      -2.45025585E-05
  -10.3599997      -2.35745119E-05
  -10.3500004      -2.26209613E-05
  -10.3400002      -2.16435183E-05
  -10.3299999      -2.06438326E-05
  -10.3199997      -1.96236142E-05
  -10.3100004      -1.85845838E-05
  -10.3000002      -1.75284895E-05
  -10.2900000      -1.64570811E-05
  -10.2799997      -1.53721176E-05
  -10.2700005      -1.42753352E-05
  -10.2600002      -1.31684683E-05
  -10.2500000      -1.20532268E-05
  -10.2399998      -1.09313078E-05
  -10.2299995      -9.80438654E-06
  -10.2200003      -8.67411836E-06
  -10.2100000      -7.54214170E-06
  -10.1999998      -6.41005954E-06
  -10.1899996      -5.27942711E-06
  -10.1800003      -4.15174372E-06
  -10.1700001      -3.02841977E-06
  -10.1599998      -1.91077697E-06
  -10.1499996      -8.00029454E-07
  -10.1400003       3.02723350E-07
  -10.1300001       1.39648921E-06
  -10.1199999       2.48038373E-06
  -10.1099997       3.55362272E-06
  -10.1000004       4.61552099E-06
  -10.0900002       5.66548260E-06
  -10.0799999       6.70301324E-06
  -10.0699997       7.72771091E-06
  -10.0600004       8.73928730E-06
  -10.0500002       9.73755414E-06
  -10.0400000       1.07224396E-05
  -10.0299997       1.16939664E-05
  -10.0200005       1.26522564E-05
  -10.0100002       1.35975097E-05
  -10.0000000       1.45299937E-05
  -9.98999977       1.54500285E-05
  -9.97999954       1.63579880E-05
  -9.97000027       1.72542786E-05
  -9.96000004       1.81393480E-05
  -9.94999981       1.90136852E-05
  -9.93999958       1.98778071E-05
  -9.93000031       2.07322701E-05
  -9.92000008       2.15776545E-05
  -9.90999985       2.24145733E-05
  -9.89999962       2.32436632E-05
  -9.89000034       2.40655772E-05
  -9.88000011       2.48809702E-05
  -9.86999989       2.56905114E-05
  -9.85999966       2.64948612E-05
  -9.85000038       2.72946636E-05
  -9.84000015       2.80905497E-05
  -9.82999992       2.88831252E-05
  -9.81999969       2.96729704E-05
  -9.81000042       3.04606401E-05
  -9.80000019       3.12466764E-05
  -9.78999996       3.20316103E-05
  -9.77999973       3.28159913E-05
  -9.77000046       3.36003868E-05
  -9.76000023       3.43853972E-05
  -9.75000000       3.51716844E-05
  -9.73999977       3.59599326E-05
  -9.72999954       3.67509019E-05
  -9.72000027       3.75453710E-05
  -9.71000004       3.83441729E-05
  -9.69999981       3.91481844E-05
  -9.68999958       3.99583078E-05
  -9.68000031       4.07754778E-05
  -9.67000008       4.16006515E-05
  -9.65999985       4.24347818E-05
  -9.64999962       4.32788402E-05
  -9.64000034       4.41337288E-05
  -9.63000011       4.50002990E-05
  -9.61999989       4.58793074E-05
  -9.60999966       4.67713689E-05
  -9.60000038       4.76769383E-05
  -9.59000015       4.85963028E-05
  -9.57999992       4.95295244E-05
  -9.56999969       5.04764721E-05
  -9.56000042       5.14367566E-05
  -9.55000019       5.24097704E-05
  -9.53999996       5.33946113E-05
  -9.52999973       5.43901187E-05
  -9.52000046       5.53948630E-05
  -9.51000023       5.64071343E-05
  -9.50000000       5.74249170E-05
  -9.48999977       5.84459849E-05
  -9.47999954       5.94678168E-05
  -9.47000027       6.04877241E-05
  -9.46000004       6.15027966E-05
  -9.44999981       6.25099929E-05
  -9.43999958       6.35061806E-05
  -9.43000031       6.44881438E-05
  -9.42000008       6.54527030E-05
  -9.40999985       6.63967076E-05
  -9.39999962       6.73171307E-05
  -9.39000034       6.82111640E-05
  -9.38000011       6.90762463E-05
  -9.36999989       6.99101802E-05
  -9.35999966       7.07111103E-05
  -9.35000038       7.14776907E-05
  -9.34000015       7.22090117E-05
  -9.32999992       7.29046806E-05
  -9.31999969       7.35648791E-05
  -9.31000042       7.41903423E-05
  -9.30000019       7.47823360E-05
  -9.28999996       7.53427157E-05
  -9.27999973       7.58738897E-05
  -9.27000046       7.63788266E-05
  -9.26000023       7.68610189E-05
  -9.25000000       7.73244683E-05
  -9.23999977       7.77736423E-05
  -9.22999954       7.82134302E-05
  -9.22000027       7.86491437E-05
  -9.21000004       7.90863778E-05
  -9.19999981       7.95310480E-05
  -9.18999958       7.99892587E-05
  -9.18000031       8.04672527E-05
  -9.17000008       8.09714184E-05
  -9.15999985       8.15081585E-05
  -9.14999962       8.20838613E-05
  -9.14000034       8.27048570E-05
  -9.13000011       8.33773374E-05
  -9.11999989       8.41073488E-05
  -9.10999966       8.49006901E-05
  -9.10000038       8.57628474E-05
  -9.09000015       8.66990085E-05
  -9.07999992       8.77138955E-05
  -9.06999969       8.88117502E-05
  -9.06000042       8.99962979E-05
  -9.05000019       9.12706746E-05
  -9.03999996       9.26374196E-05
  -9.02999973       9.40983737E-05
  -9.02000046       9.56548029E-05
  -9.01000023       9.73072165E-05
  -9.00000000       9.90554327E-05
  -8.98999977       1.00898549E-04
  -8.97999954       1.02834951E-04
  -8.97000027       1.04862207E-04
  -8.96000004       1.06977175E-04
  -8.94999981       1.09175948E-04
  -8.93999958       1.11453846E-04
  -8.93000031       1.13805494E-04
  -8.92000008       1.16224772E-04
  -8.90999985       1.18704978E-04
  -8.89999962       1.21238736E-04
  -8.89000034       1.23818187E-04
  -8.88000011       1.26434868E-04
  -8.86999989       1.29079926E-04
  -8.85999966       1.31744076E-04
  -8.85000038       1.34417773E-04
  -8.84000015       1.37091120E-04
  -8.82999992       1.39754091E-04
  -8.81999969       1.42396588E-04
  -8.81000042       1.45008409E-04
  -8.80000019       1.47579325E-04
  -8.78999996       1.50099222E-04
  -8.77999973       1.52558030E-04
  -8.77000046       1.54945868E-04
  -8.76000023       1.57252944E-04
  -8.75000000       1.59469782E-04
  -8.73999977       1.61587071E-04
  -8.72999954       1.63595905E-04
  -8.72000027       1.65487625E-04
  -8.71000004       1.67254038E-04
  -8.69999981       1.68887287E-04
  -8.68999958       1.70379994E-04
  -8.68000031       1.71725202E-04
  -8.67000008       1.72916451E-04
  -8.65999985       1.73947774E-04
  -8.64999962       1.74813642E-04
  -8.64000034       1.75509180E-04
  -8.63000011       1.76029891E-04
  -8.61999989       1.76371876E-04
  -8.60999966       1.76531757E-04
  -8.60000038       1.76506685E-04
  -8.59000015       1.76294227E-04
  -8.57999992       1.75892448E-04
  -8.56999969       1.75299821E-04
  -8.56000042       1.74515255E-04
  -8.55000019       1.73538006E-04
  -8.53999996       1.72367712E-04
  -8.52999973       1.71004402E-04
  -8.52000046       1.69448365E-04
  -8.51000023       1.67700346E-04
  -8.50000000       1.65761172E-04
  -8.48999977       1.63632052E-04
  -8.47999954       1.61314252E-04
  -8.47000027       1.58809358E-04
  -8.46000004       1.56118913E-04
  -8.44999981       1.53244720E-04
  -8.43999958       1.50188556E-04
  -8.43000031       1.46952414E-04
  -8.42000008       1.43538418E-04
  -8.40999985       1.39948766E-04
  -8.39999962       1.36185772E-04
  -8.39000034       1.32251895E-04
  -8.38000011       1.28149768E-04
  -8.36999989       1.23882099E-04
  -8.35999966       1.19451819E-04
  -8.35000038       1.14862065E-04
  -8.34000015       1.10116227E-04
  -8.32999992       1.05217878E-04
  -8.31999969       1.00170968E-04
  -8.31000042       9.49797322E-05
  -8.30000019       8.96487109E-05
  -8.28999996       8.41827059E-05
  -8.27999973       7.85868251E-05
  -8.27000046       7.28664236E-05
  -8.26000023       6.70271693E-05
  -8.25000000       6.10749412E-05
  -8.23999977       5.50159202E-05
  -8.22999954       4.88565274E-05
  -8.22000027       4.26035258E-05
  -8.21000004       3.62638966E-05
  -8.19999981       2.98449540E-05
  -8.18999958       2.33542596E-05
  -8.18000031       1.67996750E-05
  -8.17000008       1.01893129E-05
  -8.15999985       3.53157338E-06
  -8.14999962      -3.16484670E-06
  -8.14000034      -9.89100317E-06
  -8.13000011      -1.66376649E-05
  -8.11999989      -2.33953288E-05
  -8.10999966      -3.01542022E-05
  -8.10000038      -3.69042828E-05
  -8.09000015      -4.36353366E-05
  -8.07999992      -5.03368901E-05
  -8.06999969      -5.69983386E-05
  -8.06000042      -6.36088807E-05
  -8.05000019      -7.01576137E-05
  -8.03999996      -7.66335361E-05
  -8.02999973      -8.30255667E-05
  -8.02000046      -8.93226534E-05
  -8.01000023      -9.55136784E-05
  -8.00000000      -1.01587706E-04
  -7.98999977      -1.07533830E-04
  -7.98000002      -1.13341397E-04
  -7.96999979      -1.18999938E-04
  -7.96000004      -1.24499289E-04
  -7.94999981      -1.29829597E-04
  -7.94000006      -1.34981441E-04
  -7.92999983      -1.39945842E-04
  -7.92000008      -1.44714257E-04
  -7.90999985      -1.49278640E-04
  -7.90000010      -1.53631656E-04
  -7.88999987      -1.57766481E-04
  -7.88000011      -1.61676944E-04
  -7.86999989      -1.65357545E-04
  -7.86000013      -1.68803585E-04
  -7.84999990      -1.72010929E-04
  -7.84000015      -1.74976230E-04
  -7.82999992      -1.77696813E-04
  -7.82000017      -1.80170711E-04
  -7.80999994      -1.82396616E-04
  -7.80000019      -1.84373843E-04
  -7.78999996      -1.86102392E-04
  -7.78000021      -1.87582860E-04
  -7.76999998      -1.88816382E-04
  -7.76000023      -1.89804690E-04
  -7.75000000      -1.90549967E-04
  -7.73999977      -1.91054904E-04
  -7.73000002      -1.91322586E-04
  -7.71999979      -1.91356492E-04
  -7.71000004      -1.91160507E-04
  -7.69999981      -1.90738720E-04
  -7.69000006      -1.90095569E-04
  -7.67999983      -1.89235754E-04
  -7.67000008      -1.88164195E-04
  -7.65999985      -1.86885998E-04
  -7.65000010      -1.85406490E-04
  -7.63999987      -1.83731114E-04
  -7.63000011      -1.81865427E-04
  -7.61999989      -1.79815048E-04
  -7.61000013      -1.77585680E-04
  -7.59999990      -1.75182970E-04
  -7.59000015      -1.72612563E-04
  -7.57999992      -1.69880135E-04
  -7.57000017      -1.66991231E-04
  -7.55999994      -1.63951350E-04
  -7.55000019      -1.60765863E-04
  -7.53999996      -1.57440023E-04
  -7.53000021      -1.53978850E-04
  -7.51999998      -1.50387161E-04
  -7.51000023      -1.46669539E-04
  -7.50000000      -1.42830293E-04
  -7.48999977      -1.38873365E-04
  -7.48000002      -1.34802438E-04
  -7.46999979      -1.30620858E-04
  -7.46000004      -1.26331608E-04
  -7.44999981      -1.21937359E-04
  -7.44000006      -1.17440410E-04