  -16.0000000       0.00000000    
  -15.9899998       0.00000000    
  -15.9799995       0.00000000    
  -15.9700003       0.00000000    
  -15.9600000       0.00000000    
  -15.9499998       0.00000000    
  -15.9399996       0.00000000    
  -15.9300003       0.00000000    
  -15.9200001       0.00000000    
  -15.9099998       0.00000000    
  -15.8999996       0.00000000    
  -15.8900003       0.00000000    
  -15.8800001       0.00000000    
  -15.8699999       0.00000000    
  -15.8599997       0.00000000    
  -15.8500004       0.00000000    
  -15.8400002      -1.40129846E-45
  -15.8299999      -2.94272678E-44
  -15.8199997      -7.84727140E-44
  -15.8100004       1.36766730E-42
  -15.8000002       1.94388123E-41
  -15.7900000       1.48314831E-40
  -15.7799997       8.32709001E-40
  -15.7700005       3.78120772E-39
  -15.7600002       1.45283878E-38
  -15.7500000       4.84741537E-38
  -15.7399998       1.42693427E-37
  -15.7299995       3.74060751E-37
  -15.7200003       8.76596805E-37
  -15.7100000       1.83257230E-36
  -15.6999998       3.38063429E-36
  -15.6899996       5.34986033E-36
  -15.6800003       6.72699242E-36
  -15.6700001       4.86766299E-36
  -15.6599998      -5.23559724E-36
  -15.6499996      -3.07779893E-35
  -15.6400003      -7.86105763E-35
  -15.6300001      -1.48802283E-34
  -15.6199999      -2.24067567E-34
  -15.6099997      -2.58302004E-34
  -15.6000004      -1.72335978E-34
  -15.5900002       1.32352743E-34
  -15.5799999       7.36963005E-34
  -15.5699997       1.65841480E-33
  -15.5600004       2.82498366E-33
  -15.5500002       4.09783135E-33
  -15.5400000       5.27648851E-33
  -15.5299997       5.85575009E-33
  -15.5200005       4.16838268E-33
  -15.5100002      -4.21082060E-33
  -15.5000000      -2.78393591E-32
  -15.4899998      -7.75084711E-32
  -15.4799995      -1.55910941E-31
  -15.4700003      -2.34555298E-31
  -15.4600000      -2.22037036E-31
  -15.4499998       5.28883532E-32
  -15.4399996       7.94211003E-31
  -15.4300003       2.06604643E-30
  -15.4200001       3.47134541E-30
  -15.4099998       3.78705761E-30
  -15.3999996       8.79554808E-31
  -15.3900003      -7.56360236E-30
  -15.3800001      -2.19776909E-29
  -15.3699999      -3.76250878E-29
  -15.3599997      -4.15075278E-29
  -15.3500004      -1.27921877E-29
  -15.3400002       6.87252452E-29
  -15.3299999       2.03044270E-28
  -15.3199997       3.42437398E-28
  -15.3100004       3.70567747E-28
  -15.3000002       1.15551054E-28
  -15.2900000      -5.71526163E-28
  -15.2799997      -1.65946136E-27
  -15.2700005      -2.73982101E-27
  -15.2600002      -2.90859448E-27
  -15.2500000      -9.18491879E-28
  -15.2399998       4.20894386E-27
  -15.2299995       1.20829948E-26
  -15.2200003       1.96884875E-26
  -15.2100000       2.07980435E-26
  -15.1999998       7.23978251E-27
  -15.1899996      -2.69655460E-26
  -15.1800003      -7.87181186E-26
  -15.1700001      -1.28528861E-25
  -15.1599998      -1.37795203E-25
  -15.1499996      -5.73123225E-26
  -15.1400003       1.47957667E-25
  -15.1300001       4.59678420E-25
  -15.1199999       7.66369347E-25
  -15.1099997       8.50505356E-25
  -15.1000004       4.36822753E-25
  -15.0900002      -6.74425784E-25
  -15.0799999      -2.40192151E-24
  -15.0699997      -4.17832248E-24
  -15.0600004      -4.88295158E-24
  -15.0500002      -3.07795243E-24
  -15.0400000       2.34190301E-24
  -15.0299997       1.11498018E-23
  -15.0200005       2.07800982E-23
  -15.0100002       2.59449094E-23
  -15.0000000       1.96295162E-23
  -14.9899998      -4.02528623E-24
  -14.9799995      -4.52038472E-23
  -14.9700003      -9.37055936E-23
  -14.9600000      -1.26731502E-22
  -14.9499998      -1.12424506E-22
  -14.9399996      -2.14803574E-23
  -14.9300003       1.53862637E-22
  -14.9200001       3.78955854E-22
  -14.9099998       5.64600801E-22
  -14.8999996       5.76912685E-22
  -14.8900003       2.79467039E-22
  -14.8800001      -3.92875980E-22
  -14.8699999      -1.34712674E-21
  -14.8599997      -2.27095955E-21
  -14.8500004      -2.64804808E-21
  -14.8400002      -1.89350225E-21
  -14.8299999       3.82686043E-22
  -14.8199997       4.03926066E-21
  -14.8100004       8.12360347E-21
  -14.8000002       1.08302087E-20
  -14.7900000       9.87117600E-21
  -14.7799997       3.32835789E-21
  -14.7700005      -9.14627174E-21
  -14.7600002      -2.51726829E-20
  -14.7500000      -3.91313428E-20
  -14.7399998      -4.29392138E-20
  -14.7299995      -2.84947371E-20
  -14.7200003       8.42315675E-21
  -14.7100000       6.38447530E-20
  -14.6999998       1.22718293E-19
  -14.6899996       1.59611905E-19
  -14.6800003       1.44678529E-19
  -14.6700001       5.49921368E-20
  -14.6599998      -1.11082188E-19
  -14.6499996      -3.21462755E-19
  -14.6400003      -5.06567889E-19
  -14.6300001      -5.70407569E-19
  -14.6199999      -4.19262930E-19
  -14.6099997      -4.16992248E-21
  -14.6000004       6.34590063E-19
  -14.5900002       1.33947083E-18
  -14.5799999       1.84436957E-18
  -14.5699997       1.83413714E-18
  -14.5600004       1.05378922E-18
  -14.5500002      -5.55348952E-19
  -14.5400000      -2.73722895E-18
  -14.5299997      -4.87790227E-18
  -14.5200005      -6.08969622E-18
  -14.5100002      -5.44535727E-18
  -14.5000000      -2.33342357E-18
  -14.4899998       3.15553770E-18
  -14.4799995       9.95302839E-18
  -14.4700003       1.60036403E-17
  -14.4600000       1.86386705E-17
  -14.4499998       1.53454461E-17
  -14.4399996       4.79647461E-18
  -14.4300003      -1.21515620E-17
  -14.4200001      -3.18814797E-17
  -14.4099998      -4.82460868E-17
  -14.3999996      -5.38330665E-17
  -14.3900003      -4.21911611E-17
  -14.3800001      -1.05619715E-17
  -14.3699999       3.76917750E-17
  -14.3599997       9.19534468E-17
  -14.3500004       1.35395570E-16
  -14.3400002       1.48610289E-16
  -14.3299999       1.15464779E-16
  -14.3199997       2.99104142E-17
  -14.3100004      -9.82932369E-17
  -14.3000002      -2.41288929E-16
  -14.2900000      -3.56217509E-16
  -14.2799997      -3.94455753E-16
  -14.2700005      -3.15922537E-16
  -14.2600002      -1.05327985E-16
  -14.2500000       2.14407756E-16
  -14.2399998       5.76903870E-16
  -14.2299995       8.79571189E-16
  -14.2200003       1.00495864E-15
  -14.2100000       8.53705979E-16
  -14.1999998       3.82112444E-16
  -14.1899996      -3.66274490E-16
  -14.1800003      -1.24692017E-15
  -14.1700001      -2.02817063E-15
  -14.1599998      -2.43667556E-15
  -14.1499996      -2.22955187E-15
  -14.1400003      -1.27872191E-15
  -14.1300001       3.55176532E-16
  -14.1199999       2.38522233E-15
  -14.1099997       4.31905064E-15
  -14.1000004       5.54844358E-15
  -14.0900002       5.49985269E-15
  -14.0799999       3.81702735E-15
  -14.0699997       5.29217450E-16
  -14.0600004      -3.85014803E-15
  -14.0500002      -8.34311952E-15
  -14.0400000      -1.16713576E-14
  -14.0299997      -1.25538745E-14
  -14.0200005      -1.00841788E-14
  -14.0100002      -4.09432476E-15
  -14.0000000       4.60652431E-15
  -13.9899998       1.42220711E-14
  -13.9799995       2.22476067E-14
  -13.9700003       2.60252008E-14
  -13.9600000       2.34770733E-14
  -13.9499998       1.38418651E-14
  -13.9399996      -1.80381807E-15
  -13.9300003      -2.04420492E-14
  -13.9200001      -3.75525281E-14
  -13.9099998      -4.80833635E-14
  -13.8999996      -4.77815385E-14
  -13.8900003      -3.45670351E-14
  -13.8800001      -9.55538291E-15
  -13.8699999       2.26422664E-14
  -13.8599997       5.45708430E-14
  -13.8500004       7.75248802E-14
  -13.8400002       8.37910538E-14
  -13.8299999       6.89991955E-14
  -13.8199997       3.39100662E-14
  -13.8100004      -1.49822967E-14
  -13.8000002      -6.64087925E-14
  -13.7900000      -1.06816926E-13
  -13.7799997      -1.23903424E-13
  -13.7700005      -1.10304452E-13
  -13.7600002      -6.63714079E-14
  -13.7500000      -1.06986063E-15
  -13.7399998       6.95409577E-14
  -13.7299995       1.26138791E-13
  -13.7200003       1.51451768E-13
  -13.7100000       1.35653614E-13
  -13.6999998       8.02101847E-14
  -13.6899996      -1.21523139E-15
  -13.6800003      -8.54872474E-14
  -13.6700001      -1.46022558E-13
  -13.6599998      -1.60715408E-13
  -13.6499996      -1.19574516E-13
  -13.6400003      -2.96501715E-14
  -13.6300001       8.46876754E-14
  -13.6199999       1.86905640E-13
  -13.6099997       2.38121019E-13
  -13.6000004       2.09244799E-13
  -13.5900002       9.20557033E-14
  -13.5799999      -9.43753065E-14
  -13.5699997      -3.04614596E-13
  -13.5600004      -4.76031161E-13
  -13.5500002      -5.44732553E-13
  -13.5400000      -4.64567620E-13
  -13.5299997      -2.24041285E-13
  -13.5200005       1.44132197E-13
  -13.5100002       5.64696131E-13
  -13.5000000       9.33869627E-13
  -13.4899998       1.14344027E-12
  -13.4799995       1.10948555E-12
  -13.4700003       7.98292313E-13
  -13.4600000       2.41964191E-13
  -13.4499998      -4.61744683E-13
  -13.4399996      -1.16700595E-12
  -13.4300003      -1.71184800E-12
  -13.4200001      -1.95712695E-12
  -13.4099998      -1.82261107E-12
  -13.3999996      -1.31025551E-12
  -13.3900003      -5.07559977E-13
  -13.3800001       4.31012295E-13
  -13.3699999       1.32052247E-12
  -13.3599997       1.99059107E-12
  -13.3500004       2.32663628E-12
  -13.3400002       2.29544573E-12
  -13.3299999       1.94726895E-12
  -13.3199997       1.39335071E-12
  -13.3100004       7.65404938E-13
  -13.3000002       1.69701194E-13
  -13.2900000      -3.48866525E-13
  -13.2799997      -8.19336135E-13
  -13.2700005      -1.32699624E-12
  -13.2600002      -1.96814114E-12
  -13.2500000      -2.78985255E-12
  -13.2399998      -3.73454783E-12
  -13.2299995      -4.61083862E-12
  -13.2200003      -5.10738847E-12
  -13.2100000      -4.85547757E-12
  -13.1999998      -3.53145594E-12
  -13.1899996      -9.76047260E-13
  -13.1800003       2.70211696E-12
  -13.1700001       7.07276035E-12
  -13.1599998       1.14057912E-11
  -13.1499996       1.47775837E-11
  -13.1400003       1.62488460E-11
  -13.1300001       1.50800379E-11
  -13.1199999       1.09356855E-11
  -13.1099997       4.02569861E-12
  -13.1000004      -4.85820672E-12
  -13.0900002      -1.44309686E-11
  -13.0799999      -2.31184828E-11
  -13.0699997      -2.93398639E-11
  -13.0600004      -3.18086876E-11
  -13.0500002      -2.97870964E-11
  -13.0400000      -2.32356148E-11
  -13.0299997      -1.28259400E-11
  -13.0200005       1.83565904E-13
  -13.0100002       1.41763285E-11
  -13.0000000       2.74524431E-11
  -12.9899998       3.84834976E-11
  -12.9799995       4.60908638E-11
  -12.9700003       4.95166165E-11
  -12.9600000       4.83909683E-11
  -12.9499998       4.26331886E-11
  -12.9399996       3.23443425E-11
  -12.9300003       1.77520776E-11
  -12.9200001      -7.51359532E-13
  -12.9099998      -2.24730737E-11
  -12.8999996      -4.62235389E-11
  -12.8900003      -7.01357236E-11
  -12.8800001      -9.15918869E-11
  -12.8699999      -1.07341198E-10
  -12.8599997      -1.13852469E-10
  -12.8500004      -1.07886589E-10
  -12.8400002      -8.72052847E-11
  -12.8299999      -5.12760320E-11
  -12.8199997      -1.80399955E-12
  -12.8100004       5.70676076E-11
  -12.8000002       1.18995369E-10
  -12.7900000       1.76131873E-10
  -12.7799997       2.20199928E-10
  -12.7700005       2.43772807E-10
  -12.7600002       2.41526438E-10
  -12.7500000       2.11219445E-10
  -12.7399998       1.54198695E-10
  -12.7299995       7.53197088E-11
  -12.7200003      -1.77111745E-11
  -12.7100000      -1.15446007E-10
  -12.6999998      -2.08037781E-10
  -12.6899996      -2.86555474E-10
  -12.6800003      -3.44029222E-10
  -12.6700001      -3.76054965E-10
  -12.6599998      -3.80898507E-10
  -12.6499996      -3.59156010E-10
  -12.6400003      -3.13124665E-10
  -12.6300001      -2.46088844E-10
  -12.6199999      -1.61719929E-10
  -12.6099997      -6.37278424E-11
  -12.6000004       4.41917614E-11
  -12.5900002       1.58173086E-10
  -12.5799999       2.73893019E-10
  -12.5699997       3.86346788E-10
  -12.5600004       4.89822793E-10
  -12.5500002       5.78138648E-10
  -12.5400000       6.45097198E-10
  -12.5299997       6.85026980E-10
  -12.5200005       6.93220759E-10
  -12.5100002       6.66094846E-10
  -12.5000000       6.00976269E-10
  -12.4899998       4.95557428E-10
  -12.4799995       3.47214146E-10
  -12.4700003       1.52507784E-10
  -12.4600000      -9.27498564E-11
  -12.4499998      -3.92536142E-10
  -12.4399996      -7.48575535E-10
  -12.4300003      -1.15726195E-09
  -12.4200001      -1.60585489E-09
  -12.4099998      -2.06849715E-09
  -12.3999996      -2.50274534E-09
  -12.3900003      -2.84732105E-09
  -12.3800001      -3.02166470E-09
  -12.3699999      -2.92761682E-09
  -12.3599997      -2.45323517E-09
  -12.3500004      -1.47843293E-09
  -12.3400002       1.18122914E-10
  -12.3299999       2.45153386E-09
  -12.3199997       5.62327740E-09
  -12.3100004       9.71440794E-09
  -12.3000002       1.47796504E-08
  -12.2900000       2.08424566E-08
  -12.2799997       2.78909695E-08
  -12.2700005       3.58747343E-08
  -12.2600002       4.47021336E-08
  -12.2500000       5.42386829E-08
  -12.2399998       6.43065263E-08
  -12.2299995       7.46854809E-08
  -12.2200003       8.51162127E-08
  -12.2100000       9.53058645E-08
  -12.1999998       1.04936028E-07
  -12.1899996       1.13672890E-07
  -12.1800003       1.21178715E-07
  -12.1700001       1.27123712E-07
  -12.1599998       1.31197055E-07
  -12.1499996       1.33116075E-07
  -12.1400003       1.32633104E-07
  -12.1300001       1.29539529E-07
  -12.1199999       1.23667334E-07
  -12.1099997       1.14888962E-07
  -12.1000004       1.03116207E-07
  -12.0900002       8.82990818E-08
  -12.0799999       7.04254361E-08
  -12.0699997       4.95213328E-08
  -12.0600004       2.56523940E-08
  -12.0500002      -1.07470555E-09
  -12.0400000      -3.05109680E-08
  -12.0299997      -6.24649275E-08
  -12.0200005      -9.67038076E-08
  -12.0100002      -1.32956146E-07
  -12.0000000      -1.70915612E-07
  -11.9899998      -2.10245148E-07
  -11.9799995      -2.50580996E-07
  -11.9700003      -2.91535656E-07
  -11.9600000      -3.32699585E-07
  -11.9499998      -3.73641598E-07
  -11.9399996      -4.13908481E-07
  -11.9300003      -4.53024114E-07
  -11.9200001      -4.90489924E-07
  -11.9099998      -5.25786447E-07
  -11.8999996      -5.58377280E-07
  -11.8900003      -5.87715249E-07
  -11.8800001      -6.13250279E-07
  -11.8699999      -6.34439061E-07
  -11.8599997      -6.50755112E-07
  -11.8500004      -6.61697811E-07
  -11.8400002      -6.66801782E-07
  -11.8299999      -6.65643313E-07
  -11.8199997      -6.57846272E-07
  -11.8100004      -6.43086423E-07
  -11.8000002      -6.21094898E-07
  -11.7900000      -5.91661774E-07
  -11.7799997      -5.54638632E-07
  -11.7700005      -5.09942311E-07
  -11.7600002      -4.57558144E-07
  -11.7500000      -3.97542919E-07
  -11.7399998      -3.30027319E-07
  -11.7299995      -2.55216946E-07
  -11.7200003      -1.73392010E-07
  -11.7100000      -8.49053023E-08
  -11.6999998       9.82131887E-09
  -11.6899996       1.10301350E-07
  -11.6800003       2.15988578E-07
  -11.6700001       3.26281878E-07
  -11.6599998       4.40529448E-07
  -11.6499996       5.58031843E-07
  -11.6400003       6.78044387E-07
  -11.6300001       7.99778547E-07
  -11.6199999       9.22403729E-07
  -11.6099997       1.04504886E-06
  -11.6000004       1.16680565E-06
  -11.5900002       1.28673162E-06
  -11.5799999       1.40385646E-06
  -11.5699997       1.51718746E-06
  -11.5600004       1.62571530E-06
  -11.5500002       1.72842147E-06
  -11.5400000       1.82428255E-06
  -11.5299997       1.91227559E-06
  -11.5200005       1.99138071E-06
  -11.5100002       2.06058553E-06
  -11.5000000       2.11888755E-06
  -11.4899998       2.16529907E-06
  -11.4799995       2.19885305E-06
  -11.4700003       2.21861228E-06
  -11.4600000       2.22367726E-06
  -11.4499998       2.21319783E-06
  -11.4399996       2.18638411E-06
  -11.4300003       2.14251781E-06
  -11.4200001       2.08096094E-06
  -11.4099998       2.00116278E-06
  -11.3999996       1.90266587E-06
  -11.3900003       1.78510902E-06
  -11.3800001       1.64822836E-06
  -11.3699999       1.49185803E-06
  -11.3599997       1.31592753E-06
  -11.3500004       1.12046052E-06
  -11.3400002       9.05569948E-07
  -11.3299999       6.71451460E-07
  -11.3199997       4.18376089E-07
  -11.3100004       1.46679199E-07
  -11.3000002      -1.43252038E-07
  -11.2900000      -4.50992161E-07
  -11.2799997      -7.76091042E-07
  -11.2700005      -1.11808731E-06
  -11.2600002      -1.47651735E-06
  -11.2500000      -1.85092335E-06
  -11.2399998      -2.24085466E-06
  -11.2299995      -2.64586720E-06
  -11.2200003      -3.06551829E-06
  -11.2100000      -3.49935704E-06
  -11.1999998      -3.94691642E-06
  -11.1899996      -4.40770009E-06
  -11.1800003      -4.88117485E-06
  -11.1700001      -5.36675725E-06
  -11.1599998      -5.86381066E-06
  -11.1499996      -6.37163612E-06
  -11.1400003      -6.88946830E-06
  -11.1300001      -7.41647818E-06
  -11.1199999      -7.95177584E-06
  -11.1099997      -8.49440494E-06
  -11.1000004      -9.04336412E-06
  -11.0900002      -9.59760655E-06
  -11.0799999      -1.01560554E-05
  -11.0699997      -1.07176174E-05
  -11.0600004      -1.12811995E-05
  -11.0500002      -1.18457156E-05
  -11.0400000      -1.24101125E-05
  -11.0299997      -1.29733717E-05
  -11.0200005      -1.35345263E-05
  -11.0100002      -1.40926695E-05
  -11.0000000      -1.46469556E-05
  -10.9899998      -1.51966078E-05
  -10.9799995      -1.57409231E-05
  -10.9700003      -1.62792676E-05
  -10.9600000      -1.68110691E-05
  -10.9499998      -1.73358258E-05
  -10.9399996      -1.78530900E-05
  -10.9300003      -1.83624579E-05
  -10.9200001      -1.88635677E-05
  -10.9099998      -1.93560591E-05
  -10.8999996      -1.98395865E-05
  -10.8900003      -2.03137788E-05
  -10.8800001      -2.07782232E-05
  -10.8699999      -2.12324503E-05
  -10.8599997      -2.16759126E-05
  -10.8500004      -2.21079681E-05
  -10.8400002      -2.25278782E-05
  -10.8299999      -2.29347970E-05
  -10.8199997      -2.33277751E-05
  -10.8100004      -2.37057593E-05
  -10.8000002      -2.40676090E-05
  -10.7900000      -2.44121038E-05
  -10.7799997      -2.47379648E-05
  -10.7700005      -2.50438752E-05
  -10.7600002      -2.53284907E-05
  -10.7500000      -2.55904724E-05
  -10.7399998      -2.58285145E-05
  -10.7299995      -2.60413472E-05
  -10.7200003      -2.62277608E-05
  -10.7100000      -2.63866259E-05
  -10.6999998      -2.65168892E-05
  -10.6899996      -2.66175975E-05
  -10.6800003      -2.66878706E-05
  -10.6700001      -2.67269261E-05
  -10.6599998      -2.67340438E-05
  -10.6499996      -2.67085816E-05
  -10.6400003      -2.66499483E-05
  -10.6300001      -2.65576036E-05
  -10.6199999      -2.64310420E-05
  -10.6099997      -2.62697995E-05
  -10.6000004      -2.60734269E-05
  -10.5900002      -2.58415075E-05
  -10.5799999      -2.55736395E-05
  -10.5699997      -2.52694390E-05
  -10.5600004      -2.49285258E-05
  -10.5500002      -2.45505234E-05
  -10.5400000      -2.41350645E-05
  -10.5299997      -2.36817887E-05
  -10.5200005      -2.31903305E-05
  -10.5100002      -2.26603370E-05
  -10.5000000      -2.20914844E-05
  -10.4899998      -2.14834745E-05
  -10.4799995      -2.08360525E-05
  -10.4700003      -2.01490329E-05
  -10.4600000      -1.94223048E-05
  -10.4499998      -1.86558445E-05
  -10.4399996      -1.78497412E-05
  -10.4300003      -1.70042113E-05
  -10.4200001      -1.61196040E-05
  -10.4099998      -1.51964286E-05
  -10.3999996      -1.42353610E-05
  -10.3900003      -1.32372588E-05
  -10.3800001      -1.22031670E-05
  -10.3699999      -1.11343234E-05
  -10.3599997      -1.00321540E-05
  -10.3500004      -8.89827061E-06
  -10.3400002      -7.73445117E-06
  -10.3299999      -6.54263022E-06
  -10.3199997      -5.32487320E-06
  -10.3100004      -4.08336246E-06
  -10.3000002      -2.82036262E-06
  -10.2900000      -1.53820770E-06
  -10.2799997      -2.39275096E-07
  -10.2700005       1.07403946E-06
  -10.2600002       2.39934889E-06
  -10.2500000       3.73429771E-06
  -10.2399998       5.07658706E-06
  -10.2299995       6.42400619E-06
  -10.2200003       7.77445075E-06
  -10.2100000       9.12594624E-06
  -10.1999998       1.04766650E-05
  -10.1899996       1.18249391E-05
  -10.1800003       1.31692677E-05
  -10.1700001       1.45083241E-05
  -10.1599998       1.58409493E-05
  -10.1499996       1.71661468E-05
  -10.1400003       1.84830733E-05
  -10.1300001       1.97910340E-05
  -10.1199999       2.10894523E-05
  -10.1099997       2.23778643E-05
  -10.1000004       2.36558935E-05
  -10.0900002       2.49232471E-05
  -10.0799999       2.61796831E-05
  -10.0699997       2.74250124E-05
  -10.0600004       2.86590875E-05
  -10.0500002       2.98817959E-05
  -10.0400000       3.10930591E-05
  -10.0299997       3.22928245E-05
  -10.0200005       3.34810720E-05
  -10.0100002       3.46577945E-05
  -10.0000000       3.58230063E-05
  -9.98999977       3.69767222E-05
  -9.97999954       3.81189493E-05
  -9.97000027       3.92496841E-05
  -9.96000004       4.03689010E-05
  -9.94999981       4.14765600E-05
  -9.93999958       4.25725884E-05
  -9.93000031       4.36569026E-05
  -9.92000008       4.47294187E-05
  -9.90999985       4.57900642E-05
  -9.89999962       4.68387807E-05
  -9.89000034       4.78755755E-05
  -9.88000011       4.89005142E-05
  -9.86999989       4.99137532E-05
  -9.85999966       5.09155725E-05
  -9.85000038       5.19063651E-05
  -9.84000015       5.28866658E-05
  -9.82999992       5.38571621E-05
  -9.81999969       5.48186508E-05
  -9.81000042       5.57720705E-05
  -9.80000019       5.67184507E-05
  -9.78999996       5.76589082E-05
  -9.77999973       5.85946218E-05
  -9.77000046       5.95268284E-05
  -9.76000023       6.04568049E-05
  -9.75000000       6.13858574E-05
  -9.73999977       6.23153537E-05
  -9.72999954       6.32467127E-05
  -9.72000027       6.41814113E-05
  -9.71000004       6.51209921E-05
  -9.69999981       6.60670557E-05
  -9.68999958       6.70212467E-05
  -9.68000031       6.79852601E-05
  -9.67000008       6.89607550E-05
  -9.65999985       6.99494049E-05
  -9.64999962       7.09527740E-05
  -9.64000034       7.19723976E-05
  -9.63000011       7.30096144E-05
  -9.61999989       7.40656542E-05
  -9.60999966       7.51415428E-05
  -9.60000038       7.62380878E-05
  -9.59000015       7.73558495E-05
  -9.57999992       7.84951917E-05
  -9.56999969       7.96561508E-05
  -9.56000042       8.08385230E-05
  -9.55000019       8.20418863E-05
  -9.53999996       8.32654914E-05
  -9.52999973       8.45084069E-05
  -9.52000046       8.57694249E-05
  -9.51000023       8.70471558E-05
  -9.50000000       8.83399553E-05
  -9.48999977       8.96459896E-05
  -9.47999954       9.09632072E-05
  -9.47000027       9.22894033E-05
  -9.46000004       9.36221913E-05
  -9.44999981       9.49590176E-05
  -9.43999958       9.62972626E-05
  -9.43000031       9.76341471E-05
  -9.42000008       9.89668915E-05
  -9.40999985       1.00292658E-04
  -9.39999962       1.01608639E-04
  -9.39000034       1.02912047E-04
  -9.38000011       1.04200226E-04
  -9.36999989       1.05470608E-04
  -9.35999966       1.06720843E-04
  -9.35000038       1.07948785E-04
  -9.34000015       1.09152599E-04
  -9.32999992       1.10330759E-04
  -9.31999969       1.11482150E-04
  -9.31000042       1.12606082E-04
  -9.30000019       1.13702328E-04
  -9.28999996       1.14771137E-04
  -9.27999973       1.15813338E-04
  -9.27000046       1.16830255E-04
  -9.26000023       1.17823802E-04
  -9.25000000       1.18796394E-04
  -9.23999977       1.19751079E-04
  -9.22999954       1.20691424E-04
  -9.22000027       1.21621568E-04
  -9.21000004       1.22546233E-04
  -9.19999981       1.23470629E-04
  -9.18999958       1.24400394E-04
  -9.18000031       1.25341699E-04
  -9.17000008       1.26300976E-04
  -9.15999985       1.27285020E-04
  -9.14999962       1.28300831E-04
  -9.14000034       1.29355540E-04
  -9.13000011       1.30456407E-04
  -9.11999989       1.31610635E-04
  -9.10999966       1.32825386E-04
  -9.10000038       1.34107657E-04
  -9.09000015       1.35464201E-04
  -9.07999992       1.36901464E-04
  -9.06999969       1.38425501E-04
  -9.06000042       1.40041942E-04
  -9.05000019       1.41755867E-04
  -9.03999996       1.43571771E-04
  -9.02999973       1.45493512E-04
  -9.02000046       1.47524202E-04
  -9.01000023       1.49666303E-04
  -9.00000000       1.51921442E-04
  -8.98999977       1.54290465E-04
  -8.97999954       1.56773385E-04
  -8.97000027       1.59369360E-04
  -8.96000004       1.62076685E-04
  -8.94999981       1.64892859E-04
  -8.93999958       1.67814549E-04
  -8.93000031       1.70837549E-04
  -8.92000008       1.73956985E-04
  -8.90999985       1.77167181E-04
  -8.89999962       1.80461851E-04
  -8.89000034       1.83834054E-04
  -8.88000011       1.87276150E-04
  -8.86999989       1.90780076E-04
  -8.85999966       1.94337132E-04
  -8.85000038       1.97938192E-04
  -8.84000015       2.01573625E-04
  -8.82999992       2.05233417E-04
  -8.81999969       2.08907295E-04
  -8.81000042       2.12584608E-04
  -8.80000019       2.16254513E-04
  -8.78999996       2.19906055E-04
  -8.77999973       2.23528084E-04
  -8.77000046       2.27109398E-04
  -8.76000023       2.30638907E-04
  -8.75000000       2.34105421E-04
  -8.73999977       2.37498010E-04
  -8.72999954       2.40805821E-04
  -8.72000027       2.44018418E-04
  -8.71000004       2.47125543E-04
  -8.69999981       2.50117388E-04
  -8.68999958       2.52984668E-04
  -8.68000031       2.55718624E-04
  -8.67000008       2.58310843E-04
  -8.65999985       2.60753586E-04
  -8.64999962       2.63039634E-04
  -8.64000034       2.65162264E-04
  -8.63000011       2.67115247E-04
  -8.61999989       2.68893025E-04
  -8.60999966       2.70490389E-04
  -8.60000038       2.71902798E-04
  -8.59000015       2.73126265E-04
  -8.57999992       2.74157210E-04
  -8.56999969       2.74992606E-04
  -8.56000042       2.75630038E-04
  -8.55000019       2.76067440E-04
  -8.53999996       2.76303414E-04
  -8.52999973       2.76336854E-04
  -8.52000046       2.76167295E-04
  -8.51000023       2.75794591E-04
  -8.50000000       2.75219034E-04
  -8.48999977       2.74441438E-04
  -8.47999954       2.73462909E-04
  -8.47000027       2.72284815E-04
  -8.46000004       2.70908902E-04
  -8.44999981       2.69337150E-04
  -8.43999958       2.67571770E-04
  -8.43000031       2.65615032E-04
  -8.42000008       2.63469527E-04
  -8.40999985       2.61137815E-04
  -8.39999962       2.58622778E-04
  -8.39000034       2.55927240E-04
  -8.38000011       2.53054226E-04
  -8.36999989       2.50006764E-04
  -8.35999966       2.46788084E-04
  -8.35000038       2.43401504E-04
  -8.34000015       2.39850488E-04
  -8.32999992       2.36138512E-04
  -8.31999969       2.32269420E-04
  -8.31000042       2.28247081E-04
  -8.30000019       2.24075775E-04
  -8.28999996       2.19759851E-04
  -8.27999973       2.15304113E-04
  -8.27000046       2.10713479E-04
  -8.26000023       2.05993318E-04
  -8.25000000       2.01149203E-04
  -8.23999977       1.96186971E-04
  -8.22999954       1.91112922E-04
  -8.22000027       1.85933590E-04
  -8.21000004       1.80655901E-04
  -8.19999981       1.75287161E-04
  -8.18999958       1.69835126E-04
  -8.18000031       1.64307916E-04
  -8.17000008       1.58714072E-04
  -8.15999985       1.53062734E-04
  -8.14999962       1.47363258E-04
  -8.14000034       1.41625525E-04
  -8.13000011       1.35859809E-04
  -8.11999989       1.30076791E-04
  -8.10999966       1.24287501E-04
  -8.10000038       1.18503369E-04
  -8.09000015       1.12736154E-04
  -8.07999992       1.06997904E-04
  -8.06999969       1.01300997E-04
  -8.06000042       9.56579534E-05
  -8.05000019       9.00815648E-05
  -8.03999996       8.45846516E-05
  -8.02999973       7.91802522E-05
  -8.02000046       7.38813324E-05
  -8.01000023       6.87009233E-05
  -8.00000000       6.36520126E-05
  -7.98999977       5.87475588E-05
  -7.98000002       5.40003894E-05
  -7.96999979       4.94233063E-05
  -7.96000004       4.50288098E-05
  -7.94999981       4.08293017E-05
  -7.94000006       3.68368310E-05
  -7.92999983       3.30631301E-05
  -7.92000008       2.95195168E-05
  -7.90999985       2.62169142E-05
  -7.90000010       2.31657832E-05
  -7.88999987       2.03760919E-05
  -7.88000011       1.78572682E-05
  -7.86999989       1.56181741E-05
  -7.86000013       1.36671097E-05
  -7.84999990       1.20116592E-05
  -7.84000015       1.06587522E-05
  -7.82999992       9.61458591E-06
  -7.82000017       8.88452450E-06
  -7.80999994       8.47325646E-06
  -7.80000019       8.38466894E-06
  -7.78999996       8.62186971E-06
  -7.78000021       9.18729893E-06
  -7.76999998       1.00825764E-05
  -7.76000023       1.13086717E-05
  -7.75000000       1.28658148E-05
  -7.73999977       1.47535638E-05
  -7.73000002       1.69707437E-05
  -7.71999979       1.95154789E-05
  -7.71000004       2.23852567E-05
  -7.69999981       2.55768955E-05
  -7.69000006       2.90866901E-05
  -7.67999983       3.29104041E-05
  -7.67000008       3.70433299E-05
  -7.65999985       4.14803580E-05
  -7.65000010       4.62159223E-05
  -7.63999987       5.12442566E-05
  -7.63000011       5.65590963E-05
  -7.61999989       6.21539875E-05
  -7.61000013       6.80221929E-05
  -7.59999990       7.41566910E-05
  -7.59000015       8.05503514E-05
  -7.57999992       8.71959564E-05
  -7.57000017       9.40862737E-05
  -7.55999994       1.01213998E-04
  -7.55000019       1.08571949E-04
  -7.53999996       1.16152922E-04
  -7.53000021       1.23949882E-04
  -7.51999998       1.31955836E-04
  -7.51000023       1.40163829E-04
  -7.50000000       1.48567226E-04
  -7.48999977       1.57159506E-04
  -7.48000002       1.65934194E-04
  -7.46999979       1.74885383E-04
  -7.46000004       1.84007251E-04
  -7.44999981       1.93294254E-04
  -7.44000006       2.02741227E-04