  -16.0000000       0.00000000    
  -15.9899998       0.00000000    
  -15.9799995       0.00000000    
  -15.9700003       0.00000000    
  -15.9600000       0.00000000    
  -15.9499998       0.00000000    
  -15.9399996       0.00000000    
  -15.9300003       0.00000000    
  -15.9200001       0.00000000    
  -15.9099998       0.00000000    
  -15.8999996       0.00000000    
  -15.8900003       0.00000000    
  -15.8800001       0.00000000    
  -15.8699999      -0.00000000    
  -15.8599997      -0.00000000    
  -15.8500004       1.40129846E-45
  -15.8400002       1.26116862E-44
  -15.8299999       6.16571324E-44
  -15.8199997       2.12997367E-43
  -15.8100004       5.08671343E-43
  -15.8000002       5.75933669E-43
  -15.7900000      -1.16868292E-42
  -15.7799997      -7.14942476E-42
  -15.7700005      -1.14317929E-41
  -15.7600002       3.91004311E-41
  -15.7500000       3.50801058E-40
  -15.7399998       1.49257064E-39
  -15.7299995       4.66435226E-39
  -15.7200003       1.17058784E-38
  -15.7100000       2.38956196E-38
  -15.6999998       3.75380197E-38
  -15.6899996       3.33941223E-38
  -15.6800003      -4.16215940E-38
  -15.6700001      -2.93259841E-37
  -15.6599998      -8.68706396E-37
  -15.6499996      -1.84598011E-36
  -15.6400003      -2.92644499E-36
  -15.6300001      -2.89556907E-36
  -15.6199999       8.94927583E-37
  -15.6099997       1.21657452E-35
  -15.6000004       3.29066327E-35
  -15.5900002       5.66565950E-35
  -15.5799999       5.89647941E-35
  -15.5699997      -7.22306051E-36
  -15.5600004      -1.93914071E-34
  -15.5500002      -4.96131533E-34
  -15.5400000      -7.40783821E-34
  -15.5299997      -4.80192932E-34
  -15.5200005       9.54159693E-34
  -15.5100002       3.99149943E-33
  -15.5000000       7.76947987E-33
  -15.4899998       8.71652057E-33
  -15.4799995      -1.21632694E-34
  -15.4700003      -2.67992082E-32
  -15.4600000      -7.26358354E-32
  -15.4499998      -1.18230634E-31
  -15.4399996      -1.08757478E-31
  -15.4300003       4.61499523E-32
  -15.4200001       4.33558663E-31
  -15.4099998       1.03772820E-30
  -15.3999996       1.58751076E-30
  -15.3900003       1.42387095E-30
  -15.3800001      -4.49916325E-31
  -15.3699999      -4.91300140E-30
  -15.3599997      -1.17119426E-29
  -15.3500004      -1.80365822E-29
  -15.3400002      -1.74176711E-29
  -15.3299999      -3.70615595E-31
  -15.3199997       4.14495964E-29
  -15.3100004       1.06565207E-28
  -15.3000002       1.71989288E-28
  -15.2900000       1.84444999E-28
  -15.2799997       6.52106518E-29
  -15.2700005      -2.58825220E-28
  -15.2600002      -7.91238514E-28
  -15.2500000      -1.38044332E-27
  -15.2399998      -1.65268940E-27
  -15.2299995      -1.03470461E-27
  -15.2200003       1.05195748E-27
  -15.2100000       4.78007646E-27
  -15.1999998       9.35291439E-27
  -15.1899996       1.25246807E-26
  -15.1800003       1.06251275E-26
  -15.1700001      -4.19075037E-28
  -15.1599998      -2.27652639E-26
  -15.1499996      -5.33149116E-26
  -15.1400003      -8.05677756E-26
  -15.1300001      -8.38971877E-26
  -15.1199999      -3.79677675E-26
  -15.1099997       7.57821324E-26
  -15.1000004       2.51393552E-25
  -15.0900002       4.39767028E-25
  -15.0799999       5.39776349E-25
  -15.0699997       4.12877990E-25
  -15.0600004      -6.75209406E-26
  -15.0500002      -9.31939960E-25
  -15.0400000      -2.01632315E-24
  -15.0299997      -2.89427544E-24
  -15.0200005      -2.90331835E-24
  -15.0100002      -1.32462013E-24
  -15.0000000       2.26469206E-24
  -14.9899998       7.52883641E-24
  -14.9799995       1.29697726E-23
  -14.9700003       1.58451201E-23
  -14.9600000       1.26879039E-23
  -14.9499998       5.88625180E-25
  -14.9399996      -2.08887086E-23
  -14.9300003      -4.77060414E-23
  -14.9200001      -7.02369628E-23
  -14.9099998      -7.42138062E-23
  -14.8999996      -4.46495241E-23
  -14.8900003       2.72470821E-23
  -14.8800001       1.35623251E-22
  -14.8699999       2.53155814E-22
  -14.8599997       3.30200640E-22
  -14.8500004       3.04086845E-22
  -14.8400002       1.20410088E-22
  -14.8299999      -2.36412627E-22
  -14.8199997      -7.12070383E-22
  -14.8100004      -1.16490406E-21
  -14.8000002      -1.37808472E-21
  -14.7900000      -1.11297990E-21
  -14.7799997      -2.02988502E-22
  -14.7700005       1.33156601E-21
  -14.7600002       3.18697180E-21
  -14.7500000       4.75068930E-21
  -14.7399998       5.19620482E-21
  -14.7299995       3.72064143E-21
  -14.7200003      -1.02680849E-22
  -14.7100000      -5.94821661E-21
  -14.6999998      -1.24859222E-20
  -14.6899996      -1.74202864E-20
  -14.6800003      -1.79472747E-20
  -14.6700001      -1.16422020E-20
  -14.6599998       2.38043335E-21
  -14.6499996       2.23794296E-20
  -14.6400003       4.34436001E-20
  -14.6300001       5.79566875E-20
  -14.6199999       5.73352164E-20
  -14.6099997       3.49129187E-20
  -14.6000004      -1.06626279E-20
  -14.5900002      -7.26211134E-20
  -14.5799999      -1.35176046E-19
  -14.5699997      -1.75672172E-19
  -14.5600004      -1.70182446E-19
  -14.5500002      -1.01809131E-19
  -14.5400000       3.03651411E-20
  -14.5299997       2.04754331E-19
  -14.5200005       3.76483449E-19
  -14.5100002       4.84734508E-19
  -14.5000000       4.68476532E-19
  -14.4899998       2.87857121E-19
  -14.4799995      -5.44600787E-20
  -14.4700003      -4.99633478E-19
  -14.4600000      -9.34032289E-19
  -14.4499998      -1.21007187E-18
  -14.4399996      -1.18538249E-18
  -14.4300003      -7.72392046E-19
  -14.4200001       1.56388915E-20
  -14.4099998       1.03898403E-18
  -14.3999996       2.04086716E-18
  -14.3900003       2.69861574E-18
  -14.3800001       2.71073311E-18
  -14.3699999       1.90025224E-18
  -14.3599997       3.04006375E-19
  -14.3500004      -1.78549706E-18
  -14.3400002      -3.85121852E-18
  -14.3299999      -5.26295733E-18
  -14.3199997      -5.45092709E-18
  -14.3100004      -4.09847521E-18
  -14.3000002      -1.29483865E-18
  -14.2900000       2.41074014E-18
  -14.2799997       6.09171289E-18
  -14.2700005       8.66415692E-18
  -14.2600002       9.19849326E-18
  -14.2500000       7.23785931E-18
  -14.2399998       3.01918835E-18
  -14.2299995      -2.49389247E-18
  -14.2200003      -7.81074971E-18
  -14.2100000      -1.13197417E-17
  -14.1999998      -1.17991474E-17
  -14.1899996      -8.87721631E-18
  -14.1800003      -3.27470485E-18
  -14.1700001       3.29198321E-18
  -14.1599998       8.57335565E-18
  -14.1499996       1.05184758E-17
  -14.1400003       8.06618557E-18
  -14.1300001       1.72481085E-18
  -14.1199999      -6.31001744E-18
  -14.1099997      -1.26375703E-17
  -14.1000004      -1.36897390E-17
  -14.0900002      -7.07530095E-18
  -14.0799999       7.17871424E-18
  -14.0699997       2.59516998E-17
  -14.0600004       4.32904345E-17
  -14.0500002       5.17401837E-17
  -14.0400000       4.45491718E-17
  -14.0299997       1.82158075E-17
  -14.0200005      -2.53816136E-17
  -14.0100002      -7.80638468E-17
  -14.0000000      -1.26214937E-16
  -13.9899998      -1.53569707E-16
  -13.9799995      -1.45494823E-16
  -13.9700003      -9.37901649E-17
  -13.9600000      -6.84941530E-19
  -13.9499998       1.19316079E-16
  -13.9399996       2.40706885E-16
  -13.9300003       3.31623034E-16
  -13.9200001       3.61183028E-16
  -13.9099998       3.07981471E-16
  -13.8999996       1.67603574E-16
  -13.8900003      -4.30448975E-17
  -13.8800001      -2.86278316E-16
  -13.8699999      -5.09666977E-16
  -13.8599997      -6.56811211E-16
  -13.8500004      -6.80732798E-16
  -13.8400002      -5.56782867E-16
  -13.8299999      -2.91689771E-16
  -13.8199997       7.40423263E-17
  -13.8100004       4.71783587E-16
  -13.8000002       8.17952771E-16
  -13.7900000       1.03219636E-15
  -13.7799997       1.05650017E-15
  -13.7700005       8.70529165E-16
  -13.7600002       4.99024908E-16
  -13.7500000       8.77957756E-18
  -13.7399998      -5.04792038E-16
  -13.7299995      -9.38742157E-16
  -13.7200003      -1.20638403E-15
  -13.7100000      -1.25777172E-15
  -13.6999998      -1.09134266E-15
  -13.6899996      -7.53262112E-16
  -13.6800003      -3.24203634E-16
  -13.6700001       1.03172980E-16
  -13.6599998       4.49911820E-16
  -13.6499996       6.72144202E-16
  -13.6400003       7.71465432E-16
  -13.6300001       7.90450988E-16
  -13.6199999       7.93769663E-16
  -13.6099997       8.39984945E-16
  -13.6000004       9.52715131E-16
  -13.5900002       1.10112091E-15
  -13.5799999       1.19802921E-15
  -13.5699997       1.11946733E-15
  -13.5600004       7.43032283E-16
  -13.5500002      -4.03511193E-18
  -13.5400000      -1.10087104E-15
  -13.5299997      -2.40811657E-15
  -13.5200005      -3.67395332E-15
  -13.5100002      -4.57557457E-15
  -13.5000000      -4.79088781E-15
  -13.4899998      -4.08550926E-15
  -13.4799995      -2.39332378E-15
  -13.4700003       1.32730063E-16
  -13.4600000       3.11813199E-15
  -13.4499998       6.02036587E-15
  -13.4399996       8.23229373E-15
  -13.4300003       9.21487906E-15
  -13.4200001       8.62873649E-15
  -13.4099998       6.43105911E-15
  -13.3999996       2.91043041E-15
  -13.3900003      -1.35426370E-15
  -13.3800001      -5.60580338E-15
  -13.3699999      -9.06779517E-15
  -13.3599997      -1.11135593E-14
  -13.3500004      -1.14028151E-14
  -13.3400002      -9.95082109E-15
  -13.3299999      -7.11125240E-15
  -13.3199997      -3.47671704E-15
  -13.3100004       2.76642787E-16
  -13.3000002       3.55779291E-15
  -13.2900000       5.99535087E-15
  -13.2799997       7.49949080E-15
  -13.2700005       8.23317295E-15
  -13.2600002       8.50182131E-15
  -13.2500000       8.59642981E-15
  -13.2399998       8.64209674E-15
  -13.2299995       8.50605139E-15
  -13.2200003       7.80456242E-15
  -13.2100000       6.01962514E-15
  -13.1999998       2.70106948E-15
  -13.1899996      -2.30181436E-15
  -13.1800003      -8.65330045E-15
  -13.1700001      -1.54606823E-14
  -13.1599998      -2.13672955E-14
  -13.1499996      -2.48136083E-14
  -13.1400003      -2.44210881E-14
  -13.1300001      -1.94096550E-14
  -13.1199999      -9.93534834E-15
  -13.1099997       2.76032431E-15
  -13.1000004       1.64619447E-14
  -13.0900002       2.83641078E-14
  -13.0799999       3.56671378E-14
  -13.0699997       3.62591630E-14
  -13.0600004       2.93202386E-14
  -13.0500002       1.56841940E-14
  -13.0400000      -2.16264029E-15
  -13.0299997      -2.04874197E-14
  -13.0200005      -3.50645314E-14
  -13.0100002      -4.21268821E-14
  -13.0000000      -3.93009972E-14
  -12.9899998      -2.62968646E-14
  -12.9799995      -5.16486641E-15
  -12.9700003       1.99763827E-14
  -12.9600000       4.37155839E-14
  -12.9499998       6.04777255E-14
  -12.9399996       6.57623302E-14
  -12.9300003       5.72069518E-14
  -12.9200001       3.52198231E-14
  -12.9099998       3.01809528E-15
  -12.8999996      -3.39555078E-14
  -12.8900003      -6.91169534E-14
  -12.8800001      -9.60826335E-14
  -12.8699999      -1.09959141E-13
  -12.8599997      -1.08282259E-13
  -12.8500004      -9.13908570E-14
  -12.8400002      -6.21626028E-14
  -12.8299999      -2.51985085E-14
  -12.8199997       1.43164746E-14
  -12.8100004       5.17691392E-14
  -12.8000002       8.39829508E-14
  -12.7900000       1.09569031E-13
  -12.7799997       1.28687669E-13
  -12.7700005       1.42315589E-13
  -12.7600002       1.51263510E-13
  -12.7500000       1.55272564E-13
  -12.7399998       1.52510261E-13
  -12.7299995       1.39684244E-13
  -12.7200003       1.12819205E-13
  -12.7100000       6.85429564E-14
  -12.6999998       5.55603850E-15
  -12.6899996      -7.41339431E-14
  -12.6800003      -1.64615324E-13
  -12.6700001      -2.56384296E-13
  -12.6599998      -3.37620231E-13
  -12.6499996      -3.96230574E-13
  -12.6400003      -4.22246222E-13
  -12.6300001      -4.10024906E-13
  -12.6199999      -3.59717085E-13
  -12.6099997      -2.77588987E-13
  -12.6000004      -1.75047178E-13
  -12.5900002      -6.65071026E-14
  -12.5799999       3.34734309E-14
  -12.5699997       1.13189860E-13
  -12.5600004       1.66265873E-13
  -12.5500002       1.93064694E-13
  -12.5400000       2.00734205E-13
  -12.5299997       2.01880532E-13
  -12.5200005       2.12169339E-13
  -12.5100002       2.47355006E-13
  -12.5000000       3.20326692E-13
  -12.4899998       4.38685411E-13
  -12.4799995       6.03176038E-13
  -12.4700003       8.07043017E-13
  -12.4600000       1.03614643E-12
  -12.4499998       1.26950880E-12
  -12.4399996       1.47995548E-12
  -12.4300003       1.63459231E-12
  -12.4200001       1.69511931E-12
  -12.4099998       1.61816567E-12
  -12.3999996       1.35605817E-12
  -12.3900003       8.58472852E-13
  -12.3800001       7.53241463E-14
  -12.3699999      -1.03899354E-12
  -12.3599997      -2.52029387E-12
  -12.3500004      -4.38883218E-12
  -12.3400002      -6.64398658E-12
  -12.3299999      -9.26039453E-12
  -12.3199997      -1.21864454E-11
  -12.3100004      -1.53456015E-11
  -12.3000002      -1.86406671E-11
  -12.2900000      -2.19604560E-11
  -12.2799997      -2.51878258E-11
  -12.2700005      -2.82079186E-11
  -12.2600002      -3.09152808E-11
  -12.2500000      -3.32187645E-11
  -12.2399998      -3.50438151E-11
  -12.2299995      -3.63318334E-11
  -12.2200003      -3.70375362E-11
  -12.2100000      -3.71249524E-11
  -12.1999998      -3.65633149E-11
  -12.1899996      -3.53239105E-11
  -12.1800003      -3.33784424E-11
  -12.1700001      -3.06993042E-11
  -12.1599998      -2.72613546E-11
  -12.1499996      -2.30447311E-11
  -12.1400003      -1.80376668E-11
  -12.1300001      -1.22386884E-11
  -12.1199999      -5.65765013E-12
  -12.1099997       1.68455853E-12
  -12.1000004       9.75732082E-12
  -12.0900002       1.85217969E-11
  -12.0799999       2.79321757E-11
  -12.0699997       3.79355887E-11
  -12.0600004       4.84705089E-11
  -12.0500002       5.94635383E-11
  -12.0400000       7.08252137E-11
  -12.0299997       8.24456128E-11
  -12.0200005       9.41907524E-11
  -12.0100002       1.05901149E-10
  -12.0000000       1.17392956E-10
  -11.9899998       1.28461838E-10
  -11.9799995       1.38889775E-10
  -11.9700003       1.48453361E-10
  -11.9600000       1.56933175E-10
  -11.9499998       1.64122202E-10
  -11.9399996       1.69832898E-10
  -11.9300003       1.73901879E-10
  -11.9200001       1.76192172E-10
  -11.9099998       1.76593296E-10
  -11.8999996       1.75019735E-10
  -11.8900003       1.71409012E-10
  -11.8800001       1.65719952E-10
  -11.8699999       1.57931515E-10
  -11.8599997       1.48043258E-10
  -11.8500004       1.36075706E-10
  -11.8400002       1.22072019E-10
  -11.8299999       1.06098484E-10
  -11.8199997       8.82447587E-11
  -11.8100004       6.86221427E-11
  -11.8000002       4.73610109E-11
  -11.7900000       2.46070126E-11
  -11.7799997       5.16690098E-13
  -11.7700005      -2.47464653E-11
  -11.7600002      -5.10152857E-11
  -11.7500000      -7.81209125E-11
  -11.7399998      -1.05893322E-10
  -11.7299995      -1.34160891E-10
  -11.7200003      -1.62749036E-10
  -11.7100000      -1.91478763E-10
  -11.6999998      -2.20165164E-10
  -11.6899996      -2.48616711E-10
  -11.6800003      -2.76634493E-10
  -11.6700001      -3.04011982E-10
  -11.6599998      -3.30534877E-10
  -11.6499996      -3.55980356E-10
  -11.6400003      -3.80116744E-10
  -11.6300001      -4.02702455E-10
  -11.6199999      -4.23486052E-10
  -11.6099997      -4.42206910E-10
  -11.6000004      -4.58597799E-10
  -11.5900002      -4.72388906E-10
  -11.5799999      -4.83314555E-10
  -11.5699997      -4.91120145E-10
  -11.5600004      -4.95570418E-10
  -11.5500002      -4.96457320E-10
  -11.5400000      -4.93605767E-10
  -11.5299997      -4.86877538E-10
  -11.5200005      -4.76172546E-10
  -11.5100002      -4.61426869E-10
  -11.5000000      -4.42609227E-10
  -11.4899998      -4.19716123E-10
  -11.4799995      -3.92766403E-10
  -11.4700003      -3.61796648E-10
  -11.4600000      -3.26858179E-10
  -11.4499998      -2.88015445E-10
  -11.4399996      -2.45345522E-10
  -11.4300003      -1.98938699E-10
  -11.4200001      -1.48899212E-10
  -11.4099998      -9.53450027E-11
  -11.3999996      -3.84067049E-11
  -11.3900003       2.17747816E-11
  -11.3800001       8.50524581E-11
  -11.3699999       1.51277615E-10
  -11.3599997       2.20304622E-10
  -11.3500004       2.91995178E-10
  -11.3400002       3.66220970E-10
  -11.3299999       4.42864967E-10
  -11.3199997       5.21820420E-10
  -11.3100004       6.02987993E-10
  -11.3000002       6.86271040E-10
  -11.2900000       7.71571640E-10
  -11.2799997       8.58784710E-10
  -11.2700005       9.47793732E-10
  -11.2600002       1.03846953E-09
  -11.2500000       1.13066845E-09
  -11.2399998       1.22423505E-09
  -11.2299995       1.31900657E-09
  -11.2200003       1.41481760E-09
  -11.2100000       1.51150781E-09
  -11.1999998       1.60892877E-09
  -11.1899996       1.70694647E-09
  -11.1800003       1.80544824E-09
  -11.1700001       1.90434335E-09
  -11.1599998       2.00356043E-09
  -11.1499996       2.10304796E-09
  -11.1400003       2.20276797E-09
  -11.1300001       2.30269315E-09
  -11.1199999       2.40280351E-09
  -11.1099997       2.50308529E-09
  -11.1000004       2.60352895E-09
  -11.0900002       2.70412781E-09
  -11.0799999       2.80488188E-09
  -11.0699997       2.90579361E-09
  -11.0600004       3.00687031E-09
  -11.0500002       3.10811998E-09
  -11.0400000       3.20954974E-09
  -11.0299997       3.31115735E-09
  -11.0200005       3.41292972E-09
  -11.0100002       3.51484042E-09
  -11.0000000       3.61684571E-09
  -10.9899998       3.71888653E-09
  -10.9799995       3.82089294E-09
  -10.9700003       3.92278388E-09
  -10.9600000       4.02448386E-09
  -10.9499998       4.12591117E-09
  -10.9399996       4.22700142E-09
  -10.9300003       4.32769642E-09
  -10.9200001       4.42794734E-09
  -10.9099998       4.52771420E-09
  -10.8999996       4.62695660E-09
  -10.8900003       4.72563944E-09
  -10.8800001       4.82371521E-09
  -10.8699999       4.92113106E-09
  -10.8599997       5.01781994E-09
  -10.8500004       5.11370013E-09
  -10.8400002       5.20867660E-09
  -10.8299999       5.30263122E-09
  -10.8199997       5.39542544E-09
  -10.8100004       5.48690027E-09
  -10.8000002       5.57686919E-09
  -10.7900000       5.66512348E-09
  -10.7799997       5.75142600E-09
  -10.7700005       5.83552318E-09
  -10.7600002       5.91714722E-09
  -10.7500000       5.99602545E-09
  -10.7399998       6.07189543E-09
  -10.7299995       6.14451645E-09
  -10.7200003       6.21368024E-09
  -10.7100000       6.27922514E-09
  -10.6999998       6.34104680E-09
  -10.6899996       6.39909858E-09
  -10.6800003       6.45339560E-09
  -10.6700001       6.50401244E-09
  -10.6599998       6.55107923E-09
  -10.6499996       6.59477362E-09
  -10.6400003       6.63530875E-09
  -10.6300001       6.67293465E-09
  -10.6199999       6.70792177E-09
  -10.6099997       6.74055434E-09
  -10.6000004       6.77112677E-09
  -10.5900002       6.79993617E-09
  -10.5799999       6.82727563E-09
  -10.5699997       6.85342583E-09
  -10.5600004       6.87865231E-09
  -10.5500002       6.90319979E-09
  -10.5400000       6.92727786E-09
  -10.5299997       6.95106817E-09
  -10.5200005       6.97470703E-09
  -10.5100002       6.99829839E-09
  -10.5000000       7.02190572E-09
  -10.4899998       7.04555614E-09
  -10.4799995       7.06924208E-09
  -10.4700003       7.09293646E-09
  -10.4600000       7.11658510E-09
  -10.4499998       7.14012760E-09
  -10.4399996       7.16348802E-09
  -10.4300003       7.18658555E-09
  -10.4200001       7.20932825E-09
  -10.4099998       7.23162730E-09
  -10.3999996       7.25337923E-09
  -10.3900003       7.27447746E-09
  -10.3800001       7.29480032E-09
  -10.3699999       7.31421945E-09
  -10.3599997       7.33259276E-09
  -10.3500004       7.34977457E-09
  -10.3400002       7.36559702E-09
  -10.3299999       7.37989003E-09
  -10.3199997       7.39247286E-09
  -10.3100004       7.40314476E-09
  -10.3000002       7.41169837E-09
  -10.2900000       7.41791606E-09
  -10.2799997       7.42157180E-09
  -10.2700005       7.42242712E-09
  -10.2600002       7.42025286E-09
  -10.2500000       7.41482920E-09
  -10.2399998       7.40595718E-09
  -10.2299995       7.39347916E-09
  -10.2200003       7.37727923E-09
  -10.2100000       7.35729389E-09
  -10.1999998       7.33352312E-09
  -10.1899996       7.30602423E-09
  -10.1800003       7.27490956E-09
  -10.1700001       7.24034965E-09
  -10.1599998       7.20255811E-09
  -10.1499996       7.16179249E-09
  -10.1400003       7.11835035E-09
  -10.1300001       7.07256742E-09
  -10.1199999       7.02480651E-09
  -10.1099997       6.97546820E-09
  -10.1000004       6.92497615E-09
  -10.0900002       6.87377710E-09
  -10.0799999       6.82232582E-09
  -10.0699997       6.77107748E-09
  -10.0600004       6.72046108E-09
  -10.0500002       6.67088162E-09
  -10.0400000       6.62269573E-09
  -10.0299997       6.57621024E-09
  -10.0200005       6.53168231E-09
  -10.0100002       6.48931442E-09
  -10.0000000       6.44928422E-09
  -9.98999977       6.41173825E-09
  -9.97999954       6.37682307E-09
  -9.97000027       6.34470032E-09
  -9.96000004       6.31555519E-09
  -9.94999981       6.28960928E-09
  -9.93999958       6.26712149E-09
  -9.93000031       6.24839069E-09
  -9.92000008       6.23374508E-09
  -9.90999985       6.22353991E-09
  -9.89999962       6.21814289E-09
  -9.89000034       6.21793506E-09
  -9.88000011       6.22329610E-09
  -9.86999989       6.23460306E-09
  -9.85999966       6.25221785E-09
  -9.85000038       6.27649888E-09
  -9.84000015       6.30777919E-09
  -9.82999992       6.34636832E-09
  -9.81999969       6.39254605E-09
  -9.81000042       6.44654863E-09
  -9.80000019       6.50856347E-09
  -9.78999996       6.57871668E-09
  -9.77999973       6.65707756E-09
  -9.77000046       6.74364342E-09
  -9.76000023       6.83835610E-09
  -9.75000000       6.94108460E-09
  -9.73999977       7.05166281E-09
  -9.72999954       7.16987314E-09
  -9.72000027       7.29546734E-09
  -9.71000004       7.42817230E-09
  -9.69999981       7.56769847E-09
  -9.68999958       7.71374431E-09
  -9.68000031       7.86600474E-09
  -9.67000008       8.02416977E-09
  -9.65999985       8.18792767E-09
  -9.64999962       8.35698089E-09
  -9.64000034       8.53102122E-09
  -9.63000011       8.70975647E-09
  -9.61999989       8.89290508E-09
  -9.60999966       9.08018460E-09
  -9.60000038       9.27131527E-09
  -9.59000015       9.46602352E-09
  -9.57999992       9.66403046E-09
  -9.56999969       9.86505899E-09
  -9.56000042       1.00688267E-08
  -9.55000019       1.02750475E-08
  -9.53999996       1.04834346E-08
  -9.52999973       1.06937055E-08
  -9.52000046       1.09055813E-08
  -9.51000023       1.11187823E-08
  -9.50000000       1.13330474E-08
  -9.48999977       1.15481225E-08
  -9.47999954       1.17637624E-08
  -9.47000027       1.19797416E-08
  -9.46000004       1.21958470E-08
  -9.44999981       1.24118937E-08
  -9.43999958       1.26277246E-08
  -9.43000031       1.28432109E-08
  -9.42000008       1.30582558E-08
  -9.40999985       1.32728033E-08
  -9.39999962       1.34868445E-08
  -9.39000034       1.37003973E-08
  -9.38000011       1.39135174E-08
  -9.36999989       1.41263099E-08
  -9.35999966       1.43388954E-08
  -9.35000038       1.45514312E-08
  -9.34000015       1.47640860E-08
  -9.32999992       1.49770685E-08
  -9.31999969       1.51905741E-08
  -9.31000042       1.54048223E-08
  -9.30000019       1.56200120E-08
  -9.28999996       1.58363527E-08
  -9.27999973       1.60540257E-08
  -9.27000046       1.62732121E-08
  -9.26000023       1.64940719E-08
  -9.25000000       1.67167489E-08
  -9.23999977       1.69413674E-08
  -9.22999954       1.71680608E-08
  -9.22000027       1.73969319E-08
  -9.21000004       1.76280963E-08
  -9.19999981       1.78616535E-08
  -9.18999958       1.80977171E-08
  -9.18000031       1.83363849E-08
  -9.17000008       1.85777349E-08
  -9.15999985       1.88218543E-08
  -9.14999962       1.90687999E-08
  -9.14000034       1.93186107E-08
  -9.13000011       1.95713135E-08
  -9.11999989       1.98269010E-08
  -9.10999966       2.00853485E-08
  -9.10000038       2.03466168E-08
  -9.09000015       2.06106421E-08
  -9.07999992       2.08773230E-08
  -9.06999969       2.11465760E-08
  -9.06000042       2.14182716E-08
  -9.05000019       2.16922462E-08
  -9.03999996       2.19683294E-08
  -9.02999973       2.22463026E-08
  -9.02000046       2.25259598E-08
  -9.01000023       2.28070505E-08
  -9.00000000       2.30893207E-08
  -8.98999977       2.33725128E-08
  -8.97999954       2.36563533E-08
  -8.97000027       2.39406042E-08
  -8.96000004       2.42250167E-08
  -8.94999981       2.45093883E-08
  -8.93999958       2.47935148E-08
  -8.93000031       2.50772292E-08
  -8.92000008       2.53604195E-08
  -8.90999985       2.56429900E-08
  -8.89999962       2.59249155E-08
  -8.89000034       2.62062088E-08
  -8.88000011       2.64869531E-08
  -8.86999989       2.67672888E-08
  -8.85999966       2.70474061E-08
  -8.85000038       2.73275749E-08
  -8.84000015       2.76081078E-08
  -8.82999992       2.78893868E-08
  -8.81999969       2.81718382E-08
  -8.81000042       2.84559665E-08
  -8.80000019       2.87423241E-08
  -8.78999996       2.90315292E-08
  -8.77999973       2.93242177E-08
  -8.77000046       2.96211109E-08
  -8.76000023       2.99229370E-08
  -8.75000000       3.02304706E-08
  -8.73999977       3.05444914E-08
  -8.72999954       3.08657881E-08
  -8.72000027       3.11951673E-08
  -8.71000004       3.15334283E-08
  -8.69999981       3.18813420E-08
  -8.68999958       3.22397078E-08
  -8.68000031       3.26092398E-08
  -8.67000008       3.29906804E-08
  -8.65999985       3.33846444E-08
  -8.64999962       3.37917356E-08
  -8.64000034       3.42124409E-08
  -8.63000011       3.46471793E-08
  -8.61999989       3.50962353E-08
  -8.60999966       3.55598360E-08
  -8.60000038       3.60380952E-08
  -8.59000015       3.65310555E-08
  -8.57999992       3.70386743E-08
  -8.56999969       3.75609090E-08
  -8.56000042       3.80976282E-08
  -8.55000019       3.86486931E-08
  -8.53999996       3.92139299E-08
  -8.52999973       3.97931217E-08
  -8.52000046       4.03860447E-08
  -8.51000023       4.09924432E-08
  -8.50000000       4.16120187E-08
  -8.48999977       4.22444906E-08
  -8.47999954       4.28895426E-08
  -8.47000027       4.35468444E-08
  -8.46000004       4.42160903E-08
  -8.44999981       4.48969253E-08
  -8.43999958       4.55890721E-08
  -8.43000031       4.62921861E-08
  -8.42000008       4.70059689E-08
  -8.40999985       4.77301612E-08
  -8.39999962       4.84644715E-08
  -8.39000034       4.92086834E-08
  -8.38000011       4.99625159E-08
  -8.36999989       5.07257418E-08
  -8.35999966       5.14981657E-08
  -8.35000038       5.22795744E-08
  -8.34000015       5.30697442E-08
  -8.32999992       5.38684830E-08
  -8.31999969       5.46755956E-08
  -8.31000042       5.54909221E-08
  -8.30000019       5.63142493E-08
  -8.28999996       5.71454208E-08
  -8.27999973       5.79842379E-08
  -8.27000046       5.88305333E-08
  -8.26000023       5.96840906E-08
  -8.25000000       6.05447354E-08
  -8.23999977       6.14122655E-08
  -8.22999954       6.22864604E-08
  -8.22000027       6.31671000E-08
  -8.21000004       6.40539142E-08
  -8.19999981       6.49466685E-08
  -8.18999958       6.58451000E-08
  -8.18000031       6.67488607E-08
  -8.17000008       6.76576946E-08
  -8.15999985       6.85712394E-08
  -8.14999962       6.94891469E-08
  -8.14000034       7.04109695E-08
  -8.13000011       7.13363377E-08
  -8.11999989       7.22647471E-08
  -8.10999966       7.31956931E-08
  -8.10000038       7.41286001E-08
  -8.09000015       7.50629070E-08
  -8.07999992       7.59979386E-08
  -8.06999969       7.69330057E-08
  -8.06000042       7.78673908E-08
  -8.05000019       7.88002978E-08
  -8.03999996       7.97309028E-08
  -8.02999973       8.06583458E-08
  -8.02000046       8.15816321E-08
  -8.01000023       8.24999020E-08
  -8.00000000       8.34120684E-08
  -7.98999977       8.43171932E-08
  -7.98000002       8.52141895E-08
  -7.96999979       8.61020482E-08
  -7.96000004       8.69796963E-08
  -7.94999981       8.78461393E-08
  -7.94000006       8.87004035E-08
  -7.92999983       8.95415937E-08
  -7.92000008       9.03687649E-08
  -7.90999985       9.11811568E-08
  -7.90000010       9.19779382E-08
  -7.88999987       9.27584836E-08
  -7.88000011       9.35222317E-08
  -7.86999989       9.42686214E-08
  -7.86000013       9.49972261E-08
  -7.84999990       9.57077901E-08
  -7.84000015       9.63999724E-08
  -7.82999992       9.70736593E-08
  -7.82000017       9.77287584E-08
  -7.80999994       9.83653194E-08
  -7.80000019       9.89833779E-08
  -7.78999996       9.95832181E-08
  -7.78000021       1.00165011E-07
  -7.76999998       1.00729167E-07
  -7.76000023       1.01276157E-07
  -7.75000000       1.01806513E-07
  -7.73999977       1.02320882E-07
  -7.73000002       1.02819904E-07
  -7.71999979       1.03304409E-07
  -7.71000004       1.03775200E-07
  -7.69999981       1.04233152E-07
  -7.69000006       1.04679224E-07
  -7.67999983       1.05114452E-07
  -7.67000008       1.05539918E-07
  -7.65999985       1.05956730E-07
  -7.65000010       1.06366130E-07
  -7.63999987       1.06769356E-07
  -7.63000011       1.07167786E-07
  -7.61999989       1.07562791E-07
  -7.61000013       1.07955834E-07
  -7.59999990       1.08348281E-07
  -7.59000015       1.08741681E-07
  -7.57999992       1.09137538E-07
  -7.57000017       1.09537304E-07
  -7.55999994       1.09942548E-07
  -7.55000019       1.10354698E-07
  -7.53999996       1.10775247E-07
  -7.53000021       1.11205580E-07
  -7.51999998       1.11647140E-07
  -7.51000023       1.12101247E-07
  -7.50000000       1.12569232E-07
  -7.48999977       1.13052387E-07
  -7.48000002       1.13551920E-07
  -7.46999979       1.14069032E-07
  -7.46000004       1.14604852E-07
  -7.44999981       1.15160432E-07
  -7.44000006       1.15736718E-07