  -16.0000000       0.00000000    
  -15.9899998       0.00000000    
  -15.9799995       0.00000000    
  -15.9700003       0.00000000    
  -15.9600000       0.00000000    
  -15.9499998       0.00000000    
  -15.9399996       0.00000000    
  -15.9300003       0.00000000    
  -15.9200001       0.00000000    
  -15.9099998       0.00000000    
  -15.8999996       0.00000000    
  -15.8900003       0.00000000    
  -15.8800001       0.00000000    
  -15.8699999       1.40129846E-44
  -15.8599997       5.66124580E-43
  -15.8500004       1.29508004E-41
  -15.8400002       1.90629840E-40
  -15.8299999       2.11612043E-39
  -15.8199997       1.83247982E-38
  -15.8100004       1.27989109E-37
  -15.8000002       7.42410841E-37
  -15.7900000       3.66401460E-36
  -15.7799997       1.56854769E-35
  -15.7700005       5.91349652E-35
  -15.7600002       1.98613982E-34
  -15.7500000       5.99312662E-34
  -15.7399998       1.63381850E-33
  -15.7299995       4.03512534E-33
  -15.7200003       9.02378891E-33
  -15.7100000       1.81824173E-32
  -15.6999998       3.26082603E-32
  -15.6899996       5.06525453E-32
  -15.6800003       6.36716095E-32
  -15.6700001       5.02378015E-32
  -15.6599998      -2.82139421E-32
  -15.6499996      -2.23290653E-31
  -15.6400003      -5.76248161E-31
  -15.6300001      -1.06520402E-30
  -15.6199999      -1.52486538E-30
  -15.6099997      -1.56929229E-30
  -15.6000004      -5.89938015E-31
  -15.5900002       2.06535354E-30
  -15.5799999       6.64414234E-30
  -15.5699997       1.23016262E-29
  -15.5600004       1.64401172E-29
  -15.5500002       1.46300349E-29
  -15.5400000       1.81314643E-30
  -15.5299997      -2.47876437E-29
  -15.5200005      -6.15357668E-29
  -15.5100002      -9.49261800E-29
  -15.5000000      -1.01952063E-28
  -15.4899998      -5.73150613E-29
  -15.4799995       5.21275509E-29
  -15.4700003       2.10440948E-28
  -15.4600000       3.63539596E-28
  -15.4499998       4.29889664E-28
  -15.4399996       3.35888730E-28
  -15.4300003       6.41113972E-29
  -15.4200001      -3.16895980E-28
  -15.4099998      -6.79169132E-28
  -15.3999996      -9.31868811E-28
  -15.3900003      -1.14064077E-27
  -15.3800001      -1.55021279E-27
  -15.3699999      -2.36723792E-27
  -15.3599997      -3.26222604E-27
  -15.3500004      -2.81008625E-27
  -15.3400002       1.57235299E-27
  -15.3299999       1.24602637E-26
  -15.3199997       2.96272552E-26
  -15.3100004       4.63151608E-26
  -15.3000002       4.69260473E-26
  -15.2900000       9.89985615E-27
  -15.2799997      -8.08125012E-26
  -15.2700005      -2.15881795E-25
  -15.2600002      -3.39721199E-25
  -15.2500000      -3.44443788E-25
  -15.2399998      -9.87891991E-26
  -15.2299995       4.75162182E-25
  -15.2200003       1.28900680E-24
  -15.2100000       1.98893548E-24
  -15.1999998       1.95806025E-24
  -15.1899996       5.14481228E-25
  -15.1800003      -2.65699614E-24
  -15.1700001      -6.93638925E-24
  -15.1599998      -1.03469213E-23
  -15.1499996      -9.71288066E-24
  -15.1400003      -1.80395154E-24
  -15.1300001       1.44623716E-23
  -15.1199999       3.53619428E-23
  -15.1099997       5.06897721E-23
  -15.1000004       4.50697629E-23
  -15.0900002       3.91729353E-24
  -15.0799999      -7.60184170E-23
  -15.0699997      -1.74747597E-22
  -15.0600004      -2.42571396E-22
  -15.0500002      -2.07877533E-22
  -15.0400000      -5.84768784E-24
  -15.0299997       3.73519959E-22
  -15.0200005       8.33531688E-22
  -15.0100002       1.14536222E-21
  -15.0000000       9.86455391E-22
  -14.9899998       6.90614275E-23
  -14.9799995      -1.65120891E-21
  -14.9700003      -3.75483493E-21
  -14.9600000      -5.25306097E-21
  -14.9499998      -4.75082986E-21
  -14.9399996      -9.80823151E-22
  -14.9300003       6.33678833E-21
  -14.9200001       1.55844769E-20
  -14.9099998       2.27923414E-20
  -14.8999996       2.22359978E-20
  -14.8900003       8.49025532E-21
  -14.8800001      -2.02276808E-20
  -14.8699999      -5.84536227E-20
  -14.8599997      -9.14951132E-20
  -14.8500004      -9.73103997E-20
  -14.8400002      -5.37912160E-20
  -14.8299999       4.90301388E-20
  -14.8199997       1.95389186E-19
  -14.8100004       3.35440014E-19
  -14.8000002       3.90079920E-19
  -14.7900000       2.74725138E-19
  -14.7799997      -5.89423831E-20
  -14.7700005      -5.74540525E-19
  -14.7600002      -1.11763113E-18
  -14.7500000      -1.42435270E-18
  -14.7399998      -1.19263500E-18
  -14.7299995      -2.15805296E-19
  -14.7200003       1.45451015E-18
  -14.7100000       3.38360484E-18
  -14.6999998       4.75327469E-18
  -14.6899996       4.55652565E-18
  -14.6800003       1.99764986E-18
  -14.6700001      -2.99082743E-18
  -14.6599998      -9.31069534E-18
  -14.6499996      -1.46024642E-17
  -14.6400003      -1.57234379E-17
  -14.6300001      -9.86749626E-18
  -14.6199999       3.88591337E-18
  -14.6099997       2.31305391E-17
  -14.6000004       4.15562503E-17
  -14.5900002       4.99597899E-17
  -14.5799999       3.91593721E-17
  -14.5699997       4.37068422E-18
  -14.5600004      -5.03145379E-17
  -14.5500002      -1.09425526E-16
  -14.5400000      -1.47718853E-16
  -14.5299997      -1.37130849E-16
  -14.5200005      -5.83904743E-17
  -14.5100002       8.58927010E-17
  -14.5000000       2.61983744E-16
  -14.4899998       4.05643020E-16
  -14.4799995       4.36861134E-16
  -14.4700003       2.88441744E-16
  -14.4600000      -5.81505655E-17
  -14.4499998      -5.42453717E-16
  -14.4399996      -1.01605488E-15
  -14.4300003      -1.26824274E-15
  -14.4200001      -1.09000445E-15
  -14.4099998      -3.64828711E-16
  -14.3999996       8.41448247E-16
  -14.3900003       2.23076439E-15
  -14.3800001       3.30043021E-15
  -14.3699999       3.46823167E-15
  -14.3599997       2.28156286E-15
  -14.3500004      -3.42950988E-16
  -14.3400002      -3.93631330E-15
  -14.3299999      -7.44788447E-15
  -14.3199997      -9.44002804E-15
  -14.3100004      -8.51329945E-15
  -14.3000002      -3.87670082E-15
  -14.2900000       4.10998343E-15
  -14.2799997       1.36466766E-14
  -14.2700005       2.16600250E-14
  -14.2600002       2.45228252E-14
  -14.2500000       1.92407413E-14
  -14.2399998       4.81128478E-15
  -14.2299995      -1.67033169E-14
  -14.2200003      -3.98891735E-14
  -14.2100000      -5.68458041E-14
  -14.1999998      -5.92546980E-14
  -14.1899996      -4.12721886E-14
  -14.1800003      -2.44782654E-15
  -14.1700001       5.03822583E-14
  -14.1599998       1.03224707E-13
  -14.1499996       1.37638558E-13
  -14.1400003       1.35832670E-13
  -14.1300001       8.70472314E-14
  -14.1199999      -6.63422378E-15
  -14.1099997      -1.27220256E-13
  -14.1000004      -2.42315391E-13
  -14.0900002      -3.11937054E-13
  -14.0799999      -2.99758861E-13
  -14.0699997      -1.86204567E-13
  -14.0600004       2.05244638E-14
  -14.0500002       2.79650516E-13
  -14.0400000       5.22423576E-13
  -14.0299997       6.67008658E-13
  -14.0200005       6.41335184E-13
  -14.0100002       4.08517214E-13
  -14.0000000      -1.26666637E-14
  -13.9899998      -5.39949921E-13
  -13.9799995      -1.03783930E-12
  -13.9700003      -1.34683790E-12
  -13.9600000      -1.32695591E-12
  -13.9499998      -9.05062646E-13
  -13.9399996      -1.12401225E-13
  -13.9300003       9.01424931E-13
  -13.9200001       1.88730260E-12
  -13.9099998       2.54946867E-12
  -13.8999996       2.62352184E-12
  -13.8900003       1.96103463E-12
  -13.8800001       5.96999013E-13
  -13.8699999      -1.22372392E-12
  -13.8599997      -3.07644383E-12
  -13.8500004      -4.44512396E-12
  -13.8400002      -4.85374414E-12
  -13.8299999      -4.00976431E-12
  -13.8199997      -1.91958515E-12
  -13.8100004       1.06261777E-12
  -13.8000002       4.27765852E-12
  -13.7900000       6.89804464E-12
  -13.7799997       8.13300122E-12
  -13.7700005       7.45259236E-12
  -13.7600002       4.76851284E-12
  -13.7500000       5.13675040E-13
  -13.7399998      -4.41483222E-12
  -13.7299995      -8.84889557E-12
  -13.7200003      -1.16375095E-11
  -13.7100000      -1.19546855E-11
  -13.6999998      -9.54088197E-12
  -13.6899996      -4.80059525E-12
  -13.6800003       1.27941516E-12
  -13.6700001       7.37900453E-12
  -13.6599998       1.21888758E-11
  -13.6499996       1.47496459E-11
  -13.6400003       1.46757120E-11
  -13.6300001       1.21925256E-11
  -13.6199999       7.97537210E-12
  -13.6099997       2.85171691E-12
  -13.6000004      -2.51433770E-12
  -13.5900002      -7.81891826E-12
  -13.5799999      -1.30949271E-11
  -13.5699997      -1.84494642E-11
  -13.5600004      -2.36480835E-11
  -13.5500002      -2.77261113E-11
  -13.5400000      -2.88478182E-11
  -13.5299997      -2.45890287E-11
  -13.5200005      -1.26953760E-11
  -13.5100002       7.81741599E-12
  -13.5000000       3.55405913E-11
  -13.4899998       6.59667945E-11
  -13.4799995       9.16272752E-11
  -13.4700003       1.03332586E-10
  -13.4600000       9.24647095E-11
  -13.4499998       5.38926612E-11
  -13.4399996      -1.12526464E-11
  -13.4300003      -9.38809100E-11
  -13.4200001      -1.77164394E-10
  -13.4099998      -2.39137904E-10
  -13.3999996      -2.57521199E-10
  -13.3900003      -2.15885698E-10
  -13.3800001      -1.09692200E-10
  -13.3699999       4.95850236E-11
  -13.3599997       2.33838948E-10
  -13.3500004       4.02142347E-10
  -13.3400002       5.08846132E-10
  -13.3299999       5.14587761E-10
  -13.3199997       3.97733319E-10
  -13.3100004       1.63292102E-10
  -13.3000002      -1.53556348E-10
  -13.2900000      -4.91114593E-10
  -13.2799997      -7.72227171E-10
  -13.2700005      -9.20946541E-10
  -13.2600002      -8.81410167E-10
  -13.2500000      -6.34288122E-10
  -13.2399998      -2.06465192E-10
  -13.2299995       3.29401312E-10
  -13.2200003       8.66459904E-10
  -13.2100000       1.28468669E-09
  -13.1999998       1.47724843E-09
  -13.1899996       1.37611866E-09
  -13.1800003       9.70941993E-10
  -13.1700001       3.15949378E-10
  -13.1599998      -4.77250017E-10
  -13.1499996      -1.26013922E-09
  -13.1400003      -1.87677052E-09
  -13.1300001      -2.19554042E-09
  -13.1199999      -2.13618923E-09
  -13.1099997      -1.68556880E-09
  -13.1000004      -8.99237573E-10
  -13.0900002       1.11076572E-10
  -13.0799999       1.20010291E-09
  -13.0699997       2.21523622E-09
  -13.0600004       3.01938541E-09
  -13.0500002       3.50520235E-09
  -13.0400000       3.59828745E-09
  -13.0299997       3.25196803E-09
  -13.0200005       2.43901410E-09
  -13.0100002       1.14801735E-09
  -13.0000000      -6.08927520E-10
  -12.9899998      -2.77452927E-09
  -12.9799995      -5.21404475E-09
  -12.9700003      -7.68199993E-09
  -12.9600000      -9.80330395E-09
  -12.9499998      -1.10846274E-08
  -12.9399996      -1.09686056E-08
  -12.9300003      -8.93407837E-09
  -12.9200001      -4.63257122E-09
  -12.9099998       1.96324468E-09
  -12.8999996       1.04340110E-08
  -12.8900003       1.98508960E-08
  -12.8800001       2.88094615E-08
  -12.8699999       3.55775782E-08
  -12.8599997       3.83514482E-08
  -12.8500004       3.55845877E-08
  -12.8400002       2.63313389E-08
  -12.8299999       1.05332560E-08
  -12.8199997      -1.08212612E-08
  -12.8100004      -3.57099132E-08
  -12.8000002      -6.12756779E-08
  -12.7900000      -8.41786942E-08
  -12.7799997      -1.01032697E-07
  -12.7700005      -1.08835479E-07
  -12.7600002      -1.05304210E-07
  -12.7500000      -8.90589860E-08
  -12.7399998      -5.96460623E-08
  -12.7299995      -1.74519634E-08
  -12.7200003       3.63999071E-08
  -12.7100000       1.00054891E-07
  -12.6999998       1.70754177E-07
  -12.6899996       2.44458619E-07
  -12.6800003       3.15344096E-07
  -12.6700001       3.75337237E-07
  -12.6599998       4.13934600E-07
  -12.6499996       4.18553469E-07
  -12.6400003       3.75613268E-07
  -12.6300001       2.72410148E-07
  -12.6199999       9.96755887E-08
  -12.6099997      -1.45505012E-07
  -12.6000004      -4.56860249E-07
  -12.5900002      -8.16766430E-07
  -12.5799999      -1.19524782E-06
  -12.5699997      -1.55056603E-06
  -12.5600004      -1.83156965E-06
  -12.5500002      -1.98172006E-06
  -12.5400000      -1.94448398E-06
  -12.5299997      -1.66958375E-06
  -12.5200005      -1.11952056E-06
  -12.5100002      -2.75772578E-07
  -12.5000000       8.55753171E-07
  -12.4899998       2.24038195E-06
  -12.4799995       3.81167820E-06
  -12.4700003       5.46981710E-06
  -12.4600000       7.08157859E-06
  -12.4499998       8.48196669E-06
  -12.4399996       9.47780518E-06
  -12.4300003       9.85348561E-06
  -12.4200001       9.37914956E-06
  -12.4099998       7.82138977E-06
  -12.3999996       4.95635459E-06
  -12.3900003       5.84710278E-07
  -12.3800001      -5.45232660E-06
  -12.3699999      -1.32566875E-05
  -12.3599997      -2.28586214E-05
  -12.3500004      -3.42041312E-05
  -12.3400002      -4.71461572E-05
  -12.3299999      -6.14403689E-05
  -12.3199997      -7.67457896E-05
  -12.3100004      -9.26306311E-05
  -12.3000002      -1.08583277E-04
  -12.2900000      -1.24028447E-04
  -12.2799997      -1.38345247E-04
  -12.2700005      -1.50891385E-04
  -12.2600002      -1.61025979E-04
  -12.2500000      -1.68135040E-04
  -12.2399998      -1.71656546E-04
  -12.2299995      -1.71101929E-04
  -12.2200003      -1.66076148E-04
  -12.2100000      -1.56294278E-04
  -12.1999998      -1.41590266E-04
  -12.1899996      -1.21922749E-04
  -12.1800003      -9.73754941E-05
  -12.1700001      -6.81491074E-05
  -12.1599998      -3.45549306E-05
  -12.1499996       3.00253555E-06
  -12.1400003       4.40381700E-05
  -12.1300001       8.80062726E-05
  -12.1199999       1.34315371E-04
  -12.1099997       1.82345699E-04
  -12.1000004       2.31463899E-04
  -12.0900002       2.81034008E-04
  -12.0799999       3.30428273E-04
  -12.0699997       3.79031320E-04
  -12.0600004       4.26243147E-04
  -12.0500002       4.71477077E-04
  -12.0400000       5.14157058E-04
  -12.0299997       5.53710619E-04
  -12.0200005       5.89565199E-04
  -12.0100002       6.21141691E-04
  -12.0000000       6.47853652E-04
  -11.9899998       6.69110217E-04
  -11.9799995       6.84323255E-04
  -11.9700003       6.92917150E-04
  -11.9600000       6.94347546E-04
  -11.9499998       6.88114960E-04
  -11.9399996       6.73783128E-04
  -11.9300003       6.50996983E-04
  -11.9200001       6.19495113E-04
  -11.9099998       5.79120708E-04
  -11.8999996       5.29828074E-04
  -11.8900003       4.71684238E-04
  -11.8800001       4.04870341E-04
  -11.8699999       3.29675968E-04
  -11.8599997       2.46497104E-04
  -11.8500004       1.55825386E-04
  -11.8400002       5.82435860E-05
  -11.8299999      -4.55867703E-05
  -11.8199997      -1.54934576E-04
  -11.8100004      -2.69007462E-04
  -11.8000002      -3.86964617E-04
  -11.7900000      -5.07921737E-04
  -11.7799997      -6.30961033E-04
  -11.7700005      -7.55136774E-04
  -11.7600002      -8.79482541E-04
  -11.7500000      -1.00301672E-03
  -11.7399998      -1.12474815E-03
  -11.7299995      -1.24368863E-03
  -11.7200003      -1.35885354E-03
  -11.7100000      -1.46927370E-03
  -11.6999998      -1.57399406E-03
  -11.6899996      -1.67207466E-03
  -11.6800003      -1.76258734E-03
  -11.6700001      -1.84459775E-03
  -11.6599998      -1.91715860E-03
  -11.6499996      -1.97929726E-03
  -11.6400003      -2.03000684E-03
  -11.6300001      -2.06825463E-03
  -11.6199999      -2.09299172E-03
  -11.6099997      -2.10318412E-03
  -11.6000004      -2.09784345E-03
  -11.5900002      -2.07606936E-03
  -11.5799999      -2.03708094E-03
  -11.5699997      -1.98025466E-03
  -11.5600004      -1.90513639E-03
  -11.5500002      -1.81144476E-03
  -11.5400000      -1.69906917E-03
  -11.5299997      -1.56804931E-03
  -11.5200005      -1.41855946E-03
  -11.5100002      -1.25088997E-03
  -11.5000000      -1.06543372E-03
  -11.4899998      -8.62677814E-04
  -11.4799995      -6.43208739E-04
  -11.4700003      -4.07701154E-04
  -11.4600000      -1.56921436E-04
  -11.4499998       1.08273933E-04
  -11.4399996       3.86955769E-04
  -11.4300003       6.78130542E-04
  -11.4200001       9.80758807E-04
  -11.4099998       1.29376200E-03
  -11.3999996       1.61602697E-03
  -11.3900003       1.94641540E-03
  -11.3800001       2.28374801E-03
  -11.3699999       2.62679951E-03
  -11.3599997       2.97429902E-03
  -11.3500004       3.32492474E-03
  -11.3400002       3.67731857E-03
  -11.3299999       4.03010799E-03
  -11.3199997       4.38193325E-03
  -11.3100004       4.73147864E-03
  -11.3000002       5.07751200E-03
  -11.2900000       5.41891670E-03
  -11.2799997       5.75469714E-03
  -11.2700005       6.08401140E-03
  -11.2600002       6.40615262E-03
  -11.2500000       6.72054198E-03
  -11.2399998       7.02670496E-03
  -11.2299995       7.32423924E-03
  -11.2200003       7.61277182E-03
  -11.2100000       7.89192598E-03
  -11.1999998       8.16129521E-03
  -11.1899996       8.42040591E-03
  -11.1800003       8.66871886E-03
  -11.1700001       8.90562870E-03
  -11.1599998       9.13049933E-03
  -11.1499996       9.34268162E-03
  -11.1400003       9.54157487E-03
  -11.1300001       9.72666219E-03
  -11.1199999       9.89756081E-03
  -11.1099997       1.00540388E-02
  -11.1000004       1.01960376E-02
  -11.0900002       1.03236642E-02
  -11.0799999       1.04371849E-02
  -11.0699997       1.05369939E-02
  -11.0600004       1.06235920E-02
  -11.0500002       1.06975650E-02
  -11.0400000       1.07595585E-02
  -11.0299997       1.08102616E-02
  -11.0200005       1.08503876E-02
  -11.0100002       1.08806593E-02
  -11.0000000       1.09017976E-02
  -10.9899998       1.09144738E-02
  -10.9799995       1.09193232E-02
  -10.9700003       1.09168952E-02
  -10.9600000       1.09076612E-02
  -10.9499998       1.08919898E-02
  -10.9399996       1.08701196E-02
  -10.9300003       1.08422022E-02
  -10.9200001       1.08082294E-02
  -10.9099998       1.07680969E-02
  -10.8999996       1.07215689E-02
  -10.8900003       1.06682908E-02
  -10.8800001       1.06078275E-02
  -10.8699999       1.05396807E-02
  -10.8599997       1.04633318E-02
  -10.8500004       1.03782797E-02
  -10.8400002       1.02840476E-02
  -10.8299999       1.01802265E-02
  -10.8199997       1.00664506E-02
  -10.8100004       9.94237605E-03
  -10.8000002       9.80763510E-03
  -10.7900000       9.66184027E-03
  -10.7799997       9.50454269E-03
  -10.7700005       9.33524407E-03
  -10.7600002       9.15347319E-03
  -10.7500000       8.95881839E-03
  -10.7399998       8.75099935E-03
  -10.7299995       8.52995925E-03
  -10.7200003       8.29588715E-03
  -10.7100000       8.04922543E-03
  -10.6999998       7.79063394E-03
  -10.6899996       7.52093224E-03
  -10.6800003       7.24100461E-03
  -10.6700001       6.95174607E-03
  -10.6599998       6.65396918E-03
  -10.6499996       6.34841155E-03
  -10.6400003       6.03570277E-03
  -10.6300001       5.71640069E-03
  -10.6199999       5.39105246E-03
  -10.6099997       5.06019359E-03
  -10.6000004       4.72442992E-03
  -10.5900002       4.38444875E-03
  -10.5799999       4.04103426E-03
  -10.5699997       3.69508308E-03
  -10.5600004       3.34757892E-03
  -10.5500002       2.99961586E-03
  -10.5400000       2.65234453E-03
  -10.5299997       2.30694935E-03
  -10.5200005       1.96461007E-03
  -10.5100002       1.62642950E-03
  -10.5000000       1.29340752E-03
  -10.4899998       9.66394728E-04
  -10.4799995       6.46063767E-04
  -10.4700003       3.32906522E-04
  -10.4600000       2.72909110E-05
  -10.4499998      -2.70540069E-04
  -10.4399996      -5.60411019E-04
  -10.4300003      -8.42193491E-04
  -10.4200001      -1.11581851E-03
  -10.4099998      -1.38129271E-03
  -10.3999996      -1.63872691E-03
  -10.3900003      -1.88838702E-03
  -10.3800001      -2.13069911E-03
  -10.3699999      -2.36623897E-03
  -10.3599997      -2.59572431E-03
  -10.3500004      -2.81993998E-03
  -10.3400002      -3.03970906E-03
  -10.3299999      -3.25585157E-03
  -10.3199997      -3.46917659E-03
  -10.3100004      -3.68050532E-03
  -10.3000002      -3.89066967E-03
  -10.2900000      -4.10054857E-03
  -10.2799997      -4.31104936E-03
  -10.2700005      -4.52306541E-03
  -10.2600002      -4.73738695E-03
  -10.2500000      -4.95461235E-03
  -10.2399998      -5.17505407E-03
  -10.2299995      -5.39869210E-03
  -10.2200003      -5.62517578E-03
  -10.2100000      -5.85390208E-03
  -10.1999998      -6.08410966E-03
  -10.1899996      -6.31504646E-03
  -10.1800003      -6.54605450E-03
  -10.1700001      -6.77665882E-03
  -10.1599998      -7.00656604E-03
  -10.1499996      -7.23559968E-03
  -10.1400003      -7.46356370E-03
  -10.1300001      -7.69013632E-03
  -10.1199999      -7.91473687E-03
  -10.1099997      -8.13646056E-03
  -10.1000004      -8.35409109E-03
  -10.0900002      -8.56615882E-03
  -10.0799999      -8.77105538E-03
  -10.0699997      -8.96715559E-03
  -10.0600004      -9.15297400E-03
  -10.0500002      -9.32724681E-03
  -10.0400000      -9.48898960E-03
  -10.0299997      -9.63750109E-03
  -10.0200005      -9.77232866E-03
  -10.0100002      -9.89320409E-03
  -10.0000000      -9.99994110E-03
  -9.98999977      -1.00923823E-02
  -9.97999954      -1.01702968E-02
  -9.97000027      -1.02333659E-02
  -9.96000004      -1.02811046E-02
  -9.94999981      -1.03129437E-02
  -9.93999958      -1.03282044E-02
  -9.93000031      -1.03261657E-02
  -9.92000008      -1.03061385E-02
  -9.90999985      -1.02674719E-02
  -9.89999962      -1.02096219E-02
  -9.89000034      -1.01321163E-02
  -9.88000011      -1.00345807E-02
  -9.86999989      -9.91666038E-03
  -9.85999966      -9.77806095E-03
  -9.85000038      -9.61850304E-03
  -9.84000015      -9.43778735E-03
  -9.82999992      -9.23587009E-03
  -9.81999969      -9.01293848E-03
  -9.81000042      -8.76952056E-03
  -9.80000019      -8.50650389E-03
  -9.78999996      -8.22517648E-03
  -9.77999973      -7.92716630E-03
  -9.77000046      -7.61429872E-03
  -9.76000023      -7.28851790E-03
  -9.75000000      -6.95165945E-03
  -9.73999977      -6.60544820E-03
  -9.72999954      -6.25135796E-03
  -9.72000027      -5.89071680E-03
  -9.71000004      -5.52471634E-03
  -9.69999981      -5.15456311E-03
  -9.68999958      -4.78156842E-03
  -9.68000031      -4.40723076E-03
  -9.67000008      -4.03323909E-03
  -9.65999985      -3.66145419E-03
  -9.64999962      -3.29379668E-03
  -9.64000034      -2.93213129E-03
  -9.63000011      -2.57816515E-03
  -9.61999989      -2.23330571E-03
  -9.60999966      -1.89862575E-03
  -9.60000038      -1.57486252E-03
  -9.59000015      -1.26237306E-03
  -9.57999992      -9.61238460E-04
  -9.56999969      -6.71302842E-04
  -9.56000042      -3.92206886E-04
  -9.55000019      -1.23459628E-04
  -9.53999996       1.35566472E-04
  -9.52999973       3.85572785E-04
  -9.52000046       6.27378759E-04
  -9.51000023       8.61853070E-04
  -9.50000000       1.08993240E-03
  -9.48999977       1.31253176E-03
  -9.47999954       1.53053540E-03
  -9.47000027       1.74473994E-03
  -9.46000004       1.95579533E-03
  -9.44999981       2.16412777E-03
  -9.43999958       2.36997288E-03
  -9.43000031       2.57329736E-03
  -9.42000008       2.77380319E-03
  -9.40999985       2.97095766E-03
  -9.39999962       3.16397147E-03
  -9.39000034       3.35182389E-03
  -9.38000011       3.53324506E-03
  -9.36999989       3.70670645E-03
  -9.35999966       3.87040409E-03
  -9.35000038       4.02224250E-03
  -9.34000015       4.15985938E-03
  -9.32999992       4.28060116E-03
  -9.31999969       4.38158214E-03
  -9.31000042       4.45971824E-03
  -9.30000019       4.51179873E-03
  -9.28999996       4.53454815E-03
  -9.27999973       4.52466961E-03
  -9.27000046       4.47890162E-03
  -9.26000023       4.39402880E-03
  -9.25000000       4.26695729E-03
  -9.23999977       4.09470126E-03
  -9.22999954       3.87444231E-03
  -9.22000027       3.60356108E-03
  -9.21000004       3.27969599E-03
  -9.19999981       2.90083280E-03
  -9.18999958       2.46530632E-03
  -9.18000031       1.97189860E-03
  -9.17000008       1.41987926E-03
  -9.15999985       8.08980200E-04
  -9.14999962       1.39429743E-04
  -9.14000034      -5.88098483E-04
  -9.13000011      -1.37248123E-03
  -9.11999989      -2.21223943E-03
  -9.10999966      -3.10551329E-03
  -9.10000038      -4.05014306E-03
  -9.09000015      -5.04365237E-03
  -9.07999992      -6.08324073E-03
  -9.06999969      -7.16573792E-03
  -9.06000042      -8.28755833E-03
  -9.05000019      -9.44462698E-03
  -9.03999996      -1.06323473E-02
  -9.02999973      -1.18455673E-02
  -9.02000046      -1.30785918E-02
  -9.01000023      -1.43252714E-02
  -9.00000000      -1.55790970E-02
  -8.98999977      -1.68333426E-02
  -8.97999954      -1.80811603E-02
  -8.97000027      -1.93157215E-02
  -8.96000004      -2.05301978E-02
  -8.94999981      -2.17177700E-02
  -8.93999958      -2.28715893E-02
  -8.93000031      -2.39847023E-02
  -8.92000008      -2.50499789E-02
  -8.90999985      -2.60601919E-02
  -8.89999962      -2.70079970E-02
  -8.89000034      -2.78861113E-02
  -8.88000011      -2.86874343E-02
  -8.86999989      -2.94052549E-02
  -8.85999966      -3.00333239E-02
  -8.85000038      -3.05659678E-02
  -8.84000015      -3.09981480E-02
  -8.82999992      -3.13253924E-02
  -8.81999969      -3.15438285E-02
  -8.81000042      -3.16501223E-02
  -8.80000019      -3.16414274E-02
  -8.78999996      -3.15154195E-02
  -8.77999973      -3.12702730E-02
  -8.77000046      -3.09046526E-02
  -8.76000023      -3.04177254E-02
  -8.75000000      -2.98091024E-02
  -8.73999977      -2.90788319E-02
  -8.72999954      -2.82273740E-02
  -8.72000027      -2.72555575E-02
  -8.71000004      -2.61645596E-02
  -8.69999981      -2.49559805E-02
  -8.68999958      -2.36317832E-02
  -8.68000031      -2.21942868E-02
  -8.67000008      -2.06461716E-02
  -8.65999985      -1.89904030E-02
  -8.64999962      -1.72301698E-02
  -8.64000034      -1.53688267E-02
  -8.63000011      -1.34098483E-02
  -8.61999989      -1.13568231E-02
  -8.60999966      -9.21350066E-03
  -8.60000038      -6.98380498E-03
  -8.59000015      -4.67194105E-03
  -8.57999992      -2.28234171E-03
  -8.56999969       1.80282266E-04
  -8.56000042       2.71101692E-03
  -8.55000019       5.30478405E-03
  -8.53999996       7.95641262E-03
  -8.52999973       1.06606893E-02
  -8.52000046       1.34123173E-02
  -8.51000023       1.62059367E-02
  -8.50000000       1.90360527E-02
  -8.48999977       2.18970403E-02
  -8.47999954       2.47831531E-02
  -8.47000027       2.76885852E-02
  -8.46000004       3.06074582E-02
  -8.44999981       3.35340202E-02
  -8.43999958       3.64625752E-02
  -8.43000031       3.93876098E-02
  -8.42000008       4.23037335E-02
  -8.40999985       4.52056900E-02
  -8.39999962       4.80883382E-02
  -8.39000034       5.09467460E-02
  -8.38000011       5.37762493E-02
  -8.36999989       5.65725230E-02
  -8.35999966       5.93318008E-02
  -8.35000038       6.20508529E-02
  -8.34000015       6.47270232E-02
  -8.32999992       6.73581809E-02
  -8.31999969       6.99424595E-02
  -8.31000042       7.24781826E-02
  -8.30000019       7.49635696E-02
  -8.28999996       7.73965940E-02
  -8.27999973       7.97750577E-02
  -8.27000046       8.20964724E-02
  -8.26000023       8.43581185E-02
  -8.25000000       8.65572467E-02
  -8.23999977       8.86910111E-02
  -8.22999954       9.07565355E-02
  -8.22000027       9.27508026E-02
  -8.21000004       9.46705565E-02
  -8.19999981       9.65123177E-02
  -8.18999958       9.82721746E-02
  -8.18000031       9.99459624E-02
  -8.17000008      0.101529121    
  -8.15999985      0.103016846    
  -8.14999962      0.104404323    
  -8.14000034      0.105686441    
  -8.13000011      0.106858104    
  -8.11999989      0.107913986    
  -8.10999966      0.108848743    
  -8.10000038      0.109656781    
  -8.09000015      0.110332571    
  -8.07999992      0.110870458    
  -8.06999969      0.111265026    
  -8.06000042      0.111511096    
  -8.05000019      0.111603841    
  -8.03999996      0.111538783    
  -8.02999973      0.111311868    
  -8.02000046      0.110919185    
  -8.01000023      0.110357247    
  -8.00000000      0.109622695    
  -7.98999977      0.108712524    
  -7.98000002      0.107624054    
  -7.96999979      0.106355183    
  -7.96000004      0.104904406    
  -7.94999981      0.103271045    
  -7.94000006      0.101455122    
  -7.92999983       9.94574577E-02
  -7.92000008       9.72796679E-02
  -7.90999985       9.49238688E-02
  -7.90000010       9.23929438E-02
  -7.88999987       8.96903649E-02
  -7.88000011       8.68202969E-02
  -7.86999989       8.37877095E-02
  -7.86000013       8.05982798E-02
  -7.84999990       7.72585720E-02
  -7.84000015       7.37759918E-02
  -7.82999992       7.01586828E-02
  -7.82000017       6.64153025E-02
  -7.80999994       6.25551119E-02
  -7.80000019       5.85876592E-02
  -7.78999996       5.45228422E-02
  -7.78000021       5.03708720E-02
  -7.76999998       4.61423248E-02
  -7.76000023       4.18481417E-02
  -7.75000000       3.74995880E-02
  -7.73999977       3.31082232E-02
  -7.73000002       2.86859702E-02
  -7.71999979       2.42446065E-02
  -7.71000004       1.97958965E-02
  -7.69999981       1.53512526E-02
  -7.69000006       1.09217474E-02
  -7.67999983       6.51807478E-03
  -7.67000008       2.15047156E-03
  -7.65999985      -2.17108428E-03
  -7.65000010      -6.43698080E-03
  -7.63999987      -1.06377974E-02
  -7.63000011      -1.47644561E-02
  -7.61999989      -1.88081432E-02
  -7.61000013      -2.27605905E-02
  -7.59999990      -2.66142040E-02
  -7.59000015      -3.03618722E-02
  -7.57999992      -3.39974128E-02
  -7.57000017      -3.75153609E-02
  -7.55999994      -4.09108326E-02
  -7.55000019      -4.41796742E-02
  -7.53999996      -4.73182052E-02
  -7.53000021      -5.03233038E-02
  -7.51999998      -5.31923510E-02
  -7.51000023      -5.59233017E-02
  -7.50000000      -5.85146770E-02
  -7.48999977      -6.09657094E-02
  -7.48000002      -6.32761568E-02
  -7.46999979      -6.54464141E-02
  -7.46000004      -6.74771667E-02
  -7.44999981      -6.93695843E-02
  -7.44000006      -7.11248815E-02