  -16.0000000       0.00000000    
  -15.9899998       0.00000000    
  -15.9799995       0.00000000    
  -15.9700003       0.00000000    
  -15.9600000       0.00000000    
  -15.9499998       0.00000000    
  -15.9399996       0.00000000    
  -15.9300003       0.00000000    
  -15.9200001       0.00000000    
  -15.9099998       0.00000000    
  -15.8999996       0.00000000    
  -15.8900003       0.00000000    
  -15.8800001       0.00000000    
  -15.8699999       0.00000000    
  -15.8599997      -0.00000000    
  -15.8500004      -0.00000000    
  -15.8400002      -1.12103877E-44
  -15.8299999      -2.63444111E-43
  -15.8199997      -3.03661377E-42
  -15.8100004      -2.47441283E-41
  -15.8000002      -1.57908120E-40
  -15.7900000      -8.31538917E-40
  -15.7799997      -3.73161437E-39
  -15.7700005      -1.45780176E-38
  -15.7600002      -5.03109253E-38
  -15.7500000      -1.54941795E-37
  -15.7399998      -4.28574602E-37
  -15.7299995      -1.06807139E-36
  -15.7200003      -2.39686573E-36
  -15.7100000      -4.81600229E-36
  -15.6999998      -8.53929061E-36
  -15.6899996      -1.29155792E-35
  -15.6800003      -1.51833692E-35
  -15.6700001      -8.80877039E-36
  -15.6599998       1.76981953E-35
  -15.6499996       7.93999024E-35
  -15.6400003       1.87710331E-34
  -15.6300001       3.34177570E-34
  -15.6199999       4.65625618E-34
  -15.6099997       4.60017087E-34
  -15.6000004       1.26606975E-34
  -15.5900002      -7.32926927E-34
  -15.5799999      -2.16901777E-33
  -15.5699997      -3.84301870E-33
  -15.5600004      -4.80512520E-33
  -15.5500002      -3.52762145E-33
  -15.5400000       1.49056412E-33
  -15.5299997       1.03667604E-32
  -15.5200005       2.00651978E-32
  -15.5100002       2.34656826E-32
  -15.5000000       1.13866200E-32
  -15.4899998      -2.05283191E-32
  -15.4799995      -6.07869464E-32
  -15.4700003      -7.33141956E-32
  -15.4600000      -4.31094223E-33
  -15.4499998       1.79912831E-31
  -15.4399996       4.20888856E-31
  -15.4300003       4.92253259E-31
  -15.4200001       6.96906290E-34
  -15.4099998      -1.42101515E-30
  -15.3999996      -3.65229631E-30
  -15.3900003      -5.45369833E-30
  -15.3800001      -4.08839756E-30
  -15.3699999       4.04167307E-30
  -15.3599997       2.09441150E-29
  -15.3500004       4.26733985E-29
  -15.3400002       5.47073220E-29
  -15.3299999       3.11746819E-29
  -15.3199997      -5.61848112E-29
  -15.3100004      -2.14886259E-28
  -15.3000002      -3.97261040E-28
  -15.2900000      -4.71343572E-28
  -15.2799997      -2.29476888E-28
  -15.2700005       5.26603414E-28
  -15.2600002       1.80485385E-27
  -15.2500000       3.18504516E-27
  -15.2399998       3.65495435E-27
  -15.2299995       1.73955154E-27
  -15.2200003      -3.85011731E-27
  -15.2100000      -1.29862945E-26
  -15.1999998      -2.26394945E-26
  -15.1899996      -2.60120844E-26
  -15.1800003      -1.36064131E-26
  -15.1700001       2.25554993E-26
  -15.1599998       8.14489517E-26
  -15.1499996       1.44473059E-25
  -15.1400003       1.70895659E-25
  -15.1300001       1.04520237E-25
  -15.1199999      -1.02245864E-25
  -15.1099997      -4.47055314E-25
  -15.1000004      -8.31189209E-25
  -15.0900002      -1.03485742E-24
  -15.0799999      -7.50720910E-25
  -15.0699997       2.94081700E-25
  -15.0600004       2.12870822E-24
  -15.0500002       4.30139543E-24
  -15.0400000       5.74219939E-24
  -15.0299997       4.89801724E-24
  -15.0200005       2.84513803E-25
  -15.0100002      -8.54130231E-24
  -15.0000000      -1.98399985E-23
  -14.9899998      -2.89365540E-23
  -14.9799995      -2.86165289E-23
  -14.9700003      -1.13397454E-23
  -14.9600000       2.66196695E-23
  -14.9499998       8.00416518E-23
  -14.9399996       1.30840899E-22
  -14.9300003       1.48495606E-22
  -14.9200001       9.77764567E-23
  -14.9099998      -4.52477804E-23
  -14.8999996      -2.71850455E-22
  -14.8900003      -5.21834442E-22
  -14.8800001      -6.79216510E-22
  -14.8699999      -5.94669452E-22
  -14.8599997      -1.40922554E-22
  -14.8500004       7.05972400E-22
  -14.8400002       1.78472295E-21
  -14.8299999       2.70794961E-21
  -14.8199997       2.90952743E-21
  -14.8100004       1.81187693E-21
  -14.8000002      -8.95695946E-22
  -14.7900000      -4.93711513E-21
  -14.7799997      -9.21960163E-21
  -14.7700005      -1.18587391E-20
  -14.7600002      -1.05963670E-20
  -14.7500000      -3.64023689E-21
  -14.7399998       9.22894053E-21
  -14.7299995       2.56480742E-20
  -14.7200003       4.02791399E-20
  -14.7100000       4.55495470E-20
  -14.6999998       3.37989262E-20
  -14.6899996       6.17546772E-22
  -14.6800003      -5.14793399E-20
  -14.6700001      -1.10477506E-19
  -14.6599998      -1.55059219E-19
  -14.6499996      -1.58857943E-19
  -14.6400003      -9.89549834E-20
  -14.6300001       3.29058231E-20
  -14.6199999       2.19744123E-19
  -14.6099997       4.14034399E-19
  -14.6000004       5.42219735E-19
  -14.5900002       5.21643359E-19
  -14.5799999       2.88695521E-19
  -14.5699997      -1.67941459E-19
  -14.5600004      -7.79570681E-19
  -14.5500002      -1.38812808E-18
  -14.5400000      -1.76623864E-18
  -14.5299997      -1.67116819E-18
  -14.5200005      -9.26452109E-19
  -14.5100002       4.87254307E-19
  -14.5000000       2.36066821E-18
  -14.4899998       4.23594973E-18
  -14.4799995       5.46432163E-18
  -14.4700003       5.35049744E-18
  -14.4600000       3.36750976E-18
  -14.4499998      -6.02616327E-19
  -14.4399996      -6.07037039E-18
  -14.4300003      -1.18602000E-17
  -14.4200001      -1.62192516E-17
  -14.4099998      -1.71475699E-17
  -14.3999996      -1.29293119E-17
  -14.3900003      -2.77942922E-18
  -14.3800001       1.25439525E-17
  -14.3699999       3.03568932E-17
  -14.3599997       4.60995696E-17
  -14.3500004       5.39740147E-17
  -14.3400002       4.82192067E-17
  -14.3299999       2.49021268E-17
  -14.3199997      -1.61005958E-17
  -14.3100004      -6.94557554E-17
  -14.3000002      -1.23718307E-16
  -14.2900000      -1.62308361E-16
  -14.2799997      -1.66528835E-16
  -14.2700005      -1.20562832E-16
  -14.2600002      -1.77189945E-17
  -14.2500000       1.33555046E-16
  -14.2399998       3.05965135E-16
  -14.2299995       4.54171972E-16
  -14.2200003       5.21787595E-16
  -14.2100000       4.54886921E-16
  -14.1999998       2.20298870E-16
  -14.1899996      -1.75410081E-16
  -14.1800003      -6.72228746E-16
  -14.1700001      -1.15492021E-15
  -14.1599998      -1.46842871E-15
  -14.1499996      -1.45204772E-15
  -14.1400003      -9.88226669E-16
  -14.1300001      -5.55293492E-17
  -14.1199999       1.22994848E-15
  -14.1099997       2.60226542E-15
  -14.1000004       3.67648722E-15
  -14.0900002       4.02760567E-15
  -14.0799999       3.30832689E-15
  -14.0699997       1.38113381E-15
  -14.0600004      -1.57260688E-15
  -14.0500002      -5.00787859E-15
  -14.0400000      -8.06915265E-15
  -14.0299997      -9.75419933E-15
  -14.0200005      -9.17007271E-15
  -14.0100002      -5.82898174E-15
  -14.0000000       9.52334826E-17
  -13.9899998       7.63833051E-15
  -13.9799995       1.51169953E-14
  -13.9700003       2.04299875E-14
  -13.9600000       2.15565904E-14
  -13.9499998       1.71525070E-14
  -13.9399996       7.09061402E-15
  -13.9300003      -7.22424406E-15
  -13.9200001      -2.29079010E-14
  -13.9099998      -3.60803713E-14
  -13.8999996      -4.27306201E-14
  -13.8900003      -3.97911820E-14
  -13.8800001      -2.61568789E-14
  -13.8699999      -3.34864883E-15
  -13.8599997       2.44294704E-14
  -13.8500004       5.09607615E-14
  -13.8400002       6.93484780E-14
  -13.8299999       7.37426071E-14
  -13.8199997       6.10413887E-14
  -13.8100004       3.20908766E-14
  -13.8000002      -8.02257600E-15
  -13.7900000      -5.07887562E-14
  -13.7799997      -8.61157459E-14
  -13.7700005      -1.04811193E-13
  -13.7600002      -1.01086389E-13
  -13.7500000      -7.43856542E-14
  -13.7399998      -2.99539310E-14
  -13.7299995       2.21487359E-14
  -13.7200003       6.94611605E-14
  -13.7100000       1.00410403E-13
  -13.6999998       1.07605670E-13
  -13.6899996       9.01697404E-14
  -13.6800003       5.43178377E-14
  -13.6700001       1.18291971E-14
  -13.6599998      -2.33477178E-14
  -13.6499996      -3.95203212E-14
  -13.6400003      -3.14490594E-14
  -13.6300001      -2.96109293E-15
  -13.6199999       3.30759048E-14
  -13.6099997       5.78161447E-14
  -13.6000004       5.20560632E-14
  -13.5900002       3.07520838E-15
  -13.5799999      -8.92295474E-14
  -13.5699997      -2.08953189E-13
  -13.5600004      -3.25097506E-13
  -13.5500002      -3.97345297E-13
  -13.5400000      -3.85932551E-13
  -13.5299997      -2.63549951E-13
  -13.5200005      -2.62735847E-14
  -13.5100002       2.99693565E-13
  -13.5000000       6.58054720E-13
  -13.4899998       9.70392278E-13
  -13.4799995       1.15130204E-12
  -13.4700003       1.12792696E-12
  -13.4600000       8.59611156E-13
  -13.4499998       3.52834813E-13
  -13.4399996      -3.32819736E-13
  -13.4300003      -1.09013124E-12
  -13.4200001      -1.78107128E-12
  -13.4099998      -2.26215617E-12
  -13.3999996      -2.41323563E-12
  -13.3900003      -2.16350115E-12
  -13.3800001      -1.50886313E-12
  -13.3699999      -5.16616264E-13
  -13.3599997       6.83761316E-13
  -13.3500004       1.92164687E-12
  -13.3400002       3.01344171E-12
  -13.3299999       3.79169265E-12
  -13.3199997       4.12919698E-12
  -13.3100004       3.95391359E-12
  -13.3000002       3.25335527E-12
  -13.2900000       2.07016002E-12
  -13.2799997       4.92785337E-13
  -13.2700005      -1.35401315E-12
  -13.2600002      -3.31545642E-12
  -13.2500000      -5.20881688E-12
  -13.2399998      -6.82382146E-12
  -13.2299995      -7.92656045E-12
  -13.2200003      -8.27315473E-12
  -13.2100000      -7.63801696E-12
  -13.1999998      -5.85744170E-12
  -13.1899996      -2.88367962E-12
  -13.1800003       1.16153343E-12
  -13.1700001       5.94904941E-12
  -13.1599998       1.09359796E-11
  -13.1499996       1.54033522E-11
  -13.1400003       1.85419805E-11
  -13.1300001       1.95797267E-11
  -13.1199999       1.79316562E-11
  -13.1099997       1.33453413E-11
  -13.1000004       6.00932975E-12
  -13.0900002      -3.40432673E-12
  -13.0799999      -1.37822401E-11
  -13.0699997      -2.37000333E-11
  -13.0600004      -3.16254210E-11
  -13.0500002      -3.61621393E-11
  -13.0400000      -3.62916988E-11
  -13.0299997      -3.15672419E-11
  -13.0200005      -2.22211589E-11
  -13.0100002      -9.16392136E-12
  -13.0000000       6.12819084E-12
  -12.9899998       2.18159935E-11
  -12.9799995       3.59545588E-11
  -12.9700003       4.67590376E-11
  -12.9600000       5.28348268E-11
  -12.9499998       5.33389478E-11
  -12.9399996       4.80564338E-11
  -12.9300003       3.73941156E-11
  -12.9200001       2.23096333E-11
  -12.9099998       4.20080767E-12
  -12.8999996      -1.52210033E-11
  -12.8900003      -3.40589917E-11
  -12.8800001      -5.03593556E-11
  -12.8699999      -6.22505728E-11
  -12.8599997      -6.81086923E-11
  -12.8500004      -6.67580019E-11
  -12.8400002      -5.77009586E-11
  -12.8299999      -4.13473839E-11
  -12.8199997      -1.91896516E-11
  -12.8100004       6.14329984E-12
  -12.8000002       3.10207242E-11
  -12.7900000       5.11789777E-11
  -12.7799997       6.23266092E-11
  -12.7700005       6.09339107E-11
  -12.7600002       4.50958888E-11
  -12.7500000       1.53084628E-11
  -12.7399998      -2.50196704E-11
  -12.7299995      -6.94872562E-11
  -12.7200003      -1.09166745E-10
  -12.7100000      -1.33644998E-10
  -12.6999998      -1.32563155E-10
  -12.6899996      -9.74740427E-11
  -12.6800003      -2.37518720E-11
  -12.6700001       8.77585435E-11
  -12.6599998       2.29660971E-10
  -12.6499996       3.87744531E-10
  -12.6400003       5.41686251E-10
  -12.6300001       6.66738831E-10
  -12.6199999       7.36283201E-10
  -12.6099997       7.25005389E-10
  -12.6000004       6.12365658E-10
  -12.5900002       3.85985272E-10
  -12.5799999       4.45717768E-11
  -12.5699997      -3.99954569E-10
  -12.5600004      -9.21404952E-10
  -12.5500002      -1.47952173E-09
  -12.5400000      -2.02153316E-09
  -12.5299997      -2.48506660E-09
  -12.5200005      -2.80234391E-09
  -12.5100002      -2.90548541E-09
  -12.5000000      -2.73266276E-09
  -12.4899998      -2.23475172E-09
  -12.4799995      -1.38204159E-09
  -12.4700003      -1.70484446E-10
  -12.4600000       1.37306311E-09
  -12.4499998       3.18715365E-09
  -12.4399996       5.17408072E-09
  -12.4300003       7.20057081E-09
  -12.4200001       9.10094489E-09
  -12.4099998       1.06826601E-08
  -12.3999996       1.17338841E-08
  -12.3900003       1.20325376E-08
  -12.3800001       1.13561187E-08
  -12.3699999       9.49157197E-09
  -12.3599997       6.24452134E-09
  -12.3500004       1.44729895E-09
  -12.3400002      -5.03449371E-09
  -12.3299999      -1.32970293E-08
  -12.3199997      -2.33947670E-08
  -12.3100004      -3.53381076E-08
  -12.3000002      -4.90918701E-08
  -12.2900000      -6.45740883E-08
  -12.2799997      -8.16550951E-08
  -12.2700005      -1.00156484E-07
  -12.2600002      -1.19850156E-07
  -12.2500000      -1.40457544E-07
  -12.2399998      -1.61649297E-07
  -12.2299995      -1.83045742E-07
  -12.2200003      -2.04218580E-07
  -12.2100000      -2.24693949E-07
  -12.1999998      -2.43956862E-07
  -12.1899996      -2.61457728E-07
  -12.1800003      -2.76620426E-07
  -12.1700001      -2.88852419E-07
  -12.1599998      -2.97556227E-07
  -12.1499996      -3.02142752E-07
  -12.1400003      -3.02045919E-07
  -12.1300001      -2.96738079E-07
  -12.1199999      -2.85746182E-07
  -12.1099997      -2.68667037E-07
  -12.1000004      -2.45182065E-07
  -12.0900002      -2.15069562E-07
  -12.0799999      -1.78214208E-07
  -12.0699997      -1.34612847E-07
  -12.0600004      -8.43765591E-08
  -12.0500002      -2.77284364E-08
  -12.0400000       3.50024010E-08
  -12.0299997       1.03389524E-07
  -12.0200005       1.76919897E-07
  -12.0100002       2.55005489E-07
  -12.0000000       3.36994475E-07
  -11.9899998       4.22180989E-07
  -11.9799995       5.09813503E-07
  -11.9700003       5.99100588E-07
  -11.9600000       6.89215256E-07
  -11.9499998       7.79297295E-07
  -11.9399996       8.68455572E-07
  -11.9300003       9.55769337E-07
  -11.9200001       1.04029107E-06
  -11.9099998       1.12104931E-06
  -11.8999996       1.19705351E-06
  -11.8900003       1.26729969E-06
  -11.8800001       1.33077776E-06
  -11.8699999       1.38647840E-06
  -11.8599997       1.43340219E-06
  -11.8500004       1.47056892E-06
  -11.8400002       1.49702612E-06
  -11.8299999       1.51185918E-06
  -11.8199997       1.51420102E-06
  -11.8100004       1.50324331E-06
  -11.8000002       1.47824528E-06
  -11.7900000       1.43854561E-06
  -11.7799997       1.38357211E-06
  -11.7700005       1.31285026E-06
  -11.7600002       1.22601386E-06
  -11.7500000       1.12281123E-06
  -11.7399998       1.00311274E-06
  -11.7299995       8.66916992E-07
  -11.7200003       7.14356190E-07
  -11.7100000       5.45700743E-07
  -11.6999998       3.61364584E-07
  -11.6899996       1.61909284E-07
  -11.6800003      -5.19513250E-08
  -11.6700001      -2.79348285E-07
  -11.6599998      -5.19254513E-07
  -11.6499996      -7.70483439E-07
  -11.6400003      -1.03169134E-06
  -11.6300001      -1.30138051E-06
  -11.6199999      -1.57790544E-06
  -11.6099997      -1.85948250E-06
  -11.6000004      -2.14420197E-06
  -11.5900002      -2.43004069E-06
  -11.5799999      -2.71487829E-06
  -11.5699997      -2.99651265E-06
  -11.5600004      -3.27267639E-06
  -11.5500002      -3.54105168E-06
  -11.5400000      -3.79928656E-06
  -11.5299997      -4.04500770E-06
  -11.5200005      -4.27583336E-06
  -11.5100002      -4.48938772E-06
  -11.5000000      -4.68330609E-06
  -11.4899998      -4.85524697E-06
  -11.4799995      -5.00289707E-06
  -11.4700003      -5.12398447E-06
  -11.4600000      -5.21627362E-06
  -11.4499998      -5.27758357E-06
  -11.4399996      -5.30578427E-06
  -11.4300003      -5.29880481E-06
  -11.4200001      -5.25464520E-06
  -11.4099998      -5.17137687E-06
  -11.3999996      -5.04715581E-06
  -11.3900003      -4.88023079E-06
  -11.3800001      -4.66895335E-06
  -11.3699999      -4.41178872E-06
  -11.3599997      -4.10732855E-06
  -11.3500004      -3.75430000E-06
  -11.3400002      -3.35158006E-06
  -11.3299999      -2.89820446E-06
  -11.3199997      -2.39338146E-06
  -11.3100004      -1.83649900E-06
  -11.3000002      -1.22713539E-06
  -11.2900000      -5.65066273E-07
  -11.2799997       1.49731321E-07
  -11.2700005       9.17075511E-07
  -11.2600002       1.73658009E-06
  -11.2500000       2.60765978E-06
  -11.2399998       3.52953703E-06
  -11.2299995       4.50125299E-06
  -11.2200003       5.52168149E-06
  -11.2100000       6.58954650E-06
  -11.1999998       7.70343649E-06
  -11.1899996       8.86182534E-06
  -11.1800003       1.00630896E-05
  -11.1700001       1.13055230E-05
  -11.1599998       1.25873539E-05
  -11.1499996       1.39067552E-05
  -11.1400003       1.52618541E-05
  -11.1300001       1.66507343E-05
  -11.1199999       1.80714524E-05
  -11.1099997       1.95220273E-05
  -11.1000004       2.10004400E-05
  -11.0900002       2.25046442E-05
  -11.0799999       2.40325535E-05
  -11.0699997       2.55820414E-05
  -11.0600004       2.71509525E-05
  -11.0500002       2.87370804E-05
  -11.0400000       3.03381912E-05
  -11.0299997       3.19520113E-05
  -11.0200005       3.35762343E-05
  -11.0100002       3.52085262E-05
  -11.0000000       3.68465480E-05
  -10.9899998       3.84879240E-05
  -10.9799995       4.01303078E-05
  -10.9700003       4.17713454E-05
  -10.9600000       4.34087087E-05
  -10.9499998       4.50401021E-05
  -10.9399996       4.66632955E-05
  -10.9300003       4.82760952E-05
  -10.9200001       4.98763948E-05
  -10.9099998       5.14621643E-05
  -10.8999996       5.30314464E-05
  -10.8900003       5.45823714E-05
  -10.8800001       5.61131783E-05
  -10.8699999       5.76221573E-05
  -10.8599997       5.91076969E-05
  -10.8500004       6.05682362E-05
  -10.8400002       6.20022838E-05
  -10.8299999       6.34083917E-05
  -10.8199997       6.47851484E-05
  -10.8100004       6.61311569E-05
  -10.8000002       6.74450348E-05
  -10.7900000       6.87254214E-05
  -10.7799997       6.99709417E-05
  -10.7700005       7.11802422E-05
  -10.7600002       7.23519333E-05
  -10.7500000       7.34846981E-05
  -10.7399998       7.45771758E-05
  -10.7299995       7.56280424E-05
  -10.7200003       7.66360317E-05
  -10.7100000       7.75998706E-05
  -10.6999998       7.85184020E-05
  -10.6899996       7.93904765E-05
  -10.6800003       8.02150462E-05
  -10.6700001       8.09911580E-05
  -10.6599998       8.17179680E-05
  -10.6499996       8.23947412E-05
  -10.6400003       8.30208664E-05
  -10.6300001       8.35958854E-05
  -10.6199999       8.41194997E-05
  -10.6099997       8.45915565E-05
  -10.6000004       8.50120487E-05
  -10.5900002       8.53811434E-05
  -10.5799999       8.56991683E-05
  -10.5699997       8.59666034E-05
  -10.5600004       8.61840672E-05
  -10.5500002       8.63523383E-05
  -10.5400000       8.64723406E-05
  -10.5299997       8.65451075E-05
  -10.5200005       8.65718248E-05
  -10.5100002       8.65537731E-05
  -10.5000000       8.64923495E-05
  -10.4899998       8.63890455E-05
  -10.4799995       8.62454472E-05
  -10.4700003       8.60631844E-05
  -10.4600000       8.58439744E-05
  -10.4499998       8.55895341E-05
  -10.4399996       8.53016754E-05
  -10.4300003       8.49821590E-05
  -10.4200001       8.46328257E-05
  -10.4099998       8.42555091E-05
  -10.3999996       8.38520573E-05
  -10.3900003       8.34242819E-05
  -10.3800001       8.29740675E-05
  -10.3699999       8.25032621E-05
  -10.3599997       8.20137502E-05
  -10.3500004       8.15073654E-05
  -10.3400002       8.09859775E-05
  -10.3299999       8.04514202E-05
  -10.3199997       7.99055051E-05
  -10.3100004       7.93500367E-05
  -10.3000002       7.87867539E-05
  -10.2900000       7.82173520E-05
  -10.2799997       7.76435190E-05
  -10.2700005       7.70668994E-05
  -10.2600002       7.64890428E-05
  -10.2500000       7.59114846E-05
  -10.2399998       7.53356871E-05
  -10.2299995       7.47630693E-05
  -10.2200003       7.41949843E-05
  -10.2100000       7.36327056E-05
  -10.1999998       7.30774555E-05
  -10.1899996       7.25303616E-05
  -10.1800003       7.19924865E-05
  -10.1700001       7.14648195E-05
  -10.1599998       7.09482629E-05
  -10.1499996       7.04436534E-05
  -10.1400003       6.99517623E-05
  -10.1300001       6.94733171E-05
  -10.1199999       6.90089219E-05
  -10.1099997       6.85592095E-05
  -10.1000004       6.81247475E-05
  -10.0900002       6.77060598E-05
  -10.0799999       6.73036557E-05
  -10.0699997       6.69180226E-05
  -10.0600004       6.65496627E-05
  -10.0500002       6.61990562E-05
  -10.0400000       6.58666686E-05
  -10.0299997       6.55529584E-05
  -10.0200005       6.52583767E-05
  -10.0100002       6.49833819E-05
  -10.0000000       6.47283960E-05
  -9.98999977       6.44938191E-05
  -9.97999954       6.42800296E-05
  -9.97000027       6.40874205E-05
  -9.96000004       6.39163627E-05
  -9.94999981       6.37672201E-05
  -9.93999958       6.36403565E-05
  -9.93000031       6.35361794E-05
  -9.92000008       6.34550670E-05
  -9.90999985       6.33974923E-05
  -9.89999962       6.33639429E-05
  -9.89000034       6.33550007E-05
  -9.88000011       6.33712334E-05
  -9.86999989       6.34133830E-05
  -9.85999966       6.34822209E-05
  -9.85000038       6.35786128E-05
  -9.84000015       6.37034900E-05
  -9.82999992       6.38578858E-05
  -9.81999969       6.40429062E-05
  -9.81000042       6.42597006E-05
  -9.80000019       6.45094478E-05
  -9.78999996       6.47934066E-05
  -9.77999973       6.51127921E-05
  -9.77000046       6.54688920E-05
  -9.76000023       6.58629069E-05
  -9.75000000       6.62961102E-05
  -9.73999977       6.67696950E-05
  -9.72999954       6.72849201E-05
  -9.72000027       6.78429715E-05
  -9.71000004       6.84450060E-05
  -9.69999981       6.90921879E-05
  -9.68999958       6.97856376E-05
  -9.68000031       7.05264465E-05
  -9.67000008       7.13156624E-05
  -9.65999985       7.21542237E-05
  -9.64999962       7.30430547E-05
  -9.64000034       7.39829629E-05
  -9.63000011       7.49746832E-05
  -9.61999989       7.60188705E-05
  -9.60999966       7.71160121E-05
  -9.60000038       7.82665375E-05
  -9.59000015       7.94707739E-05
  -9.57999992       8.07289107E-05
  -9.56999969       8.20410860E-05
  -9.56000042       8.34072780E-05
  -9.55000019       8.48274503E-05
  -9.53999996       8.63013702E-05
  -9.52999973       8.78287465E-05
  -9.52000046       8.94091863E-05
  -9.51000023       9.10421732E-05
  -9.50000000       9.27270885E-05
  -9.48999977       9.44631829E-05
  -9.47999954       9.62496269E-05
  -9.47000027       9.80854675E-05
  -9.46000004       9.99696276E-05
  -9.44999981       1.01900951E-04
  -9.43999958       1.03878185E-04
  -9.43000031       1.05899941E-04
  -9.42000008       1.07964799E-04
  -9.40999985       1.10071218E-04
  -9.39999962       1.12217589E-04
  -9.39000034       1.14402261E-04
  -9.38000011       1.16623538E-04
  -9.36999989       1.18879674E-04
  -9.35999966       1.21168952E-04
  -9.35000038       1.23489590E-04
  -9.34000015       1.25839957E-04
  -9.32999992       1.28218278E-04
  -9.31999969       1.30622982E-04
  -9.31000042       1.33052512E-04
  -9.30000019       1.35505412E-04
  -9.28999996       1.37980256E-04
  -9.27999973       1.40475735E-04
  -9.27000046       1.42990728E-04
  -9.26000023       1.45524056E-04
  -9.25000000       1.48074847E-04
  -9.23999977       1.50642270E-04
  -9.22999954       1.53225614E-04
  -9.22000027       1.55824411E-04
  -9.21000004       1.58438212E-04
  -9.19999981       1.61066695E-04
  -9.18999958       1.63709788E-04
  -9.18000031       1.66367376E-04
  -9.17000008       1.69039587E-04
  -9.15999985       1.71726526E-04
  -9.14999962       1.74428322E-04
  -9.14000034       1.77145310E-04
  -9.13000011       1.79877708E-04
  -9.11999989       1.82625881E-04
  -9.10999966       1.85390221E-04
  -9.10000038       1.88171049E-04
  -9.09000015       1.90968800E-04
  -9.07999992       1.93783868E-04
  -9.06999969       1.96616646E-04
  -9.06000042       1.99467569E-04
  -9.05000019       2.02337047E-04
  -9.03999996       2.05225442E-04
  -9.02999973       2.08133177E-04
  -9.02000046       2.11060586E-04
  -9.01000023       2.14008018E-04
  -9.00000000       2.16975794E-04
  -8.98999977       2.19964204E-04
  -8.97999954       2.22973409E-04
  -8.97000027       2.26003671E-04
  -8.96000004       2.29055018E-04
  -8.94999981       2.32127451E-04
  -8.93999958       2.35221043E-04
  -8.93000031       2.38335604E-04
  -8.92000008       2.41471076E-04
  -8.90999985       2.44627357E-04
  -8.89999962       2.47804157E-04
  -8.89000034       2.51001271E-04
  -8.88000011       2.54218496E-04
  -8.86999989       2.57455569E-04
  -8.85999966       2.60712201E-04
  -8.85000038       2.63988186E-04
  -8.84000015       2.67283205E-04
  -8.82999992       2.70597084E-04
  -8.81999969       2.73929676E-04
  -8.81000042       2.77280807E-04
  -8.80000019       2.80650507E-04
  -8.78999996       2.84038833E-04
  -8.77999973       2.87445844E-04
  -8.77000046       2.90872063E-04
  -8.76000023       2.94317841E-04
  -8.75000000       2.97783758E-04
  -8.73999977       3.01270629E-04
  -8.72999954       3.04779387E-04
  -8.72000027       3.08311312E-04
  -8.71000004       3.11867712E-04
  -8.69999981       3.15450103E-04
  -8.68999958       3.19060142E-04
  -8.68000031       3.22700012E-04
  -8.67000008       3.26371606E-04
  -8.65999985       3.30077368E-04
  -8.64999962       3.33819597E-04
  -8.64000034       3.37600970E-04
  -8.63000011       3.41423991E-04
  -8.61999989       3.45291453E-04
  -8.60999966       3.49206355E-04
  -8.60000038       3.53171461E-04
  -8.59000015       3.57189769E-04
  -8.57999992       3.61263985E-04
  -8.56999969       3.65397165E-04
  -8.56000042       3.69592221E-04
  -8.55000019       3.73851770E-04
  -8.53999996       3.78178665E-04
  -8.52999973       3.82575323E-04
  -8.52000046       3.87044449E-04
  -8.51000023       3.91588314E-04
  -8.50000000       3.96209187E-04
  -8.48999977       4.00909310E-04
  -8.47999954       4.05690516E-04
  -8.47000027       4.10554756E-04
  -8.46000004       4.15503600E-04
  -8.44999981       4.20538854E-04
  -8.43999958       4.25661739E-04
  -8.43000031       4.30873770E-04
  -8.42000008       4.36176168E-04
  -8.40999985       4.41570126E-04
  -8.39999962       4.47056518E-04
  -8.39000034       4.52636654E-04
  -8.38000011       4.58311144E-04
  -8.36999989       4.64081037E-04
  -8.35999966       4.69946914E-04
  -8.35000038       4.75909445E-04
  -8.34000015       4.81969182E-04
  -8.32999992       4.88126650E-04
  -8.31999969       4.94382286E-04
  -8.31000042       5.00736409E-04
  -8.30000019       5.07189252E-04
  -8.28999996       5.13741164E-04
  -8.27999973       5.20391972E-04
  -8.27000046       5.27142081E-04
  -8.26000023       5.33991435E-04
  -8.25000000       5.40939916E-04
  -8.23999977       5.47987351E-04
  -8.22999954       5.55133680E-04
  -8.22000027       5.62378555E-04
  -8.21000004       5.69721393E-04
  -8.19999981       5.77162078E-04
  -8.18999958       5.84699970E-04
  -8.18000031       5.92334371E-04
  -8.17000008       6.00064988E-04
  -8.15999985       6.07890717E-04
  -8.14999962       6.15811150E-04
  -8.14000034       6.23825239E-04
  -8.13000011       6.31932169E-04
  -8.11999989       6.40130893E-04
  -8.10999966       6.48420188E-04
  -8.10000038       6.56798948E-04
  -8.09000015       6.65265543E-04
  -8.07999992       6.73818460E-04
  -8.06999969       6.82456070E-04
  -8.06000042       6.91175985E-04
  -8.05000019       6.99975993E-04
  -8.03999996       7.08853826E-04
  -8.02999973       7.17806397E-04
  -8.02000046       7.26830913E-04
  -8.01000023       7.35923823E-04
  -8.00000000       7.45081576E-04
  -7.98999977       7.54300272E-04
  -7.98000002       7.63575779E-04
  -7.96999979       7.72903673E-04
  -7.96000004       7.82279414E-04
  -7.94999981       7.91698112E-04
  -7.94000006       8.01154994E-04
  -7.92999983       8.10644764E-04
  -7.92000008       8.20162182E-04
  -7.90999985       8.29701894E-04
  -7.90000010       8.39257846E-04
  -7.88999987       8.48824624E-04
  -7.88000011       8.58396583E-04
  -7.86999989       8.67967610E-04
  -7.86000013       8.77532002E-04
  -7.84999990       8.87083821E-04
  -7.84000015       8.96617421E-04
  -7.82999992       9.06126865E-04
  -7.82000017       9.15606855E-04
  -7.80999994       9.25051514E-04
  -7.80000019       9.34456009E-04
  -7.78999996       9.43814812E-04
  -7.78000021       9.53123323E-04
  -7.76999998       9.62377002E-04
  -7.76000023       9.71571368E-04
  -7.75000000       9.80702927E-04
  -7.73999977       9.89767839E-04
  -7.73000002       9.98763251E-04
  -7.71999979       1.00768625E-03
  -7.71000004       1.01653486E-03
  -7.69999981       1.02530711E-03
  -7.69000006       1.03400159E-03
  -7.67999983       1.04261725E-03
  -7.67000008       1.05115399E-03
  -7.65999985       1.05961156E-03
  -7.65000010       1.06799079E-03
  -7.63999987       1.07629260E-03
  -7.63000011       1.08451885E-03
  -7.61999989       1.09267095E-03
  -7.61000013       1.10075215E-03
  -7.59999990       1.10876502E-03
  -7.59000015       1.11671328E-03
  -7.57999992       1.12460076E-03
  -7.57000017       1.13243214E-03
  -7.55999994       1.14021241E-03
  -7.55000019       1.14794727E-03
  -7.53999996       1.15564209E-03
  -7.53000021       1.16330327E-03
  -7.51999998       1.17093767E-03
  -7.51000023       1.17855228E-03
  -7.50000000       1.18615467E-03
  -7.48999977       1.19375205E-03
  -7.48000002       1.20135292E-03
  -7.46999979       1.20896532E-03
  -7.46000004       1.21659774E-03
  -7.44999981       1.22425845E-03
  -7.44000006       1.23195676E-03