  -16.0000000       0.00000000    
  -15.9899998       0.00000000    
  -15.9799995       0.00000000    
  -15.9700003       0.00000000    
  -15.9600000       0.00000000    
  -15.9499998       0.00000000    
  -15.9399996       0.00000000    
  -15.9300003       0.00000000    
  -15.9200001       0.00000000    
  -15.9099998       0.00000000    
  -15.8999996       0.00000000    
  -15.8900003       0.00000000    
  -15.8800001       0.00000000    
  -15.8699999      -0.00000000    
  -15.8599997      -1.40129846E-45
  -15.8500004      -1.54142831E-44
  -15.8400002      -9.80908925E-44
  -15.8299999      -4.93257059E-43
  -15.8199997      -1.99404771E-42
  -15.8100004      -6.24138336E-42
  -15.8000002      -1.22809797E-41
  -15.7900000       9.76705030E-42
  -15.7799997       2.35308841E-40
  -15.7700005       1.36332328E-39
  -15.7600002       5.54585587E-39
  -15.7500000       1.80188191E-38
  -15.7399998       4.84558695E-38
  -15.7299995       1.07852921E-37
  -15.7200003       1.91174800E-37
  -15.7100000       2.31697392E-37
  -15.6999998       2.16776795E-38
  -15.6899996      -8.64174978E-37
  -15.6800003      -3.01585545E-36
  -15.6700001      -6.76744022E-36
  -15.6599998      -1.11571109E-35
  -15.6499996      -1.23376096E-35
  -15.6400003      -2.41134381E-36
  -15.6300001       2.89052310E-35
  -15.6199999       8.62933502E-35
  -15.6099997       1.52310984E-34
  -15.6000004       1.66520208E-34
  -15.5900002       1.72565684E-35
  -15.5799999      -4.21683527E-34
  -15.5699997      -1.17260934E-33
  -15.5600004      -1.94550964E-33
  -15.5500002      -1.91496497E-33
  -15.5400000       3.05542275E-34
  -15.5299997       6.14766391E-33
  -15.5200005       1.56948450E-32
  -15.5100002       2.54208177E-32
  -15.5000000       2.59083245E-32
  -15.4899998       1.66095240E-33
  -15.4799995      -6.37229786E-32
  -15.4700003      -1.73851195E-31
  -15.4600000      -2.97141909E-31
  -15.4499998      -3.42819221E-31
  -15.4399996      -1.53626932E-31
  -15.4300003       4.55102277E-31
  -15.4200001       1.57815101E-30
  -15.4099998       3.01387254E-30
  -15.3999996       4.01538112E-30
  -15.3900003       3.14443987E-30
  -15.3800001      -1.51468522E-30
  -15.3699999      -1.14690919E-29
  -15.3599997      -2.60687227E-29
  -15.3500004      -4.01399069E-29
  -15.3400002      -4.20519220E-29
  -15.3299999      -1.42844509E-29
  -15.3199997       6.07443300E-29
  -15.3100004       1.87415288E-28
  -15.3000002       3.37028135E-28
  -15.2900000       4.28144771E-28
  -15.2799997       3.22101841E-28
  -15.2700005      -1.44861469E-28
  -15.2600002      -1.07324969E-27
  -15.2500000      -2.35449616E-27
  -15.2399998      -3.50650560E-27
  -15.2299995      -3.58612200E-27
  -15.2200003      -1.32494264E-27
  -15.2100000       4.36238540E-27
  -15.1999998       1.34463699E-26
  -15.1899996       2.36118010E-26
  -15.1800003       2.93835773E-26
  -15.1700001       2.24309964E-26
  -15.1599998      -5.96417132E-27
  -15.1499996      -5.97315062E-26
  -15.1400003      -1.30802099E-25
  -15.1300001      -1.92474554E-25
  -15.1199999      -1.98048880E-25
  -15.1099997      -9.04637521E-26
  -15.1000004       1.72894731E-25
  -15.0900002       5.81558564E-25
  -15.0799999       1.03036811E-24
  -15.0699997       1.29690054E-24
  -15.0600004       1.06750433E-24
  -15.0500002       3.79903302E-26
  -15.0400000      -1.90645415E-24
  -15.0299997      -4.46906821E-24
  -15.0200005      -6.76743181E-24
  -15.0100002      -7.34239939E-24
  -15.0000000      -4.48870966E-24
  -14.9899998       3.02391921E-24
  -14.9799995       1.49300036E-23
  -14.9700003       2.84669956E-23
  -14.9600000       3.79360306E-23
  -14.9499998       3.54633871E-23
  -14.9399996       1.34299104E-23
  -14.9300003      -3.14975246E-23
  -14.9200001      -9.36629320E-23
  -14.9099998      -1.54950015E-22
  -14.8999996      -1.85104280E-22
  -14.8900003      -1.48217170E-22
  -14.8800001      -1.62462922E-23
  -14.8699999       2.12426509E-22
  -14.8599997       4.95099807E-22
  -14.8500004       7.36451410E-22
  -14.8400002       7.99685390E-22
  -14.8299999       5.43772904E-22
  -14.8199997      -1.14796932E-22
  -14.8100004      -1.12962822E-21
  -14.8000002      -2.26817427E-21
  -14.7900000      -3.10632674E-21
  -14.7799997      -3.10504275E-21
  -14.7700005      -1.78070822E-21
  -14.7600002       1.05437356E-21
  -14.7500000       5.04855025E-21
  -14.7399998       9.16847476E-21
  -14.7299995       1.17721639E-20
  -14.7200003       1.09776084E-20
  -14.7100000       5.32131952E-21
  -14.6999998      -5.42467469E-21
  -14.6899996      -1.95399270E-20
  -14.6800003      -3.30924719E-20
  -14.6700001      -4.04488282E-20
  -14.6599998      -3.57131578E-20
  -14.6499996      -1.49437109E-20
  -14.6400003       2.13896466E-20
  -14.6300001       6.65793992E-20
  -14.6199999       1.07487746E-19
  -14.6099997       1.26772977E-19
  -14.6000004       1.07699252E-19
  -14.5900002       4.07491562E-20
  -14.5799999      -6.97633660E-20
  -14.5699997      -2.01610178E-19
  -14.5600004      -3.15659851E-19
  -14.5500002      -3.63599982E-19
  -14.5400000      -3.02064414E-19
  -14.5299997      -1.10326067E-19
  -14.5200005       1.93668482E-19
  -14.5100002       5.45434572E-19
  -14.5000000       8.40065088E-19
  -14.4899998       9.55037506E-19
  -14.4799995       7.87247486E-19
  -14.4700003       2.95798546E-19
  -14.4600000      -4.62813808E-19
  -14.4499998      -1.32211348E-18
  -14.4399996      -2.02733634E-18
  -14.4300003      -2.29458330E-18
  -14.4200001      -1.89831023E-18
  -14.4099998      -7.65346070E-19
  -14.3999996       9.55124464E-19
  -14.3900003       2.87663659E-18
  -14.3800001       4.43630901E-18
  -14.3699999       5.03185713E-18
  -14.3599997       4.20908580E-18
  -14.3500004       1.85009697E-18
  -14.3400002      -1.70068996E-18
  -14.3299999      -5.63058658E-18
  -14.3199997      -8.80458406E-18
  -14.3100004      -1.00517813E-17
  -14.3000002      -8.53125381E-18
  -14.2900000      -4.07576869E-18
  -14.2799997       2.60391742E-18
  -14.2700005       9.95127890E-18
  -14.2600002       1.58730235E-17
  -14.2500000       1.82829597E-17
  -14.2399998       1.57535687E-17
  -14.2299995       8.08788996E-18
  -14.2200003      -3.38612071E-18
  -14.2100000      -1.59441793E-17
  -14.1999998      -2.60530311E-17
  -14.1899996      -3.03114247E-17
  -14.1800003      -2.65084718E-17
  -14.1700001      -1.44860369E-17
  -14.1599998       3.49614048E-18
  -14.1499996       2.30828737E-17
  -14.1400003       3.88349684E-17
  -14.1300001       4.57124723E-17
  -14.1199999       4.06336561E-17
  -14.1099997       2.36354916E-17
  -14.1000004      -1.77421701E-18
  -14.0900002      -2.92794177E-17
  -14.0799999      -5.13439741E-17
  -14.0699997      -6.13331395E-17
  -14.0600004      -5.55638129E-17
  -14.0500002      -3.46364875E-17
  -14.0400000      -3.56390147E-18
  -14.0299997       2.94528609E-17
  -14.0200005       5.53283642E-17
  -14.0100002       6.68304562E-17
  -14.0000000       6.09019535E-17
  -13.9899998       3.97741989E-17
  -13.9799995       1.04068379E-17
  -13.9700003      -1.76966987E-17
  -13.9600000      -3.56936342E-17
  -13.9499998      -3.86103657E-17
  -13.9399996      -2.74250475E-17
  -13.9300003      -9.15202639E-18
  -13.9200001       5.35579842E-18
  -13.9099998       5.40764735E-18
  -13.8999996      -1.49064018E-17
  -13.8900003      -5.30636462E-17
  -13.8800001      -9.69345895E-17
  -13.8699999      -1.26995928E-16
  -13.8599997      -1.21840568E-16
  -13.8500004      -6.57583705E-17
  -13.8400002       4.37653023E-17
  -13.8299999       1.91169619E-16
  -13.8199997       3.42737747E-16
  -13.8100004       4.52386374E-16
  -13.8000002       4.72765722E-16
  -13.7900000       3.69374392E-16
  -13.7799997       1.34050005E-16
  -13.7700005      -2.06278887E-16
  -13.7600002      -5.89052123E-16
  -13.7500000      -9.25456763E-16
  -13.7399998      -1.11891115E-15
  -13.7299995      -1.08915604E-15
  -13.7200003      -7.96334108E-16
  -13.7100000      -2.58582986E-16
  -13.6999998       4.42561004E-16
  -13.6899996       1.17220191E-15
  -13.6800003       1.76717278E-15
  -13.6700001       2.07176636E-15
  -13.6599998       1.97634153E-15
  -13.6499996       1.44937068E-15
  -13.6400003       5.54063309E-16
  -13.6300001      -5.56280471E-16
  -13.6199999      -1.66519975E-15
  -13.6099997      -2.53769800E-15
  -13.6000004      -2.97304012E-15
  -13.5900002      -2.85330608E-15
  -13.5799999      -2.17537246E-15
  -13.5699997      -1.05732899E-15
  -13.5600004       2.83749473E-16
  -13.5500002       1.57862388E-15
  -13.5400000       2.56671524E-15
  -13.5299997       3.05623993E-15
  -13.5200005       2.96851378E-15
  -13.5100002       2.35485938E-15
  -13.5000000       1.38135742E-15
  -13.4899998       2.85041251E-16
  -13.4799995      -6.87185813E-16
  -13.4700003      -1.34083431E-15
  -13.4600000      -1.58071298E-15
  -13.4499998      -1.42991412E-15
  -13.4399996      -1.01606049E-15
  -13.4300003      -5.29157576E-16
  -13.4200001      -1.63397857E-16
  -13.4099998      -5.98356846E-17
  -13.3999996      -2.66458328E-16
  -13.3900003      -7.26911023E-16
  -13.3800001      -1.30039706E-15
  -13.3699999      -1.80578763E-15
  -13.3599997      -2.07550262E-15
  -13.3500004      -2.00184315E-15
  -13.3400002      -1.56110353E-15
  -13.3299999      -8.08362505E-16
  -13.3199997       1.53907303E-16
  -13.3100004       1.22068385E-15
  -13.3000002       2.32433104E-15
  -13.2900000       3.45170458E-15
  -13.2799997       4.62770564E-15
  -13.2700005       5.86645532E-15
  -13.2600002       7.10459938E-15
  -13.2500000       8.14157735E-15
  -13.2399998       8.61514246E-15
  -13.2299995       8.03474786E-15
  -13.2200003       5.88111281E-15
  -13.2100000       1.76034760E-15
  -13.1999998      -4.41921568E-15
  -13.1899996      -1.22939607E-14
  -13.1800003      -2.09659679E-14
  -13.1700001      -2.90386442E-14
  -13.1599998      -3.47852206E-14
  -13.1499996      -3.64375990E-14
  -13.1400003      -3.25508561E-14
  -13.1300001      -2.23735435E-14
  -13.1199999      -6.14227424E-15
  -13.1099997       1.47740283E-14
  -13.1000004       3.79305216E-14
  -13.0900002       6.00756017E-14
  -13.0799999       7.76014791E-14
  -13.0699997       8.71058732E-14
  -13.0600004       8.59684773E-14
  -13.0500002       7.28396022E-14
  -13.0400000       4.79526697E-14
  -13.0299997       1.32048710E-14
  -13.0200005      -2.80078508E-14
  -13.0100002      -7.11716249E-14
  -13.0000000      -1.11187027E-13
  -12.9899998      -1.42969973E-13
  -12.9799995      -1.62036698E-13
  -12.9700003      -1.65003509E-13
  -12.9600000      -1.49957222E-13
  -12.9499998      -1.16679439E-13
  -12.9399996      -6.67295741E-14
  -12.9300003      -3.40291633E-15
  -12.9200001       6.84209837E-14
  -12.9099998       1.42533893E-13
  -12.8999996       2.11764674E-13
  -12.8900003       2.68469166E-13
  -12.8800001       3.05153824E-13
  -12.8699999       3.15223054E-13
  -12.8599997       2.93810034E-13
  -12.8500004       2.38610428E-13
  -12.8400002       1.50603231E-13
  -12.8299999       3.45226472E-14
  -12.8199997      -1.01053335E-13
  -12.8100004      -2.44099473E-13
  -12.8000002      -3.80066719E-13
  -12.7900000      -4.93294424E-13
  -12.7799997      -5.68783139E-13
  -12.7700005      -5.94123058E-13
  -12.7600002      -5.61317486E-13
  -12.7500000      -4.68227399E-13
  -12.7399998      -3.19390808E-13
  -12.7299995      -1.26044168E-13
  -12.7200003       9.47219394E-14
  -12.7100000       3.21619440E-13
  -12.6999998       5.31456444E-13
  -12.6899996       7.01797344E-13
  -12.6800003       8.13659036E-13
  -12.6700001       8.53897953E-13
  -12.6599998       8.16976911E-13
  -12.6499996       7.05876926E-13
  -12.6400003       5.32020662E-13
  -12.6300001       3.14190433E-13
  -12.6199999       7.65426134E-14
  -12.6099997      -1.54085227E-13
  -12.6000004      -3.51294081E-13
  -12.5900002      -4.92345964E-13
  -12.5799999      -5.61140761E-13
  -12.5699997      -5.50614675E-13
  -12.5600004      -4.64262092E-13
  -12.5500002      -3.16556433E-13
  -12.5400000      -1.32130065E-13
  -12.5299997       5.63009417E-14
  -12.5200005       2.11161384E-13
  -12.5100002       2.94149796E-13
  -12.5000000       2.70918189E-13
  -12.4899998       1.15857017E-13
  -12.4799995      -1.83512670E-13
  -12.4700003      -6.23003114E-13
  -12.4600000      -1.17948457E-12
  -12.4499998      -1.81015305E-12
  -12.4399996      -2.45343980E-12
  -12.4300003      -3.03152490E-12
  -12.4200001      -3.45425923E-12
  -12.4099998      -3.62417453E-12
  -12.3999996      -3.44220485E-12
  -12.3900003      -2.81375487E-12
  -12.3800001      -1.65475912E-12
  -12.3699999       1.02605553E-13
  -12.3599997       2.50473427E-12
  -12.3500004       5.57222541E-12
  -12.3400002       9.29650280E-12
  -12.3299999       1.36376179E-11
  -12.3199997       1.85235195E-11
  -12.3100004       2.38509160E-11
  -12.3000002       2.94878774E-11
  -12.2900000       3.52783011E-11
  -12.2799997       4.10479602E-11
  -12.2700005       4.66119053E-11
  -12.2600002       5.17827274E-11
  -12.2500000       5.63788981E-11
  -12.2399998       6.02325134E-11
  -12.2299995       6.31957403E-11
  -12.2200003       6.51452711E-11
  -12.2100000       6.59845928E-11
  -12.1999998       6.56438862E-11
  -12.1899996       6.40776668E-11
  -12.1800003       6.12608506E-11
  -12.1700001       5.71836918E-11
  -12.1599998       5.18464681E-11
  -12.1499996       4.52544946E-11
  -12.1400003       3.74142731E-11
  -12.1300001       2.83310042E-11
  -12.1199999       1.80080031E-11
  -12.1099997       6.44808816E-12
  -12.1000004      -6.34328180E-12
  -12.0900002      -2.03530873E-11
  -12.0799999      -3.55544552E-11
  -12.0699997      -5.18996617E-11
  -12.0600004      -6.93125973E-11
  -12.0500002      -8.76820075E-11
  -12.0400000      -1.06855823E-10
  -12.0299997      -1.26637270E-10
  -12.0200005      -1.46783891E-10
  -12.0100002      -1.67009392E-10
  -12.0000000      -1.86988827E-10
  -11.9899998      -2.06366521E-10
  -11.9799995      -2.24766455E-10
  -11.9700003      -2.41804576E-10
  -11.9600000      -2.57101063E-10
  -11.9499998      -2.70292705E-10
  -11.9399996      -2.81043605E-10
  -11.9300003      -2.89054169E-10
  -11.9200001      -2.94067992E-10
  -11.9099998      -2.95876379E-10
  -11.8999996      -2.94321012E-10
  -11.8900003      -2.89294977E-10
  -11.8800001      -2.80742901E-10
  -11.8699999      -2.68659872E-10
  -11.8599997      -2.53089161E-10
  -11.8500004      -2.34119529E-10
  -11.8400002      -2.11880888E-10
  -11.8299999      -1.86538909E-10
  -11.8199997      -1.58288452E-10
  -11.8100004      -1.27345884E-10
  -11.8000002      -9.39414727E-11
  -11.7900000      -5.83119317E-11
  -11.7799997      -2.06944722E-11
  -11.7700005       1.86771727E-11
  -11.7600002       5.95736308E-11
  -11.7500000       1.01767934E-10
  -11.7399998       1.45031473E-10
  -11.7299995       1.89127547E-10
  -11.7200003       2.33804365E-10
  -11.7100000       2.78788825E-10
  -11.6999998       3.23781779E-10
  -11.6899996       3.68456571E-10
  -11.6800003       4.12459789E-10
  -11.6700001       4.55416010E-10
  -11.6599998       4.96934549E-10
  -11.6499996       5.36617917E-10
  -11.6400003       5.74069792E-10
  -11.6300001       6.08902540E-10
  -11.6199999       6.40742570E-10
  -11.6099997       6.69232503E-10
  -11.6000004       6.94033664E-10
  -11.5900002       7.14823201E-10
  -11.5799999       7.31294469E-10
  -11.5699997       7.43156203E-10
  -11.5600004       7.50133566E-10
  -11.5500002       7.51972318E-10
  -11.5400000       7.48444806E-10
  -11.5299997       7.39357131E-10
  -11.5200005       7.24557303E-10
  -11.5100002       7.03940684E-10
  -11.5000000       6.77454925E-10
  -11.4899998       6.45100084E-10
  -11.4799995       6.06924455E-10
  -11.4700003       5.63017744E-10
  -11.4600000       5.13502130E-10
  -11.4499998       4.58521277E-10
  -11.4399996       3.98231892E-10
  -11.4300003       3.32794847E-10
  -11.4200001       2.62370486E-10
  -11.4099998       1.87116128E-10
  -11.3999996       1.07185434E-10
  -11.3900003       2.27281128E-11
  -11.3800001      -6.61102145E-11
  -11.3699999      -1.59189398E-10
  -11.3599997      -2.56377281E-10
  -11.3500004      -3.57553598E-10
  -11.3400002      -4.62614280E-10
  -11.3299999      -5.71473369E-10
  -11.3199997      -6.84064305E-10
  -11.3100004      -8.00336242E-10
  -11.3000002      -9.20249266E-10
  -11.2900000      -1.04376596E-09
  -11.2799997      -1.17084220E-09
  -11.2700005      -1.30142086E-09
  -11.2600002      -1.43542411E-09
  -11.2500000      -1.57275304E-09
  -11.2399998      -1.71329040E-09
  -11.2299995      -1.85690630E-09
  -11.2200003      -2.00346717E-09
  -11.2100000      -2.15284346E-09
  -11.1999998      -2.30491892E-09
  -11.1899996      -2.45959986E-09
  -11.1800003      -2.61681321E-09
  -11.1700001      -2.77651102E-09
  -11.1599998      -2.93867020E-09
  -11.1499996      -3.10328829E-09
  -11.1400003      -3.27038574E-09
  -11.1300001      -3.44000273E-09
  -11.1199999      -3.61219832E-09
  -11.1099997      -3.78705378E-09
  -11.1000004      -3.96466548E-09
  -11.0900002      -4.14514467E-09
  -11.0799999      -4.32861036E-09
  -11.0699997      -4.51517312E-09
  -11.0600004      -4.70493333E-09
  -11.0500002      -4.89795893E-09
  -11.0400000      -5.09427789E-09
  -11.0299997      -5.29387378E-09
  -11.0200005      -5.49667867E-09
  -11.0100002      -5.70257663E-09
  -11.0000000      -5.91141669E-09
  -10.9899998      -6.12302431E-09
  -10.9799995      -6.33720232E-09
  -10.9700003      -6.55376553E-09
  -10.9600000      -6.77252920E-09
  -10.9499998      -6.99332325E-09
  -10.9399996      -7.21599092E-09
  -10.9300003      -7.44038120E-09
  -10.9200001      -7.66634400E-09
  -10.9099998      -7.89372923E-09
  -10.8999996      -8.12236856E-09
  -10.8900003      -8.35208080E-09
  -10.8800001      -8.58266969E-09
  -10.8699999      -8.81392470E-09
  -10.8599997      -9.04563180E-09
  -10.8500004      -9.27756627E-09
  -10.8400002      -9.50950962E-09
  -10.8299999      -9.74123271E-09
  -10.8199997      -9.97250460E-09
  -10.8100004      -1.02030802E-08
  -10.8000002      -1.04326947E-08
  -10.7900000      -1.06610578E-08
  -10.7799997      -1.08878515E-08
  -10.7700005      -1.11127330E-08
  -10.7600002      -1.13353469E-08
  -10.7500000      -1.15553300E-08
  -10.7399998      -1.17723493E-08
  -10.7299995      -1.19860957E-08
  -10.7200003      -1.21963399E-08
  -10.7100000      -1.24029222E-08
  -10.6999998      -1.26057662E-08
  -10.6899996      -1.28048887E-08
  -10.6800003      -1.30003892E-08
  -10.6700001      -1.31924542E-08
  -10.6599998      -1.33813218E-08
  -10.6499996      -1.35672931E-08
  -10.6400003      -1.37507010E-08
  -10.6300001      -1.39319116E-08
  -10.6199999      -1.41113219E-08
  -10.6099997      -1.42893439E-08
  -10.6000004      -1.44664059E-08
  -10.5900002      -1.46429526E-08
  -10.5799999      -1.48194275E-08
  -10.5699997      -1.49962602E-08
  -10.5600004      -1.51738693E-08
  -10.5500002      -1.53526258E-08
  -10.5400000      -1.55328479E-08
  -10.5299997      -1.57147859E-08
  -10.5200005      -1.58986122E-08
  -10.5100002      -1.60844564E-08
  -10.5000000      -1.62723435E-08
  -10.4899998      -1.64622627E-08
  -10.4799995      -1.66541643E-08
  -10.4700003      -1.68479541E-08
  -10.4600000      -1.70435168E-08
  -10.4499998      -1.72407173E-08
  -10.4399996      -1.74393975E-08
  -10.4300003      -1.76393780E-08
  -10.4200001      -1.78404562E-08
  -10.4099998      -1.80423996E-08
  -10.3999996      -1.82449327E-08
  -10.3900003      -1.84477891E-08
  -10.3800001      -1.86506597E-08
  -10.3699999      -1.88532336E-08
  -10.3599997      -1.90552267E-08
  -10.3500004      -1.92563405E-08
  -10.3400002      -1.94563086E-08
  -10.3299999      -1.96548484E-08
  -10.3199997      -1.98516883E-08
  -10.3100004      -2.00465564E-08
  -10.3000002      -2.02391295E-08
  -10.2900000      -2.04290700E-08
  -10.2799997      -2.06160209E-08
  -10.2700005      -2.07995949E-08
  -10.2600002      -2.09794067E-08
  -10.2500000      -2.11551257E-08
  -10.2399998      -2.13264570E-08
  -10.2299995      -2.14932143E-08
  -10.2200003      -2.16552909E-08
  -10.2100000      -2.18127330E-08
  -10.1999998      -2.19656879E-08
  -10.1899996      -2.21144187E-08
  -10.1800003      -2.22592877E-08
  -10.1700001      -2.24007550E-08
  -10.1599998      -2.25393322E-08
  -10.1499996      -2.26755734E-08
  -10.1400003      -2.28100667E-08
  -10.1300001      -2.29434303E-08
  -10.1199999      -2.30762911E-08
  -10.1099997      -2.32092994E-08
  -10.1000004      -2.33431106E-08
  -10.0900002      -2.34783641E-08
  -10.0799999      -2.36156996E-08
  -10.0699997      -2.37557298E-08
  -10.0600004      -2.38990356E-08
  -10.0500002      -2.40461500E-08
  -10.0400000      -2.41975808E-08
  -10.0299997      -2.43537546E-08
  -10.0200005      -2.45150726E-08
  -10.0100002      -2.46819098E-08
  -10.0000000      -2.48546197E-08
  -9.98999977      -2.50335610E-08
  -9.97999954      -2.52190819E-08
  -9.97000027      -2.54115715E-08
  -9.96000004      -2.56114419E-08
  -9.94999981      -2.58191246E-08
  -9.93999958      -2.60350816E-08
  -9.93000031      -2.62597837E-08
  -9.92000008      -2.64937281E-08
  -9.90999985      -2.67374283E-08
  -9.89999962      -2.69913940E-08
  -9.89000034      -2.72561103E-08
  -9.88000011      -2.75321153E-08
  -9.86999989      -2.78198886E-08
  -9.85999966      -2.81199117E-08
  -9.85000038      -2.84326624E-08
  -9.84000015      -2.87585653E-08
  -9.82999992      -2.90980324E-08
  -9.81999969      -2.94513978E-08
  -9.81000042      -2.98189384E-08
  -9.80000019      -3.02008587E-08
  -9.78999996      -3.05972847E-08
  -9.77999973      -3.10082626E-08
  -9.77000046      -3.14337498E-08
  -9.76000023      -3.18736539E-08
  -9.75000000      -3.23278151E-08
  -9.73999977      -3.27960485E-08
  -9.72999954      -3.32781198E-08
  -9.72000027      -3.37738193E-08
  -9.71000004      -3.42829054E-08
  -9.69999981      -3.48051756E-08
  -9.68999958      -3.53404026E-08
  -9.68000031      -3.58883234E-08
  -9.67000008      -3.64486894E-08
  -9.65999985      -3.70211986E-08
  -9.64999962      -3.76055098E-08
  -9.64000034      -3.82012288E-08
  -9.63000011      -3.88079364E-08
  -9.61999989      -3.94251494E-08
  -9.60999966      -4.00523490E-08
  -9.60000038      -4.06889953E-08
  -9.59000015      -4.13345091E-08
  -9.57999992      -4.19883115E-08
  -9.56999969      -4.26498055E-08
  -9.56000042      -4.33183054E-08
  -9.55000019      -4.39931753E-08
  -9.53999996      -4.46737261E-08
  -9.52999973      -4.53592577E-08
  -9.52000046      -4.60490170E-08
  -9.51000023      -4.67423007E-08
  -9.50000000      -4.74383732E-08
  -9.48999977      -4.81365703E-08
  -9.47999954      -4.88362737E-08
  -9.47000027      -4.95369576E-08
  -9.46000004      -5.02381745E-08
  -9.44999981      -5.09396827E-08
  -9.43999958      -5.16412548E-08
  -9.43000031      -5.23429122E-08
  -9.42000008      -5.30447863E-08
  -9.40999985      -5.37471792E-08
  -9.39999962      -5.44505667E-08
  -9.39000034      -5.51555388E-08
  -9.38000011      -5.58629054E-08
  -9.36999989      -5.65736116E-08
  -9.35999966      -5.72887338E-08
  -9.35000038      -5.80095119E-08
  -9.34000015      -5.87373847E-08
  -9.32999992      -5.94738196E-08
  -9.31999969      -6.02204651E-08
  -9.31000042      -6.09790831E-08
  -9.30000019      -6.17514857E-08
  -9.28999996      -6.25395984E-08
  -9.27999973      -6.33453254E-08
  -9.27000046      -6.41707132E-08
  -9.26000023      -6.50177583E-08
  -9.25000000      -6.58884645E-08
  -9.23999977      -6.67848283E-08
  -9.22999954      -6.77088465E-08
  -9.22000027      -6.86623949E-08
  -9.21000004      -6.96473563E-08
  -9.19999981      -7.06654006E-08
  -9.18999958      -7.17182189E-08
  -9.18000031      -7.28072678E-08
  -9.17000008      -7.39339185E-08
  -9.15999985      -7.50993294E-08
  -9.14999962      -7.63044099E-08
  -9.14000034      -7.75499274E-08
  -9.13000011      -7.88363934E-08
  -9.11999989      -8.01640638E-08
  -9.10999966      -8.15328107E-08
  -9.10000038      -8.29423428E-08
  -9.09000015      -8.43920347E-08
  -9.07999992      -8.58809344E-08
  -9.06999969      -8.74077415E-08
  -9.06000042      -8.89709924E-08
  -9.05000019      -9.05687685E-08
  -9.03999996      -9.21989312E-08
  -9.02999973      -9.38590361E-08
  -9.02000046      -9.55463904E-08
  -9.01000023      -9.72579883E-08
  -9.00000000      -9.89907036E-08
  -8.98999977      -1.00741225E-07
  -8.97999954      -1.02506064E-07
  -8.97000027      -1.04281654E-07
  -8.96000004      -1.06064313E-07
  -8.94999981      -1.07850468E-07
  -8.93999958      -1.09636495E-07
  -8.93000031      -1.11418814E-07
  -8.92000008      -1.13193963E-07
  -8.90999985      -1.14958489E-07
  -8.89999962      -1.16709174E-07
  -8.89000034      -1.18442927E-07
  -8.88000011      -1.20156713E-07
  -8.86999989      -1.21847876E-07
  -8.85999966      -1.23513843E-07
  -8.85000038      -1.25152241E-07
  -8.84000015      -1.26761037E-07
  -8.82999992      -1.28338513E-07
  -8.81999969      -1.29883119E-07
  -8.81000042      -1.31393577E-07
  -8.80000019      -1.32869090E-07
  -8.78999996      -1.34309090E-07
  -8.77999973      -1.35713350E-07
  -8.77000046      -1.37081926E-07
  -8.76000023      -1.38415132E-07
  -8.75000000      -1.39713606E-07
  -8.73999977      -1.40978287E-07
  -8.72999954      -1.42210325E-07
  -8.72000027      -1.43410958E-07
  -8.71000004      -1.44581705E-07
  -8.69999981      -1.45724258E-07
  -8.68999958      -1.46840321E-07
  -8.68000031      -1.47931814E-07
  -8.67000008      -1.49000570E-07
  -8.65999985      -1.50048578E-07
  -8.64999962      -1.51077842E-07
  -8.64000034      -1.52090266E-07
  -8.63000011      -1.53087754E-07
  -8.61999989      -1.54072140E-07
  -8.60999966      -1.55045171E-07
  -8.60000038      -1.56008511E-07
  -8.59000015      -1.56963765E-07
  -8.57999992      -1.57912453E-07
  -8.56999969      -1.58856011E-07
  -8.56000042      -1.59795803E-07
  -8.55000019      -1.60733038E-07
  -8.53999996      -1.61668922E-07
  -8.52999973      -1.62604550E-07
  -8.52000046      -1.63540903E-07
  -8.51000023      -1.64478735E-07
  -8.50000000      -1.65418925E-07
  -8.48999977      -1.66362184E-07
  -8.47999954      -1.67309111E-07
  -8.47000027      -1.68260314E-07
  -8.46000004      -1.69216420E-07
  -8.44999981      -1.70177941E-07
  -8.43999958      -1.71145274E-07
  -8.43000031      -1.72118888E-07
  -8.42000008      -1.73099096E-07
  -8.40999985      -1.74086139E-07
  -8.39999962      -1.75080245E-07
  -8.39000034      -1.76081699E-07
  -8.38000011      -1.77090570E-07
  -8.36999989      -1.78106987E-07
  -8.35999966      -1.79131192E-07
  -8.35000038      -1.80163397E-07
  -8.34000015      -1.81203788E-07
  -8.32999992      -1.82252762E-07
  -8.31999969      -1.83310604E-07
  -8.31000042      -1.84377711E-07
  -8.30000019      -1.85454596E-07
  -8.28999996      -1.86542024E-07
  -8.27999973      -1.87640779E-07
  -8.27000046      -1.88751613E-07
  -8.26000023      -1.89875763E-07
  -8.25000000      -1.91014408E-07
  -8.23999977      -1.92168841E-07
  -8.22999954      -1.93340682E-07
  -8.22000027      -1.94531594E-07
  -8.21000004      -1.95743226E-07
  -8.19999981      -1.96977666E-07
  -8.18999958      -1.98237018E-07
  -8.18000031      -1.99523484E-07
  -8.17000008      -2.00839466E-07
  -8.15999985      -2.02187394E-07
  -8.14999962      -2.03569996E-07
  -8.14000034      -2.04989860E-07
  -8.13000011      -2.06449826E-07
  -8.11999989      -2.07952553E-07
  -8.10999966      -2.09500982E-07
  -8.10000038      -2.11097614E-07
  -8.09000015      -2.12744993E-07
  -8.07999992      -2.14445720E-07
  -8.06999969      -2.16201968E-07
  -8.06000042      -2.18015856E-07
  -8.05000019      -2.19889458E-07
  -8.03999996      -2.21824592E-07
  -8.02999973      -2.23822610E-07
  -8.02000046      -2.25884918E-07
  -8.01000023      -2.28012510E-07
  -8.00000000      -2.30206027E-07
  -7.98999977      -2.32466022E-07
  -7.98000002      -2.34792708E-07
  -7.96999979      -2.37185887E-07
  -7.96000004      -2.39645317E-07
  -7.94999981      -2.42170387E-07
  -7.94000006      -2.44760400E-07
  -7.92999983      -2.47414164E-07
  -7.92000008      -2.50130682E-07
  -7.90999985      -2.52908364E-07
  -7.90000010      -2.55745675E-07
  -7.88999987      -2.58641052E-07
  -7.88000011      -2.61592419E-07
  -7.86999989      -2.64598185E-07
  -7.86000013      -2.67656134E-07
  -7.84999990      -2.70764303E-07
  -7.84000015      -2.73920591E-07
  -7.82999992      -2.77122950E-07
  -7.82000017      -2.80369306E-07
  -7.80999994      -2.83657613E-07
  -7.80000019      -2.86985909E-07
  -7.78999996      -2.90352318E-07
  -7.78000021      -2.93755051E-07
  -7.76999998      -2.97192287E-07
  -7.76000023      -3.00662776E-07
  -7.75000000      -3.04165098E-07
  -7.73999977      -3.07698230E-07
  -7.73000002      -3.11261118E-07
  -7.71999979      -3.14853139E-07
  -7.71000004      -3.18473894E-07
  -7.69999981      -3.22123213E-07
  -7.69000006      -3.25800727E-07
  -7.67999983      -3.29506804E-07
  -7.67000008      -3.33241815E-07
  -7.65999985      -3.37006242E-07
  -7.65000010      -3.40801336E-07
  -7.63999987      -3.44627949E-07
  -7.63000011      -3.48487163E-07
  -7.61999989      -3.52380653E-07
  -7.61000013      -3.56309755E-07
  -7.59999990      -3.60276374E-07
  -7.59000015      -3.64282187E-07
  -7.57999992      -3.68329239E-07
  -7.57000017      -3.72419294E-07
  -7.55999994      -3.76554681E-07
  -7.55000019      -3.80737021E-07
  -7.53999996      -3.84968729E-07
  -7.53000021      -3.89251682E-07
  -7.51999998      -3.93587811E-07
  -7.51000023      -3.97979477E-07
  -7.50000000      -4.02428469E-07
  -7.48999977      -4.06936721E-07
  -7.48000002      -4.11505965E-07
  -7.46999979      -4.16138050E-07
  -7.46000004      -4.20834539E-07
  -7.44999981      -4.25597420E-07
  -7.44000006      -4.30428031E-07