  -16.0000000       0.00000000    
  -15.9899998       0.00000000    
  -15.9799995       0.00000000    
  -15.9700003       0.00000000    
  -15.9600000       0.00000000    
  -15.9499998       0.00000000    
  -15.9399996       0.00000000    
  -15.9300003       0.00000000    
  -15.9200001       0.00000000    
  -15.9099998       0.00000000    
  -15.8999996       0.00000000    
  -15.8900003       0.00000000    
  -15.8800001       0.00000000    
  -15.8699999       5.60519386E-45
  -15.8599997       1.87773994E-43
  -15.8500004       3.10667870E-42
  -15.8400002       3.32962528E-41
  -15.8299999       2.62077845E-40
  -15.8199997       1.62070537E-39
  -15.8100004       8.20575297E-39
  -15.8000002       3.49317531E-38
  -15.7900000       1.27163004E-37
  -15.7799997       3.99538084E-37
  -15.7700005       1.08493800E-36
  -15.7600002       2.52116185E-36
  -15.7500000       4.85080328E-36
  -15.7399998       6.95605239E-36
  -15.7299995       3.90555272E-36
  -15.7200003      -1.76738302E-35
  -15.7100000      -8.56629742E-35
  -15.6999998      -2.46145693E-34
  -15.6899996      -5.55491610E-34
  -15.6800003      -1.04541341E-33
  -15.6700001      -1.64358373E-33
  -15.6599998      -2.04381568E-33
  -15.6499996      -1.55686604E-33
  -15.6400003       9.55075477E-34
  -15.6300001       6.85724409E-33
  -15.6199999       1.69502994E-32
  -15.6099997       2.98751801E-32
  -15.6000004       3.98599261E-32
  -15.5900002       3.48622502E-32
  -15.5799999      -2.40110572E-33
  -15.5699997      -8.67125037E-32
  -15.5600004      -2.12563727E-31
  -15.5500002      -3.28086915E-31
  -15.5400000      -3.14600586E-31
  -15.5299997      -3.20006370E-33
  -15.5200005       7.28136231E-31
  -15.5100002       1.75023172E-30
  -15.5000000       2.41951588E-30
  -15.4899998       1.44901120E-30
  -15.4799995      -2.72745685E-30
  -15.4700003      -1.07009911E-29
  -15.4600000      -1.98781414E-29
  -15.4499998      -2.21644459E-29
  -15.4399996      -3.79885168E-30
  -15.4300003       4.92232636E-29
  -15.4200001       1.37278240E-28
  -15.4099998       2.26186798E-28
  -15.3999996       2.29484881E-28
  -15.3900003       1.53726419E-29
  -15.3800001      -5.34040199E-28
  -15.3699999      -1.39485072E-27
  -15.3599997      -2.22925948E-27
  -15.3500004      -2.26440674E-27
  -15.3400002      -3.92865225E-28
  -15.3299999       4.31368325E-27
  -15.3199997       1.16025315E-26
  -15.3100004       1.87903941E-26
  -15.3000002       1.99897091E-26
  -15.2900000       6.98064248E-27
  -15.2799997      -2.70869936E-26
  -15.2700005      -8.08712775E-26
  -15.2600002      -1.36677966E-25
  -15.2500000      -1.55648370E-25
  -15.2399998      -8.33829366E-26
  -15.2299995       1.27279490E-25
  -15.2200003       4.75213655E-25
  -15.2100000       8.62462318E-25
  -15.1999998       1.06468030E-24
  -15.1899996       7.59235382E-25
  -15.1800003      -3.53412644E-25
  -15.1700001      -2.32931417E-24
  -15.1599998      -4.71647668E-24
  -15.1499996      -6.37883578E-24
  -15.1400003      -5.60054166E-24
  -15.1300001      -6.48521465E-25
  -15.1199999       9.16712223E-24
  -15.1099997       2.21727312E-23
  -15.1000004       3.33442512E-23
  -15.0900002       3.45230586E-23
  -15.0799999       1.66701077E-23
  -15.0699997      -2.55656993E-23
  -15.0600004      -8.78377244E-23
  -15.0500002      -1.51021526E-22
  -15.0400000      -1.80663776E-22
  -15.0299997      -1.34618735E-22
  -15.0200005       1.94370231E-23
  -15.0100002       2.79223641E-22
  -15.0000000       5.84225994E-22
  -14.9899998       8.06776706E-22
  -14.9799995       7.72637028E-22
  -14.9700003       3.19939037E-22
  -14.9600000      -6.09078975E-22
  -14.9499998      -1.86976362E-21
  -14.9399996      -3.05630897E-21
  -14.9300003      -3.53705782E-21
  -14.9200001      -2.62400108E-21
  -14.9099998       1.26531560E-22
  -14.8999996       4.55145227E-21
  -14.8900003       9.59668047E-21
  -14.8800001       1.32920679E-20
  -14.8699999       1.31428490E-20
  -14.8599997       6.98347878E-21
  -14.8500004      -5.85291918E-21
  -14.8400002      -2.34189856E-20
  -14.8299999      -4.06251922E-20
  -14.8199997      -4.98353055E-20
  -14.8100004      -4.28787650E-20
  -14.8000002      -1.42866435E-20
  -14.7900000       3.50669004E-20
  -14.7799997       9.52865214E-20
  -14.7700005       1.47303703E-19
  -14.7600002       1.66423621E-19
  -14.7500000       1.29696686E-19
  -14.7399998       2.57189371E-20
  -14.7299995      -1.36061401E-19
  -14.7200003      -3.20364725E-19
  -14.7100000      -4.68961983E-19
  -14.6999998      -5.13155193E-19
  -14.6899996      -3.94520562E-19
  -14.6800003      -8.91421075E-20
  -14.6700001       3.72131911E-19
  -14.6599998       8.95558464E-19
  -14.6499996       1.33442307E-18
  -14.6400003       1.51841058E-18
  -14.6300001       1.29791080E-18
  -14.6199999       5.93393160E-19
  -14.6099997      -5.62616096E-19
  -14.6000004      -2.00252878E-18
  -14.5900002      -3.42743838E-18
  -14.5799999      -4.44018269E-18
  -14.5699997      -4.60605887E-18
  -14.5600004      -3.53811411E-18
  -14.5500002      -1.00356178E-18
  -14.5400000       2.95410454E-18
  -14.5299997       7.89136177E-18
  -14.5200005       1.28701668E-17
  -14.5100002       1.64468751E-17
  -14.5000000       1.68155760E-17
  -14.4899998       1.21737693E-17
  -14.4799995       1.33164974E-18
  -14.4700003      -1.55051366E-17
  -14.4600000      -3.59794185E-17
  -14.4499998      -5.51761265E-17
  -14.4399996      -6.59491382E-17
  -14.4300003      -6.02859818E-17
  -14.4200001      -3.17632458E-17
  -14.4099998       2.12786869E-17
  -14.3999996       9.26980351E-17
  -14.3900003       1.66900417E-16
  -14.3800001       2.19894226E-16
  -14.3699999       2.23944023E-16
  -14.3599997       1.55739660E-16
  -14.3500004       6.61903019E-18
  -14.3400002      -2.08058304E-16
  -14.3299999      -4.44157343E-16
  -14.3199997      -6.32280502E-16
  -14.3100004      -6.91569738E-16
  -14.3000002      -5.52862110E-16
  -14.2900000      -1.86526489E-16
  -14.2799997       3.73099061E-16
  -14.2700005       1.01638691E-15
  -14.2600002       1.56867527E-15
  -14.2500000       1.82579116E-15
  -14.2399998       1.61103210E-15
  -14.2299995       8.41008584E-16
  -14.2200003      -4.18974948E-16
  -14.2100000      -1.93165842E-15
  -14.1999998      -3.31367166E-15
  -14.1899996      -4.11567041E-15
  -14.1800003      -3.94511143E-15
  -14.1700001      -2.60272472E-15
  -14.1599998      -1.91870221E-16
  -14.1499996       2.84131802E-15
  -14.1400003       5.76618314E-15
  -14.1300001       7.72790171E-15
  -14.1199999       7.98057587E-15
  -14.1099997       6.13380349E-15
  -14.1000004       2.33640528E-15
  -14.0900002      -2.67381662E-15
  -14.0799999      -7.69553404E-15
  -14.0699997      -1.13555617E-14
  -14.0600004      -1.25012390E-14
  -14.0500002      -1.05824493E-14
  -14.0400000      -5.89572201E-15
  -14.0299997       4.12310069E-16
  -14.0200005       6.62188124E-15
  -14.0100002       1.09475849E-14
  -14.0000000       1.21366252E-14
  -13.9899998       9.96293620E-15
  -13.9799995       5.42274516E-15
  -13.9700003       5.07032652E-16
  -13.9600000      -2.44448542E-15
  -13.9499998      -1.65168704E-15
  -13.9399996       3.22066660E-15
  -13.9300003       1.05397639E-14
  -13.9200001       1.68275919E-14
  -13.9099998       1.76467151E-14
  -13.8999996       9.11867475E-15
  -13.8900003      -1.03130861E-14
  -13.8800001      -3.84440811E-14
  -13.8699999      -6.87931293E-14
  -13.8599997      -9.14414757E-14
  -13.8500004      -9.53078762E-14
  -13.8400002      -7.14849729E-14
  -13.8299999      -1.68238057E-14
  -13.8199997       6.33183691E-14
  -13.8100004       1.54240349E-13
  -13.8000002       2.33690373E-13
  -13.7900000       2.76363730E-13
  -13.7799997       2.60375245E-13
  -13.7700005       1.74235626E-13
  -13.7600002       2.24176892E-14
  -13.7500000      -1.72359197E-13
  -13.7399998      -3.71404920E-13
  -13.7299995      -5.27094048E-13
  -13.7200003      -5.93554177E-13
  -13.7100000      -5.38692300E-13
  -13.6999998      -3.54518227E-13
  -13.6899996      -6.27295796E-14
  -13.6800003       2.86581631E-13
  -13.6700001       6.23650871E-13
  -13.6599998       8.73772138E-13
  -13.6499996       9.74808125E-13
  -13.6400003       8.93136964E-13
  -13.6300001       6.33656918E-13
  -13.6199999       2.40707871E-13
  -13.6099997      -2.11024151E-13
  -13.6000004      -6.33803719E-13
  -13.5900002      -9.48068989E-13
  -13.5799999      -1.10185494E-12
  -13.5699997      -1.08277070E-12
  -13.5600004      -9.18704999E-13
  -13.5500002      -6.66528464E-13
  -13.5400000      -3.91765206E-13
  -13.5299997      -1.45312581E-13
  -13.5200005       5.51230340E-14
  -13.5100002       2.31923692E-13
  -13.5000000       4.38858395E-13
  -13.4899998       7.37548206E-13
  -13.4799995       1.16508897E-12
  -13.4700003       1.70278342E-12
  -13.4600000       2.25751189E-12
  -13.4499998       2.66523804E-12
  -13.4399996       2.72089708E-12
  -13.4300003       2.23134944E-12
  -13.4200001       1.08017219E-12
  -13.4099998      -7.12684198E-13
  -13.3999996      -2.95519403E-12
  -13.3900003      -5.28676972E-12
  -13.3800001      -7.22787628E-12
  -13.3699999      -8.27086143E-12
  -13.3599997      -7.99514101E-12
  -13.3500004      -6.18078288E-12
  -13.3400002      -2.89148284E-12
  -13.3299999       1.49758005E-12
  -13.3199997       6.34023476E-12
  -13.3100004       1.08249685E-11
  -13.3000002       1.41260267E-11
  -13.2900000       1.55671864E-11
  -13.2799997       1.47605036E-11
  -13.2700005       1.16869691E-11
  -13.2600002       6.69974016E-12
  -13.2500000       4.50192401E-13
  -13.2399998      -6.24284305E-12
  -13.2299995      -1.25454525E-11
  -13.2200003      -1.77425297E-11
  -13.2100000      -2.13197238E-11
  -13.1999998      -2.29775018E-11
  -13.1899996      -2.25842314E-11
  -13.1800003      -2.00969172E-11
  -13.1700001      -1.54909783E-11
  -13.1599998      -8.74055949E-12
  -13.1499996       1.25462439E-13
  -13.1400003       1.08939958E-11
  -13.1300001       2.29992119E-11
  -13.1199999       3.53752548E-11
  -13.1099997       4.64022536E-11
  -13.1000004       5.40065839E-11
  -13.0900002       5.59438745E-11
  -13.0799999       5.02432436E-11
  -13.0699997       3.57385094E-11
  -13.0600004       1.25680169E-11
  -13.0500002      -1.74937391E-11
  -13.0400000      -5.09939625E-11
  -13.0299997      -8.31198582E-11
  -13.0200005      -1.08372006E-10
  -13.0100002      -1.21499033E-10
  -13.0000000      -1.18526314E-10
  -12.9899998      -9.76670828E-11
  -12.9799995      -5.99070168E-11
  -12.9700003      -9.10902603E-12
  -12.9600000       4.84230642E-11
  -12.9499998       1.04864860E-10
  -12.9399996       1.52111546E-10
  -12.9300003       1.83097690E-10
  -12.9200001       1.92933253E-10
  -12.9099998       1.79634835E-10
  -12.8999996       1.44321333E-10
  -12.8900003       9.08680284E-11
  -12.8800001       2.51360148E-11
  -12.8699999      -4.60157641E-11
  -12.8599997      -1.15694523E-10
  -12.8500004      -1.77704601E-10
  -12.8400002      -2.26925978E-10
  -12.8299999      -2.59342103E-10
  -12.8199997      -2.71837802E-10
  -12.8100004      -2.61964478E-10
  -12.8000002      -2.27884350E-10
  -12.7900000      -1.68644418E-10
  -12.7799997      -8.48053364E-11
  -12.7700005       2.06961878E-11
  -12.7600002       1.41710865E-10
  -12.7500000       2.68397110E-10
  -12.7399998       3.87415905E-10
  -12.7299995       4.82997420E-10
  -12.7200003       5.38882050E-10
  -12.7100000       5.40913647E-10
  -12.6999998       4.79839168E-10
  -12.6899996       3.53752416E-10
  -12.6800003       1.69609604E-10
  -12.6700001      -5.66268143E-11
  -12.6599998      -3.01404124E-10
  -12.6499996      -5.36434341E-10
  -12.6400003      -7.32550631E-10
  -12.6300001      -8.63907001E-10
  -12.6199999      -9.11763220E-10
  -12.6099997      -8.67173888E-10
  -12.6000004      -7.32122085E-10
  -12.5900002      -5.18957655E-10
  -12.5799999      -2.48343873E-10
  -12.5699997       5.37994406E-11
  -12.5600004       3.59713620E-10
  -12.5500002       6.42941200E-10
  -12.5400000       8.80710171E-10
  -12.5299997       1.05533149E-09
  -12.5200005       1.15467258E-09
  -12.5100002       1.17200061E-09
  -12.5000000       1.10558018E-09
  -12.4899998       9.58395696E-10
  -12.4799995       7.38164418E-10
  -12.4700003       4.57592436E-10
  -12.4600000       1.34550690E-10
  -12.4499998      -2.08254469E-10
  -12.4399996      -5.44563616E-10
  -12.4300003      -8.47044324E-10
  -12.4200001      -1.09089970E-09
  -12.4099998      -1.25814714E-09
  -12.3999996      -1.34179756E-09
  -12.3900003      -1.34897427E-09
  -12.3800001      -1.30207478E-09
  -12.3699999      -1.23738386E-09
  -12.3599997      -1.20098076E-09
  -12.3500004      -1.24242805E-09
  -12.3400002      -1.40717871E-09
  -12.3299999      -1.72903736E-09
  -12.3199997      -2.22403473E-09
  -12.3100004      -2.88686453E-09
  -12.3000002      -3.69050701E-09
  -12.2900000      -4.58902250E-09
  -12.2799997      -5.52285551E-09
  -12.2700005      -6.42553522E-09
  -12.2600002      -7.23038429E-09
  -12.2500000      -7.87608201E-09
  -12.2399998      -8.31022984E-09
  -12.2299995      -8.49072901E-09
  -12.2200003      -8.38536351E-09
  -12.2100000      -7.97041189E-09
  -12.1999998      -7.22933846E-09
  -12.1899996      -6.15246432E-09
  -12.1800003      -4.73811568E-09
  -12.1700001      -2.99517189E-09
  -12.1599998      -9.46268841E-10
  -12.1499996       1.36937917E-09
  -12.1400003       3.89471078E-09
  -12.1300001       6.55618670E-09
  -12.1199999       9.26810628E-09
  -12.1099997       1.19395462E-08
  -12.1000004       1.44830166E-08
  -12.0900002       1.68232397E-08
  -12.0799999       1.89044300E-08
  -12.0699997       2.06944311E-08
  -12.0600004       2.21850538E-08
  -12.0500002       2.33886155E-08
  -12.0400000       2.43312517E-08
  -12.0299997       2.50446952E-08
  -12.0200005       2.55582471E-08
  -12.0100002       2.58926498E-08
  -12.0000000       2.60568775E-08
  -11.9899998       2.60483759E-08
  -11.9799995       2.58563642E-08
  -11.9700003       2.54664130E-08
  -11.9600000       2.48658090E-08
  -11.9499998       2.40469884E-08
  -11.9399996       2.30087522E-08
  -11.9300003       2.17543761E-08
  -11.9200001       2.02877981E-08
  -11.9099998       1.86076203E-08
  -11.8999996       1.67023941E-08
  -11.8900003       1.45470738E-08
  -11.8800001       1.21029498E-08
  -11.8699999       9.32073263E-09
  -11.8599997       6.14759710E-09
  -11.8500004       2.53557619E-09
  -11.8400002      -1.54855861E-09
  -11.8299999      -6.11512396E-09
  -11.8199997      -1.11456169E-08
  -11.8100004      -1.65903415E-08
  -11.8000002      -2.23699708E-08
  -11.7900000      -2.83799153E-08
  -11.7799997      -3.44975959E-08
  -11.7700005      -4.05903329E-08
  -11.7600002      -4.65233079E-08
  -11.7500000      -5.21665271E-08
  -11.7399998      -5.74005341E-08
  -11.7299995      -6.21203711E-08
  -11.7200003      -6.62388899E-08
  -11.7100000      -6.96890723E-08
  -11.6999998      -7.24258342E-08
  -11.6899996      -7.44276534E-08
  -11.6800003      -7.56973790E-08
  -11.6700001      -7.62615997E-08
  -11.6599998      -7.61685897E-08
  -11.6499996      -7.54841025E-08
  -11.6400003      -7.42847348E-08
  -11.6300001      -7.26501526E-08
  -11.6199999      -7.06541954E-08
  -11.6099997      -6.83563073E-08
  -11.6000004      -6.57955042E-08
  -11.5900002      -6.29853076E-08
  -11.5799999      -5.99138232E-08
  -11.5699997      -5.65456943E-08
  -11.5600004      -5.28271471E-08
  -11.5500002      -4.86923817E-08
  -11.5400000      -4.40710899E-08
  -11.5299997      -3.88949601E-08
  -11.5200005      -3.31026335E-08
  -11.5100002      -2.66436668E-08
  -11.5000000      -1.94794669E-08
  -11.4899998      -1.15856080E-08
  -11.4799995      -2.95195735E-09
  -11.4700003       6.41632880E-09
  -11.4600000       1.64969496E-08
  -11.4499998       2.72488165E-08
  -11.4399996       3.86108709E-08
  -11.4300003       5.05001267E-08
  -11.4200001       6.28136689E-08
  -11.4099998       7.54304921E-08
  -11.3999996       8.82178597E-08
  -11.3900003       1.01037237E-07
  -11.3800001       1.13753984E-07
  -11.3699999       1.26244331E-07
  -11.3599997       1.38403550E-07
  -11.3500004       1.50150314E-07
  -11.3400002       1.61429014E-07
  -11.3299999       1.72209084E-07
  -11.3199997       1.82481529E-07
  -11.3100004       1.92254888E-07
  -11.3000002       2.01549440E-07
  -11.2900000       2.10393125E-07
  -11.2799997       2.18818016E-07
  -11.2700005       2.26857594E-07
  -11.2600002       2.34546889E-07
  -11.2500000       2.41922237E-07
  -11.2399998       2.49020445E-07
  -11.2299995       2.55879627E-07
  -11.2200003       2.62537981E-07
  -11.2100000       2.69030181E-07
  -11.1999998       2.75387350E-07
  -11.1899996       2.81630776E-07
  -11.1800003       2.87772082E-07
  -11.1700001       2.93809251E-07
  -11.1599998       2.99727731E-07
  -11.1499996       3.05498190E-07
  -11.1400003       3.11081976E-07
  -11.1300001       3.16428327E-07
  -11.1199999       3.21483554E-07
  -11.1099997       3.26187660E-07
  -11.1000004       3.30481811E-07
  -11.0900002       3.34309448E-07
  -11.0799999       3.37621515E-07
  -11.0699997       3.40381575E-07
  -11.0600004       3.42568086E-07
  -11.0500002       3.44169820E-07
  -11.0400000       3.45198742E-07
  -11.0299997       3.45686345E-07
  -11.0200005       3.45677648E-07
  -11.0100002       3.45231172E-07
  -11.0000000       3.44417771E-07
  -10.9899998       3.43310489E-07
  -10.9799995       3.41976062E-07
  -10.9700003       3.40481080E-07
  -10.9600000       3.38877641E-07
  -10.9499998       3.37206757E-07
  -10.9399996       3.35496907E-07
  -10.9300003       3.33768952E-07
  -10.9200001       3.32034091E-07
  -10.9099998       3.30289623E-07
  -10.8999996       3.28530206E-07
  -10.8900003       3.26748989E-07
  -10.8800001       3.24925310E-07
  -10.8699999       3.23035096E-07
  -10.8599997       3.21046230E-07
  -10.8500004       3.18920030E-07
  -10.8400002       3.16608123E-07
  -10.8299999       3.14063072E-07
  -10.8199997       3.11234942E-07
  -10.8100004       3.08075101E-07
  -10.8000002       3.04544983E-07
  -10.7900000       3.00621025E-07
  -10.7799997       2.96287908E-07
  -10.7700005       2.91547821E-07
  -10.7600002       2.86416281E-07
  -10.7500000       2.80918584E-07
  -10.7399998       2.75096284E-07
  -10.7299995       2.68980983E-07
  -10.7200003       2.62618045E-07
  -10.7100000       2.56041176E-07
  -10.6999998       2.49275871E-07
  -10.6899996       2.42347397E-07
  -10.6800003       2.35275891E-07
  -10.6700001       2.28079685E-07
  -10.6599998       2.20774879E-07
  -10.6499996       2.13381682E-07
  -10.6400003       2.05945952E-07
  -10.6300001       1.98510563E-07
  -10.6199999       1.91140032E-07
  -10.6099997       1.83910828E-07
  -10.6000004       1.76901096E-07
  -10.5900002       1.70204828E-07
  -10.5799999       1.63912958E-07
  -10.5699997       1.58101187E-07
  -10.5600004       1.52841807E-07
  -10.5500002       1.48188803E-07
  -10.5400000       1.44189002E-07
  -10.5299997       1.40864884E-07
  -10.5200005       1.38228842E-07
  -10.5100002       1.36268156E-07
  -10.5000000       1.34966783E-07
  -10.4899998       1.34304884E-07
  -10.4799995       1.34247657E-07
  -10.4700003       1.34743729E-07
  -10.4600000       1.35752629E-07
  -10.4499998       1.37212083E-07
  -10.4399996       1.39066373E-07
  -10.4300003       1.41254077E-07
  -10.4200001       1.43703232E-07
  -10.4099998       1.46341449E-07
  -10.3999996       1.49110065E-07
  -10.3900003       1.51934600E-07
  -10.3800001       1.54759718E-07
  -10.3699999       1.57522706E-07
  -10.3599997       1.60174281E-07
  -10.3500004       1.62658765E-07
  -10.3400002       1.64920692E-07
  -10.3299999       1.66912656E-07
  -10.3199997       1.68580385E-07
  -10.3100004       1.69874639E-07
  -10.3000002       1.70752443E-07
  -10.2900000       1.71171223E-07
  -10.2799997       1.71097668E-07
  -10.2700005       1.70525581E-07
  -10.2600002       1.69460080E-07
  -10.2500000       1.67928164E-07
  -10.2399998       1.65980779E-07
  -10.2299995       1.63671814E-07
  -10.2200003       1.61096580E-07
  -10.2100000       1.58331687E-07
  -10.1999998       1.55468499E-07
  -10.1899996       1.52588782E-07
  -10.1800003       1.49762357E-07
  -10.1700001       1.47052759E-07
  -10.1599998       1.44501087E-07
  -10.1499996       1.42154619E-07
  -10.1400003       1.40042758E-07
  -10.1300001       1.38193670E-07
  -10.1199999       1.36628714E-07
  -10.1099997       1.35373909E-07
  -10.1000004       1.34446708E-07
  -10.0900002       1.33889031E-07
  -10.0799999       1.33711936E-07
  -10.0699997       1.33957371E-07
  -10.0600004       1.34645163E-07
  -10.0500002       1.35768644E-07
  -10.0400000       1.37337409E-07
  -10.0299997       1.39367131E-07
  -10.0200005       1.41832331E-07
  -10.0100002       1.44707869E-07
  -10.0000000       1.47982789E-07
  -9.98999977       1.51631326E-07
  -9.97999954       1.55637878E-07
  -9.97000027       1.59998820E-07
  -9.96000004       1.64708879E-07
  -9.94999981       1.69800302E-07
  -9.93999958       1.75311598E-07
  -9.93000031       1.81288229E-07
  -9.92000008       1.87785744E-07
  -9.90999985       1.94863219E-07
  -9.89999962       2.02573787E-07
  -9.89000034       2.10978712E-07
  -9.88000011       2.20112540E-07
  -9.86999989       2.29990192E-07
  -9.85999966       2.40650252E-07
  -9.85000038       2.52096697E-07
  -9.84000015       2.64349097E-07
  -9.82999992       2.77429280E-07
  -9.81999969       2.91361118E-07
  -9.81000042       3.06164679E-07
  -9.80000019       3.21884215E-07
  -9.78999996       3.38542748E-07
  -9.77999973       3.56166936E-07
  -9.77000046       3.74772725E-07
  -9.76000023       3.94379668E-07
  -9.75000000       4.14962074E-07
  -9.73999977       4.36507236E-07
  -9.72999954       4.58980395E-07
  -9.72000027       4.82350458E-07
  -9.71000004       5.06553533E-07
  -9.69999981       5.31534170E-07
  -9.68999958       5.57230635E-07
  -9.68000031       5.83542430E-07
  -9.67000008       6.10381846E-07
  -9.65999985       6.37606490E-07
  -9.64999962       6.65095399E-07
  -9.64000034       6.92679919E-07
  -9.63000011       7.20180878E-07
  -9.61999989       7.47428089E-07
  -9.60999966       7.74218790E-07
  -9.60000038       8.00328621E-07
  -9.59000015       8.25562324E-07
  -9.57999992       8.49717196E-07
  -9.56999969       8.72576209E-07
  -9.56000042       8.93956098E-07
  -9.55000019       9.13664849E-07
  -9.53999996       9.31528291E-07
  -9.52999973       9.47416538E-07
  -9.52000046       9.61206183E-07
  -9.51000023       9.72761768E-07
  -9.50000000       9.81999165E-07
  -9.48999977       9.88847660E-07
  -9.47999954       9.93264166E-07
  -9.47000027       9.95221740E-07
  -9.46000004       9.94677634E-07
  -9.44999981       9.91658453E-07
  -9.43999958       9.86215696E-07
  -9.43000031       9.78473622E-07
  -9.42000008       9.68555355E-07
  -9.40999985       9.56658937E-07
  -9.39999962       9.43045166E-07
  -9.39000034       9.27984786E-07
  -9.38000011       9.11838299E-07
  -9.36999989       8.94895379E-07
  -9.35999966       8.77570187E-07
  -9.35000038       8.60186901E-07
  -9.34000015       8.43088969E-07
  -9.32999992       8.26647010E-07
  -9.31999969       8.11188045E-07
  -9.31000042       7.97083032E-07
  -9.30000019       7.84630231E-07
  -9.28999996       7.74183832E-07
  -9.27999973       7.66073697E-07
  -9.27000046       7.60594730E-07
  -9.26000023       7.58067472E-07
  -9.25000000       7.58759427E-07
  -9.23999977       7.62936395E-07
  -9.22999954       7.70776580E-07
  -9.22000027       7.82502013E-07
  -9.21000004       7.98270435E-07
  -9.19999981       8.18206843E-07
  -9.18999958       8.42418046E-07
  -9.18000031       8.70949521E-07
  -9.17000008       9.03806267E-07
  -9.15999985       9.40957023E-07
  -9.14999962       9.82328970E-07
  -9.14000034       1.02774061E-06
  -9.13000011       1.07698838E-06
  -9.11999989       1.12978785E-06
  -9.10999966       1.18582784E-06
  -9.10000038       1.24472217E-06
  -9.09000015       1.30607475E-06
  -9.07999992       1.36943174E-06
  -9.06999969       1.43430100E-06
  -9.06000042       1.50023391E-06
  -9.05000019       1.56666442E-06
  -9.03999996       1.63310483E-06
  -9.02999973       1.69900693E-06
  -9.02000046       1.76385799E-06
  -9.01000023       1.82706833E-06
  -9.00000000       1.88812862E-06
  -8.98999977       1.94649306E-06
  -8.97999954       2.00160230E-06
  -8.97000027       2.05293372E-06
  -8.96000004       2.10000667E-06
  -8.94999981       2.14231909E-06
  -8.93999958       2.17937099E-06
  -8.93000031       2.21075652E-06
  -8.92000008       2.23609754E-06
  -8.90999985       2.25504436E-06
  -8.89999962       2.26727047E-06
  -8.89000034       2.27257669E-06
  -8.88000011       2.27080591E-06
  -8.86999989       2.26187558E-06
  -8.85999966       2.24571886E-06
  -8.85000038       2.22237873E-06
  -8.84000015       2.19186836E-06
  -8.82999992       2.15437331E-06
  -8.81999969       2.10996586E-06
  -8.81000042       2.05902393E-06
  -8.80000019       2.00179511E-06
  -8.78999996       1.93858045E-06
  -8.77999973       1.86980230E-06
  -8.77000046       1.79591927E-06
  -8.76000023       1.71745432E-06
  -8.75000000       1.63483821E-06
  -8.73999977       1.54868883E-06
  -8.72999954       1.45954073E-06
  -8.72000027       1.36790436E-06
  -8.71000004       1.27433020E-06
  -8.69999981       1.17941761E-06
  -8.68999958       1.08370045E-06
  -8.68000031       9.87733870E-07
  -8.67000008       8.91940886E-07
  -8.65999985       7.96862651E-07
  -8.64999962       7.02908494E-07
  -8.64000034       6.10401003E-07
  -8.63000011       5.19751950E-07
  -8.61999989       4.31130729E-07
  -8.60999966       3.44849667E-07
  -8.60000038       2.61092453E-07
  -8.59000015       1.80057157E-07
  -8.57999992       1.01914864E-07
  -8.56999969       2.67474487E-08
  -8.56000042      -4.52411797E-08
  -8.55000019      -1.13984918E-07
  -8.53999996      -1.79401823E-07
  -8.52999973      -2.41433099E-07
  -8.52000046      -3.00079819E-07
  -8.51000023      -3.55268782E-07
  -8.50000000      -4.07131495E-07
  -8.48999977      -4.55684784E-07
  -8.47999954      -5.00989074E-07
  -8.47000027      -5.43115107E-07
  -8.46000004      -5.82203427E-07
  -8.44999981      -6.18323440E-07
  -8.43999958      -6.51590653E-07
  -8.43000031      -6.82083225E-07
  -8.42000008      -7.09944516E-07
  -8.40999985      -7.35280423E-07
  -8.39999962      -7.58178032E-07
  -8.39000034      -7.78650929E-07
  -8.38000011      -7.96809104E-07
  -8.36999989      -8.12720259E-07
  -8.35999966      -8.26500752E-07
  -8.35000038      -8.38185713E-07
  -8.34000015      -8.47761612E-07
  -8.32999992      -8.55417966E-07
  -8.31999969      -8.61200078E-07
  -8.31000042      -8.65082768E-07
  -8.30000019      -8.67093661E-07
  -8.28999996      -8.67283347E-07
  -8.27999973      -8.65544905E-07
  -8.27000046      -8.61860826E-07
  -8.26000023      -8.56095596E-07
  -8.25000000      -8.48079935E-07
  -8.23999977      -8.37685491E-07
  -8.22999954      -8.24880885E-07
  -8.22000027      -8.09431242E-07
  -8.21000004      -7.91215143E-07
  -8.19999981      -7.70132260E-07
  -8.18999958      -7.46055775E-07
  -8.18000031      -7.18880017E-07
  -8.17000008      -6.88360615E-07
  -8.15999985      -6.54453004E-07
  -8.14999962      -6.17021612E-07
  -8.14000034      -5.75969580E-07
  -8.13000011      -5.31173669E-07
  -8.11999989      -4.82545033E-07
  -8.10999966      -4.30148333E-07
  -8.10000038      -3.73988428E-07
  -8.09000015      -3.14059264E-07
  -8.07999992      -2.50398472E-07
  -8.06999969      -1.83047135E-07
  -8.06000042      -1.12214423E-07
  -8.05000019      -3.80773457E-08
  -8.03999996       3.93599073E-08
  -8.02999973       1.19582737E-07
  -8.02000046       2.02364077E-07
  -8.01000023       2.87202056E-07
  -8.00000000       3.73834240E-07
  -7.98999977       4.61821770E-07
  -7.98000002       5.50634866E-07
  -7.96999979       6.39875907E-07
  -7.96000004       7.29078863E-07
  -7.94999981       8.17819796E-07
  -7.94000006       9.05660215E-07
  -7.92999983       9.92224500E-07
  -7.92000008       1.07710423E-06
  -7.90999985       1.15995147E-06
  -7.90000010       1.24050837E-06
  -7.88999987       1.31826732E-06
  -7.88000011       1.39311567E-06
  -7.86999989       1.46469824E-06
  -7.86000013       1.53271151E-06
  -7.84999990       1.59703222E-06
  -7.84000015       1.65737424E-06
  -7.82999992       1.71356635E-06
  -7.82000017       1.76536491E-06
  -7.80999994       1.81257076E-06
  -7.80000019       1.85520321E-06
  -7.78999996       1.89299715E-06
  -7.78000021       1.92593734E-06
  -7.76999998       1.95393682E-06
  -7.76000023       1.97708346E-06
  -7.75000000       1.99540727E-06
  -7.73999977       2.00898330E-06
  -7.73000002       2.01785065E-06
  -7.71999979       2.02219439E-06
  -7.71000004       2.02205388E-06
  -7.69999981       2.01754528E-06
  -7.69000006       2.00900058E-06
  -7.67999983       1.99660030E-06
  -7.67000008       1.98058638E-06
  -7.65999985       1.96094516E-06
  -7.65000010       1.93813298E-06
  -7.63999987       1.91251979E-06
  -7.63000011       1.88416493E-06
  -7.61999989       1.85359795E-06
  -7.61000013       1.82108795E-06
  -7.59999990       1.78701430E-06
  -7.59000015       1.75176467E-06
  -7.57999992       1.71573515E-06
  -7.57000017       1.67928340E-06
  -7.55999994       1.64272649E-06
  -7.55000019       1.60657692E-06
  -7.53999996       1.57104944E-06
  -7.53000021       1.53656026E-06
  -7.51999998       1.50344067E-06
  -7.51000023       1.47207595E-06
  -7.50000000       1.44254454E-06
  -7.48999977       1.41541659E-06
  -7.48000002       1.39090957E-06
  -7.46999979       1.36945732E-06
  -7.46000004       1.35117421E-06
  -7.44999981       1.33647211E-06
  -7.44000006       1.32563707E-06