  -16.0000000       0.00000000    
  -15.9899998       0.00000000    
  -15.9799995       0.00000000    
  -15.9700003       0.00000000    
  -15.9600000       0.00000000    
  -15.9499998       0.00000000    
  -15.9399996       0.00000000    
  -15.9300003       0.00000000    
  -15.9200001       0.00000000    
  -15.9099998       0.00000000    
  -15.8999996       0.00000000    
  -15.8900003       0.00000000    
  -15.8800001       2.80259693E-45
  -15.8699999       3.04081767E-43
  -15.8599997       9.93240352E-42
  -15.8500004       1.76480930E-40
  -15.8400002       2.09448018E-39
  -15.8299999       1.85008448E-38
  -15.8199997       1.29741460E-37
  -15.8100004       7.53287025E-37
  -15.8000002       3.72736172E-36
  -15.7900000       1.60479803E-35
  -15.7799997       6.10452354E-35
  -15.7700005       2.07501569E-34
  -15.7600002       6.35541123E-34
  -15.7500000       1.76418670E-33
  -15.7399998       4.45398116E-33
  -15.7299995       1.02384000E-32
  -15.7200003       2.13890983E-32
  -15.7100000       4.03619151E-32
  -15.6999998       6.78724032E-32
  -15.6899996       9.87690791E-32
  -15.6800003       1.15518169E-31
  -15.6700001       8.11313506E-32
  -15.6599998      -6.29188288E-32
  -15.6499996      -3.83719442E-31
  -15.6400003      -9.16538588E-31
  -15.6300001      -1.59032443E-30
  -15.6199999      -2.13218670E-30
  -15.6099997      -2.00008333E-30
  -15.6000004      -4.35458967E-31
  -15.5900002       3.25218173E-30
  -15.5799999       9.10426130E-30
  -15.5699997       1.57292624E-29
  -15.5600004       1.96779063E-29
  -15.5500002       1.56241909E-29
  -15.5400000      -1.91219077E-30
  -15.5299997      -3.49585114E-29
  -15.5200005      -7.73223437E-29
  -15.5100002      -1.10989874E-28
  -15.5000000      -1.07418237E-28
  -15.4899998      -3.73703504E-29
  -15.4799995       1.09999693E-28
  -15.4700003       3.04328204E-28
  -15.4600000       4.60748935E-28
  -15.4499998       4.54008999E-28
  -15.4399996       1.72946872E-28
  -15.4300003      -3.90991825E-28
  -15.4200001      -1.05891220E-27
  -15.4099998      -1.45068766E-27
  -15.3999996      -1.11262880E-27
  -15.3900003       1.92826778E-28
  -15.3800001       2.12513755E-27
  -15.3699999       3.55833122E-27
  -15.3599997       2.83428787E-27
  -15.3500004      -1.31202581E-27
  -15.3400002      -8.29415289E-27
  -15.3299999      -1.43811130E-26
  -15.3199997      -1.27863275E-26
  -15.3100004       3.61328416E-27
  -15.3000002       3.66007548E-26
  -15.2900000       7.56822491E-26
  -15.2799997       9.41598983E-26
  -15.2700005       5.41452124E-26
  -15.2600002      -7.48689519E-26
  -15.2500000      -2.85207508E-25
  -15.2399998      -4.99602177E-25
  -15.2299995      -5.61721325E-25
  -15.2200003      -2.75459800E-25
  -15.2100000       4.91336493E-25
  -15.1999998       1.65480989E-24
  -15.1899996       2.77837974E-24
  -15.1800003       3.05875235E-24
  -15.1700001       1.54880868E-24
  -15.1599998      -2.33323835E-24
  -15.1499996      -8.10936783E-24
  -15.1400003      -1.36671430E-23
  -15.1300001      -1.52761573E-23
  -15.1199999      -8.65645707E-24
  -15.1099997       8.75561136E-24
  -15.1000004       3.48486941E-23
  -15.0900002       6.05114438E-23
  -15.0799999       6.98692021E-23
  -15.0699997       4.48509581E-23
  -15.0600004      -2.55187683E-23
  -15.0500002      -1.33319298E-22
  -15.0400000      -2.42758577E-22
  -15.0299997      -2.91427685E-22
  -15.0200005      -2.08220581E-22
  -15.0100002       5.11621799E-23
  -15.0000000       4.60051058E-22
  -14.9899998       8.88087440E-22
  -14.9799995       1.10677210E-21
  -14.9700003       8.55424711E-22
  -14.9600000      -3.11047571E-23
  -14.9499998      -1.46675460E-21
  -14.9399996      -3.00236634E-21
  -14.9300003      -3.84980156E-21
  -14.9200001      -3.11405773E-21
  -14.9099998      -2.30776727E-22
  -14.8999996       4.51293788E-21
  -14.8900003       9.61960161E-21
  -14.8800001       1.24871573E-20
  -14.8699999       1.02017049E-20
  -14.8599997       9.82730049E-22
  -14.8500004      -1.41445655E-20
  -14.8400002      -3.02579663E-20
  -14.8299999      -3.89876137E-20
  -14.8199997      -3.11632961E-20
  -14.8100004      -1.46648197E-21
  -14.8000002       4.63449522E-20
  -14.7900000       9.62246153E-20
  -14.7799997       1.21598187E-19
  -14.7700005       9.39934636E-20
  -14.7600002      -2.28853835E-21
  -14.7500000      -1.54103632E-19
  -14.7399998      -3.10049472E-19
  -14.7299995      -3.86655057E-19
  -14.7200003      -2.95615791E-19
  -14.7100000       1.09049450E-20
  -14.6999998       4.91358209E-19
  -14.6899996       9.86665171E-19
  -14.6800003       1.23947545E-18
  -14.6700001       9.76613479E-19
  -14.6599998       4.53813967E-20
  -14.6499996      -1.43925043E-18
  -14.6400003      -3.00830700E-18
  -14.6300001      -3.89131196E-18
  -14.6199999      -3.25420959E-18
  -14.6099997      -5.97122142E-19
  -14.6000004       3.80981399E-18
  -14.5900002       8.65729545E-18
  -14.5799999       1.17188985E-17
  -14.5699997       1.05039505E-17
  -14.5600004       3.38148581E-18
  -14.5500002      -9.15353847E-18
  -14.5400000      -2.36376952E-17
  -14.5299997      -3.38562808E-17
  -14.5200005      -3.25429231E-17
  -14.5100002      -1.44550457E-17
  -14.5000000       2.00153290E-17
  -14.4899998       6.22096267E-17
  -14.4799995       9.53217395E-17
  -14.4700003       9.85518268E-17
  -14.4600000       5.52375828E-17
  -14.4499998      -3.70402545E-17
  -14.4399996      -1.58284690E-16
  -14.4300003      -2.64670215E-16
  -14.4200001      -2.97774803E-16
  -14.4099998      -2.05138701E-16
  -14.3999996       3.21692658E-17
  -14.3900003       3.74550187E-16
  -14.3800001       7.14197746E-16
  -14.3699999       8.92268318E-16
  -14.3599997       7.47364857E-16
  -14.3500004       1.87609897E-16
  -14.3400002      -7.35462244E-16
  -14.3299999      -1.78335735E-15
  -14.3199997      -2.55017353E-15
  -14.3100004      -2.56448415E-15
  -14.3000002      -1.46500722E-15
  -14.2900000       7.93912705E-16
  -14.2799997       3.78243367E-15
  -14.2700005       6.56824414E-15
  -14.2600002       7.88968415E-15
  -14.2500000       6.53958902E-15
  -14.2399998       1.88724277E-15
  -14.2299995      -5.62018346E-15
  -14.2200003      -1.41893265E-14
  -14.2100000      -2.08467903E-14
  -14.1999998      -2.21433742E-14
  -14.1899996      -1.53251825E-14
  -14.1800003       3.11262797E-16
  -14.1700001       2.23403703E-14
  -14.1599998       4.49265089E-14
  -14.1499996       5.97435716E-14
  -14.1400003       5.81816360E-14
  -14.1300001       3.44685184E-14
  -14.1199999      -1.11380724E-14
  -14.1099997      -7.02525535E-14
  -14.1000004      -1.26508531E-13
  -14.0900002      -1.58663786E-13
  -14.0799999      -1.46530317E-13
  -14.0699997      -7.85338320E-14
  -14.0600004       4.12667167E-14
  -14.0500002       1.89358064E-13
  -14.0400000       3.24515127E-13
  -14.0299997       3.96244344E-13
  -14.0200005       3.59080495E-13
  -14.0100002       1.89613624E-13
  -14.0000000      -9.87338602E-14
  -13.9899998      -4.48845063E-13
  -13.9799995      -7.65575591E-13
  -13.9700003      -9.35670053E-13
  -13.9600000      -8.59385642E-13
  -13.9499998      -4.86707517E-13
  -13.9399996       1.52367756E-13
  -13.9300003       9.34893764E-13
  -13.9200001       1.65814053E-12
  -13.9099998       2.08153113E-12
  -13.8999996       1.99148120E-12
  -13.8900003       1.27455772E-12
  -13.8800001      -2.17929566E-14
  -13.8699999      -1.66284770E-12
  -13.8599997      -3.25090389E-12
  -13.8500004      -4.30479524E-12
  -13.8400002      -4.38320127E-12
  -13.8299999      -3.22444285E-12
  -13.8199997      -8.64417479E-13
  -13.8100004       2.30718548E-12
  -13.8000002       5.58213371E-12
  -13.7900000       8.06881211E-12
  -13.7799997       8.90776862E-12
  -13.7700005       7.52058745E-12
  -13.7600002       3.82636804E-12
  -13.7500000      -1.64233004E-12
  -13.7399998      -7.77493174E-12
  -13.7299995      -1.30852395E-11
  -13.7200003      -1.60504960E-11
  -13.7100000      -1.55129156E-11
  -13.6999998      -1.10405088E-11
  -13.6899996      -3.14120323E-12
  -13.6800003       6.74756778E-12
  -13.6700001       1.65172841E-11
  -13.6599998       2.38500487E-11
  -13.6499996       2.67763520E-11
  -13.6400003       2.41845710E-11
  -13.6300001       1.61404275E-11
  -13.6199999       3.92019793E-12
  -13.6099997      -1.02596733E-11
  -13.6000004      -2.37447562E-11
  -13.5900002      -3.40329917E-11
  -13.5799999      -3.92813178E-11
  -13.5699997      -3.85858602E-11
  -13.5600004      -3.19738576E-11
  -13.5500002      -2.01544718E-11
  -13.5400000      -4.17345498E-12
  -13.5299997       1.48368141E-11
  -13.5200005       3.56529042E-11
  -13.5100002       5.66550140E-11
  -13.5000000       7.53376042E-11
  -13.4899998       8.79081252E-11
  -13.4799995       8.93256580E-11
  -13.4700003       7.40777856E-11
  -13.4600000       3.77890011E-11
  -13.4499998      -2.05703215E-11
  -13.4399996      -9.64573144E-11
  -13.4300003      -1.78352916E-10
  -13.4200001      -2.48054244E-10
  -13.4099998      -2.83266438E-10
  -13.3999996      -2.62524835E-10
  -13.3900003      -1.71709508E-10
  -13.3800001      -1.06551113E-11
  -13.3699999       2.02142164E-10
  -13.3599997       4.28726915E-10
  -13.3500004       6.16187157E-10
  -13.3400002       7.06645353E-10
  -13.3299999       6.51365906E-10
  -13.3199997       4.26060076E-10
  -13.3100004       4.34324833E-11
  -13.3000002      -4.41132214E-10
  -13.2900000      -9.33843003E-10
  -13.2799997      -1.31776623E-09
  -13.2700005      -1.47732937E-09
  -13.2600002      -1.32748690E-09
  -13.2500000      -8.40875147E-10
  -13.2399998      -6.55946200E-11
  -13.2299995       8.72564687E-10
  -13.2200003       1.78666837E-09
  -13.2100000       2.46287191E-09
  -13.1999998       2.70664313E-09
  -13.1899996       2.39143483E-09
  -13.1800003       1.49835888E-09
  -13.1700001       1.36105460E-10
  -13.1599998      -1.46616419E-09
  -13.1499996      -2.99457237E-09
  -13.1400003      -4.10989998E-09
  -13.1300001      -4.51941107E-09
  -13.1199999      -4.04596401E-09
  -13.1099997      -2.67848432E-09
  -13.1000004      -5.90821059E-10
  -13.0900002       1.87774285E-09
  -13.0799999       4.27880531E-09
  -13.0699997       6.13804252E-09
  -13.0600004       7.04872560E-09
  -13.0500002       6.75587541E-09
  -13.0400000       5.21268273E-09
  -13.0299997       2.59649835E-09
  -13.0200005      -7.19528659E-10
  -13.0100002      -4.23301527E-09
  -13.0000000      -7.40218331E-09
  -12.9899998      -9.73874492E-09
  -12.9799995      -1.08832472E-08
  -12.9700003      -1.06473186E-08
  -12.9600000      -9.01653596E-09
  -12.9499998      -6.11896223E-09
  -12.9399996      -2.17458895E-09
  -12.9300003       2.55298382E-09
  -12.9200001       7.78182940E-09
  -12.9099998       1.32007933E-08
  -12.8999996       1.84229751E-08
  -12.8900003       2.29204495E-08
  -12.8800001       2.59712518E-08
  -12.8699999       2.66565774E-08
  -12.8599997       2.39420626E-08
  -12.8500004       1.68599819E-08
  -12.8400002       4.78193840E-09
  -12.8299999      -1.22608954E-08
  -12.8199997      -3.32820811E-08
  -12.8100004      -5.61571127E-08
  -12.8000002      -7.76386457E-08
  -12.7900000      -9.36270368E-08
  -12.7799997      -9.97052254E-08
  -12.7700005      -9.18858092E-08
  -12.7600002      -6.74578047E-08
  -12.7500000      -2.57775756E-08
  -12.7399998       3.11652961E-08
  -12.7299995       9.85517374E-08
  -12.7200003       1.68991022E-07
  -12.7100000       2.33232555E-07
  -12.6999998       2.81241000E-07
  -12.6899996       3.03470500E-07
  -12.6800003       2.92136150E-07
  -12.6700001       2.42288991E-07
  -12.6599998       1.52555458E-07
  -12.6499996       2.54846366E-08
  -12.6400003      -1.32461807E-07
  -12.6300001      -3.11177274E-07
  -12.6199999      -4.97308406E-07
  -12.6099997      -6.74688636E-07
  -12.6000004      -8.24786696E-07
  -12.5900002      -9.27246958E-07
  -12.5799999      -9.60686748E-07
  -12.5699997      -9.03952241E-07
  -12.5600004      -7.38003166E-07
  -12.5500002      -4.48481444E-07
  -12.5400000      -2.88457009E-08
  -12.5299997       5.16244540E-07
  -12.5200005       1.16778403E-06
  -12.5100002       1.89010007E-06
  -12.5000000       2.62991443E-06
  -12.4899998       3.31722936E-06
  -12.4799995       3.86821148E-06
  -12.4700003       4.18998798E-06
  -12.4600000       4.18695618E-06
  -12.4499998       3.76801495E-06
  -12.4399996       2.85399074E-06
  -12.4300003       1.38457142E-06
  -12.4200001      -6.75838351E-07
  -12.4099998      -3.33371327E-06
  -12.3999996      -6.56366183E-06
  -12.3900003      -1.03073362E-05
  -12.3800001      -1.44739097E-05
  -12.3699999      -1.89420443E-05
  -12.3599997      -2.35632178E-05
  -12.3500004      -2.81664252E-05
  -12.3400002      -3.25641449E-05
  -12.3299999      -3.65596206E-05
  -12.3199997      -3.99551973E-05
  -12.3100004      -4.25615108E-05
  -12.3000002      -4.42069904E-05
  -12.2900000      -4.47471939E-05
  -12.2799997      -4.40732183E-05
  -12.2700005      -4.21187069E-05
  -12.2600002      -3.88647422E-05
  -12.2500000      -3.43423890E-05
  -12.2399998      -2.86325158E-05
  -12.2299995      -2.18629375E-05
  -12.2200003      -1.42028894E-05
  -12.2100000      -5.85506541E-06
  -12.1999998       2.95436439E-06
  -12.1899996       1.19873548E-05
  -12.1800003       2.10064118E-05
  -12.1700001       2.97871193E-05
  -12.1599998       3.81297032E-05
  -12.1499996       4.58687464E-05
  -12.1400003       5.28799574E-05
  -12.1300001       5.90834861E-05
  -12.1199999       6.44433094E-05
  -12.1099997       6.89628505E-05
  -12.1000004       7.26773869E-05
  -12.0900002       7.56441950E-05
  -12.0799999       7.79315378E-05
  -12.0699997       7.96077220E-05
  -12.0600004       8.07313263E-05
  -12.0500002       8.13432780E-05
  -12.0400000       8.14615123E-05
  -12.0299997       8.10781712E-05
  -12.0200005       8.01595888E-05
  -12.0100002       7.86489545E-05
  -12.0000000       7.64713695E-05
  -11.9899998       7.35412832E-05
  -11.9799995       6.97717624E-05
  -11.9700003       6.50851434E-05
  -11.9600000       5.94239718E-05
  -11.9499998       5.27615121E-05
  -11.9399996       4.51100277E-05
  -11.9300003       3.65259366E-05
  -11.9200001       2.71106765E-05
  -11.9099998       1.70069725E-05
  -11.8999996       6.39072869E-06
  -11.8900003      -4.54057272E-06
  -11.8800001      -1.55813486E-05
  -11.8699999      -2.65315448E-05
  -11.8599997      -3.72087197E-05
  -11.8500004      -4.74572007E-05
  -11.8400002      -5.71535093E-05
  -11.8299999      -6.62079474E-05
  -11.8199997      -7.45627767E-05
  -11.8100004      -8.21876529E-05
  -11.8000002      -8.90732117E-05
  -11.7900000      -9.52236296E-05
  -11.7799997      -1.00649035E-04
  -11.7700005      -1.05358064E-04
  -11.7600002      -1.09351429E-04
  -11.7500000      -1.12617170E-04
  -11.7399998      -1.15128045E-04
  -11.7299995      -1.16841977E-04
  -11.7200003      -1.17705844E-04
  -11.7100000      -1.17662406E-04
  -11.6999998      -1.16659758E-04
  -11.6899996      -1.14661481E-04
  -11.6800003      -1.11655871E-04
  -11.6700001      -1.07661792E-04
  -11.6599998      -1.02729748E-04
  -11.6499996      -9.69372923E-05
  -11.6400003      -9.03794426E-05
  -11.6300001      -8.31558064E-05
  -11.6199999      -7.53571367E-05
  -11.6099997      -6.70545851E-05
  -11.6000004      -5.82937901E-05
  -11.5900002      -4.90958118E-05
  -11.5799999      -3.94643212E-05
  -11.5699997      -2.93975918E-05
  -11.5600004      -1.89023613E-05
  -11.5500002      -8.00627913E-06
  -11.5400000       3.23417521E-06
  -11.5299997       1.47318842E-05
  -11.5200005       2.63737129E-05
  -11.5100002       3.80301681E-05
  -11.5000000       4.95675704E-05
  -11.4899998       6.08597147E-05
  -11.4799995       7.17963630E-05
  -11.4700003       8.22870934E-05
  -11.4600000       9.22603285E-05
  -11.4499998       1.01658356E-04
  -11.4399996       1.10430941E-04
  -11.4300003       1.18529060E-04
  -11.4200001       1.25901264E-04
  -11.4099998       1.32493151E-04
  -11.3999996       1.38250092E-04
  -11.3900003       1.43122263E-04
  -11.3800001       1.47069892E-04
  -11.3699999       1.50068241E-04
  -11.3599997       1.52110326E-04
  -11.3500004       1.53207468E-04
  -11.3400002       1.53388479E-04
  -11.3299999       1.52697437E-04
  -11.3199997       1.51191707E-04
  -11.3100004       1.48940337E-04
  -11.3000002       1.46023085E-04
  -11.2900000       1.42529650E-04
  -11.2799997       1.38558025E-04
  -11.2700005       1.34211776E-04
  -11.2600002       1.29595355E-04
  -11.2500000       1.24808081E-04
  -11.2399998       1.19937446E-04
  -11.2299995       1.15052666E-04
  -11.2200003       1.10200286E-04
  -11.2100000       1.05402432E-04
  -11.1999998       1.00657693E-04
  -11.1899996       9.59454046E-05
  -11.1800003       9.12318865E-05
  -11.1700001       8.64776739E-05
  -11.1599998       8.16454340E-05
  -11.1499996       7.67076053E-05
  -11.1400003       7.16532086E-05
  -11.1300001       6.64942563E-05
  -11.1199999       6.12711810E-05
  -11.1099997       5.60564440E-05
  -11.1000004       5.09560232E-05
  -11.0900002       4.61068266E-05
  -11.0799999       4.16697076E-05
  -11.0699997       3.78167570E-05
  -11.0600004       3.47142341E-05
  -11.0500002       3.25024375E-05
  -11.0400000       3.12756929E-05
  -11.0299997       3.10662181E-05
  -11.0200005       3.18349448E-05
  -11.0100002       3.34720607E-05
  -11.0000000       3.58076613E-05
  -10.9899998       3.86311767E-05
  -10.9799995       4.17164083E-05
  -10.9700003       4.48477476E-05
  -10.9600000       4.78428410E-05
  -10.9499998       5.05683602E-05
  -10.9399996       5.29466597E-05
  -10.9300003       5.49530159E-05
  -10.9200001       5.66054405E-05
  -10.9099998       5.79495354E-05
  -10.8999996       5.90415329E-05
  -10.8900003       5.99322957E-05
  -10.8800001       6.06540489E-05
  -10.8699999       6.12110161E-05
  -10.8599997       6.15739627E-05
  -10.8500004       6.16793477E-05
  -10.8400002       6.14325181E-05
  -10.8299999       6.07157926E-05
  -10.8199997       5.94009034E-05
  -10.8100004       5.73657017E-05
  -10.8000002       5.45131079E-05
  -10.7900000       5.07898985E-05
  -10.7799997       4.62015996E-05
  -10.7700005       4.08201486E-05
  -10.7600002       3.47815039E-05
  -10.7500000       2.82726869E-05
  -10.7399998       2.15100335E-05
  -10.7299995       1.47123683E-05
  -10.7200003       8.07481956E-06
  -10.7100000       1.74883962E-06
  -10.6999998      -4.16803323E-06
  -10.6899996      -9.63049024E-06
  -10.6800003      -1.46337134E-05
  -10.6700001      -1.91954514E-05
  -10.6599998      -2.33371811E-05
  -10.6499996      -2.70692508E-05
  -10.6400003      -3.03833294E-05
  -10.6300001      -3.32527452E-05
  -10.6199999      -3.56387573E-05
  -10.6099997      -3.74995288E-05
  -10.6000004      -3.87972905E-05
  -10.5900002      -3.95014104E-05
  -10.5799999      -3.95864045E-05
  -10.5699997      -3.90262030E-05
  -10.5600004      -3.77876640E-05
  -10.5500002      -3.58268662E-05
  -10.5400000      -3.30903385E-05
  -10.5299997      -2.95222508E-05
  -10.5200005      -2.50758076E-05
  -10.5100002      -1.97262289E-05
  -10.5000000      -1.34816273E-05
  -10.4899998      -6.38915526E-06
  -10.4799995       1.46483785E-06
  -10.4700003       9.96011477E-06
  -10.4600000       1.89514813E-05
  -10.4499998       2.82790479E-05
  -10.4399996       3.77776523E-05
  -10.4300003       4.72845386E-05
  -10.4200001       5.66455492E-05
  -10.4099998       6.57205601E-05
  -10.3999996       7.43884302E-05
  -10.3900003       8.25520547E-05
  -10.3800001       9.01420062E-05
  -10.3699999       9.71172776E-05
  -10.3599997       1.03461891E-04
  -10.3500004       1.09176661E-04
  -10.3400002       1.14267765E-04
  -10.3299999       1.18734941E-04
  -10.3199997       1.22562880E-04
  -10.3100004       1.25719147E-04
  -10.3000002       1.28160478E-04
  -10.2900000       1.29845488E-04
  -10.2799997       1.30750501E-04
  -10.2700005       1.30883607E-04
  -10.2600002       1.30291024E-04
  -10.2500000       1.29054009E-04
  -10.2399998       1.27275736E-04
  -10.2299995       1.25062652E-04
  -10.2200003       1.22505575E-04
  -10.2100000       1.19667508E-04
  -10.1999998       1.16581672E-04
  -10.1899996       1.13261682E-04
  -10.1800003       1.09719418E-04
  -10.1700001       1.05985237E-04
  -10.1599998       1.02123755E-04
  -10.1499996       9.82387428E-05
  -10.1400003       9.44658750E-05
  -10.1300001       9.09549708E-05
  -10.1199999       8.78471983E-05
  -10.1099997       8.52544035E-05
  -10.1000004       8.32458973E-05
  -10.0900002       8.18465414E-05
  -10.0799999       8.10443235E-05
  -10.0699997       8.08044279E-05
  -10.0600004       8.10825150E-05
  -10.0500002       8.18339904E-05
  -10.0400000       8.30147255E-05
  -10.0299997       8.45766190E-05
  -10.0200005       8.64591857E-05
  -10.0100002       8.85847548E-05
  -10.0000000       9.08599468E-05
  -9.98999977       9.31857139E-05
  -9.97999954       9.54738207E-05
  -9.97000027       9.76651500E-05
  -9.96000004       9.97445459E-05
  -9.94999981       1.01746249E-04
  -9.93999958       1.03749393E-04
  -9.93000031       1.05862928E-04
  -9.92000008       1.08206084E-04
  -9.90999985       1.10887995E-04
  -9.89999962       1.13992595E-04
  -9.89000034       1.17570846E-04
  -9.88000011       1.21640151E-04
  -9.86999989       1.26188446E-04
  -9.85999966       1.31180015E-04
  -9.85000038       1.36560731E-04
  -9.84000015       1.42260949E-04
  -9.82999992       1.48198495E-04
  -9.81999969       1.54283305E-04
  -9.81000042       1.60425479E-04
  -9.80000019       1.66548722E-04
  -9.78999996       1.72604981E-04
  -9.77999973       1.78588758E-04
  -9.77000046       1.84543998E-04
  -9.76000023       1.90561492E-04
  -9.75000000       1.96766152E-04
  -9.73999977       2.03294636E-04
  -9.72999954       2.10269791E-04
  -9.72000027       2.17777750E-04
  -9.71000004       2.25852724E-04
  -9.69999981       2.34472551E-04
  -9.68999958       2.43564209E-04
  -9.68000031       2.53015663E-04
  -9.67000008       2.62689224E-04
  -9.65999985       2.72431149E-04
  -9.64999962       2.82076857E-04
  -9.64000034       2.91450619E-04
  -9.63000011       3.00363463E-04
  -9.61999989       3.08613176E-04
  -9.60999966       3.15990270E-04
  -9.60000038       3.22289561E-04
  -9.59000015       3.27326794E-04
  -9.57999992       3.30955751E-04
  -9.56999969       3.33080679E-04
  -9.56000042       3.33660602E-04
  -9.55000019       3.32704338E-04
  -9.53999996       3.30256706E-04
  -9.52999973       3.26380890E-04
  -9.52000046       3.21142928E-04
  -9.51000023       3.14599893E-04
  -9.50000000       3.06797912E-04
  -9.48999977       2.97777267E-04
  -9.47999954       2.87583622E-04
  -9.47000027       2.76281673E-04
  -9.46000004       2.63966242E-04
  -9.44999981       2.50769022E-04
  -9.43999958       2.36859254E-04
  -9.43000031       2.22440140E-04
  -9.42000008       2.07739999E-04
  -9.40999985       1.93001615E-04
  -9.39999962       1.78472663E-04
  -9.39000034       1.64395926E-04
  -9.38000011       1.51001601E-04
  -9.36999989       1.38502422E-04
  -9.35999966       1.27090301E-04
  -9.35000038       1.16935633E-04
  -9.34000015       1.08188637E-04
  -9.32999992       1.00981750E-04
  -9.31999969       9.54325951E-05
  -9.31000042       9.16465724E-05
  -9.30000019       8.97183563E-05
  -9.28999996       8.97312784E-05
  -9.27999973       9.17562647E-05
  -9.27000046       9.58497258E-05
  -9.26000023       1.02051068E-04
  -9.25000000       1.10381305E-04
  -9.23999977       1.20842378E-04
  -9.22999954       1.33415349E-04
  -9.22000027       1.48057836E-04
  -9.21000004       1.64699173E-04
  -9.19999981       1.83234704E-04
  -9.18999958       2.03519521E-04
  -9.18000031       2.25364929E-04
  -9.17000008       2.48539582E-04
  -9.15999985       2.72776640E-04
  -9.14999962       2.97785416E-04
  -9.14000034       3.23266897E-04
  -9.13000011       3.48929461E-04
  -9.11999989       3.74498573E-04
  -9.10999966       3.99722136E-04
  -9.10000038       4.24366444E-04
  -9.09000015       4.48208593E-04
  -9.07999992       4.71027422E-04
  -9.06999969       4.92596184E-04
  -9.06000042       5.12683182E-04
  -9.05000019       5.31057012E-04
  -9.03999996       5.47498057E-04
  -9.02999973       5.61810273E-04
  -9.02000046       5.73835394E-04
  -9.01000023       5.83457411E-04
  -9.00000000       5.90606942E-04
  -8.98999977       5.95259306E-04
  -8.97999954       5.97433362E-04
  -8.97000027       5.97189821E-04
  -8.96000004       5.94631303E-04
  -8.94999981       5.89904957E-04
  -8.93999958       5.83201181E-04
  -8.93000031       5.74749371E-04
  -8.92000008       5.64808608E-04
  -8.90999985       5.53652993E-04
  -8.89999962       5.41554240E-04
  -8.89000034       5.28766017E-04
  -8.88000011       5.15513704E-04
  -8.86999989       5.01989911E-04
  -8.85999966       4.88356804E-04
  -8.85000038       4.74751549E-04
  -8.84000015       4.61293384E-04
  -8.82999992       4.48086357E-04
  -8.81999969       4.35220543E-04
  -8.81000042       4.22771584E-04
  -8.80000019       4.10800480E-04
  -8.78999996       3.99359007E-04
  -8.77999973       3.88500222E-04
  -8.77000046       3.78292374E-04
  -8.76000023       3.68832174E-04
  -8.75000000       3.60254053E-04
  -8.73999977       3.52728326E-04
  -8.72999954       3.46450572E-04
  -8.72000027       3.41622654E-04
  -8.71000004       3.38431739E-04
  -8.69999981       3.37033620E-04
  -8.68999958       3.37545003E-04
  -8.68000031       3.40044993E-04
  -8.67000008       3.44586297E-04
  -8.65999985       3.51203606E-04
  -8.64999962       3.59919155E-04
  -8.64000034       3.70738155E-04
  -8.63000011       3.83636303E-04
  -8.61999989       3.98541248E-04
  -8.60999966       4.15318500E-04
  -8.60000038       4.33765847E-04
  -8.59000015       4.53621353E-04
  -8.57999992       4.74583823E-04
  -8.56999969       4.96338238E-04
  -8.56000042       5.18579560E-04
  -8.55000019       5.41025831E-04
  -8.53999996       5.63417620E-04
  -8.52999973       5.85506030E-04
  -8.52000046       6.07035297E-04
  -8.51000023       6.27732195E-04
  -8.50000000       6.47303415E-04
  -8.48999977       6.65450527E-04
  -8.47999954       6.81893784E-04
  -8.47000027       6.96402858E-04
  -8.46000004       7.08820415E-04
  -8.44999981       7.19075033E-04
  -8.43999958       7.27180508E-04
  -8.43000031       7.33223394E-04
  -8.42000008       7.37348164E-04
  -8.40999985       7.39746378E-04
  -8.39999962       7.40652264E-04
  -8.39000034       7.40350282E-04
  -8.38000011       7.39178096E-04
  -8.36999989       7.37529597E-04
  -8.35999966       7.35839189E-04
  -8.35000038       7.34554545E-04
  -8.34000015       7.34097091E-04
  -8.32999992       7.34821253E-04
  -8.31999969       7.36982271E-04
  -8.31000042       7.40728690E-04
  -8.30000019       7.46111735E-04
  -8.28999996       7.53116561E-04
  -8.27999973       7.61694275E-04
  -8.27000046       7.71795516E-04
  -8.26000023       7.83379597E-04
  -8.25000000       7.96409207E-04
  -8.23999977       8.10828991E-04
  -8.22999954       8.26539297E-04
  -8.22000027       8.43383139E-04
  -8.21000004       8.61146196E-04
  -8.19999981       8.79579922E-04
  -8.18999958       8.98437575E-04
  -8.18000031       9.17513040E-04
  -8.17000008       9.36670869E-04
  -8.15999985       9.55852040E-04
  -8.14999962       9.75064118E-04
  -8.14000034       9.94352624E-04
  -8.13000011       1.01376988E-03
  -8.11999989       1.03334954E-03
  -8.10999966       1.05310243E-03
  -8.10000038       1.07302272E-03
  -8.09000015       1.09310646E-03
  -8.07999992       1.11336913E-03
  -8.06999969       1.13385043E-03
  -8.06000042       1.15460285E-03
  -8.05000019       1.17566297E-03
  -8.03999996       1.19701424E-03
  -8.02999973       1.21856004E-03
  -8.02000046       1.24010921E-03
  -8.01000023       1.26138714E-03
  -8.00000000       1.28206948E-03
  -7.98999977       1.30182307E-03
  -7.98000002       1.32035255E-03
  -7.96999979       1.33742555E-03
  -7.96000004       1.35288038E-03
  -7.94999981       1.36661262E-03
  -7.94000006       1.37854728E-03
  -7.92999983       1.38860906E-03
  -7.92000008       1.39670831E-03
  -7.90999985       1.40273920E-03
  -7.90000010       1.40660000E-03
  -7.88999987       1.40822341E-03
  -7.88000011       1.40760478E-03
  -7.86999989       1.40482222E-03
  -7.86000013       1.40003662E-03
  -7.84999990       1.39347196E-03
  -7.84000015       1.38538168E-03
  -7.82999992       1.37601700E-03
  -7.82000017       1.36560039E-03
  -7.80999994       1.35431741E-03
  -7.80000019       1.34232431E-03
  -7.78999996       1.32977415E-03
  -7.78000021       1.31684064E-03
  -7.76999998       1.30374054E-03
  -7.76000023       1.29073765E-03
  -7.75000000       1.27813232E-03
  -7.73999977       1.26623141E-03
  -7.73000002       1.25531864E-03
  -7.71999979       1.24562136E-03
  -7.71000004       1.23729475E-03
  -7.69999981       1.23042532E-03
  -7.69000006       1.22504553E-03
  -7.67999983       1.22116506E-03
  -7.67000008       1.21880125E-03
  -7.65999985       1.21799565E-03
  -7.65000010       1.21882348E-03
  -7.63999987       1.22137961E-03
  -7.63000011       1.22575916E-03
  -7.61999989       1.23202964E-03
  -7.61000013       1.24021305E-03
  -7.59999990       1.25028286E-03
  -7.59000015       1.26217515E-03
  -7.57999992       1.27581472E-03
  -7.57000017       1.29113835E-03
  -7.55999994       1.30812137E-03
  -7.55000019       1.32678682E-03
  -7.53999996       1.34719338E-03
  -7.53000021       1.36941252E-03
  -7.51999998       1.39349967E-03
  -7.51000023       1.41946878E-03
  -7.50000000       1.44727470E-03
  -7.48999977       1.47682417E-03
  -7.48000002       1.50798692E-03
  -7.46999979       1.54062954E-03
  -7.46000004       1.57463842E-03
  -7.44999981       1.60992634E-03
  -7.44000006       1.64643850E-03