  -16.0000000       0.00000000    
  -15.9899998       0.00000000    
  -15.9799995       0.00000000    
  -15.9700003       0.00000000    
  -15.9600000       0.00000000    
  -15.9499998       0.00000000    
  -15.9399996       0.00000000    
  -15.9300003       0.00000000    
  -15.9200001       0.00000000    
  -15.9099998       0.00000000    
  -15.8999996       0.00000000    
  -15.8900003       0.00000000    
  -15.8800001       0.00000000    
  -15.8699999       1.40129846E-44
  -15.8599997       5.22684327E-43
  -15.8500004       1.19642863E-41
  -15.8400002       1.71357783E-40
  -15.8299999       1.86210285E-39
  -15.8199997       1.62456889E-38
  -15.8100004       1.14906328E-37
  -15.8000002       6.73181989E-37
  -15.7900000       3.33577517E-36
  -15.7799997       1.42586087E-35
  -15.7700005       5.33921358E-35
  -15.7600002       1.77201400E-34
  -15.7500000       5.25495796E-34
  -15.7399998       1.39861346E-33
  -15.7299995       3.34155024E-33
  -15.7200003       7.12723457E-33
  -15.7100000       1.33645935E-32
  -15.6999998       2.12300378E-32
  -15.6899996       2.56964241E-32
  -15.6800003       1.30223674E-32
  -15.6700001      -4.41750248E-32
  -15.6599998      -1.87642094E-31
  -15.6499996      -4.60765903E-31
  -15.6400003      -8.70030389E-31
  -15.6300001      -1.31276059E-30
  -15.6199999      -1.48370540E-30
  -15.6099997      -8.14014133E-31
  -15.6000004       1.45165822E-30
  -15.5900002       5.90607294E-30
  -15.5799999       1.22811181E-29
  -15.5699997       1.85259159E-29
  -15.5600004       2.01384940E-29
  -15.5500002       1.05955939E-29
  -15.5400000      -1.61953661E-29
  -15.5299997      -6.11050747E-29
  -15.5200005      -1.13856404E-28
  -15.5100002      -1.49280527E-28
  -15.5000000      -1.30604640E-28
  -15.4899998      -2.37099174E-29
  -15.4799995       1.78629798E-28
  -15.4700003       4.32138957E-28
  -15.4600000       6.34090334E-28
  -15.4499998       6.52831992E-28
  -15.4399996       3.97945034E-28
  -15.4300003      -9.65744811E-29
  -15.4200001      -6.40138236E-28
  -15.4099998      -9.80134252E-28
  -15.3999996      -1.04884180E-27
  -15.3900003      -1.25727644E-27
  -15.3800001      -2.55541379E-27
  -15.3699999      -5.87867736E-27
  -15.3599997      -1.07636327E-26
  -15.3500004      -1.34977352E-26
  -15.3400002      -6.12385633E-27
  -15.3299999       2.14995535E-26
  -15.3199997       7.44821266E-26
  -15.3100004       1.40609341E-25
  -15.3000002       1.77847397E-25
  -15.2900000       1.12777170E-25
  -15.2799997      -1.34949671E-25
  -15.2700005      -5.91526955E-25
  -15.2600002      -1.13957288E-24
  -15.2500000      -1.44246855E-24
  -15.2399998      -9.61769256E-25
  -15.2299995       8.39506268E-25
  -15.2200003       4.06270308E-24
  -15.2100000       7.80075440E-24
  -15.1999998       9.73167448E-24
  -15.1899996       6.38080398E-24
  -15.1800003      -5.43526347E-24
  -15.1700001      -2.58529898E-23
  -15.1599998      -4.86435079E-23
  -15.1499996      -5.92856170E-23
  -15.1400003      -3.73099969E-23
  -15.1300001       3.45342415E-23
  -15.1199999       1.54315153E-22
  -15.1099997       2.83247160E-22
  -15.1000004       3.37601317E-22
  -15.0900002       2.05292657E-22
  -15.0799999      -2.01307521E-22
  -15.0699997      -8.59990764E-22
  -15.0600004      -1.55093134E-21
  -15.0500002      -1.82599211E-21
  -15.0400000      -1.10835750E-21
  -15.0299997       1.02910255E-21
  -15.0200005       4.43856594E-21
  -15.0100002       7.98460159E-21
  -15.0000000       9.43294395E-21
  -14.9899998       5.97375258E-21
  -14.9799995      -4.42784370E-21
  -14.9700003      -2.10450144E-20
  -14.9600000      -3.85302054E-20
  -14.9499998      -4.64873533E-20
  -14.9399996      -3.19104890E-20
  -14.9300003       1.47552801E-20
  -14.9200001       9.08648662E-20
  -14.9099998       1.73479730E-19
  -14.8999996       2.17437840E-19
  -14.8900003       1.65501974E-19
  -14.8800001      -2.64131193E-20
  -14.8699999      -3.52820474E-19
  -14.8599997      -7.24514522E-19
  -14.8500004      -9.58591695E-19
  -14.8400002      -8.16066355E-19
  -14.8299999      -9.93051845E-20
  -14.8199997       1.20462612E-18
  -14.8100004       2.78469547E-18
  -14.8000002       3.95285627E-18
  -14.7900000       3.76638535E-18
  -14.7799997       1.37616963E-18
  -14.7700005      -3.44075309E-18
  -14.7600002      -9.73590009E-18
  -14.7500000      -1.51211048E-17
  -14.7399998      -1.61033801E-17
  -14.7299995      -9.23021977E-18
  -14.7200003       7.05171969E-18
  -14.7100000       3.03621408E-17
  -14.6999998       5.31394755E-17
  -14.6899996       6.33169834E-17
  -14.6800003       4.77437102E-17
  -14.6700001      -1.75830495E-18
  -14.6599998      -8.12264958E-17
  -14.6499996      -1.69264129E-16
  -14.6400003      -2.27381230E-16
  -14.6300001      -2.09053171E-16
  -14.6199999      -7.79734856E-17
  -14.6099997       1.68305407E-16
  -14.6000004       4.77912294E-16
  -14.5900002       7.39070922E-16
  -14.5799999       8.00236653E-16
  -14.5699997       5.20200996E-16
  -14.5600004      -1.59623663E-16
  -14.5500002      -1.14315704E-15
  -14.5400000      -2.14176706E-15
  -14.5299997      -2.70589016E-15
  -14.5200005      -2.34716324E-15
  -14.5100002      -7.40801040E-16
  -14.5000000       2.04379267E-15
  -14.4899998       5.37471501E-15
  -14.4799995       8.05771516E-15
  -14.4700003       8.58654493E-15
  -14.4600000       5.65245457E-15
  -14.4499998      -1.18866579E-15
  -14.4399996      -1.09091940E-14
  -14.4300003      -2.07543672E-14
  -14.4200001      -2.66099703E-14
  -14.4099998      -2.41182518E-14
  -14.3999996      -1.04029249E-14
  -14.3900003       1.40549126E-14
  -14.3800001       4.41108569E-14
  -14.3699999       7.00114744E-14
  -14.3599997       7.93691081E-14
  -14.3500004       6.10592374E-14
  -14.3400002       1.02547407E-14
  -14.3299999      -6.69695283E-14
  -14.3199997      -1.51489119E-13
  -14.3100004      -2.13287883E-13
  -14.3000002      -2.18782186E-13
  -14.2900000      -1.42465792E-13
  -14.2799997       1.99951766E-14
  -14.2700005       2.41737077E-13
  -14.2600002       4.62769525E-13
  -14.2500000       5.99916709E-13
  -14.2399998       5.69247340E-13
  -14.2299995       3.17103982E-13
  -14.2200003      -1.48773314E-13
  -14.2100000      -7.39563142E-13
  -14.1999998      -1.28839409E-12
  -14.1899996      -1.58287478E-12
  -14.1800003      -1.42539680E-12
  -14.1700001      -7.08846556E-13
  -14.1599998       5.14256281E-13
  -14.1499996       1.99596676E-12
  -14.1400003       3.31388454E-12
  -14.1300001       3.95977999E-12
  -14.1199999       3.48641515E-12
  -14.1099997       1.67993711E-12
  -14.1000004      -1.29328828E-12
  -14.0900002      -4.82326158E-12
  -14.0799999      -7.92258360E-12
  -14.0699997      -9.43846477E-12
  -14.0600004      -8.38222720E-12
  -14.0500002      -4.30105083E-12
  -14.0400000       2.41807399E-12
  -14.0299997       1.04300553E-11
  -14.0200005       1.75882971E-11
  -14.0100002       2.14002843E-11
  -14.0000000       1.97163327E-11
  -13.9899998       1.14950124E-11
  -13.9799995      -2.57581890E-12
  -13.9700003      -1.98327604E-11
  -13.9600000      -3.59356433E-11
  -13.9499998      -4.57540568E-11
  -13.9399996      -4.47132747E-11
  -13.9300003      -3.03009874E-11
  -13.9200001      -3.31824889E-12
  -13.9099998       3.15591338E-11
  -13.8999996       6.62322766E-11
  -13.8900003       9.07371470E-11
  -13.8800001       9.56936475E-11
  -13.8699999       7.51241430E-11
  -13.8599997       2.89010257E-11
  -13.8500004      -3.59569145E-11
  -13.8400002      -1.05744725E-10
  -13.8299999      -1.62506689E-10
  -13.8199997      -1.88139823E-10
  -13.8100004      -1.69330633E-10
  -13.8000002      -1.02097837E-10
  -13.7900000       5.38748213E-12
  -13.7799997       1.32788988E-10
  -13.7700005       2.50875987E-10
  -13.7600002       3.27723654E-10
  -13.7500000       3.36630890E-10
  -13.7399998       2.63875005E-10
  -13.7299995       1.14208601E-10
  -13.7200003      -8.76863374E-11
  -13.7100000      -3.00703462E-10
  -13.6999998      -4.75476603E-10
  -13.6899996      -5.65602176E-10
  -13.6800003      -5.39335132E-10
  -13.6700001      -3.88769461E-10
  -13.6599998      -1.33922290E-10
  -13.6499996       1.79730689E-10
  -13.6400003       4.90063490E-10
  -13.6300001       7.31562644E-10
  -13.6199999       8.49843973E-10
  -13.6099997       8.13801804E-10
  -13.6000004       6.22307816E-10
  -13.5900002       3.03865155E-10
  -13.5799999      -9.03974118E-11
  -13.5699997      -4.98108388E-10
  -13.5600004      -8.57935223E-10
  -13.5500002      -1.11924858E-09
  -13.5400000      -1.24678656E-09
  -13.5299997      -1.22003507E-09
  -13.5200005      -1.02926057E-09
  -13.5100002      -6.71731282E-10
  -13.5000000      -1.51906751E-10
  -13.4899998       5.12148823E-10
  -13.4799995       1.27677058E-09
  -13.4700003       2.05931583E-09
  -13.4600000       2.73036882E-09
  -13.4499998       3.11931259E-09
  -13.4399996       3.03893777E-09
  -13.4300003       2.32967268E-09
  -13.4200001       9.16957288E-10
  -13.4099998      -1.13183085E-09
  -13.3999996      -3.56935415E-09
  -13.3900003      -5.96778893E-09
  -13.3800001      -7.76872611E-09
  -13.3699999      -8.38517877E-09
  -13.3599997      -7.34234984E-09
  -13.3500004      -4.42923387E-09
  -13.3400002       1.77471829E-10
  -13.3299999       5.85725468E-09
  -13.3199997       1.15887504E-08
  -13.3100004       1.61033213E-08
  -13.3000002       1.81338251E-08
  -13.2900000       1.67155090E-08
  -13.2799997       1.14731655E-08
  -13.2700005       2.82103563E-09
  -13.2600002      -7.98999888E-09
  -13.2500000      -1.90152605E-08
  -13.2399998      -2.79452319E-08
  -13.2299995      -3.25704441E-08
  -13.2200003      -3.12902060E-08
  -13.2100000      -2.35512196E-08
  -13.1999998      -1.01029443E-08
  -13.1899996       7.01174496E-09
  -13.1800003       2.47581546E-08
  -13.1700001       3.96635826E-08
  -13.1599998       4.85197624E-08
  -13.1499996       4.90845444E-08
  -13.1400003       4.06223286E-08
  -13.1300001       2.41483900E-08
  -13.1199999       2.30539388E-09
  -13.1099997      -2.11189981E-08
  -13.1000004      -4.19352197E-08
  -13.0900002      -5.63942315E-08
  -13.0799999      -6.19377261E-08
  -13.0699997      -5.76837031E-08
  -13.0600004      -4.45387016E-08
  -13.0500002      -2.49178509E-08
  -13.0400000      -2.15495044E-09
  -13.0299997       2.02389856E-08
  -13.0200005       3.92751893E-08
  -13.0100002       5.29676569E-08
  -13.0000000       6.04875368E-08
  -12.9899998       6.19824192E-08
  -12.9799995       5.81521036E-08
  -12.9700003       4.97544264E-08
  -12.9600000       3.72286522E-08
  -12.9499998       2.05943564E-08
  -12.9399996      -3.12637943E-10
  -12.9300003      -2.53254608E-08
  -12.9200001      -5.33223954E-08
  -12.9099998      -8.17364239E-08
  -12.8999996      -1.06433731E-07
  -12.8900003      -1.22124320E-07
  -12.8800001      -1.23317733E-07
  -12.8699999      -1.05674559E-07
  -12.8599997      -6.74479708E-08
  -12.8500004      -1.06310054E-08
  -12.8400002       5.85615076E-08
  -12.8299999       1.30128711E-07
  -12.8199997       1.91686553E-07
  -12.8100004       2.30643920E-07
  -12.8000002       2.36750566E-07
  -12.7900000       2.04478297E-07
  -12.7799997       1.34683617E-07
  -12.7700005       3.51307428E-08
  -12.7600002      -8.03194951E-08
  -12.7500000      -1.93759504E-07
  -12.7399998      -2.86156848E-07
  -12.7299995      -3.40587604E-07
  -12.7200003      -3.45151932E-07
  -12.7100000      -2.95034368E-07
  -12.6999998      -1.93372685E-07
  -12.6899996      -5.08508116E-08
  -12.6800003       1.15768081E-07
  -12.6700001       2.85797370E-07
  -12.6599998       4.37004928E-07
  -12.6499996       5.47816171E-07
  -12.6400003       5.99132477E-07
  -12.6300001       5.75729246E-07
  -12.6199999       4.67434120E-07
  -12.6099997       2.70341644E-07
  -12.6000004      -1.17272334E-08
  -12.5900002      -3.65492724E-07
  -12.5799999      -7.66449773E-07
  -12.5699997      -1.17762488E-06
  -12.5600004      -1.54958491E-06
  -12.5500002      -1.82241843E-06
  -12.5400000      -1.93026949E-06
  -12.5299997      -1.80852169E-06
  -12.5200005      -1.40317582E-06
  -12.5100002      -6.81407869E-07
  -12.5000000       3.58193347E-07
  -12.4899998       1.67748271E-06
  -12.4799995       3.19424316E-06
  -12.4700003       4.78257380E-06
  -12.4600000       6.27843428E-06
  -12.4499998       7.49016226E-06
  -12.4399996       8.21247068E-06
  -12.4300003       8.24226299E-06
  -12.4200001       7.39399547E-06
  -12.4099998       5.51293260E-06
  -12.3999996       2.48476226E-06
  -12.3900003      -1.75887487E-06
  -12.3800001      -7.23861376E-06
  -12.3699999      -1.39282602E-05
  -12.3599997      -2.17570359E-05
  -12.3500004      -3.06113070E-05
  -12.3400002      -4.03358681E-05
  -12.3299999      -5.07329059E-05
  -12.3199997      -6.15608806E-05
  -12.3100004      -7.25333157E-05
  -12.3000002      -8.33194281E-05
  -12.2900000      -9.35488715E-05
  -12.2799997      -1.02820290E-04
  -12.2700005      -1.10714107E-04
  -12.2600002      -1.16811054E-04
  -12.2500000      -1.20709548E-04
  -12.2399998      -1.22044941E-04
  -12.2299995      -1.20505531E-04
  -12.2200003      -1.15845884E-04
  -12.2100000      -1.07890970E-04
  -12.1999998      -9.65401850E-05
  -12.1899996      -8.17641485E-05
  -12.1800003      -6.36014302E-05
  -12.1700001      -4.21533950E-05
  -12.1599998      -1.75821824E-05
  -12.1499996       9.89074670E-06
  -12.1400003       3.99855235E-05
  -12.1300001       7.23633493E-05
  -12.1199999       1.06628911E-04
  -12.1099997       1.42337085E-04
  -12.1000004       1.79000665E-04
  -12.0900002       2.16106477E-04
  -12.0799999       2.53129314E-04
  -12.0699997       2.89546675E-04
  -12.0600004       3.24851077E-04
  -12.0500002       3.58556368E-04
  -12.0400000       3.90195957E-04
  -12.0299997       4.19317745E-04
  -12.0200005       4.45475918E-04
  -12.0100002       4.68217651E-04
  -12.0000000       4.87079844E-04
  -11.9899998       5.01589850E-04
  -11.9799995       5.11271239E-04
  -11.9700003       5.15663007E-04
  -11.9600000       5.14337095E-04
  -11.9499998       5.06924640E-04
  -11.9399996       4.93131403E-04
  -11.9300003       4.72755462E-04
  -11.9200001       4.45691869E-04
  -11.9099998       4.11933841E-04
  -11.8999996       3.71565402E-04
  -11.8900003       3.24752589E-04
  -11.8800001       2.71736440E-04
  -11.8699999       2.12824569E-04
  -11.8599997       1.48389387E-04
  -11.8500004       7.88620819E-05
  -11.8400002       4.73591626E-06
  -11.8299999      -7.34444329E-05
  -11.8199997      -1.55088695E-04
  -11.8100004      -2.39573870E-04
  -11.8000002      -3.26264591E-04
  -11.7900000      -4.14527021E-04
  -11.7799997      -5.03742544E-04
  -11.7700005      -5.93318837E-04
  -11.7600002      -6.82684651E-04
  -11.7500000      -7.71285268E-04
  -11.7399998      -8.58564861E-04
  -11.7299995      -9.43948107E-04
  -11.7200003      -1.02682144E-03
  -11.7100000      -1.10651646E-03
  -11.6999998      -1.18230749E-03
  -11.6899996      -1.25340547E-03
  -11.6800003      -1.31897163E-03
  -11.6700001      -1.37812889E-03
  -11.6599998      -1.42998050E-03
  -11.6499996      -1.47363136E-03
  -11.6400003      -1.50820822E-03
  -11.6300001      -1.53287756E-03
  -11.6199999      -1.54686603E-03
  -11.6099997      -1.54947233E-03
  -11.6000004      -1.54008658E-03
  -11.5900002      -1.51819235E-03
  -11.5799999      -1.48338440E-03
  -11.5699997      -1.43536564E-03
  -11.5600004      -1.37394783E-03
  -11.5500002      -1.29904784E-03
  -11.5400000      -1.21067814E-03
  -11.5299997      -1.10893196E-03
  -11.5200005      -9.93968220E-04
  -11.5100002      -8.65999609E-04
  -11.5000000      -7.25274673E-04
  -11.4899998      -5.72072691E-04
  -11.4799995      -4.06699692E-04
  -11.4700003      -2.29489626E-04
  -11.4600000      -4.08212472E-05
  -11.4499998       1.58869268E-04
  -11.4399996       3.69062822E-04
  -11.4300003       5.89132658E-04
  -11.4200001       8.18323577E-04
  -11.4099998       1.05574378E-03
  -11.3999996       1.30035798E-03
  -11.3900003       1.55100634E-03
  -11.3800001       1.80643541E-03
  -11.3699999       2.06533517E-03
  -11.3599997       2.32639234E-03
  -11.3500004       2.58833659E-03
  -11.3400002       2.84998189E-03
  -11.3299999       3.11025674E-03
  -11.3199997       3.36822635E-03
  -11.3100004       3.62307881E-03
  -11.3000002       3.87412845E-03
  -11.2900000       4.12079319E-03
  -11.2799997       4.36257059E-03
  -11.2700005       4.59902920E-03
  -11.2600002       4.82978299E-03
  -11.2500000       5.05448924E-03
  -11.2399998       5.27283084E-03
  -11.2299995       5.48450556E-03
  -11.2200003       5.68920793E-03
  -11.2100000       5.88661712E-03
  -11.1999998       6.07637456E-03
  -11.1899996       6.25808584E-03
  -11.1800003       6.43131742E-03
  -11.1700001       6.59561669E-03
  -11.1599998       6.75053755E-03
  -11.1499996       6.89567951E-03
  -11.1400003       7.03071197E-03
  -11.1300001       7.15542166E-03
  -11.1199999       7.26971077E-03
  -11.1099997       7.37361237E-03
  -11.1000004       7.46726198E-03
  -11.0900002       7.55088683E-03
  -11.0799999       7.62476400E-03
  -11.0699997       7.68919894E-03
  -11.0600004       7.74449948E-03
  -11.0500002       7.79096689E-03
  -11.0400000       7.82889221E-03
  -11.0299997       7.85855483E-03
  -11.0200005       7.88024906E-03
  -11.0100002       7.89428130E-03
  -11.0000000       7.90098216E-03
  -10.9899998       7.90071953E-03
  -10.9799995       7.89389387E-03
  -10.9700003       7.88094383E-03
  -10.9600000       7.86232669E-03
  -10.9499998       7.83849973E-03
  -10.9399996       7.80989882E-03
  -10.9300003       7.77691044E-03
  -10.9200001       7.73983262E-03
  -10.9099998       7.69885397E-03
  -10.8999996       7.65404385E-03
  -10.8900003       7.60534126E-03
  -10.8800001       7.55257998E-03
  -10.8699999       7.49551039E-03
  -10.8599997       7.43382657E-03
  -10.8500004       7.36719510E-03
  -10.8400002       7.29524437E-03
  -10.8299999       7.21757766E-03
  -10.8199997       7.13374931E-03
  -10.8100004       7.04324665E-03
  -10.8000002       6.94548571E-03
  -10.7900000       6.83981366E-03
  -10.7799997       6.72555622E-03
  -10.7700005       6.60206843E-03
  -10.7600002       6.46880781E-03
  -10.7500000       6.32539857E-03
  -10.7399998       6.17168052E-03
  -10.7299995       6.00771746E-03
  -10.7200003       5.83379669E-03
  -10.7100000       5.65036666E-03
  -10.6999998       5.45798754E-03
  -10.6899996       5.25726983E-03
  -10.6800003       5.04883053E-03
  -10.6700001       4.83327080E-03
  -10.6599998       4.61116945E-03
  -10.6499996       4.38310253E-03
  -10.6400003       4.14965954E-03
  -10.6300001       3.91144212E-03
  -10.6199999       3.66908894E-03
  -10.6099997       3.42325261E-03
  -10.6000004       3.17462464E-03
  -10.5900002       2.92392098E-03
  -10.5799999       2.67190789E-03
  -10.5699997       2.41942308E-03
  -10.5600004       2.16739555E-03
  -10.5500002       1.91683474E-03
  -10.5400000       1.66880828E-03
  -10.5299997       1.42437499E-03
  -10.5200005       1.18449482E-03
  -10.5100002       9.49932029E-04
  -10.5000000       7.21177377E-04
  -10.4899998       4.98399953E-04
  -10.4799995       2.81449233E-04
  -10.4700003       6.99212178E-05
  -10.4600000      -1.36751813E-04
  -10.4499998      -3.39186314E-04
  -10.4399996      -5.37974236E-04
  -10.4300003      -7.33597495E-04
  -10.4200001      -9.26418405E-04
  -10.4099998      -1.11669488E-03
  -10.3999996      -1.30462367E-03
  -10.3900003      -1.49038527E-03
  -10.3800001      -1.67415501E-03
  -10.3699999      -1.85613777E-03
  -10.3599997      -2.03656126E-03
  -10.3500004      -2.21565878E-03
  -10.3400002      -2.39368924E-03
  -10.3299999      -2.57096719E-03
  -10.3199997      -2.74789380E-03
  -10.3100004      -2.92503089E-03
  -10.3000002      -3.10311117E-03
  -10.2900000      -3.28305224E-03
  -10.2799997      -3.46588949E-03
  -10.2700005      -3.65267880E-03
  -10.2600002      -3.84435174E-03
  -10.2500000      -4.04159399E-03
  -10.2399998      -4.24473872E-03
  -10.2299995      -4.45371727E-03
  -10.2200003      -4.66807652E-03
  -10.2100000      -4.88707284E-03
  -10.1999998      -5.10980235E-03
  -10.1899996      -5.33530628E-03
  -10.1800003      -5.56271244E-03
  -10.1700001      -5.79128321E-03
  -10.1599998      -6.02045236E-03
  -10.1499996      -6.24979800E-03
  -10.1400003      -6.47900300E-03
  -10.1300001      -6.70780241E-03
  -10.1199999      -6.93593035E-03
  -10.1099997      -7.16305291E-03
  -10.1000004      -7.38876080E-03
  -10.0900002      -7.61249894E-03
  -10.0799999      -7.83354696E-03
  -10.0699997      -8.05098005E-03
  -10.0600004      -8.26364383E-03
  -10.0500002      -8.47017765E-03
  -10.0400000      -8.66903551E-03
  -10.0299997      -8.85858666E-03
  -10.0200005      -9.03718453E-03
  -10.0100002      -9.20329336E-03
  -10.0000000      -9.35556088E-03
  -9.98999977      -9.49284900E-03
  -9.97999954      -9.61424969E-03
  -9.97000027      -9.71901882E-03
  -9.96000004      -9.80651751E-03
  -9.94999981      -9.87613853E-03
  -9.93999958      -9.92726069E-03
  -9.93000031      -9.95925162E-03
  -9.92000008      -9.97149479E-03
  -9.90999985      -9.96346958E-03
  -9.89999962      -9.93479881E-03
  -9.89000034      -9.88533162E-03
  -9.88000011      -9.81512200E-03
  -9.86999989      -9.72445495E-03
  -9.85999966      -9.61377844E-03
  -9.85000038      -9.48367268E-03
  -9.84000015      -9.33481846E-03
  -9.82999992      -9.16797668E-03
  -9.81999969      -8.98401625E-03
  -9.81000042      -8.78392905E-03
  -9.80000019      -8.56887456E-03
  -9.78999996      -8.34014453E-03
  -9.77999973      -8.09914898E-03
  -9.77000046      -7.84735288E-03
  -9.76000023      -7.58618955E-03
  -9.75000000      -7.31701311E-03
  -9.73999977      -7.04104826E-03
  -9.72999954      -6.75941817E-03
  -9.72000027      -6.47319714E-03
  -9.71000004      -6.18349342E-03
  -9.69999981      -5.89153171E-03
  -9.68999958      -5.59869176E-03
  -9.68000031      -5.30650932E-03
  -9.67000008      -5.01663750E-03
  -9.65999985      -4.73071914E-03
  -9.64999962      -4.45030630E-03
  -9.64000034      -4.17672331E-03
  -9.63000011      -3.91100720E-03
  -9.61999989      -3.65386251E-03
  -9.60999966      -3.40569019E-03
  -9.60000038      -3.16661946E-03
  -9.59000015      -2.93654669E-03
  -9.57999992      -2.71519856E-03
  -9.56999969      -2.50213151E-03
  -9.56000042      -2.29676906E-03
  -9.55000019      -2.09837989E-03
  -9.53999996      -1.90612499E-03
  -9.52999973      -1.71907491E-03
  -9.52000046      -1.53629377E-03
  -9.51000023      -1.35688577E-03
  -9.50000000      -1.18012854E-03
  -9.48999977      -1.00551057E-03
  -9.47999954      -8.32786493E-04
  -9.47000027      -6.61965983E-04
  -9.46000004      -4.93312604E-04
  -9.44999981      -3.27265880E-04
  -9.43999958      -1.64414014E-04
  -9.43000031      -5.44286286E-06
  -9.42000008       1.48867693E-04
  -9.40999985       2.97627266E-04
  -9.39999962       4.39833093E-04
  -9.39000034       5.74327598E-04
  -9.38000011       6.99762662E-04
  -9.36999989       8.14620522E-04
  -9.35999966       9.17208556E-04
  -9.35000038       1.00570172E-03
  -9.34000015       1.07815198E-03
  -9.32999992       1.13251270E-03
  -9.31999969       1.16665545E-03
  -9.31000042       1.17835228E-03
  -9.30000019       1.16528862E-03
  -9.28999996       1.12503150E-03
  -9.27999973       1.05506962E-03
  -9.27000046       9.52811679E-04
  -9.26000023       8.15627049E-04
  -9.25000000       6.40906743E-04
  -9.23999977       4.26112732E-04
  -9.22999954       1.68841885E-04
  -9.22000027      -1.33118636E-04
  -9.21000004      -4.81733819E-04
  -9.19999981      -8.78647144E-04
  -9.18999958      -1.32513931E-03
  -9.18000031      -1.82205823E-03
  -9.17000008      -2.36978941E-03
  -9.15999985      -2.96824402E-03
  -9.14999962      -3.61687178E-03
  -9.14000034      -4.31471644E-03
  -9.13000011      -5.06046927E-03
  -9.11999989      -5.85257635E-03
  -9.10999966      -6.68925419E-03
  -9.10000038      -7.56852701E-03
  -9.09000015      -8.48819315E-03
  -9.07999992      -9.44573153E-03
  -9.06999969      -1.04382113E-02
  -9.06000042      -1.14621883E-02
  -9.05000019      -1.25136264E-02
  -9.03999996      -1.35879153E-02
  -9.02999973      -1.46799339E-02
  -9.02000046      -1.57841742E-02
  -9.01000023      -1.68949421E-02
  -9.00000000      -1.80064943E-02
  -8.98999977      -1.91131998E-02
  -8.97999954      -2.02095807E-02
  -8.97000027      -2.12903377E-02
  -8.96000004      -2.23502237E-02
  -8.94999981      -2.33840197E-02
  -8.93999958      -2.43863966E-02
  -8.93000031      -2.53519267E-02
  -8.92000008      -2.62750629E-02
  -8.90999985      -2.71502230E-02
  -8.89999962      -2.79719066E-02
  -8.89000034      -2.87348051E-02
  -8.88000011      -2.94338930E-02
  -8.86999989      -3.00644971E-02
  -8.85999966      -3.06222420E-02
  -8.85000038      -3.11030839E-02
  -8.84000015      -3.15031968E-02
  -8.82999992      -3.18189710E-02
  -8.81999969      -3.20469961E-02
  -8.81000042      -3.21840681E-02
  -8.80000019      -3.22272591E-02
  -8.78999996      -3.21739353E-02
  -8.77999973      -3.20218652E-02
  -8.77000046      -3.17691788E-02
  -8.76000023      -3.14144418E-02
  -8.75000000      -3.09565775E-02
  -8.73999977      -3.03949248E-02
  -8.72999954      -2.97291670E-02
  -8.72000027      -2.89593861E-02
  -8.71000004      -2.80860532E-02
  -8.69999981      -2.71100551E-02
  -8.68999958      -2.60327142E-02
  -8.68000031      -2.48557609E-02
  -8.67000008      -2.35812757E-02
  -8.65999985      -2.22116895E-02
  -8.64999962      -2.07496360E-02
  -8.64000034      -1.91979986E-02
  -8.63000011      -1.75598711E-02
  -8.61999989      -1.58385597E-02
  -8.60999966      -1.40376715E-02
  -8.60000038      -1.21611282E-02
  -8.59000015      -1.02132056E-02
  -8.57999992      -8.19853693E-03
  -8.56999969      -6.12202147E-03
  -8.56000042      -3.98878567E-03
  -8.55000019      -1.80401886E-03
  -8.53999996       4.27055056E-04
  -8.52999973       2.69931252E-03
  -8.52000046       5.00772195E-03
  -8.51000023       7.34738540E-03
  -8.50000000       9.71350260E-03
  -8.48999977       1.21013941E-02
  -8.47999954       1.45064583E-02
  -8.47000027       1.69242080E-02
  -8.46000004       1.93502773E-02
  -8.44999981       2.17804108E-02
  -8.43999958       2.42104661E-02
  -8.43000031       2.66363733E-02
  -8.42000008       2.90541202E-02
  -8.40999985       3.14597152E-02
  -8.39999962       3.38491797E-02
  -8.39000034       3.62186246E-02
  -8.38000011       3.85642983E-02
  -8.36999989       4.08827178E-02
  -8.35999966       4.31707315E-02
  -8.35000038       4.54255752E-02
  -8.34000015       4.76449057E-02
  -8.32999992       4.98266444E-02
  -8.31999969       5.19689135E-02
  -8.31000042       5.40698320E-02
  -8.30000019       5.61274029E-02
  -8.28999996       5.81393838E-02
  -8.27999973       6.01032414E-02
  -8.27000046       6.20162152E-02
  -8.26000023       6.38752729E-02
  -8.25000000       6.56772479E-02
  -8.23999977       6.74188286E-02
  -8.22999954       6.90965727E-02
  -8.22000027       7.07068667E-02
  -8.21000004       7.22458735E-02
  -8.19999981       7.37095401E-02
  -8.18999958       7.50935450E-02
  -8.18000031       7.63933733E-02
  -8.17000008       7.76044428E-02
  -8.15999985       7.87220448E-02
  -8.14999962       7.97416270E-02
  -8.14000034       8.06586593E-02
  -8.13000011       8.14687610E-02
  -8.11999989       8.21675807E-02
  -8.10999966       8.27508047E-02
  -8.10000038       8.32141414E-02
  -8.09000015       8.35532770E-02
  -8.07999992       8.37639421E-02
  -8.06999969       8.38420019E-02
  -8.06000042       8.37834626E-02
  -8.05000019       8.35846290E-02
  -8.03999996       8.32421109E-02
  -8.02999973       8.27528089E-02
  -8.02000046       8.21139291E-02
  -8.01000023       8.13229382E-02
  -8.00000000       8.03776085E-02
  -7.98999977       7.92760029E-02
  -7.98000002       7.80165195E-02
  -7.96999979       7.65980110E-02
  -7.96000004       7.50198215E-02
  -7.94999981       7.32817575E-02
  -7.94000006       7.13842586E-02
  -7.92999983       6.93282858E-02
  -7.92000008       6.71153590E-02
  -7.90999985       6.47474676E-02
  -7.90000010       6.22271709E-02
  -7.88999987       5.95575832E-02
  -7.88000011       5.67424037E-02
  -7.86999989       5.37859648E-02
  -7.86000013       5.06933033E-02
  -7.84999990       4.74700518E-02
  -7.84000015       4.41224650E-02
  -7.82999992       4.06573191E-02
  -7.82000017       3.70819047E-02
  -7.80999994       3.34039293E-02
  -7.80000019       2.96315439E-02
  -7.78999996       2.57733949E-02
  -7.78000021       2.18386296E-02
  -7.76999998       1.78369600E-02
  -7.76000023       1.37785859E-02
  -7.75000000       9.67414584E-03
  -7.73999977       5.53459022E-03
  -7.73000002       1.37100113E-03
  -7.71999979      -2.80558178E-03
  -7.71000004      -6.98426412E-03
  -7.69999981      -1.11543806E-02
  -7.69000006      -1.53055312E-02
  -7.67999983      -1.94275361E-02
  -7.67000008      -2.35104710E-02
  -7.65999985      -2.75446717E-02
  -7.65000010      -3.15208063E-02
  -7.63999987      -3.54299583E-02
  -7.63000011      -3.92637812E-02
  -7.61999989      -4.30146866E-02
  -7.61000013      -4.66757901E-02
  -7.59999990      -5.02411053E-02
  -7.59000015      -5.37053682E-02
  -7.57999992      -5.70640452E-02
  -7.57000017      -6.03131950E-02
  -7.55999994      -6.34494051E-02
  -7.55000019      -6.64697140E-02
  -7.53999996      -6.93716407E-02
  -7.53000021      -7.21531287E-02
  -7.51999998      -7.48125985E-02
  -7.51000023      -7.73488879E-02
  -7.50000000      -7.97612444E-02
  -7.48999977      -8.20491910E-02
  -7.48000002      -8.42124596E-02
  -7.46999979      -8.62508491E-02
  -7.46000004      -8.81642550E-02
  -7.44999981      -8.99525806E-02
  -7.44000006      -9.16158333E-02