  -16.0000000       0.00000000    
  -15.9899998       0.00000000    
  -15.9799995       0.00000000    
  -15.9700003       0.00000000    
  -15.9600000       0.00000000    
  -15.9499998       0.00000000    
  -15.9399996       0.00000000    
  -15.9300003       0.00000000    
  -15.9200001       0.00000000    
  -15.9099998       0.00000000    
  -15.8999996       0.00000000    
  -15.8900003       0.00000000    
  -15.8800001       0.00000000    
  -15.8699999       2.31214247E-43
  -15.8599997       1.69276854E-41
  -15.8500004       4.56834510E-40
  -15.8400002       6.84432285E-39
  -15.8299999       6.92667828E-38
  -15.8199997       5.27624835E-37
  -15.8100004       3.22008468E-36
  -15.8000002       1.63814737E-35
  -15.7900000       7.13285323E-35
  -15.7799997       2.70675459E-34
  -15.7700005       9.06084178E-34
  -15.7600002       2.69583007E-33
  -15.7500000       7.15282508E-33
  -15.7399998       1.69024436E-32
  -15.7299995       3.52887078E-32
  -15.7200003       6.37816064E-32
  -15.7100000       9.48475829E-32
  -15.6999998       9.81832303E-32
  -15.6899996       1.66335573E-33
  -15.6800003      -3.22509759E-31
  -15.6700001      -1.04070718E-30
  -15.6599998      -2.26844191E-30
  -15.6499996      -3.86744149E-30
  -15.6400003      -5.13076464E-30
  -15.6300001      -4.46847946E-30
  -15.6199999       6.15808153E-31
  -15.6099997       1.27912488E-29
  -15.6000004       3.29354122E-29
  -15.5900002       5.68808303E-29
  -15.5799999       7.18797018E-29
  -15.5699997       5.54609324E-29
  -15.5600004      -1.90587454E-29
  -15.5500002      -1.66255048E-28
  -15.5400000      -3.61454560E-28
  -15.5299997      -5.12797914E-28
  -15.5200005      -4.57112009E-28
  -15.5100002      -1.53029142E-29
  -15.5000000       8.65986985E-28
  -15.4899998       1.90892379E-27
  -15.4799995       2.35470916E-27
  -15.4700003       1.10080513E-27
  -15.4600000      -2.61532755E-27
  -15.4499998      -7.93528050E-27
  -15.4399996      -1.10186951E-26
  -15.4300003      -4.95617618E-27
  -15.4200001       1.70947622E-26
  -15.4099998       5.42330841E-26
  -15.3999996       8.72154633E-26
  -15.3900003       7.19549306E-26
  -15.3800001      -5.01820676E-26
  -15.3699999      -3.12079562E-25
  -15.3599997      -6.49607875E-25
  -15.3500004      -8.28203765E-25
  -15.3400002      -4.37148207E-25
  -15.3299999       9.51675091E-25
  -15.3199997       3.39501634E-24
  -15.3100004       6.02740140E-24
  -15.3000002       6.65417111E-24
  -15.2900000       2.04560172E-24
  -15.2799997      -1.04590776E-23
  -15.2700005      -2.98621087E-23
  -15.2600002      -4.78595095E-23
  -15.2500000      -4.71477835E-23
  -15.2399998      -5.44402693E-24
  -15.2299995       9.15589643E-23
  -15.2200003       2.28927536E-22
  -15.2100000       3.41132763E-22
  -15.1999998       3.07964179E-22
  -15.1899996      -9.99717430E-24
  -15.1800003      -6.81745913E-22
  -15.1700001      -1.57473631E-21
  -15.1599998      -2.24062246E-21
  -15.1499996      -1.92341606E-21
  -15.1400003       1.90056976E-22
  -15.1300001       4.41951535E-21
  -15.1199999       9.84864663E-21
  -15.1099997       1.37465236E-20
  -15.1000004       1.17345207E-20
  -15.0900002      -7.00556194E-22
  -15.0799999      -2.51373063E-20
  -15.0699997      -5.62870945E-20
  -15.0600004      -7.91297194E-20
  -15.0500002      -7.00748512E-20
  -15.0400000      -5.02037401E-21
  -15.0299997       1.24928571E-19
  -15.0200005       2.93763372E-19
  -15.0100002       4.26417991E-19
  -15.0000000       4.04217057E-19
  -14.9899998       1.03190756E-19
  -14.9799995      -5.31450567E-19
  -14.9700003      -1.39164556E-18
  -14.9600000      -2.13658664E-18
  -14.9499998      -2.20944574E-18
  -14.9399996      -1.00044889E-18
  -14.9300003       1.82634552E-18
  -14.9200001       5.91066456E-18
  -14.9099998       9.85633759E-18
  -14.8999996       1.12391875E-17
  -14.8900003       7.22304616E-18
  -14.8800001      -4.11649699E-18
  -14.8699999      -2.19964266E-17
  -14.8599997      -4.13373552E-17
  -14.8500004      -5.24309655E-17
  -14.8400002      -4.29553502E-17
  -14.8299999      -2.88701605E-18
  -14.8199997       6.83604624E-17
  -14.8100004       1.54923967E-16
  -14.8000002       2.21493120E-16
  -14.7900000       2.18663779E-16
  -14.7799997       9.94062250E-17
  -14.7700005      -1.54663227E-16
  -14.7600002      -5.04532157E-16
  -14.7500000      -8.35877947E-16
  -14.7399998      -9.68192222E-16
  -14.7299995      -7.03439581E-16
  -14.7200003       8.55784717E-17
  -14.7100000       1.34693655E-15
  -14.6999998       2.76313985E-15
  -14.6899996       3.74257908E-15
  -14.6800003       3.53974878E-15
  -14.6700001       1.52219751E-15
  -14.6599998      -2.45888582E-15
  -14.6499996      -7.71184027E-15
  -14.6400003      -1.25393428E-14
  -14.6300001      -1.44512240E-14
  -14.6199999      -1.08675394E-14
  -14.6099997      -2.56544072E-16
  -14.6000004       1.65794384E-14
  -14.5900002       3.55793310E-14
  -14.5799999       4.94727279E-14
  -14.5699997       4.92975716E-14
  -14.5600004       2.74720822E-14
  -14.5500002      -1.81396493E-14
  -14.5400000      -8.04572405E-14
  -14.5299997      -1.41507371E-13
  -14.5200005      -1.74616967E-13
  -14.5100002      -1.51432320E-13
  -14.5000000      -5.31106090E-14
  -14.4899998       1.17076555E-13
  -14.4799995       3.24377813E-13
  -14.4700003       5.01885642E-13
  -14.4600000       5.62863504E-13
  -14.4499998       4.26930437E-13
  -14.4399996       5.56323854E-14
  -14.4300003      -5.12916803E-13
  -14.4200001      -1.14476115E-12
  -14.4099998      -1.62062811E-12
  -14.3999996      -1.68490710E-12
  -14.3900003      -1.12996472E-12
  -14.3800001       1.02544966E-13
  -14.3699999       1.83599208E-12
  -14.3599997       3.62829558E-12
  -14.3500004       4.83077814E-12
  -14.3400002       4.74924787E-12
  -14.3299999       2.88624528E-12
  -14.3199997      -7.95651359E-13
  -14.3100004      -5.68025358E-12
  -14.3000002      -1.04722273E-11
  -14.2900000      -1.34115913E-11
  -14.2799997      -1.27371993E-11
  -14.2700005      -7.31999964E-12
  -14.2600002       2.70346939E-12
  -14.2500000       1.55251645E-11
  -14.2399998       2.77112361E-11
  -14.2299995       3.48369805E-11
  -14.2200003       3.26840152E-11
  -14.2100000       1.87654371E-11
  -14.1999998      -6.24537531E-12
  -14.1899996      -3.77086869E-11
  -14.1800003      -6.73074443E-11
  -14.1700001      -8.46716100E-11
  -14.1599998      -8.01947050E-11
  -14.1499996      -4.84481691E-11
  -14.1400003       8.77315234E-12
  -14.1300001       8.08948741E-11
  -14.1199999       1.49434784E-10
  -14.1099997       1.91692995E-10
  -14.1000004       1.86830260E-10
  -14.0900002       1.23004301E-10
  -14.0799999       3.54218608E-12
  -14.0699997      -1.50076410E-10
  -14.0600004      -3.00189013E-10
  -14.0500002      -4.00477401E-10
  -14.0400000      -4.08046291E-10
  -14.0299997      -2.97359748E-10
  -14.0200005      -7.21409391E-11
  -14.0100002       2.28913513E-10
  -14.0000000       5.35732847E-10
  -13.9899998       7.60742302E-10
  -13.9799995       8.20953583E-10
  -13.9700003       6.63351984E-10
  -13.9600000       2.86580315E-10
  -13.9499998      -2.48268073E-10
  -13.9399996      -8.23083657E-10
  -13.9300003      -1.28584066E-09
  -13.9200001      -1.48778778E-09
  -13.9099998      -1.32632350E-09
  -13.8999996      -7.81997356E-10
  -13.8900003       6.21094842E-11
  -13.8800001       1.02713937E-09
  -13.8699999       1.87351068E-09
  -13.8599997       2.35849384E-09
  -13.8500004       2.30305131E-09
  -13.8400002       1.65009961E-09
  -13.8299999       4.96267749E-10
  -13.8199997      -9.15506670E-10
  -13.8100004      -2.24545493E-09
  -13.8000002      -3.13961679E-09
  -13.7900000      -3.32598038E-09
  -13.7799997      -2.69793299E-09
  -13.7700005      -1.35965383E-09
  -13.7600002       3.83973797E-10
  -13.7500000       2.09595230E-09
  -13.7399998       3.32037309E-09
  -13.7299995       3.71158171E-09
  -13.7200003       3.14275783E-09
  -13.7100000       1.75936343E-09
  -13.6999998      -4.43159294E-11
  -13.6899996      -1.72657311E-09
  -13.6800003      -2.75504219E-09
  -13.6700001      -2.77681100E-09
  -13.6599998      -1.75056047E-09
  -13.6499996       5.02261644E-12
  -13.6400003       1.87252103E-09
  -13.6300001       3.10212833E-09
  -13.6199999       3.04536996E-09
  -13.6099997       1.39269773E-09
  -13.6000004      -1.65901459E-09
  -13.5900002      -5.37199885E-09
  -13.5799999      -8.59806093E-09
  -13.5699997      -1.00608561E-08
  -13.5600004      -8.72914985E-09
  -13.5500002      -4.18471036E-09
  -13.5400000       3.12481085E-09
  -13.5299997       1.18397985E-08
  -13.5200005       1.98953867E-08
  -13.5100002       2.49610466E-08
  -13.5000000       2.50258871E-08
  -13.4899998       1.89892191E-08
  -13.4799995       7.09780235E-09
  -13.4700003      -8.90712748E-09
  -13.4600000      -2.60075446E-08
  -13.4499998      -4.04760065E-08
  -13.4399996      -4.86851199E-08
  -13.4300003      -4.79762008E-08
  -13.4200001      -3.73744200E-08
  -13.4099998      -1.79608595E-08
  -13.3999996       7.21367588E-09
  -13.3900003       3.36783508E-08
  -13.3800001       5.64418237E-08
  -13.3699999       7.10356076E-08
  -13.3599997       7.44522239E-08
  -13.3500004       6.57527934E-08
  -13.3400002       4.62008565E-08
  -13.3299999       1.89045224E-08
  -13.3199997      -1.19202364E-08
  -13.3100004      -4.18548147E-08
  -13.3000002      -6.71019009E-08
  -13.2900000      -8.50128856E-08
  -13.2799997      -9.42096534E-08
  -13.2700005      -9.43210452E-08
  -13.2600002      -8.54952305E-08
  -13.2500000      -6.79245602E-08
  -13.2399998      -4.16261052E-08
  -13.2299995      -6.63335786E-09
  -13.2200003       3.63957255E-08
  -13.2100000       8.53302922E-08
  -13.1999998       1.35794863E-07
  -13.1899996       1.80851686E-07
  -13.1800003       2.11452928E-07
  -13.1700001       2.17799979E-07
  -13.1599998       1.91479671E-07
  -13.1499996       1.27981039E-07
  -13.1400003       2.89754407E-08
  -13.1300001      -9.63205764E-08
  -13.1199999      -2.31271102E-07
  -13.1099997      -3.53717923E-07
  -13.1000004      -4.39522125E-07
  -13.0900002      -4.67185686E-07
  -13.0799999      -4.22643694E-07
  -13.0699997      -3.03146265E-07
  -13.0600004      -1.19257365E-07
  -13.0500002       1.05677984E-07
  -13.0400000       3.38706940E-07
  -13.0299997       5.42602436E-07
  -13.0200005       6.82364259E-07
  -13.0100002       7.31580826E-07
  -13.0000000       6.77346691E-07
  -12.9899998       5.22717869E-07
  -12.9799995       2.86250241E-07
  -12.9700003      -1.21295418E-09
  -12.9600000      -3.01714579E-07
  -12.9499998      -5.76165007E-07
  -12.9399996      -7.89867045E-07
  -12.9300003      -9.16601834E-07
  -12.9200001      -9.40750738E-07
  -12.9099998      -8.57492353E-07
  -12.8999996      -6.71728060E-07
  -12.8900003      -3.96513428E-07
  -12.8800001      -5.18816599E-08
  -12.8699999       3.35537038E-07
  -12.8599997       7.32183878E-07
  -12.8500004       1.09725340E-06
  -12.8400002       1.38345899E-06
  -12.8299999       1.54001657E-06
  -12.8199997       1.51855852E-06
  -12.8100004       1.28183774E-06
  -12.8000002       8.14121279E-07
  -12.7900000       1.31210712E-07
  -12.7799997      -7.12553685E-07
  -12.7700005      -1.62298738E-06
  -12.7600002      -2.47230014E-06
  -12.7500000      -3.11341978E-06
  -12.7399998      -3.40128963E-06
  -12.7299995      -3.21806920E-06
  -12.7200003      -2.49807636E-06
  -12.7100000      -1.24768997E-06
  -12.6999998       4.44212645E-07
  -12.6899996       2.40817053E-06
  -12.6800003       4.40922759E-06
  -12.6700001       6.17372189E-06
  -12.6599998       7.42392695E-06
  -12.6499996       7.91559705E-06
  -12.6400003       7.47257536E-06
  -12.6300001       6.01360671E-06
  -12.6199999       3.56789496E-06
  -12.6099997       2.77826302E-07
  -12.6000004      -3.61034222E-06
  -12.5900002      -7.76576235E-06
  -12.5799999      -1.17990930E-05
  -12.5699997      -1.52922221E-05
  -12.5600004      -1.78292648E-05
  -12.5500002      -1.90273367E-05
  -12.5400000      -1.85663393E-05
  -12.5299997      -1.62182023E-05
  -12.5200005      -1.18746784E-05
  -12.5100002      -5.57313751E-06
  -12.5000000       2.48220817E-06
  -12.4899998       1.19068109E-05
  -12.4799995       2.21342798E-05
  -12.4700003       3.24294597E-05
  -12.4600000       4.19195458E-05
  -12.4499998       4.96413013E-05
  -12.4399996       5.46025149E-05
  -12.4300003       5.58509346E-05
  -12.4200001       5.25435062E-05
  -12.4099998       4.40069161E-05
  -12.3999996       2.97832885E-05
  -12.3900003       9.65524214E-06
  -12.3800001      -1.63501372E-05
  -12.3699999      -4.79763476E-05
  -12.3599997      -8.47658957E-05
  -12.3500004      -1.26094805E-04
  -12.3400002      -1.71203821E-04
  -12.3299999      -2.19224516E-04
  -12.3199997      -2.69191107E-04
  -12.3100004      -3.20041931E-04
  -12.3000002      -3.70613299E-04
  -12.2900000      -4.19629447E-04
  -12.2799997      -4.65696066E-04
  -12.2700005      -5.07304794E-04
  -12.2600002      -5.42843656E-04
  -12.2500000      -5.70637174E-04
  -12.2399998      -5.88975556E-04
  -12.2299995      -5.96178288E-04
  -12.2200003      -5.90644777E-04
  -12.2100000      -5.70919423E-04
  -12.1999998      -5.35747386E-04
  -12.1899996      -4.84130695E-04
  -12.1800003      -4.15383402E-04
  -12.1700001      -3.29179951E-04
  -12.1599998      -2.25603304E-04
  -12.1499996      -1.05181782E-04
  -12.1400003       3.10794312E-05
  -12.1300001       1.81686293E-04
  -12.1199999       3.44673375E-04
  -12.1099997       5.17627515E-04
  -12.1000004       6.97768352E-04
  -12.0900002       8.82033084E-04
  -12.0799999       1.06719742E-03
  -12.0699997       1.24999275E-03
  -12.0600004       1.42723857E-03
  -12.0500002       1.59594242E-03
  -12.0400000       1.75338029E-03
  -12.0299997       1.89714890E-03
  -12.0200005       2.02517700E-03
  -12.0100002       2.13571102E-03
  -12.0000000       2.22727051E-03
  -11.9899998       2.29861820E-03
  -11.9799995       2.34868168E-03
  -11.9700003       2.37654918E-03
  -11.9600000       2.38142163E-03
  -11.9499998       2.36260681E-03
  -11.9399996       2.31952383E-03
  -11.9300003       2.25170003E-03
  -11.9200001       2.15877872E-03
  -11.9099998       2.04052380E-03
  -11.8999996       1.89680513E-03
  -11.8900003       1.72759918E-03
  -11.8800001       1.53298525E-03
  -11.8699999       1.31315726E-03
  -11.8599997       1.06842804E-03
  -11.8500004       7.99269881E-04
  -11.8400002       5.06376906E-04
  -11.8299999       1.90695340E-04
  -11.8199997      -1.46506965E-04
  -11.8100004      -5.03598421E-04
  -11.8000002      -8.78570310E-04
  -11.7900000      -1.26902794E-03
  -11.7799997      -1.67222030E-03
  -11.7700005      -2.08508293E-03
  -11.7600002      -2.50430126E-03
  -11.7500000      -2.92637385E-03
  -11.7399998      -3.34766554E-03
  -11.7299995      -3.76446522E-03
  -11.7200003      -4.17301198E-03
  -11.7100000      -4.56952443E-03
  -11.6999998      -4.95019928E-03
  -11.6899996      -5.31125022E-03
  -11.6800003      -5.64890355E-03
  -11.6700001      -5.95943537E-03
  -11.6599998      -6.23920048E-03
  -11.6499996      -6.48469618E-03
  -11.6400003      -6.69260044E-03
  -11.6300001      -6.85983198E-03
  -11.6199999      -6.98359217E-03
  -11.6099997      -7.06138229E-03
  -11.6000004      -7.09103979E-03
  -11.5900002      -7.07070762E-03
  -11.5799999      -6.99883560E-03
  -11.5699997      -6.87413383E-03
  -11.5600004      -6.69557462E-03
  -11.5500002      -6.46232208E-03
  -11.5400000      -6.17374666E-03
  -11.5299997      -5.82942180E-03
  -11.5200005      -5.42909140E-03
  -11.5100002      -4.97270282E-03
  -11.5000000      -4.46043583E-03
  -11.4899998      -3.89268482E-03
  -11.4799995      -3.27010662E-03
  -11.4700003      -2.59359414E-03
  -11.4600000      -1.86430954E-03
  -11.4499998      -1.08366925E-03
  -11.4399996      -2.53324804E-04
  -11.4300003       6.24843175E-04
  -11.4200001       1.54875044E-03
  -11.4099998       2.51614559E-03
  -11.3999996       3.52462241E-03
  -11.3900003       4.57163900E-03
  -11.3800001       5.65458322E-03
  -11.3699999       6.77073887E-03
  -11.3599997       7.91734271E-03
  -11.3500004       9.09156725E-03
  -11.3400002       1.02905249E-02
  -11.3299999       1.15112728E-02
  -11.3199997       1.27507895E-02
  -11.3100004       1.40059888E-02
  -11.3000002       1.52736790E-02
  -11.2900000       1.65506024E-02
  -11.2799997       1.78334098E-02
  -11.2700005       1.91187467E-02
  -11.2600002       2.04031914E-02
  -11.2500000       2.16833688E-02
  -11.2399998       2.29559373E-02
  -11.2299995       2.42176093E-02
  -11.2200003       2.54652519E-02
  -11.2100000       2.66958382E-02
  -11.1999998       2.79065128E-02
  -11.1899996       2.90946066E-02
  -11.1800003       3.02576702E-02
  -11.1700001       3.13934758E-02
  -11.1599998       3.25000472E-02
  -11.1499996       3.35756764E-02
  -11.1400003       3.46189141E-02
  -11.1300001       3.56285796E-02
  -11.1199999       3.66036631E-02
  -11.1099997       3.75433601E-02
  -11.1000004       3.84469852E-02
  -11.0900002       3.93138453E-02
  -11.0799999       4.01432775E-02
  -11.0699997       4.09345031E-02
  -11.0600004       4.16866206E-02
  -11.0500002       4.23986316E-02
  -11.0400000       4.30693962E-02
  -11.0299997       4.36976664E-02
  -11.0200005       4.42821644E-02
  -11.0100002       4.48215939E-02
  -11.0000000       4.53147776E-02
  -10.9899998       4.57605794E-02
  -10.9799995       4.61580493E-02
  -10.9700003       4.65063937E-02
  -10.9600000       4.68049832E-02
  -10.9499998       4.70533520E-02
  -10.9399996       4.72511649E-02
  -10.9300003       4.73982394E-02
  -10.9200001       4.74944897E-02
  -10.9099998       4.75398786E-02
  -10.8999996       4.75345775E-02
  -10.8900003       4.74787690E-02
  -10.8800001       4.73727025E-02
  -10.8699999       4.72167656E-02
  -10.8599997       4.70113531E-02
  -10.8500004       4.67568450E-02
  -10.8400002       4.64536473E-02
  -10.8299999       4.61020283E-02
  -10.8199997       4.57021631E-02
  -10.8100004       4.52541187E-02
  -10.8000002       4.47577238E-02
  -10.7900000       4.42127772E-02
  -10.7799997       4.36188988E-02
  -10.7700005       4.29757684E-02
  -10.7600002       4.22830954E-02
  -10.7500000       4.15407829E-02
  -10.7399998       4.07489687E-02
  -10.7299995       3.99080925E-02
  -10.7200003       3.90189998E-02
  -10.7100000       3.80829014E-02
  -10.6999998       3.71014029E-02
  -10.6899996       3.60765867E-02
  -10.6800003       3.50108147E-02
  -10.6700001       3.39069106E-02
  -10.6599998       3.27680558E-02
  -10.6499996       3.15977000E-02
  -10.6400003       3.03997211E-02
  -10.6300001       2.91782860E-02
  -10.6199999       2.79377550E-02
  -10.6099997       2.66828090E-02
  -10.6000004       2.54182033E-02
  -10.5900002       2.41487492E-02
  -10.5799999       2.28792801E-02
  -10.5699997       2.16144770E-02
  -10.5600004       2.03588810E-02
  -10.5500002       1.91167351E-02
  -10.5400000       1.78921446E-02
  -10.5299997       1.66888759E-02
  -10.5200005       1.55105665E-02
  -10.5100002       1.43605750E-02
  -10.5000000       1.32420976E-02
  -10.4899998       1.21581852E-02
  -10.4799995       1.11116571E-02
  -10.4700003       1.01051200E-02
  -10.4600000       9.14091896E-03
  -10.4499998       8.22115690E-03
  -10.4399996       7.34750973E-03
  -10.4300003       6.52136374E-03
  -10.4200001       5.74373920E-03
  -10.4099998       5.01530105E-03
  -10.3999996       4.33638645E-03
  -10.3900003       3.70710436E-03
  -10.3800001       3.12731601E-03
  -10.3699999       2.59675179E-03
  -10.3599997       2.11502379E-03
  -10.3500004       1.68165436E-03
  -10.3400002       1.29608449E-03
  -10.3299999       9.57669283E-04
  -10.3199997       6.65765256E-04
  -10.3100004       4.19572403E-04
  -10.3000002       2.18276036E-04
  -10.2900000       6.09931485E-05
  -10.2799997      -5.31981204E-05
  -10.2700005      -1.25183389E-04
  -10.2600002      -1.55813294E-04
  -10.2500000      -1.45901577E-04
  -10.2399998      -9.61508849E-05
  -10.2299995      -7.15700526E-06
  -10.2200003       1.20534074E-04
  -10.2100000       2.86382099E-04
  -10.1999998       4.89815837E-04
  -10.1899996       7.30211439E-04
  -10.1800003       1.00675179E-03
  -10.1700001       1.31839758E-03
  -10.1599998       1.66394003E-03
  -10.1499996       2.04206305E-03
  -10.1400003       2.45126523E-03
  -10.1300001       2.88999756E-03
  -10.1199999       3.35678388E-03
  -10.1099997       3.85027518E-03
  -10.1000004       4.36944328E-03
  -10.0900002       4.91340505E-03
  -10.0799999       5.48169808E-03
  -10.0699997       6.07409794E-03
  -10.0600004       6.69071730E-03
  -10.0500002       7.33189052E-03
  -10.0400000       7.99811259E-03
  -10.0299997       8.69000889E-03
  -10.0200005       9.40809678E-03
  -10.0100002       1.01529369E-02
  -10.0000000       1.09247919E-02
  -9.98999977       1.17237540E-02
  -9.97999954       1.25496648E-02
  -9.97000027       1.34020504E-02
  -9.96000004       1.42801059E-02
  -9.94999981       1.51828220E-02
  -9.93999958       1.61089897E-02
  -9.93000031       1.70572791E-02
  -9.92000008       1.80263426E-02
  -9.90999985       1.90150347E-02
  -9.89999962       2.00222936E-02
  -9.89000034       2.10473593E-02
  -9.88000011       2.20897663E-02
  -9.86999989       2.31495053E-02
  -9.85999966       2.42265984E-02
  -9.85000038       2.53215060E-02
  -9.84000015       2.64347754E-02
  -9.82999992       2.75671147E-02
  -9.81999969       2.87191439E-02
  -9.81000042       2.98916232E-02
  -9.80000019       3.10849585E-02
  -9.78999996       3.22998539E-02
  -9.77999973       3.35365348E-02
  -9.77000046       3.47953402E-02
  -9.76000023       3.60764153E-02
  -9.75000000       3.73797081E-02
  -9.73999977       3.87052111E-02
  -9.72999954       4.00526337E-02
  -9.72000027       4.14217114E-02
  -9.71000004       4.28120494E-02
  -9.69999981       4.42230962E-02
  -9.68999958       4.56542782E-02
  -9.68000031       4.71048839E-02
  -9.67000008       4.85741198E-02
  -9.65999985       5.00609204E-02
  -9.64999962       5.15642874E-02
  -9.64000034       5.30829243E-02
  -9.63000011       5.46153076E-02
  -9.61999989       5.61599545E-02
  -9.60999966       5.77151738E-02
  -9.60000038       5.92793189E-02
  -9.59000015       6.08505532E-02
  -9.57999992       6.24274127E-02
  -9.56999969       6.40083849E-02
  -9.56000042       6.55918941E-02
  -9.55000019       6.71766549E-02
  -9.53999996       6.87611029E-02
  -9.52999973       7.03440979E-02
  -9.52000046       7.19239041E-02
  -9.51000023       7.34989047E-02
  -9.50000000       7.50672743E-02
  -9.48999977       7.66270384E-02
  -9.47999954       7.81761184E-02
  -9.47000027       7.97122940E-02
  -9.46000004       8.12335461E-02
  -9.44999981       8.27377811E-02
  -9.43999958       8.42230096E-02
  -9.43000031       8.56875032E-02
  -9.42000008       8.71297941E-02
  -9.40999985       8.85486305E-02
  -9.39999962       8.99430662E-02
  -9.39000034       9.13125649E-02
  -9.38000011       9.26567987E-02
  -9.36999989       9.39758569E-02
  -9.35999966       9.52700004E-02
  -9.35000038       9.65399146E-02
  -9.34000015       9.77864116E-02
  -9.32999992       9.90105271E-02
  -9.31999969      0.100213543    
  -9.31000042      0.101396732    
  -9.30000019      0.102561824    
  -9.28999996      0.103710398    
  -9.27999973      0.104844272    
  -9.27000046      0.105965421    
  -9.26000023      0.107075959    
  -9.25000000      0.108178057    
  -9.23999977      0.109274156    
  -9.22999954      0.110366575    
  -9.22000027      0.111457542    
  -9.21000004      0.112549588    
  -9.19999981      0.113645047    
  -9.18999958      0.114746258    
  -9.18000031      0.115855210    
  -9.17000008      0.116973914    
  -9.15999985      0.118103802    
  -9.14999962      0.119245924    
  -9.14000034      0.120401204    
  -9.13000011      0.121569611    
  -9.11999989      0.122750871    
  -9.10999966      0.123944223    
  -9.10000038      0.125148609    
  -9.09000015      0.126362845    
  -9.07999992      0.127585068    
  -9.06999969      0.128813729    
  -9.06000042      0.130046919    
  -9.05000019      0.131282821    
  -9.03999996      0.132519782    
  -9.02999973      0.133755893    
  -9.02000046      0.134989589    
  -9.01000023      0.136219174    
  -9.00000000      0.137443170    
  -8.98999977      0.138660312    
  -8.97999954      0.139869094    
  -8.97000027      0.141068712    
  -8.96000004      0.142258003    
  -8.94999981      0.143436000    
  -8.93999958      0.144601971    
  -8.93000031      0.145755246    
  -8.92000008      0.146895066    
  -8.90999985      0.148020789    
  -8.89999962      0.149132028    
  -8.89000034      0.150228441    
  -8.88000011      0.151309609    
  -8.86999989      0.152375489    
  -8.85999966      0.153426185    
  -8.85000038      0.154462427    
  -8.84000015      0.155484751    
  -8.82999992      0.156494886    
  -8.81999969      0.157494083    
  -8.81000042      0.158484921    
  -8.80000019      0.159470186    
  -8.78999996      0.160452828    
  -8.77999973      0.161436379    
  -8.77000046      0.162424982    
  -8.76000023      0.163422704    
  -8.75000000      0.164434984    
  -8.73999977      0.165466696    
  -8.72999954      0.166524231    
  -8.72000027      0.167613611    
  -8.71000004      0.168741614    
  -8.69999981      0.169915676    
  -8.68999958      0.171142355    
  -8.68000031      0.172428966    
  -8.67000008      0.173781618    
  -8.65999985      0.175206408    
  -8.64999962      0.176708996    
  -8.64000034      0.178293571    
  -8.63000011      0.179964826    
  -8.61999989      0.181725726    
  -8.60999966      0.183579251    
  -8.60000038      0.185527354    
  -8.59000015      0.187571779    
  -8.57999992      0.189713046    
  -8.56999969      0.191951022    
  -8.56000042      0.194285393    
  -8.55000019      0.196714297    
  -8.53999996      0.199236676    
  -8.52999973      0.201850101    
  -8.52000046      0.204552114    
  -8.51000023      0.207340151    
  -8.50000000      0.210211501    
  -8.48999977      0.213163167    
  -8.47999954      0.216191128    
  -8.47000027      0.219292521    
  -8.46000004      0.222462818    
  -8.44999981      0.225698560    
  -8.43999958      0.228996068    
  -8.43000031      0.232351780    
  -8.42000008      0.235762358    
  -8.40999985      0.239224613    
  -8.39999962      0.242736012    
  -8.39000034      0.246294782    
  -8.38000011      0.249897853    
  -8.36999989      0.253544360    
  -8.35999966      0.257232130    
  -8.35000038      0.260959536    
  -8.34000015      0.264725477    
  -8.32999992      0.268528849    
  -8.31999969      0.272369176    
  -8.31000042      0.276245922    
  -8.30000019      0.280158937    
  -8.28999996      0.284108490    
  -8.27999973      0.288093090    
  -8.27000046      0.292113662    
  -8.26000023      0.296168268    
  -8.25000000      0.300256014    
  -8.23999977      0.304375917    
  -8.22999954      0.308525711    
  -8.22000027      0.312704653    
  -8.21000004      0.316910356    
  -8.19999981      0.321142018    
  -8.18999958      0.325397849    
  -8.18000031      0.329675406    
  -8.17000008      0.333973110    
  -8.15999985      0.338288069    
  -8.14999962      0.342617184    
  -8.14000034      0.346957713    
  -8.13000011      0.351305872    
  -8.11999989      0.355656981    
  -8.10999966      0.360007346    
  -8.10000038      0.364353329    
  -8.09000015      0.368690491    
  -8.07999992      0.373014450    
  -8.06999969      0.377319336    
  -8.06000042      0.381600499    
  -8.05000019      0.385851741    
  -8.03999996      0.390065849    
  -8.02999973      0.394236296    
  -8.02000046      0.398356080    
  -8.01000023      0.402417213    
  -8.00000000      0.406413645    
  -7.98999977      0.410336465    
  -7.98000002      0.414180398    
  -7.96999979      0.417937130    
  -7.96000004      0.421601266    
  -7.94999981      0.425165325    
  -7.94000006      0.428622752    
  -7.92999983      0.431967825    
  -7.92000008      0.435194165    
  -7.90999985      0.438296974    
  -7.90000010      0.441272497    
  -7.88999987      0.444115490    
  -7.88000011      0.446824223    
  -7.86999989      0.449396670    
  -7.86000013      0.451831311    
  -7.84999990      0.454128087    
  -7.84000015      0.456286669    
  -7.82999992      0.458308965    
  -7.82000017      0.460196048    
  -7.80999994      0.461951047    
  -7.80000019      0.463578105    
  -7.78999996      0.465083390    
  -7.78000021      0.466473371    
  -7.76999998      0.467756182    
  -7.76000023      0.468938977    
  -7.75000000      0.470033079    
  -7.73999977      0.471046150    
  -7.73000002      0.471989065    
  -7.71999979      0.472871900    
  -7.71000004      0.473704427    
  -7.69999981      0.474498212    
  -7.69000006      0.475263685    
  -7.67999983      0.476012468    
  -7.67000008      0.476756901    
  -7.65999985      0.477507919    
  -7.65000010      0.478277832    
  -7.63999987      0.479078323    
  -7.63000011      0.479921460    
  -7.61999989      0.480816156    
  -7.61000013      0.481774300    
  -7.59999990      0.482806355    
  -7.59000015      0.483922958    
  -7.57999992      0.485135287    
  -7.57000017      0.486454278    
  -7.55999994      0.487891287    
  -7.55000019      0.489456862    
  -7.53999996      0.491163015    
  -7.53000021      0.493019342    
  -7.51999998      0.495034516    
  -7.51000023      0.497219712    
  -7.50000000      0.499583006    
  -7.48999977      0.502131760    
  -7.48000002      0.504875720    
  -7.46999979      0.507823169    
  -7.46000004      0.510980964    
  -7.44999981      0.514358997    
  -7.44000006      0.517962635    