  -16.0000000       0.00000000    
  -15.9899998       0.00000000    
  -15.9799995       0.00000000    
  -15.9700003       0.00000000    
  -15.9600000       0.00000000    
  -15.9499998       0.00000000    
  -15.9399996       0.00000000    
  -15.9300003       0.00000000    
  -15.9200001       0.00000000    
  -15.9099998       0.00000000    
  -15.8999996       0.00000000    
  -15.8900003       0.00000000    
  -15.8800001       0.00000000    
  -15.8699999      -0.00000000    
  -15.8599997      -7.00649232E-45
  -15.8500004      -2.52233724E-44
  -15.8400002       3.62936302E-43
  -15.8299999       6.17412103E-42
  -15.8199997       5.17765770E-41
  -15.8100004       3.07611638E-40
  -15.8000002       1.43592735E-39
  -15.7900000       5.53219041E-39
  -15.7799997       1.80960671E-38
  -15.7700005       5.11365535E-38
  -15.7600002       1.26066695E-37
  -15.7500000       2.71748789E-37
  -15.7399998       5.07301747E-37
  -15.7299995       7.90243099E-37
  -15.7200003       8.97270554E-37
  -15.7100000       1.93493691E-37
  -15.6999998      -2.72481208E-36
  -15.6899996      -1.03421139E-35
  -15.6800003      -2.57749120E-35
  -15.6700001      -4.98626968E-35
  -15.6599998      -7.33013195E-35
  -15.6499996      -6.29359675E-35
  -15.6400003       5.06770366E-35
  -15.6300001       3.60125505E-34
  -15.6199999       8.98126081E-34
  -15.6099997       1.44491958E-33
  -15.6000004       1.26663410E-33
  -15.5900002      -9.73389219E-34
  -15.5799999      -6.61032269E-33
  -15.5699997      -1.50627582E-32
  -15.5600004      -2.05901486E-32
  -15.5500002      -9.55737151E-33
  -15.5400000       3.69921783E-32
  -15.5299997       1.28486646E-31
  -15.5200005       2.33745429E-31
  -15.5100002       2.43416104E-31
  -15.5000000      -3.83817625E-32
  -15.4899998      -8.10358064E-31
  -15.4799995      -2.03799763E-30
  -15.4700003      -3.08334049E-30
  -15.4600000      -2.40486133E-30
  -15.4499998       2.21585444E-30
  -15.4399996       1.23237940E-29
  -15.4300003       2.60153925E-29
  -15.4200001       3.45008472E-29
  -15.4099998       2.06001334E-29
  -15.3999996      -3.64142315E-29
  -15.3900003      -1.45272210E-28
  -15.3800001      -2.76556655E-28
  -15.3699999      -3.36477391E-28
  -15.3599997      -1.65436407E-28
  -15.3500004       4.03901743E-28
  -15.3400002       1.40379204E-27
  -15.3299999       2.52294935E-27
  -15.3199997       2.93403698E-27
  -15.3100004       1.35282182E-27
  -15.3000002      -3.43707544E-27
  -15.2900000      -1.14755265E-26
  -15.2799997      -2.01638055E-26
  -15.2700005      -2.32364588E-26
  -15.2600002      -1.14967202E-26
  -15.2500000       2.32787907E-26
  -15.2399998       8.08108865E-26
  -15.2299995       1.43032093E-25
  -15.2200003       1.68245246E-25
  -15.2100000       9.67769135E-26
  -15.1999998      -1.24084258E-25
  -15.1899996      -4.94349350E-25
  -15.1800003      -9.06861480E-25
  -15.1700001      -1.11434659E-24
  -15.1599998      -7.62376577E-25
  -15.1499996       4.70941973E-25
  -15.1400003       2.62298795E-24
  -15.1300001       5.14829047E-24
  -15.1199999       6.73154969E-24
  -15.1099997       5.43809193E-24
  -15.1000004      -5.93025890E-25
  -15.0900002      -1.18814143E-23
  -15.0799999      -2.60740807E-23
  -15.0699997      -3.68956398E-23
  -15.0600004      -3.46501820E-23
  -15.0500002      -9.26851374E-24
  -15.0400000       4.38606947E-23
  -15.0299997       1.16544467E-22
  -15.0200005       1.82122676E-22
  -15.0100002       1.96206418E-22
  -15.0000000       1.08420866E-22
  -14.9899998      -1.13156114E-22
  -14.9799995      -4.49253433E-22
  -14.9700003      -8.00815240E-22
  -14.9600000      -9.83862474E-22
  -14.9499998      -7.67979492E-22
  -14.9399996       3.12044786E-23
  -14.9300003       1.41764378E-21
  -14.9200001       3.08215554E-21
  -14.9099998       4.34415224E-21
  -14.8999996       4.25048898E-21
  -14.8900003       1.88623554E-21
  -14.8800001      -3.12298304E-21
  -14.8699999      -1.00510619E-20
  -14.8599997      -1.67046685E-20
  -14.8500004      -1.95623934E-20
  -14.8400002      -1.46730144E-20
  -14.8299999       6.58132189E-22
  -14.8199997       2.57419576E-20
  -14.8100004       5.47149279E-20
  -14.8000002       7.61644127E-20
  -14.7900000       7.52016843E-20
  -14.7799997       3.84368051E-20
  -14.7700005      -3.88178865E-20
  -14.7600002      -1.45229069E-19
  -14.7500000      -2.49371483E-19
  -14.7399998      -3.02619426E-19
  -14.7299995      -2.51533992E-19
  -14.7200003      -5.92906519E-20
  -14.7100000       2.68670486E-19
  -14.6999998       6.64035574E-19
  -14.6899996       9.91885094E-19
  -14.6800003       1.07424509E-18
  -14.6700001       7.44577323E-19
  -14.6599998      -7.48392629E-20
  -14.6499996      -1.29459287E-18
  -14.6400003      -2.61192287E-18
  -14.6300001      -3.53177915E-18
  -14.6199999      -3.47844295E-18
  -14.6099997      -1.99380017E-18
  -14.6000004       1.01960847E-18
  -14.5900002       5.09014399E-18
  -14.5799999       9.10388117E-18
  -14.5699997       1.14564333E-17
  -14.5600004       1.04676158E-17
  -14.5500002       5.00718398E-18
  -14.5400000      -4.82573985E-18
  -14.5299997      -1.72135574E-17
  -14.5200005      -2.85904060E-17
  -14.5100002      -3.42698049E-17
  -14.5000000      -2.97522705E-17
  -14.4899998      -1.24834583E-17
  -14.4799995       1.64264487E-17
  -14.4700003       5.11804769E-17
  -14.4600000       8.16114656E-17
  -14.4499998       9.52141663E-17
  -14.4399996       8.07707722E-17
  -14.4300003       3.28199360E-17
  -14.4200001      -4.43470651E-17
  -14.4099998      -1.34755451E-16
  -14.3999996      -2.12264498E-16
  -14.3900003      -2.46140628E-16
  -14.3800001      -2.10054073E-16
  -14.3699999      -9.24653922E-17
  -14.3599997       9.47427395E-17
  -14.3500004       3.12881239E-16
  -14.3400002       5.01036611E-16
  -14.3299999       5.89420264E-16
  -14.3199997       5.19530623E-16
  -14.3100004       2.66350093E-16
  -14.3000002      -1.44183854E-16
  -14.2900000      -6.29416948E-16
  -14.2799997      -1.06086610E-15
  -14.2700005      -1.29248546E-15
  -14.2600002      -1.20159279E-15
  -14.2500000      -7.32501652E-16
  -14.2399998       7.02721165E-17
  -14.2299995       1.05202074E-15
  -14.2200003       1.96932746E-15
  -14.2100000       2.54317471E-15
  -14.1999998       2.53394035E-15
  -14.1899996       1.81984076E-15
  -14.1800003       4.55702455E-16
  -14.1700001      -1.30924506E-15
  -14.1599998      -3.06730260E-15
  -14.1499996      -4.34051277E-15
  -14.1400003      -4.70368915E-15
  -14.1300001      -3.91159561E-15
  -14.1199999      -1.99373133E-15
  -14.1099997       7.15445479E-16
  -14.1000004       3.62820507E-15
  -14.0900002       6.03246955E-15
  -14.0799999       7.26993047E-15
  -14.0699997       6.91752030E-15
  -14.0600004       4.92060116E-15
  -14.0500002       1.63533041E-15
  -14.0400000      -2.23930905E-15
  -14.0299997      -5.82830030E-15
  -14.0200005      -8.30421106E-15
  -14.0100002      -9.10567533E-15
  -14.0000000      -8.08622629E-15
  -13.9899998      -5.54647677E-15
  -13.9799995      -2.13624568E-15
  -13.9700003       1.34658249E-15
  -13.9600000       4.19875164E-15
  -13.9499998       6.01746986E-15
  -13.9399996       6.79844314E-15
  -13.9300003       6.88722066E-15
  -13.9200001       6.79353162E-15
  -13.9099998       6.92778549E-15
  -13.8999996       7.35364782E-15
  -13.8900003       7.65648074E-15
  -13.8800001       6.99941271E-15
  -13.8699999       4.38170906E-15
  -13.8599997      -9.56091086E-16
  -13.8500004      -9.09783520E-15
  -13.8400002      -1.91379115E-14
  -13.8299999      -2.91244554E-14
  -13.8199997      -3.63372086E-14
  -13.8100004      -3.78838501E-14
  -13.8000002      -3.14958088E-14
  -13.7900000      -1.63240325E-14
  -13.7799997       6.49733139E-15
  -13.7700005       3.37175153E-14
  -13.7600002       6.03696916E-14
  -13.7500000       8.06728003E-14
  -13.7399998       8.92598576E-14
  -13.7299995       8.24539208E-14
  -13.7200003       5.92754741E-14
  -13.7100000       2.19110957E-14
  -13.6999998      -2.44992964E-14
  -13.6899996      -7.27326456E-14
  -13.6800003      -1.14815845E-13
  -13.6700001      -1.43508577E-13
  -13.6599998      -1.53587212E-13
  -13.6499996      -1.42646881E-13
  -13.6400003      -1.11278696E-13
  -13.6300001      -6.26634093E-14
  -13.6199999      -1.78604054E-15
  -13.6099997       6.54343184E-14
  -13.6000004       1.32813872E-13
  -13.5900002       1.94201344E-13
  -13.5799999       2.43413444E-13
  -13.5699997       2.74008165E-13
  -13.5600004       2.79223693E-13
  -13.5500002       2.52415385E-13
  -13.5400000       1.88198375E-13
  -13.5299997       8.42522327E-14
  -13.5200005      -5.65507520E-14
  -13.5100002      -2.24288199E-13
  -13.5000000      -4.01114797E-13
  -13.4899998      -5.62002918E-13
  -13.4799995      -6.77430280E-13
  -13.4700003      -7.17892651E-13
  -13.4600000      -6.59606755E-13
  -13.4499998      -4.90334607E-13
  -13.4399996      -2.14043789E-13
  -13.4300003       1.46804322E-13
  -13.4200001       5.52149797E-13
  -13.4099998       9.48617812E-13
  -13.3999996       1.27664990E-12
  -13.3900003       1.47933131E-12
  -13.3800001       1.51135072E-12
  -13.3699999       1.34650245E-12
  -13.3599997       9.82471374E-13
  -13.3500004       4.42230020E-13
  -13.3400002      -2.27921794E-13
  -13.3299999      -9.63009837E-13
  -13.3199997      -1.68571223E-12
  -13.3100004      -2.31333355E-12
  -13.3000002      -2.76468041E-12
  -13.2900000      -2.96658639E-12
  -13.2799997      -2.86026845E-12
  -13.2700005      -2.40792130E-12
  -13.2600002      -1.59983420E-12
  -13.2500000      -4.61671716E-13
  -13.2399998       9.39119117E-13
  -13.2299995       2.48966668E-12
  -13.2200003       4.03316486E-12
  -13.2100000       5.37761198E-12
  -13.1999998       6.31311756E-12
  -13.1899996       6.63740937E-12
  -13.1800003       6.18719399E-12
  -13.1700001       4.87113171E-12
  -13.1599998       2.69865098E-12
  -13.1499996      -2.01366566E-13
  -13.1400003      -3.57733461E-12
  -13.1300001      -7.07019122E-12
  -13.1199999      -1.02472536E-11
  -13.1099997      -1.26517165E-11
  -13.1000004      -1.38616419E-11
  -13.0900002      -1.35506146E-11
  -13.0799999      -1.15415004E-11
  -13.0699997      -7.84552891E-12
  -13.0600004      -2.68100884E-12
  -13.0500002       3.53136032E-12
  -13.0400000       1.01969527E-11
  -13.0299997       1.65969356E-11
  -13.0200005       2.19553525E-11
  -13.0100002       2.55179038E-11
  -13.0000000       2.66365263E-11
  -12.9899998       2.48528750E-11
  -12.9799995       1.99733251E-11
  -12.9700003       1.21274431E-11
  -12.9600000       1.80109497E-12
  -12.9499998      -1.01643182E-11
  -12.9399996      -2.26136436E-11
  -12.9300003      -3.41646086E-11
  -12.9200001      -4.33381005E-11
  -12.9099998      -4.87238409E-11
  -12.8999996      -4.91661191E-11
  -12.8900003      -4.39470925E-11
  -12.8800001      -3.29416598E-11
  -12.8699999      -1.67164598E-11
  -12.8599997       3.44922506E-12
  -12.8500004       2.56350496E-11
  -12.8400002       4.74447530E-11
  -12.8299999       6.62531280E-11
  -12.8199997       7.95084693E-11
  -12.8100004       8.50545537E-11
  -12.8000002       8.14313131E-11
  -12.7900000       6.81137577E-11
  -12.7799997       4.56555557E-11
  -12.7700005       1.57154515E-11
  -12.7600002      -1.90411627E-11
  -12.7500000      -5.51587075E-11
  -12.7399998      -8.87070070E-11
  -12.7299995      -1.15666560E-10
  -12.7200003      -1.32349257E-10
  -12.7100000      -1.35817663E-10
  -12.6999998      -1.24264363E-10
  -12.6899996      -9.73172376E-11
  -12.6800003      -5.62357279E-11
  -12.6700001      -3.96935739E-12
  -12.6599998       5.49460998E-11
  -12.6499996       1.14670183E-10
  -12.6400003       1.68517117E-10
  -12.6300001       2.09574663E-10
  -12.6199999       2.31443309E-10
  -12.6099997       2.29028296E-10
  -12.6000004       1.99301242E-10
  -12.5900002       1.41930703E-10
  -12.5799999       5.96860200E-11
  -12.5699997      -4.14709100E-11
  -12.5600004      -1.52659232E-10
  -12.5500002      -2.62725369E-10
  -12.5400000      -3.59226177E-10
  -12.5299997      -4.29658975E-10
  -12.5200005      -4.62815120E-10
  -12.5100002      -4.50106508E-10
  -12.5000000      -3.86717852E-10
  -12.4899998      -2.72451256E-10
  -12.4799995      -1.12169309E-10
  -12.4700003       8.42125189E-11
  -12.4600000       3.02185027E-10
  -12.4499998       5.23509236E-10
  -12.4399996       7.27410576E-10
  -12.4300003       8.92002694E-10
  -12.4200001       9.95834859E-10
  -12.4099998       1.01945818E-09
  -12.3999996       9.46917988E-10
  -12.3900003       7.67078179E-10
  -12.3800001       4.74692285E-10
  -12.3699999       7.11537149E-11
  -12.3599997      -4.35153275E-10
  -12.3500004      -1.02895137E-09
  -12.3400002      -1.68865999E-09
  -12.3299999      -2.38745090E-09
  -12.3199997      -3.09473847E-09
  -12.3100004      -3.77800413E-09
  -12.3000002      -4.40478720E-09
  -12.2900000      -4.94467400E-09
  -12.2799997      -5.37110534E-09
  -12.2700005      -5.66277114E-09
  -12.2600002      -5.80449155E-09
  -12.2500000      -5.78752957E-09
  -12.2399998      -5.60928104E-09
  -12.2299995      -5.27249844E-09
  -12.2200003      -4.78411399E-09
  -12.2100000      -4.15391099E-09
  -12.1999998      -3.39321238E-09
  -12.1899996      -2.51369836E-09
  -12.1800003      -1.52655499E-09
  -12.1700001      -4.41910480E-10
  -12.1599998       7.31377681E-10
  -12.1499996       1.98564387E-09
  -12.1400003       3.31414940E-09
  -12.1300001       4.71065320E-09
  -12.1199999       6.16888585E-09
  -12.1099997       7.68200259E-09
  -12.1000004       9.24198140E-09
  -12.0900002       1.08389573E-08
  -12.0799999       1.24605588E-08
  -12.0699997       1.40912118E-08
  -12.0600004       1.57114926E-08
  -12.0500002       1.72976229E-08
  -12.0400000       1.88211526E-08
  -12.0299997       2.02490451E-08
  -12.0200005       2.15440181E-08
  -12.0100002       2.26654606E-08
  -12.0000000       2.35705659E-08
  -11.9899998       2.42159004E-08
  -11.9799995       2.45592116E-08
  -11.9700003       2.45610661E-08
  -11.9600000       2.41867149E-08
  -11.9499998       2.34075461E-08
  -11.9399996       2.22024639E-08
  -11.9300003       2.05589252E-08
  -11.9200001       1.84736741E-08
  -11.9099998       1.59532973E-08
  -11.8999996       1.30146010E-08
  -11.8900003       9.68448699E-09
  -11.8800001       5.99973005E-09
  -11.8699999       2.00632555E-09
  -11.8599997      -2.24166774E-09
  -11.8500004      -6.68368072E-09
  -11.8400002      -1.12546887E-08
  -11.8299999      -1.58876787E-08
  -11.8199997      -2.05164703E-08
  -11.8100004      -2.50782666E-08
  -11.8000002      -2.95164337E-08
  -11.7900000      -3.37824240E-08
  -11.7799997      -3.78373244E-08
  -11.7700005      -4.16525161E-08
  -11.7600002      -4.52093971E-08
  -11.7500000      -4.84984497E-08
  -11.7399998      -5.15174037E-08
  -11.7299995      -5.42691012E-08
  -11.7200003      -5.67588998E-08
  -11.7100000      -5.89920148E-08
  -11.6999998      -6.09709403E-08
  -11.6899996      -6.26931964E-08
  -11.6800003      -6.41492903E-08
  -11.6700001      -6.53212311E-08
  -11.6599998      -6.61817126E-08
  -11.6499996      -6.66938149E-08
  -11.6400003      -6.68112250E-08
  -11.6300001      -6.64795508E-08
  -11.6199999      -6.56381829E-08
  -11.6099997      -6.42223839E-08
  -11.6000004      -6.21670040E-08
  -11.5900002      -5.94097180E-08
  -11.5799999      -5.58948372E-08
  -11.5699997      -5.15771177E-08
  -11.5600004      -4.64255869E-08
  -11.5500002      -4.04262330E-08
  -11.5400000      -3.35843566E-08
  -11.5299997      -2.59259334E-08
  -11.5200005      -1.74978450E-08
  -11.5100002      -8.36704128E-09
  -11.5000000       1.38120526E-09
  -11.4899998       1.16463017E-08
  -11.4799995       2.23154846E-08
  -11.4700003       3.32681616E-08
  -11.4600000       4.43800694E-08
  -11.4499998       5.55280124E-08
  -11.4399996       6.65939197E-08
  -11.4300003       7.74694797E-08
  -11.4200001       8.80594939E-08
  -11.4099998       9.82850565E-08
  -11.3999996       1.08085430E-07
  -11.3900003       1.17419731E-07
  -11.3800001       1.26266769E-07
  -11.3699999       1.34624258E-07
  -11.3599997       1.42506593E-07
  -11.3500004       1.49942153E-07
  -11.3400002       1.56969193E-07
  -11.3299999       1.63631682E-07
  -11.3199997       1.69974683E-07
  -11.3100004       1.76039720E-07
  -11.3000002       1.81860443E-07
  -11.2900000       1.87459094E-07
  -11.2799997       1.92842947E-07
  -11.2700005       1.98002596E-07
  -11.2600002       2.02910613E-07
  -11.2500000       2.07521339E-07
  -11.2399998       2.11772345E-07
  -11.2299995       2.15586041E-07
  -11.2200003       2.18872898E-07
  -11.2100000       2.21535956E-07
  -11.1999998       2.23474871E-07
  -11.1899996       2.24592043E-07
  -11.1800003       2.24797105E-07
  -11.1700001       2.24012709E-07
  -11.1599998       2.22178627E-07
  -11.1499996       2.19256208E-07
  -11.1400003       2.15230429E-07
  -11.1300001       2.10110755E-07
  -11.1199999       2.03931563E-07
  -11.1099997       1.96750804E-07
  -11.1000004       1.88647292E-07
  -11.0900002       1.79717233E-07
  -11.0799999       1.70070123E-07
  -11.0699997       1.59823543E-07
  -11.0600004       1.49100359E-07
  -11.0500002       1.38022472E-07
  -11.0400000       1.26705430E-07
  -11.0299997       1.15256739E-07
  -11.0200005       1.03768365E-07
  -11.0100002       9.23165189E-08
  -11.0000000       8.09564469E-08
  -10.9899998       6.97209330E-08
  -10.9799995       5.86215982E-08
  -10.9700003       4.76452868E-08
  -10.9600000       3.67587312E-08
  -10.9499998       2.59106727E-08
  -10.9399996       1.50350612E-08
  -10.9300003       4.05547507E-09
  -10.9200001      -7.10911729E-09
  -10.9099998      -1.85414706E-08
  -10.8999996      -3.03190681E-08
  -10.8900003      -4.25120206E-08
  -10.8800001      -5.51772246E-08
  -10.8699999      -6.83599737E-08
  -10.8599997      -8.20870554E-08
  -10.8500004      -9.63695754E-08
  -10.8400002      -1.11203953E-07
  -10.8299999      -1.26569546E-07
  -10.8199997      -1.42433862E-07
  -10.8100004      -1.58752627E-07
  -10.8000002      -1.75475009E-07
  -10.7900000      -1.92543780E-07
  -10.7799997      -2.09901870E-07
  -10.7700005      -2.27492919E-07
  -10.7600002      -2.45266477E-07
  -10.7500000      -2.63176929E-07
  -10.7399998      -2.81189529E-07
  -10.7299995      -2.99277502E-07
  -10.7200003      -3.17426668E-07
  -10.7100000      -3.35632990E-07
  -10.6999998      -3.53900589E-07
  -10.6899996      -3.72243420E-07
  -10.6800003      -3.90681436E-07
  -10.6700001      -4.09240300E-07
  -10.6599998      -4.27947555E-07
  -10.6499996      -4.46832189E-07
  -10.6400003      -4.65920181E-07
  -10.6300001      -4.85236001E-07
  -10.6199999      -5.04799402E-07
  -10.6099997      -5.24625705E-07
  -10.6000004      -5.44724685E-07
  -10.5900002      -5.65102255E-07
  -10.5799999      -5.85762109E-07
  -10.5699997      -6.06704930E-07
  -10.5600004      -6.27930262E-07
  -10.5500002      -6.49437425E-07
  -10.5400000      -6.71228349E-07
  -10.5299997      -6.93302695E-07
  -10.5200005      -7.15662452E-07
  -10.5100002      -7.38308472E-07
  -10.5000000      -7.61238994E-07
  -10.4899998      -7.84449924E-07
  -10.4799995      -8.07930803E-07
  -10.4700003      -8.31663840E-07
  -10.4600000      -8.55622886E-07
  -10.4499998      -8.79770482E-07
  -10.4399996      -9.04059220E-07
  -10.4300003      -9.28429245E-07
  -10.4200001      -9.52809899E-07
  -10.4099998      -9.77119498E-07
  -10.3999996      -1.00126510E-06
  -10.3900003      -1.02514537E-06
  -10.3800001      -1.04864966E-06
  -10.3699999      -1.07166181E-06
  -10.3599997      -1.09406096E-06
  -10.3500004      -1.11572467E-06
  -10.3400002      -1.13653300E-06
  -10.3299999      -1.15636965E-06
  -10.3199997      -1.17512991E-06
  -10.3100004      -1.19272170E-06
  -10.3000002      -1.20907123E-06
  -10.2900000      -1.22412609E-06
  -10.2799997      -1.23785662E-06
  -10.2700005      -1.25025963E-06
  -10.2600002      -1.26135751E-06
  -10.2500000      -1.27119677E-06
  -10.2399998      -1.27985004E-06
  -10.2299995      -1.28741283E-06
  -10.2200003      -1.29400360E-06
  -10.2100000      -1.29975922E-06
  -10.1999998      -1.30483397E-06
  -10.1899996      -1.30939964E-06
  -10.1800003      -1.31363959E-06
  -10.1700001      -1.31774470E-06
  -10.1599998      -1.32191440E-06
  -10.1499996      -1.32634443E-06
  -10.1400003      -1.33122671E-06
  -10.1300001      -1.33673893E-06
  -10.1199999      -1.34304412E-06
  -10.1099997      -1.35028279E-06
  -10.1000004      -1.35856840E-06
  -10.0900002      -1.36798599E-06
  -10.0799999      -1.37858751E-06
  -10.0699997      -1.39039491E-06
  -10.0600004      -1.40339978E-06
  -10.0500002      -1.41756357E-06
  -10.0400000      -1.43282182E-06
  -10.0299997      -1.44909097E-06
  -10.0200005      -1.46626792E-06
  -10.0100002      -1.48423351E-06
  -10.0000000      -1.50286439E-06
  -9.98999977      -1.52202915E-06
  -9.97999954      -1.54159864E-06
  -9.97000027      -1.56144881E-06
  -9.96000004      -1.58146452E-06
  -9.94999981      -1.60154570E-06
  -9.93999958      -1.62160939E-06
  -9.93000031      -1.64159644E-06
  -9.92000008      -1.66146935E-06
  -9.90999985      -1.68122062E-06
  -9.89999962      -1.70086753E-06
  -9.89000034      -1.72046032E-06
  -9.88000011      -1.74007448E-06
  -9.86999989      -1.75981052E-06
  -9.85999966      -1.77979757E-06
  -9.85000038      -1.80018083E-06
  -9.84000015      -1.82112387E-06
  -9.82999992      -1.84280691E-06
  -9.81999969      -1.86542036E-06
  -9.81000042      -1.88915692E-06
  -9.80000019      -1.91421918E-06
  -9.78999996      -1.94080189E-06
  -9.77999973      -1.96909650E-06
  -9.77000046      -1.99928331E-06
  -9.76000023      -2.03153309E-06
  -9.75000000      -2.06599339E-06
  -9.73999977      -2.10279040E-06
  -9.72999954      -2.14202987E-06
  -9.72000027      -2.18378364E-06
  -9.71000004      -2.22809535E-06
  -9.69999981      -2.27497526E-06
  -9.68999958      -2.32441107E-06
  -9.68000031      -2.37635004E-06
  -9.67000008      -2.43070258E-06
  -9.65999985      -2.48735819E-06
  -9.64999962      -2.54616202E-06
  -9.64000034      -2.60692309E-06
  -9.63000011      -2.66942220E-06
  -9.61999989      -2.73340379E-06
  -9.60999966      -2.79857773E-06
  -9.60000038      -2.86461136E-06
  -9.59000015      -2.93115113E-06
  -9.57999992      -2.99781618E-06
  -9.56999969      -3.06419997E-06
  -9.56000042      -3.12988709E-06
  -9.55000019      -3.19444166E-06
  -9.53999996      -3.25742508E-06
  -9.52999973      -3.31840647E-06
  -9.52000046      -3.37697111E-06
  -9.51000023      -3.43270449E-06
  -9.50000000      -3.48522781E-06
  -9.48999977      -3.53420160E-06
  -9.47999954      -3.57932049E-06
  -9.47000027      -3.62032688E-06
  -9.46000004      -3.65702954E-06
  -9.44999981      -3.68928704E-06
  -9.43999958      -3.71703186E-06
  -9.43000031      -3.74027877E-06
  -9.42000008      -3.75910531E-06
  -9.40999985      -3.77365859E-06
  -9.39999962      -3.78417599E-06
  -9.39000034      -3.79096537E-06
  -9.38000011      -3.79441667E-06
  -9.36999989      -3.79498988E-06
  -9.35999966      -3.79322137E-06
  -9.35000038      -3.78971617E-06
  -9.34000015      -3.78514846E-06
  -9.32999992      -3.78023765E-06
  -9.31999969      -3.77575043E-06
  -9.31000042      -3.77250717E-06
  -9.30000019      -3.77133188E-06
  -9.28999996      -3.77306287E-06
  -9.27999973      -3.77852530E-06
  -9.27000046      -3.78856066E-06
  -9.26000023      -3.80397000E-06
  -9.25000000      -3.82553753E-06
  -9.23999977      -3.85400654E-06
  -9.22999954      -3.89008255E-06
  -9.22000027      -3.93443543E-06
  -9.21000004      -3.98765269E-06
  -9.19999981      -4.05028595E-06
  -9.18999958      -4.12280406E-06
  -9.18000031      -4.20560764E-06
  -9.17000008      -4.29899592E-06
  -9.15999985      -4.40319536E-06
  -9.14999962      -4.51833739E-06
  -9.14000034      -4.64445975E-06
  -9.13000011      -4.78150150E-06
  -9.11999989      -4.92927120E-06
  -9.10999966      -5.08750236E-06
  -9.10000038      -5.25581709E-06
  -9.09000015      -5.43372198E-06
  -9.07999992      -5.62061678E-06
  -9.06999969      -5.81580389E-06
  -9.06000042      -6.01851480E-06
  -9.05000019      -6.22786092E-06
  -9.03999996      -6.44289139E-06
  -9.02999973      -6.66257802E-06
  -9.02000046      -6.88582168E-06
  -9.01000023      -7.11150233E-06
  -9.00000000      -7.33841125E-06
  -8.98999977      -7.56532017E-06
  -8.97999954      -7.79098355E-06
  -8.97000027      -8.01414262E-06
  -8.96000004      -8.23351729E-06
  -8.94999981      -8.44786427E-06
  -8.93999958      -8.65595393E-06
  -8.93000031      -8.85658665E-06
  -8.92000008      -9.04861645E-06
  -8.90999985      -9.23092466E-06
  -8.89999962      -9.40247810E-06
  -8.89000034      -9.56231634E-06
  -8.88000011      -9.70955080E-06
  -8.86999989      -9.84337748E-06
  -8.85999966      -9.96310882E-06
  -8.85000038      -1.00681345E-05
  -8.84000015      -1.01579290E-05
  -8.82999992      -1.02320873E-05
  -8.81999969      -1.02903296E-05
  -8.81000042      -1.03324428E-05
  -8.80000019      -1.03583361E-05
  -8.78999996      -1.03680186E-05
  -8.77999973      -1.03615721E-05
  -8.77000046      -1.03392076E-05
  -8.76000023      -1.03012189E-05
  -8.75000000      -1.02480171E-05
  -8.73999977      -1.01800679E-05
  -8.72999954      -1.00979632E-05
  -8.72000027      -1.00023644E-05
  -8.71000004      -9.89401360E-06
  -8.69999981      -9.77371656E-06
  -8.68999958      -9.64233277E-06
  -8.68000031      -9.50078538E-06
  -8.67000008      -9.35002208E-06
  -8.65999985      -9.19103149E-06
  -8.64999962      -9.02485499E-06
  -8.64000034      -8.85247209E-06
  -8.63000011      -8.67495237E-06
  -8.61999989      -8.49327262E-06
  -8.60999966      -8.30844510E-06
  -8.60000038      -8.12140934E-06
  -8.59000015      -7.93310392E-06
  -8.57999992      -7.74439104E-06
  -8.56999969      -7.55608789E-06
  -8.56000042      -7.36897982E-06
  -8.55000019      -7.18377578E-06
  -8.53999996      -7.00111150E-06
  -8.52999973      -6.82160498E-06
  -8.52000046      -6.64574736E-06
  -8.51000023      -6.47400611E-06
  -8.50000000      -6.30673958E-06
  -8.48999977      -6.14427518E-06
  -8.47999954      -5.98685210E-06
  -8.47000027      -5.83462497E-06
  -8.46000004      -5.68776750E-06
  -8.44999981      -5.54632561E-06
  -8.43999958      -5.41031568E-06
  -8.43000031      -5.27978636E-06
  -8.42000008      -5.15470174E-06
  -8.40999985      -5.03504407E-06
  -8.39999962      -4.92074196E-06
  -8.39000034      -4.81179359E-06
  -8.38000011      -4.70812392E-06
  -8.36999989      -4.60972615E-06
  -8.35999966      -4.51658070E-06
  -8.35000038      -4.42872988E-06
  -8.34000015      -4.34619551E-06
  -8.32999992      -4.26905171E-06
  -8.31999969      -4.19737216E-06
  -8.31000042      -4.13130192E-06
  -8.30000019      -4.07096650E-06
  -8.28999996      -4.01655825E-06
  -8.27999973      -3.96828682E-06
  -8.27000046      -3.92642369E-06
  -8.26000023      -3.89125353E-06
  -8.25000000      -3.86309284E-06
  -8.23999977      -3.84229816E-06
  -8.22999954      -3.82925691E-06
  -8.22000027      -3.82439930E-06
  -8.21000004      -3.82816279E-06
  -8.19999981      -3.84100849E-06
  -8.18999958      -3.86340434E-06
  -8.18000031      -3.89585693E-06
  -8.17000008      -3.93885557E-06
  -8.15999985      -3.99288501E-06
  -8.14999962      -4.05845685E-06
  -8.14000034      -4.13604630E-06
  -8.13000011      -4.22615085E-06
  -8.11999989      -4.32920933E-06
  -8.10999966      -4.44564921E-06
  -8.10000038      -4.57586339E-06
  -8.09000015      -4.72023248E-06
  -8.07999992      -4.87907118E-06
  -8.06999969      -5.05264143E-06
  -8.06000042      -5.24119378E-06
  -8.05000019      -5.44487784E-06
  -8.03999996      -5.66381141E-06
  -8.02999973      -5.89807814E-06
  -8.02000046      -6.14766122E-06
  -8.01000023      -6.41249108E-06
  -8.00000000      -6.69240853E-06
  -7.98999977      -6.98718623E-06
  -7.98000002      -7.29653311E-06
  -7.96999979      -7.62006266E-06
  -7.96000004      -7.95732922E-06
  -7.94999981      -8.30781482E-06
  -7.94000006      -8.67093513E-06
  -7.92999983      -9.04601256E-06
  -7.92000008      -9.43232044E-06
  -7.90999985      -9.82910387E-06
  -7.90000010      -1.02354770E-05
  -7.88999987      -1.06505049E-05
  -7.88000011      -1.10732999E-05
  -7.86999989      -1.15028251E-05
  -7.86000013      -1.19380684E-05
  -7.84999990      -1.23779628E-05
  -7.84000015      -1.28215515E-05
  -7.82999992      -1.32676869E-05
  -7.82000017      -1.37153775E-05
  -7.80999994      -1.41636065E-05
  -7.80000019      -1.46113543E-05
  -7.78999996      -1.50576043E-05
  -7.78000021      -1.55014168E-05
  -7.76999998      -1.59419396E-05
  -7.76000023      -1.63782570E-05
  -7.75000000      -1.68096121E-05
  -7.73999977      -1.72352447E-05
  -7.73000002      -1.76544891E-05
  -7.71999979      -1.80667739E-05
  -7.71000004      -1.84715300E-05
  -7.69999981      -1.88683298E-05
  -7.69000006      -1.92567531E-05
  -7.67999983      -1.96364635E-05
  -7.67000008      -2.00072191E-05
  -7.65999985      -2.03688396E-05
  -7.65000010      -2.07212670E-05
  -7.63999987      -2.10644375E-05
  -7.63000011      -2.13984167E-05
  -7.61999989      -2.17233683E-05
  -7.61000013      -2.20394850E-05
  -7.59999990      -2.23470997E-05
  -7.59000015      -2.26465199E-05
  -7.57999992      -2.29381531E-05
  -7.57000017      -2.32225193E-05
  -7.55999994      -2.35000971E-05
  -7.55000019      -2.37715212E-05
  -7.53999996      -2.40373793E-05
  -7.53000021      -2.42983369E-05
  -7.51999998      -2.45549945E-05
  -7.51000023      -2.48080105E-05
  -7.50000000      -2.50580943E-05
  -7.48999977      -2.53058915E-05
  -7.48000002      -2.55520772E-05
  -7.46999979      -2.57972806E-05
  -7.46000004      -2.60422094E-05
  -7.44999981      -2.62874819E-05
  -7.44000006      -2.65337585E-05