  -16.0000000       0.00000000    
  -15.9899998       0.00000000    
  -15.9799995       0.00000000    
  -15.9700003       0.00000000    
  -15.9600000       0.00000000    
  -15.9499998       0.00000000    
  -15.9399996       0.00000000    
  -15.9300003       0.00000000    
  -15.9200001       0.00000000    
  -15.9099998       0.00000000    
  -15.8999996       0.00000000    
  -15.8900003       0.00000000    
  -15.8800001      -1.40129846E-45
  -15.8699999      -3.92363570E-44
  -15.8599997      -6.58610278E-43
  -15.8500004      -7.25452215E-42
  -15.8400002      -6.33484997E-41
  -15.8299999      -4.63217424E-40
  -15.8199997      -2.85499428E-39
  -15.8100004      -1.48542626E-38
  -15.8000002      -6.56180763E-38
  -15.7900000      -2.48108435E-37
  -15.7799997      -8.08948035E-37
  -15.7700005      -2.28452294E-36
  -15.7600002      -5.58442038E-36
  -15.7500000      -1.17033621E-35
  -15.7399998      -2.04393629E-35
  -15.7299995      -2.73683468E-35
  -15.7200003      -1.89301656E-35
  -15.7100000       3.25281901E-35
  -15.6999998       1.68425703E-34
  -15.6899996       4.29394954E-34
  -15.6800003       8.17163724E-34
  -15.6700001       1.23086280E-33
  -15.6599998       1.39431262E-33
  -15.6499996       8.20197234E-34
  -15.6400003      -1.10899507E-33
  -15.6300001      -4.83974571E-33
  -15.6199999      -1.00418265E-32
  -15.6099997      -1.47409519E-32
  -15.6000004      -1.45626118E-32
  -15.5900002      -3.03730218E-33
  -15.5799999       2.54773766E-32
  -15.5699997       6.88510551E-32
  -15.5600004       1.07074005E-31
  -15.5500002       9.53634309E-32
  -15.5400000      -2.56751829E-32
  -15.5299997      -2.86014961E-31
  -15.5200005      -6.05006301E-31
  -15.5100002      -7.10752174E-31
  -15.5000000      -1.59885758E-31
  -15.4899998       1.40386573E-30
  -15.4799995       3.68593501E-30
  -15.4700003       5.07499091E-30
  -15.4600000       2.52204570E-30
  -15.4499998      -7.03952447E-30
  -15.4399996      -2.30493656E-29
  -15.4300003      -3.63614791E-29
  -15.4200001      -2.67903536E-29
  -15.4099998       3.02320205E-29
  -15.3999996       1.41958731E-28
  -15.3900003       2.63950769E-28
  -15.3800001       2.72793941E-28
  -15.3699999      -1.41292570E-29
  -15.3599997      -7.26682787E-28
  -15.3500004      -1.72809457E-27
  -15.3400002      -2.38212093E-27
  -15.3299999      -1.51406270E-27
  -15.3199997       2.13765185E-27
  -15.3100004       8.78558319E-27
  -15.3000002       1.60008817E-26
  -15.2900000       1.76165228E-26
  -15.2799997       4.78372726E-27
  -15.2700005      -2.91568291E-26
  -15.2600002      -7.98514652E-26
  -15.2500000      -1.22450638E-25
  -15.2399998      -1.09187532E-25
  -15.2299995       1.56431780E-26
  -15.2200003       2.76467052E-25
  -15.2100000       6.09419750E-25
  -15.1999998       8.16294628E-25
  -15.1899996       5.80281645E-25
  -15.1800003      -4.02468502E-25
  -15.1700001      -2.15943119E-24
  -15.1599998      -4.12096993E-24
  -15.1499996      -4.94018699E-24
  -15.1400003      -2.74195192E-24
  -15.1300001       3.95635753E-24
  -15.1199999       1.46906474E-23
  -15.1099997       2.54262933E-23
  -15.1000004       2.80318252E-23
  -15.0900002       1.23147309E-23
  -15.0799999      -2.84315252E-23
  -15.0699997      -8.91185694E-23
  -15.0600004      -1.45255319E-22
  -15.0500002      -1.52182224E-22
  -15.0400000      -5.79722141E-23
  -15.0299997       1.66724616E-22
  -15.0200005       4.87589801E-22
  -15.0100002       7.72797173E-22
  -15.0000000       7.95982716E-22
  -14.9899998       3.05858438E-22
  -14.9799995      -8.27340051E-22
  -14.9700003      -2.42116210E-21
  -14.9600000      -3.83483880E-21
  -14.9499998      -4.00009600E-21
  -14.9399996      -1.75343973E-21
  -14.9300003       3.49988034E-21
  -14.9200001       1.09476086E-20
  -14.9099998       1.77485995E-20
  -14.8999996       1.91846836E-20
  -14.8900003       1.00894741E-20
  -14.8800001      -1.23482112E-20
  -14.8699999      -4.50750167E-20
  -14.8599997      -7.65485476E-20
  -14.8500004      -8.72221954E-20
  -14.8400002      -5.51227538E-20
  -14.8299999       3.30825813E-20
  -14.8199997       1.68068069E-19
  -14.8100004       3.06913889E-19
  -14.8000002       3.73694222E-19
  -14.7900000       2.79230274E-19
  -14.7799997      -3.80365951E-20
  -14.7700005      -5.58682077E-19
  -14.7600002      -1.13778993E-18
  -14.7500000      -1.49977089E-18
  -14.7399998      -1.30117537E-18
  -14.7299995      -2.71488199E-19
  -14.7200003       1.59400630E-18
  -14.7100000       3.85957511E-18
  -14.6999998       5.59700470E-18
  -14.6899996       5.56008102E-18
  -14.6800003       2.63377244E-18
  -14.6700001      -3.50802293E-18
  -14.6599998      -1.17500328E-17
  -14.6499996      -1.92262533E-17
  -14.6400003      -2.17140370E-17
  -14.6300001      -1.49441328E-17
  -14.6199999       3.30029369E-18
  -14.6099997       3.08891508E-17
  -14.6000004       5.98793398E-17
  -14.5900002       7.70616613E-17
  -14.5799999       6.73715448E-17
  -14.5699997       2.00857369E-17
  -14.5600004      -6.36590788E-17
  -14.5500002      -1.64902227E-16
  -14.5400000      -2.46101479E-16
  -14.5299997      -2.58678171E-16
  -14.5200005      -1.59661872E-16
  -14.5100002       6.55982284E-17
  -14.5000000       3.82023479E-16
  -14.4899998       6.95141782E-16
  -14.4799995       8.63406571E-16
  -14.4700003       7.37779303E-16
  -14.4600000       2.24139847E-16
  -14.4499998      -6.48213139E-16
  -14.4399996      -1.67930073E-15
  -14.4300003      -2.50315748E-15
  -14.4200001      -2.66663442E-15
  -14.4099998      -1.78238856E-15
  -14.3999996       2.75812986E-16
  -14.3900003       3.19963752E-15
  -14.3800001       6.17767132E-15
  -14.3699999       8.00674665E-15
  -14.3599997       7.41481546E-15
  -14.3500004       3.55243437E-15
  -14.3400002      -3.47768519E-15
  -14.3299999      -1.22533658E-14
  -14.3199997      -2.00439657E-14
  -14.3100004      -2.33499980E-14
  -14.3000002      -1.89692995E-14
  -14.2900000      -5.37670003E-15
  -14.2799997       1.60028444E-14
  -14.2700005       4.01671562E-14
  -14.2600002       5.90477510E-14
  -14.2500000       6.33933552E-14
  -14.2399998       4.58192884E-14
  -14.2299995       4.29451125E-15
  -14.2200003      -5.50898303E-14
  -14.2100000      -1.17366362E-13
  -14.1999998      -1.60948633E-13
  -14.1899996      -1.63122499E-13
  -14.1800003      -1.07878001E-13
  -14.1700001       5.96868161E-15
  -14.1599998       1.59199626E-13
  -14.1499996       3.12011295E-13
  -14.1400003       4.11055060E-13
  -14.1300001       4.03548939E-13
  -14.1199999       2.55764756E-13
  -14.1099997      -2.91712387E-14
  -14.1000004      -4.00529192E-13
  -14.0900002      -7.62119372E-13
  -14.0799999      -9.90480701E-13
  -14.0699997      -9.67726767E-13
  -14.0600004      -6.22316001E-13
  -14.0500002       3.35514426E-14
  -14.0400000       8.83230175E-13
  -14.0299997       1.71309006E-12
  -14.0200005       2.25346933E-12
  -14.0100002       2.24897488E-12
  -14.0000000       1.54340180E-12
  -13.9899998       1.56054951E-13
  -13.9799995      -1.67691924E-12
  -13.9700003      -3.51811353E-12
  -13.9600000      -4.81080757E-12
  -13.9499998      -5.01830955E-12
  -13.9399996      -3.79180324E-12
  -13.9300003      -1.12221940E-12
  -13.9200001       2.57372097E-12
  -13.9099998       6.47450409E-12
  -13.8999996       9.49996158E-12
  -13.8900003       1.05670663E-11
  -13.8800001       8.90386983E-12
  -13.8699999       4.34188926E-12
  -13.8599997      -2.50300562E-12
  -13.8500004      -1.02368244E-11
  -13.8400002      -1.69170823E-11
  -13.8299999      -2.04844058E-11
  -13.8199997      -1.93123208E-11
  -13.8100004      -1.27418701E-11
  -13.8000002      -1.44741673E-12
  -13.7900000       1.24992404E-11
  -13.7799997       2.59372801E-11
  -13.7700005       3.52754388E-11
  -13.7600002       3.73765741E-11
  -13.7500000       3.04610850E-11
  -13.7399998       1.47852026E-11
  -13.7299995      -7.12315406E-12
  -13.7200003      -3.07964314E-11
  -13.7100000      -5.07126043E-11
  -13.6999998      -6.15646562E-11
  -13.6899996      -5.96194413E-11
  -13.6800003      -4.38133314E-11
  -13.6700001      -1.62680980E-11
  -13.6599998       1.79605532E-11
  -13.6499996       5.18935797E-11
  -13.6400003       7.81798445E-11
  -13.6300001       9.08045722E-11
  -13.6199999       8.65067740E-11
  -13.6099997       6.55203808E-11
  -13.6000004       3.14371029E-11
  -13.5900002      -9.75698081E-12
  -13.5799999      -5.11673273E-11
  -13.5699997      -8.65322120E-11
  -13.5600004      -1.11336620E-10
  -13.5500002      -1.23169280E-10
  -13.5400000      -1.21277335E-10
  -13.5299997      -1.05599460E-10
  -13.5200005      -7.58110796E-11
  -13.5100002      -3.09842256E-11
  -13.5000000       2.97065220E-11
  -13.4899998       1.05197469E-10
  -13.4799995       1.90149743E-10
  -13.4700003       2.72908640E-10
  -13.4600000       3.34976130E-10
  -13.4499998       3.52996909E-10
  -13.4399996       3.03659486E-10
  -13.4300003       1.70975997E-10
  -13.4200001      -4.56320121E-11
  -13.4099998      -3.24827526E-10
  -13.3999996      -6.21074470E-10
  -13.3900003      -8.68695116E-10
  -13.3800001      -9.93048421E-10
  -13.3699999      -9.27678767E-10
  -13.3599997      -6.34204023E-10
  -13.3500004      -1.20089119E-10
  -13.3400002       5.51157842E-10
  -13.3299999       1.26198707E-09
  -13.3199997       1.85731364E-09
  -13.3100004       2.17437823E-09
  -13.3000002       2.08097872E-09
  -13.2900000       1.51385859E-09
  -13.2799997       5.07440590E-10
  -13.2700005      -7.96180122E-10
  -13.2600002      -2.16179430E-09
  -13.2500000      -3.30065220E-09
  -13.2399998      -3.92920319E-09
  -13.2299995      -3.83538978E-09
  -13.2200003      -2.93733526E-09
  -13.2100000      -1.31908373E-09
  -13.1999998       7.68163200E-10
  -13.1899996       2.94367353E-09
  -13.1800003       4.76887729E-09
  -13.1700001       5.83936055E-09
  -13.1599998       5.87702020E-09
  -13.1499996       4.80035967E-09
  -13.1400003       2.75448642E-09
  -13.1300001       9.09697526E-11
  -13.1199999      -2.70049205E-09
  -13.1099997      -5.09448794E-09
  -13.1000004      -6.64299149E-09
  -13.0900002      -7.07195458E-09
  -13.0799999      -6.33736974E-09
  -13.0699997      -4.62645389E-09
  -13.0600004      -2.30355757E-09
  -13.0500002       1.84926907E-10
  -13.0400000       2.42103781E-09
  -13.0299997       4.11086098E-09
  -13.0200005       5.13877607E-09
  -13.0100002       5.56535706E-09
  -13.0000000       5.57038238E-09
  -12.9899998       5.35922551E-09
  -12.9799995       5.06314901E-09
  -12.9700003       4.66777639E-09
  -12.9600000       3.99744327E-09
  -12.9499998       2.76741963E-09
  -12.9399996       6.95061397E-10
  -12.9300003      -2.35945397E-09
  -12.9200001      -6.26577679E-09
  -12.9099998      -1.05545865E-08
  -12.8999996      -1.44413832E-08
  -12.8900003      -1.69542975E-08
  -12.8800001      -1.71484249E-08
  -12.8699999      -1.43616816E-08
  -12.8599997      -8.44868442E-09
  -12.8500004       7.40338138E-11
  -12.8400002       1.00236530E-08
  -12.8299999       1.97097716E-08
  -12.8199997       2.72390963E-08
  -12.8100004       3.09101758E-08
  -12.8000002       2.96135259E-08
  -12.7900000       2.31424622E-08
  -12.7799997       1.23323325E-08
  -12.7700005      -1.02043851E-09
  -12.7600002      -1.44599790E-08
  -12.7500000      -2.53423416E-08
  -12.7399998      -3.13827506E-08
  -12.7299995      -3.11620845E-08
  -12.7200003      -2.44792204E-08
  -12.7100000      -1.24659572E-08
  -12.6999998       2.56817057E-09
  -12.6899996       1.75345498E-08
  -12.6800003       2.91269640E-08
  -12.6700001       3.44301263E-08
  -12.6599998       3.14522453E-08
  -12.6499996       1.94812309E-08
  -12.6400003      -7.89417642E-10
  -12.6300001      -2.73605831E-08
  -12.6199999      -5.71959795E-08
  -12.6099997      -8.65684413E-08
  -12.6000004      -1.11390200E-07
  -12.5900002      -1.27462968E-07
  -12.5799999      -1.30635925E-07
  -12.5699997      -1.16920162E-07
  -12.5600004      -8.26552338E-08
  -12.5500002      -2.48387817E-08
  -12.5400000       5.82972923E-08
  -12.5299997       1.66449780E-07
  -12.5200005       2.96229103E-07
  -12.5100002       4.40148227E-07
  -12.5000000       5.85870794E-07
  -12.4899998       7.15991632E-07
  -12.4799995       8.08574839E-07
  -12.4700003       8.38556446E-07
  -12.4600000       7.79958100E-07
  -12.4499998       6.08680978E-07
  -12.4399996       3.05509587E-07
  -12.4300003      -1.41129803E-07
  -12.4200001      -7.33087006E-07
  -12.4099998      -1.46141849E-06
  -12.3999996      -2.30648448E-06
  -12.3900003      -3.23916311E-06
  -12.3800001      -4.22294306E-06
  -12.3699999      -5.21652692E-06
  -12.3599997      -6.17654359E-06
  -12.3500004      -7.06002265E-06
  -12.3400002      -7.82640382E-06
  -12.3299999      -8.43902399E-06
  -12.3199997      -8.86616908E-06
  -12.3100004      -9.08185120E-06
  -12.3000002      -9.06651076E-06
  -12.2900000      -8.80771677E-06
  -12.2799997      -8.30091358E-06
  -12.2700005      -7.55001838E-06
  -12.2600002      -6.56768270E-06
  -12.2500000      -5.37494088E-06
  -12.2399998      -4.00012459E-06
  -12.2299995      -2.47697267E-06
  -12.2200003      -8.42153099E-07
  -12.2100000       8.67490087E-07
  -12.1999998       2.61750415E-06
  -12.1899996       4.37776453E-06
  -12.1800003       6.12344593E-06
  -12.1700001       7.83487940E-06
  -12.1599998       9.49641799E-06
  -12.1499996       1.10946194E-05
  -12.1400003       1.26162277E-05
  -12.1300001       1.40464690E-05
  -12.1199999       1.53680339E-05
  -12.1099997       1.65610090E-05
  -12.1000004       1.76036992E-05
  -12.0900002       1.84741166E-05
  -12.0799999       1.91517429E-05
  -12.0699997       1.96191431E-05
  -12.0600004       1.98630605E-05
  -12.0500002       1.98748785E-05
  -12.0400000       1.96503843E-05
  -12.0299997       1.91891286E-05
  -12.0200005       1.84936634E-05
  -12.0100002       1.75689365E-05
  -12.0000000       1.64220946E-05
  -11.9899998       1.50627257E-05
  -11.9799995       1.35034306E-05
  -11.9700003       1.17603895E-05
  -11.9600000       9.85372299E-06
  -11.9499998       7.80733717E-06
  -11.9399996       5.64817765E-06
  -11.9300003       3.40499628E-06
  -11.9200001       1.10686983E-06
  -11.9099998      -1.21816652E-06
  -11.8999996      -3.54403960E-06
  -11.8900003      -5.84691816E-06
  -11.8800001      -8.10482561E-06
  -11.8699999      -1.02968006E-05
  -11.8599997      -1.24019598E-05
  -11.8500004      -1.43989082E-05
  -11.8400002      -1.62658289E-05
  -11.8299999      -1.79814888E-05
  -11.8199997      -1.95270350E-05
  -11.8100004      -2.08883102E-05
  -11.8000002      -2.20581369E-05
  -11.7900000      -2.30380174E-05
  -11.7799997      -2.38386820E-05
  -11.7700005      -2.44791663E-05
  -11.7600002      -2.49843379E-05
  -11.7500000      -2.53811213E-05
  -11.7399998      -2.56938965E-05
  -11.7299995      -2.59398093E-05
  -11.7200003      -2.61247151E-05
  -11.7100000      -2.62404810E-05
  -11.6999998      -2.62641715E-05
  -11.6899996      -2.61593614E-05
  -11.6800003      -2.58795717E-05
  -11.6700001      -2.53733633E-05
  -11.6599998      -2.45905449E-05
  -11.6499996      -2.34884992E-05
  -11.6400003      -2.20378442E-05
  -11.6300001      -2.02264564E-05
  -11.6199999      -1.80613551E-05
  -11.6099997      -1.55681664E-05
  -11.6000004      -1.27883804E-05
  -11.5900002      -9.77497166E-06
  -11.5799999      -6.58723184E-06
  -11.5699997      -3.28577676E-06
  -11.5600004       7.15097173E-08
  -11.5500002       3.43214765E-06
  -11.5400000       6.75029014E-06
  -11.5299997       9.98691667E-06
  -11.5200005       1.31095758E-05
  -11.5100002       1.60922900E-05
  -11.5000000       1.89159982E-05
  -11.4899998       2.15694508E-05
  -11.4799995       2.40500594E-05
  -11.4700003       2.63639868E-05
  -11.4600000       2.85246006E-05
  -11.4499998       3.05489411E-05
  -11.4399996       3.24523680E-05
  -11.4300003       3.42421336E-05
  -11.4200001       3.59115584E-05
  -11.4099998       3.74362244E-05
  -11.3999996       3.87736327E-05
  -11.3900003       3.98670891E-05
  -11.3800001       4.06533909E-05
  -11.3699999       4.10729663E-05
  -11.3599997       4.10804714E-05
  -11.3500004       4.06535473E-05
  -11.3400002       3.97979311E-05
  -11.3299999       3.85478670E-05
  -11.3199997       3.69620211E-05
  -11.3100004       3.51160998E-05
  -11.3000002       3.30938456E-05
  -11.2900000       3.09784082E-05
  -11.2799997       2.88454758E-05
  -11.2700005       2.67587475E-05
  -11.2600002       2.47676526E-05
  -11.2500000       2.29065135E-05
  -11.2399998       2.11942679E-05
  -11.2299995       1.96341443E-05
  -11.2200003       1.82133226E-05
  -11.2100000       1.69030955E-05
  -11.1999998       1.56604692E-05
  -11.1899996       1.44319220E-05
  -11.1800003       1.31596080E-05
  -11.1700001       1.17893960E-05
  -11.1599998       1.02794356E-05
  -11.1499996       8.60758155E-06
  -11.1400003       6.77596790E-06
  -11.1300001       4.81182860E-06
  -11.1199999       2.76436845E-06
  -11.1099997       6.98628185E-07
  -11.1000004      -1.31220690E-06
  -11.0900002      -3.19437322E-06
  -11.0799999      -4.87973284E-06
  -11.0699997      -6.30991144E-06
  -11.0600004      -7.43861256E-06
  -11.0500002      -8.23269056E-06
  -11.0400000      -8.67276958E-06
  -11.0299997      -8.75387377E-06
  -11.0200005      -8.48601849E-06
  -11.0100002      -7.89427122E-06
  -11.0000000      -7.01762247E-06
  -10.9899998      -5.90615173E-06
  -10.9799995      -4.61660420E-06
  -10.9700003      -3.20706158E-06
  -10.9600000      -1.73181286E-06
  -10.9499998      -2.37585411E-07
  -10.9399996       1.23814618E-06
  -10.9300003       2.66680354E-06
  -10.9200001       4.02701744E-06
  -10.9099998       5.30275111E-06
  -10.8999996       6.48219930E-06
  -10.8900003       7.55783140E-06
  -10.8800001       8.52706762E-06
  -10.8699999       9.39237725E-06
  -10.8599997       1.01594533E-05
  -10.8500004       1.08326431E-05
  -10.8400002       1.14080194E-05
  -10.8299999       1.18658145E-05
  -10.8199997       1.21649064E-05
  -10.8100004       1.22421416E-05
  -10.8000002       1.20183522E-05
  -10.7900000       1.14110044E-05
  -10.7799997       1.03512439E-05
  -10.7700005       8.80132120E-06
  -10.7600002       6.76770333E-06
  -10.7500000       4.30599857E-06
  -10.7399998       1.51592315E-06
  -10.7299995      -1.47274386E-06
  -10.7200003      -4.51963069E-06
  -10.7100000      -7.49368019E-06
  -10.6999998      -1.02885770E-05
  -10.6899996      -1.28304182E-05
  -10.6800003      -1.50769256E-05
  -10.6700001      -1.70101430E-05
  -10.6599998      -1.86262369E-05
  -10.6499996      -1.99263359E-05
  -10.6400003      -2.09112168E-05
  -10.6300001      -2.15805176E-05
  -10.6199999      -2.19350841E-05
  -10.6099997      -2.19798021E-05
  -10.6000004      -2.17243196E-05
  -10.5900002      -2.11803508E-05
  -10.5799999      -2.03563122E-05
  -10.5699997      -1.92517618E-05
  -10.5600004      -1.78547944E-05
  -10.5500002      -1.61449789E-05
  -10.5400000      -1.41021892E-05
  -10.5299997      -1.17194049E-05
  -10.5200005      -9.01545991E-06
  -10.5100002      -6.04316983E-06
  -10.5000000      -2.88930460E-06
  -10.4899998       3.34559900E-07
  -10.4799995       3.50821483E-06
  -10.4700003       6.52152266E-06
  -10.4600000       9.29020280E-06
  -10.4499998       1.17643158E-05
  -10.4399996       1.39275799E-05
  -10.4300003       1.57888171E-05
  -10.4200001       1.73693079E-05
  -10.4099998       1.86908746E-05
  -10.3999996       1.97684421E-05
  -10.3900003       2.06086224E-05
  -10.3800001       2.12129271E-05
  -10.3699999       2.15822492E-05
  -10.3599997       2.17189845E-05
  -10.3500004       2.16244789E-05
  -10.3400002       2.12924515E-05
  -10.3299999       2.07015200E-05
  -10.3199997       1.98116377E-05
  -10.3100004       1.85684967E-05
  -10.3000002       1.69174073E-05
  -10.2900000       1.48240433E-05
  -10.2799997       1.22961574E-05
  -10.2700005       9.39835263E-06
  -10.2600002       6.25317580E-06
  -10.2500000       3.02537796E-06
  -10.2399998      -1.08413047E-07
  -10.2299995      -2.99736371E-06
  -10.2200003      -5.55102361E-06
  -10.2100000      -7.76063735E-06
  -10.1999998      -9.70050405E-06
  -10.1899996      -1.15084285E-05
  -10.1800003      -1.33505573E-05
  -10.1700001      -1.53803194E-05
  -10.1599998      -1.77026213E-05
  -10.1499996      -2.03522541E-05
  -10.1400003      -2.32907169E-05
  -10.1300001      -2.64199007E-05
  -10.1199999      -2.96063827E-05
  -10.1099997      -3.27079033E-05
  -10.1000004      -3.55944503E-05
  -10.0900002      -3.81596365E-05
  -10.0799999      -4.03223858E-05
  -10.0699997      -4.20223696E-05
  -10.0600004      -4.32142551E-05
  -10.0500002      -4.38651005E-05
  -10.0400000      -4.39563846E-05
  -10.0299997      -4.34894137E-05
  -10.0200005      -4.24902391E-05
  -10.0100002      -4.10101784E-05
  -10.0000000      -3.91195972E-05
  -9.98999977      -3.68953479E-05
  -9.97999954      -3.44054715E-05
  -9.97000027      -3.16961086E-05
  -9.96000004      -2.87852708E-05
  -9.94999981      -2.56659023E-05
  -9.93999958      -2.23171191E-05
  -9.93000031      -1.87197693E-05
  -9.92000008      -1.48707322E-05
  -9.90999985      -1.07912183E-05
  -9.89999962      -6.52671406E-06
  -9.89000034      -2.13965041E-06
  -9.88000011       2.30137448E-06
  -9.86999989       6.73076192E-06
  -9.85999966       1.10895135E-05
  -9.85000038       1.53219189E-05
  -9.84000015       1.93673604E-05
  -9.82999992       2.31519498E-05
  -9.81999969       2.65850285E-05
  -9.81000042       2.95642567E-05
  -9.80000019       3.19895225E-05
  -9.78999996       3.37820929E-05
  -9.77999973       3.49028742E-05
  -9.77000046       3.53630057E-05
  -9.76000023       3.52219540E-05
  -9.75000000       3.45724584E-05
  -9.73999977       3.35158438E-05
  -9.72999954       3.21349071E-05
  -9.72000027       3.04725763E-05
  -9.71000004       2.85232509E-05
  -9.69999981       2.62394751E-05
  -9.68999958       2.35522530E-05
  -9.68000031       2.03990367E-05
  -9.67000008       1.67512299E-05
  -9.65999985       1.26336536E-05
  -9.64999962       8.13125644E-06
  -9.64000034       3.38225482E-06
  -9.63000011      -1.43892635E-06
  -9.61999989      -6.14329565E-06
  -9.60999966      -1.05473437E-05
  -9.60000038      -1.44871010E-05
  -9.59000015      -1.78246210E-05
  -9.57999992      -2.04483895E-05
  -9.56999969      -2.22710732E-05
  -9.56000042      -2.32283346E-05
  -9.55000019      -2.32810580E-05
  -9.53999996      -2.24211708E-05
  -9.52999973      -2.06786008E-05
  -9.52000046      -1.81256419E-05
  -9.51000023      -1.48751933E-05
  -9.50000000      -1.10707015E-05
  -9.48999977      -6.86861176E-06
  -9.47999954      -2.41661451E-06
  -9.47000027       2.16692706E-06
  -9.46000004       6.80701169E-06
  -9.44999981       1.14753866E-05
  -9.43999958       1.61822554E-05
  -9.43000031       2.09583086E-05
  -9.42000008       2.58321488E-05
  -9.40999985       3.08093149E-05
  -9.39999962       3.58586658E-05
  -9.39000034       4.09095883E-05
  -9.38000011       4.58602408E-05
  -9.36999989       5.05935641E-05
  -9.35999966       5.49957731E-05
  -9.35000038       5.89711562E-05
  -9.34000015       6.24484528E-05
  -9.32999992       6.53772440E-05
  -9.31999969       6.77156349E-05
  -9.31000042       6.94141636E-05
  -9.30000019       7.04017148E-05
  -9.28999996       7.05789644E-05
  -9.27999973       6.98225122E-05
  -9.27000046       6.79995937E-05
  -9.26000023       6.49897338E-05
  -9.25000000       6.07074799E-05
  -9.23999977       5.51204030E-05
  -9.22999954       4.82573560E-05
  -9.22000027       4.02054575E-05
  -9.21000004       3.10970790E-05
  -9.19999981       2.10907583E-05
  -9.18999958       1.03509992E-05
  -9.18000031      -9.68399718E-07
  -9.17000008      -1.27350959E-05
  -9.15999985      -2.48421638E-05
  -9.14999962      -3.72069226E-05
  -9.14000034      -4.97661713E-05
  -9.13000011      -6.24698660E-05
  -9.11999989      -7.52736960E-05
  -9.10999966      -8.81308806E-05
  -9.10000038      -1.00982346E-04
  -9.09000015      -1.13746290E-04
  -9.07999992      -1.26308616E-04
  -9.06999969      -1.38517644E-04
  -9.06000042      -1.50185835E-04
  -9.05000019      -1.61101561E-04
  -9.03999996      -1.71049498E-04
  -9.02999973      -1.79836483E-04
  -9.02000046      -1.87316531E-04
  -9.01000023      -1.93407366E-04
  -9.00000000      -1.98093738E-04
  -8.98999977      -2.01415154E-04
  -8.97999954      -2.03440955E-04
  -8.97000027      -2.04240801E-04
  -8.96000004      -2.03858974E-04
  -8.94999981      -2.02300915E-04
  -8.93999958      -1.99536647E-04
  -8.93000031      -1.95518747E-04
  -8.92000008      -1.90209190E-04
  -8.90999985      -1.83605211E-04
  -8.89999962      -1.75755689E-04
  -8.89000034      -1.66762184E-04
  -8.88000011      -1.56765585E-04
  -8.86999989      -1.45923768E-04
  -8.85999966      -1.34388421E-04
  -8.85000038      -1.22289479E-04
  -8.84000015      -1.09731838E-04
  -8.82999992      -9.68031745E-05
  -8.81999969      -8.35882674E-05
  -8.81000042      -7.01810568E-05
  -8.80000019      -5.66888157E-05
  -8.78999996      -4.32247216E-05
  -8.77999973      -2.98916748E-05
  -8.77000046      -1.67644994E-05
  -8.76000023      -3.87836781E-06
  -8.75000000       8.76990089E-06
  -8.73999977       2.12063951E-05
  -8.72999954       3.34551987E-05
  -8.72000027       4.55127774E-05
  -8.71000004       5.73317520E-05
  -8.69999981       6.88210639E-05
  -8.68999958       7.98635156E-05
  -8.68000031       9.03453620E-05
  -8.67000008       1.00187135E-04
  -8.65999985       1.09364621E-04
  -8.64999962       1.17911652E-04
  -8.64000034       1.25902938E-04
  -8.63000011       1.33422611E-04
  -8.61999989       1.40528864E-04
  -8.60999966       1.47226965E-04
  -8.60000038       1.53459361E-04
  -8.59000015       1.59115734E-04
  -8.57999992       1.64059034E-04
  -8.56999969       1.68157785E-04
  -8.56000042       1.71314328E-04
  -8.55000019       1.73480745E-04
  -8.53999996       1.74659450E-04
  -8.52999973       1.74891466E-04
  -8.52000046       1.74239278E-04
  -8.51000023       1.72771834E-04
  -8.50000000       1.70556610E-04
  -8.48999977       1.67659877E-04
  -8.47999954       1.64151512E-04
  -8.47000027       1.60109092E-04
  -8.46000004       1.55616930E-04
  -8.44999981       1.50759297E-04
  -8.43999958       1.45610451E-04
  -8.43000031       1.40227887E-04
  -8.42000008       1.34654430E-04
  -8.40999985       1.28931570E-04
  -8.39999962       1.23121426E-04
  -8.39000034       1.17329764E-04
  -8.38000011       1.11720132E-04
  -8.36999989       1.06510808E-04
  -8.35999966       1.01951751E-04
  -8.35000038       9.82855927E-05
  -8.34000015       9.57036973E-05
  -8.32999992       9.43104315E-05
  -8.31999969       9.41074759E-05
  -8.31000042       9.50035974E-05
  -8.30000019       9.68463864E-05
  -8.28999996       9.94651200E-05
  -8.27999973       1.02710226E-04
  -8.27000046       1.06476371E-04
  -8.26000023       1.10701883E-04
  -8.25000000       1.15347313E-04
  -8.23999977       1.20362260E-04
  -8.22999954       1.25655031E-04
  -8.22000027       1.31077381E-04
  -8.21000004       1.36431277E-04
  -8.19999981       1.41495417E-04
  -8.18999958       1.46061589E-04
  -8.18000031       1.49967920E-04
  -8.17000008       1.53116358E-04
  -8.15999985       1.55468078E-04
  -8.14999962       1.57020113E-04
  -8.14000034       1.57771865E-04
  -8.13000011       1.57695147E-04
  -8.11999989       1.56719892E-04
  -8.10999966       1.54739610E-04
  -8.10000038       1.51635511E-04
  -8.09000015       1.47308543E-04
  -8.07999992       1.41706289E-04
  -8.06999969       1.34834641E-04
  -8.06000042       1.26748317E-04
  -8.05000019       1.17524265E-04
  -8.03999996       1.07227963E-04
  -8.02999973       9.58853998E-05
  -8.02000046       8.34727252E-05
  -8.01000023       6.99272496E-05
  -8.00000000       5.51773446E-05
  -7.98999977       3.91804242E-05
  -7.98000002       2.19556441E-05
  -7.96999979       3.59972250E-06
  -7.96000004      -1.57196300E-05
  -7.94999981      -3.57900244E-05
  -7.94000006      -5.63910180E-05
  -7.92999983      -7.73280190E-05
  -7.92000008      -9.84516446E-05
  -7.90999985      -1.19657074E-04
  -7.90000010      -1.40864242E-04
  -7.88999987      -1.61988442E-04
  -7.88000011      -1.82912394E-04
  -7.86999989      -2.03471267E-04
  -7.86000013      -2.23456926E-04
  -7.84999990      -2.42638896E-04
  -7.84000015      -2.60795263E-04
  -7.82999992      -2.77741114E-04
  -7.82000017      -2.93344463E-04
  -7.80999994      -3.07523500E-04
  -7.80000019      -3.20227555E-04
  -7.78999996      -3.31408664E-04
  -7.78000021      -3.40996718E-04
  -7.76999998      -3.48888221E-04
  -7.76000023      -3.54954682E-04
  -7.75000000      -3.59068887E-04
  -7.73999977      -3.61139770E-04
  -7.73000002      -3.61143757E-04
  -7.71999979      -3.59139580E-04
  -7.71000004      -3.55259690E-04
  -7.69999981      -3.49679904E-04
  -7.69000006      -3.42576328E-04
  -7.67999983      -3.34084005E-04
  -7.67000008      -3.24272143E-04
  -7.65999985      -3.13144992E-04
  -7.65000010      -3.00669693E-04
  -7.63999987      -2.86822178E-04
  -7.63000011      -2.71635858E-04
  -7.61999989      -2.55236810E-04
  -7.61000013      -2.37852932E-04
  -7.59999990      -2.19793117E-04
  -7.59000015      -2.01403644E-04
  -7.57999992      -1.83014941E-04
  -7.57000017      -1.64896803E-04
  -7.55999994      -1.47235449E-04
  -7.55000019      -1.30137923E-04
  -7.53999996      -1.13660506E-04
  -7.53000021      -9.78467287E-05
  -7.51999998      -8.27600597E-05
  -7.51000023      -6.84964034E-05
  -7.50000000      -5.51713092E-05
  -7.48999977      -4.28854291E-05
  -7.48000002      -3.16832120E-05
  -7.46999979      -2.15203527E-05
  -7.46000004      -1.22561596E-05
  -7.44999981      -3.67652774E-06
  -7.44000006       4.45631349E-06