  -16.0000000       0.00000000    
  -15.9899998       0.00000000    
  -15.9799995       0.00000000    
  -15.9700003       0.00000000    
  -15.9600000       0.00000000    
  -15.9499998       0.00000000    
  -15.9399996       0.00000000    
  -15.9300003       0.00000000    
  -15.9200001       0.00000000    
  -15.9099998       0.00000000    
  -15.8999996       0.00000000    
  -15.8900003       0.00000000    
  -15.8800001       0.00000000    
  -15.8699999       0.00000000    
  -15.8599997       0.00000000    
  -15.8500004       1.40129846E-45
  -15.8400002       9.80908925E-45
  -15.8299999       7.14662217E-44
  -15.8199997       4.40007718E-43
  -15.8100004       2.20564378E-42
  -15.8000002       9.40271270E-42
  -15.7900000       3.44999682E-41
  -15.7799997       1.09641796E-40
  -15.7700005       3.00686421E-40
  -15.7600002       6.98416964E-40
  -15.7500000       1.30095569E-39
  -15.7399998       1.59188206E-39
  -15.7299995      -4.93537319E-40
  -15.7200003      -1.04387753E-38
  -15.7100000      -3.93785692E-38
  -15.6999998      -1.04373990E-37
  -15.6899996      -2.21366325E-37
  -15.6800003      -3.82804203E-37
  -15.6700001      -5.14236762E-37
  -15.6599998      -4.18562739E-37
  -15.6499996       2.51604171E-37
  -15.6400003       1.91082314E-36
  -15.6300001       4.74378228E-36
  -15.6199999       8.15236542E-36
  -15.6099997       1.01101913E-35
  -15.6000004       6.93365745E-36
  -15.5900002      -5.69859127E-36
  -15.5799999      -2.97140062E-35
  -15.5699997      -5.97589702E-35
  -15.5600004      -7.85820671E-35
  -15.5500002      -5.72444053E-35
  -15.5400000       3.41107912E-35
  -15.5299997       2.01750348E-34
  -15.5200005       3.94978362E-34
  -15.5100002       4.81165011E-34
  -15.5000000       2.57531320E-34
  -15.4899998      -4.71277634E-34
  -15.4799995      -1.73844998E-33
  -15.4700003      -3.20833734E-33
  -15.4600000      -3.98996394E-33
  -15.4499998      -2.58869313E-33
  -15.4399996       2.84165951E-33
  -15.4300003       1.37301854E-32
  -15.4200001       2.95387536E-32
  -15.4099998       4.52471491E-32
  -15.3999996       4.82167741E-32
  -15.3900003       1.61770651E-32
  -15.3800001      -7.95153515E-32
  -15.3699999      -2.58756564E-31
  -15.3599997      -4.99575977E-31
  -15.3500004      -6.88986062E-31
  -15.3400002      -5.79763171E-31
  -15.3299999       1.94821873E-31
  -15.3199997       1.97134578E-30
  -15.3100004       4.70740085E-30
  -15.3000002       7.46205920E-30
  -15.2900000       7.93161070E-30
  -15.2799997       2.52935464E-30
  -15.2700005      -1.23238331E-29
  -15.2600002      -3.72042751E-29
  -15.2500000      -6.53061539E-29
  -15.2399998      -7.85501963E-29
  -15.2299995      -4.79343380E-29
  -15.2200003       5.70578473E-29
  -15.2100000       2.46720365E-28
  -15.1999998       4.79644956E-28
  -15.1899996       6.34441094E-28
  -15.1800003       5.09389692E-28
  -15.1700001      -1.19364359E-28
  -15.1599998      -1.36101386E-27
  -15.1499996      -3.01057382E-27
  -15.1400003      -4.36343195E-27
  -15.1300001      -4.18780755E-27
  -15.1199999      -1.03109561E-27
  -15.1099997       6.02212024E-27
  -15.1000004       1.62158540E-26
  -15.0900002       2.60098780E-26
  -15.0799999       2.87385602E-26
  -15.0699997       1.59700838E-26
  -15.0600004      -1.87706587E-26
  -15.0500002      -7.41738361E-26
  -15.0400000      -1.35019670E-25
  -15.0299997      -1.69296613E-25
  -15.0200005      -1.33083892E-25
  -15.0100002       1.32598335E-26
  -15.0000000       2.77981690E-25
  -14.9899998       6.07101042E-25
  -14.9799995       8.64984996E-25
  -14.9700003       8.46647037E-25
  -14.9600000       3.39418695E-25
  -14.9499998      -7.63198274E-25
  -14.9399996      -2.32019040E-24
  -14.9300003      -3.83261563E-24
  -14.9200001      -4.44802456E-24
  -14.9099998      -3.16082661E-24
  -14.8999996       7.59629812E-25
  -14.8900003       7.18235766E-24
  -14.8800001       1.45713953E-23
  -14.8699999       1.98026917E-23
  -14.8599997       1.86818639E-23
  -14.8500004       7.36429738E-24
  -14.8400002      -1.54555396E-23
  -14.8299999      -4.61993044E-23
  -14.8199997      -7.49892249E-23
  -14.8100004      -8.64614334E-23
  -14.8000002      -6.38027292E-23
  -14.7900000       3.98262818E-24
  -14.7799997       1.13152517E-22
  -14.7700005       2.37977701E-22
  -14.7600002       3.29640309E-22
  -14.7500000       3.25412949E-22
  -14.7399998       1.69731527E-22
  -14.7299995      -1.55924795E-22
  -14.7200003      -6.03281541E-22
  -14.7100000      -1.04145240E-21
  -14.6999998      -1.26994529E-21
  -14.6899996      -1.07018663E-21
  -14.6800003      -2.92895547E-22
  -14.6700001       1.03890240E-21
  -14.6599998       2.64885366E-21
  -14.6499996       3.99523026E-21
  -14.6400003       4.36801447E-21
  -14.6300001       3.10735183E-21
  -14.6199999      -9.11284103E-23
  -14.6099997      -4.87267784E-21
  -14.6000004      -1.00513115E-20
  -14.5900002      -1.37038059E-20
  -14.5799999      -1.36141408E-20
  -14.5699997      -8.04400511E-21
  -14.5600004       3.34156794E-21
  -14.5500002       1.87041095E-20
  -14.5400000       3.37990005E-20
  -14.5299997       4.26064998E-20
  -14.5200005       3.89406841E-20
  -14.5100002       1.88041353E-20
  -14.5000000      -1.71368155E-20
  -14.4899998      -6.18822476E-20
  -14.4799995      -1.02209823E-19
  -14.4700003      -1.21225981E-19
  -14.4600000      -1.03319208E-19
  -14.4499998      -4.05327709E-20
  -14.4399996       6.15394071E-20
  -14.4300003       1.80743358E-19
  -14.4200001       2.80424929E-19
  -14.4099998       3.17602846E-19
  -14.3999996       2.56364934E-19
  -14.3900003       8.33438880E-20
  -14.3800001      -1.79707612E-19
  -14.3699999      -4.71803245E-19
  -14.3599997      -7.01342195E-19
  -14.3500004      -7.68453788E-19
  -14.3400002      -5.97390872E-19
  -14.3299999      -1.70534218E-19
  -14.3199997       4.47575642E-19
  -14.3100004       1.10764271E-18
  -14.3000002       1.60166393E-18
  -14.2900000       1.71676993E-18
  -14.2799997       1.30600145E-18
  -14.2700005       3.56232620E-19
  -14.2600002      -9.70895489E-19
  -14.2500000      -2.34620289E-18
  -14.2399998      -3.33843933E-18
  -14.2299995      -3.53062606E-18
  -14.2200003      -2.66067897E-18
  -14.2100000      -7.44995359E-19
  -14.1999998       1.86040861E-18
  -14.1899996       4.49615097E-18
  -14.1800003       6.34332304E-18
  -14.1700001       6.65137006E-18
  -14.1599998       4.99331382E-18
  -14.1499996       1.47042490E-18
  -14.1400003      -3.21103201E-18
  -14.1300001      -7.84196586E-18
  -14.1199999      -1.09938325E-17
  -14.1099997      -1.14266167E-17
  -14.1000004      -8.51336768E-18
  -14.0900002      -2.54784698E-18
  -14.0799999       5.18440536E-18
  -14.0699997       1.26358034E-17
  -14.0600004       1.75055455E-17
  -14.0500002       1.79123861E-17
  -14.0400000       1.30446573E-17
  -14.0299997       3.57837216E-18
  -14.0200005      -8.30469565E-18
  -14.0100002      -1.93651005E-17
  -14.0000000      -2.61483223E-17
  -13.9899998      -2.60150850E-17
  -13.9799995      -1.80641108E-17
  -13.9700003      -3.64532788E-18
  -13.9600000       1.37506899E-17
  -13.9499998       2.92741237E-17
  -13.9399996       3.80128634E-17
  -13.9300003       3.64704296E-17
  -13.9200001       2.37943632E-17
  -13.9099998       2.35155619E-18
  -13.8999996      -2.25982302E-17
  -13.8900003      -4.41312702E-17
  -13.8800001      -5.55182716E-17
  -13.8699999      -5.22208650E-17
  -13.8599997      -3.34459661E-17
  -13.8500004      -2.75695803E-18
  -13.8400002       3.25236961E-17
  -13.8299999       6.30492945E-17
  -13.8199997       7.99094257E-17
  -13.8100004       7.71605193E-17
  -13.8000002       5.37055979E-17
  -13.7900000       1.39435619E-17
  -13.7799997      -3.30700026E-17
  -13.7700005      -7.57946786E-17
  -13.7600002      -1.03164239E-16
  -13.7500000      -1.07539204E-16
  -13.7399998      -8.68319282E-17
  -13.7299995      -4.51909680E-17
  -13.7200003       7.97619163E-18
  -13.7100000       6.03968902E-17
  -13.6999998       1.00093625E-16
  -13.6899996       1.18437824E-16
  -13.6800003       1.12250487E-16
  -13.6700001       8.43757841E-17
  -13.6599998       4.25951329E-17
  -13.6499996      -2.76662509E-18
  -13.6400003      -4.18144829E-17
  -13.6300001      -6.77441996E-17
  -13.6199999      -7.84029379E-17
  -13.6099997      -7.63094762E-17
  -13.6000004      -6.71713605E-17
  -13.5900002      -5.74136137E-17
  -13.5799999      -5.15499057E-17
  -13.5699997      -5.02943911E-17
  -13.5600004      -5.00900510E-17
  -13.5500002      -4.42890930E-17
  -13.5400000      -2.56806063E-17
  -13.5299997       1.04054358E-17
  -13.5200005       6.34375135E-17
  -13.5100002       1.26425094E-16
  -13.5000000       1.86652074E-16
  -13.4899998       2.28403149E-16
  -13.4799995       2.37055855E-16
  -13.4700003       2.03422771E-16
  -13.4600000       1.27048841E-16
  -13.4499998       1.73759611E-17
  -13.4399996      -1.07756011E-16
  -13.4300003      -2.26038524E-16
  -13.4200001      -3.16061609E-16
  -13.4099998      -3.62621766E-16
  -13.3999996      -3.60387743E-16
  -13.3900003      -3.14738014E-16
  -13.3800001      -2.39385672E-16
  -13.3699999      -1.51410633E-16
  -13.3599997      -6.51903092E-17
  -13.3500004       1.27764241E-17
  -13.3400002       8.62494607E-17
  -13.3299999       1.67665540E-16
  -13.3199997       2.72593678E-16
  -13.3100004       4.11568465E-16
  -13.3000002       5.81708400E-16
  -13.2900000       7.61003464E-16
  -13.2799997       9.07777386E-16
  -13.2700005       9.66650199E-16
  -13.2600002       8.80574764E-16
  -13.2500000       6.06667867E-16
  -13.2399998       1.32108341E-16
  -13.2299995      -5.14233861E-16
  -13.2200003      -1.25816559E-15
  -13.2100000      -1.98673399E-15
  -13.1999998      -2.56480496E-15
  -13.1899996      -2.85902122E-15
  -13.1800003      -2.76449129E-15
  -13.1700001      -2.22862288E-15
  -13.1599998      -1.26685826E-15
  -13.1499996       3.33268389E-17
  -13.1400003       1.52134031E-15
  -13.1300001       3.00375353E-15
  -13.1199999       4.27214662E-15
  -13.1099997       5.13336991E-15
  -13.1000004       5.43705240E-15
  -13.0900002       5.09620380E-15
  -13.0799999       4.09864420E-15
  -13.0699997       2.50891371E-15
  -13.0600004       4.61927565E-16
  -13.0500002      -1.84954493E-15
  -13.0400000      -4.19157557E-15
  -13.0299997      -6.30869758E-15
  -13.0200005      -7.94588818E-15
  -13.0100002      -8.87293270E-15
  -13.0000000      -8.91081964E-15
  -12.9899998      -7.95859198E-15
  -12.9799995      -6.01746097E-15
  -12.9700003      -3.20740227E-15
  -12.9600000       2.29246847E-16
  -12.9499998       3.94198630E-15
  -12.9399996       7.50622556E-15
  -12.9300003       1.04756037E-14
  -12.9200001       1.24460353E-14
  -12.9099998       1.31212917E-14
  -12.8999996       1.23673358E-14
  -12.8900003       1.02435116E-14
  -12.8800001       7.00204529E-15
  -12.8699999       3.05352794E-15
  -12.8599997      -1.09698972E-15
  -12.8500004      -4.93159141E-15
  -12.8400002      -8.00316200E-15
  -12.8299999      -1.00045924E-14
  -12.8199997      -1.08101953E-14
  -12.8100004      -1.04826265E-14
  -12.8000002      -9.24670547E-15
  -12.7900000      -7.43865351E-15
  -12.7799997      -5.44439490E-15
  -12.7700005      -3.64119855E-15
  -12.7600002      -2.35309395E-15
  -12.7500000      -1.82453692E-15
  -12.7399998      -2.20870469E-15
  -12.7299995      -3.56170917E-15
  -12.7200003      -5.83152030E-15
  -12.7100000      -8.83388957E-15
  -12.6999998      -1.22152807E-14
  -12.6899996      -1.54121931E-14
  -12.6800003      -1.76261356E-14
  -12.6700001      -1.78377651E-14
  -12.6599998      -1.48823943E-14
  -12.6499996      -7.59831668E-15
  -12.6400003       4.95578479E-15
  -12.6300001       2.32381236E-14
  -12.6199999       4.69572975E-14
  -12.6099997       7.48548291E-14
  -12.6000004       1.04591825E-13
  -12.5900002       1.32783121E-13
  -12.5799999       1.55203419E-13
  -12.5699997       1.67160583E-13
  -12.5600004       1.64004362E-13
  -12.5500002       1.41712475E-13
  -12.5400000       9.74845340E-14
  -12.5299997       3.02678991E-14
  -12.5200005      -5.88470922E-14
  -12.5100002      -1.66408703E-13
  -12.5000000      -2.86581522E-13
  -12.4899998      -4.11315811E-13
  -12.4799995      -5.30688015E-13
  -12.4700003      -6.33371285E-13
  -12.4600000      -7.07200140E-13
  -12.4499998      -7.39790228E-13
  -12.4399996      -7.19178948E-13
  -12.4300003      -6.34461396E-13
  -12.4200001      -4.76405048E-13
  -12.4099998      -2.38026585E-13
  -12.3999996       8.48980378E-14
  -12.3900003       4.93406694E-13
  -12.3800001       9.85028899E-13
  -12.3699999       1.55359330E-12
  -12.3599997       2.18918893E-12
  -12.3500004       2.87828377E-12
  -12.3400002       3.60399579E-12
  -12.3299999       4.34652054E-12
  -12.3199997       5.08365485E-12
  -12.3100004       5.79142160E-12
  -12.3000002       6.44472756E-12
  -12.2900000       7.01804717E-12
  -12.2799997       7.48605865E-12
  -12.2700005       7.82426207E-12
  -12.2600002       8.00956176E-12
  -12.2500000       8.02075940E-12
  -12.2399998       7.83907401E-12
  -12.2299995       7.44854352E-12
  -12.2200003       6.83653351E-12
  -12.2100000       5.99409324E-12
  -12.1999998       4.91644702E-12
  -12.1899996       3.60336327E-12
  -12.1800003       2.05954741E-12
  -12.1700001       2.94908710E-13
  -12.1599998      -1.67521390E-12
  -12.1499996      -3.83003611E-12
  -12.1400003      -6.14347028E-12
  -12.1300001      -8.58447428E-12
  -12.1199999      -1.11176528E-11
  -12.1099997      -1.37040448E-11
  -12.1000004      -1.63020274E-11
  -12.0900002      -1.88684172E-11
  -12.0799999      -2.13594888E-11
  -12.0699997      -2.37319418E-11
  -12.0600004      -2.59437818E-11
  -12.0500002      -2.79549092E-11
  -12.0400000      -2.97274982E-11
  -12.0299997      -3.12261848E-11
  -12.0200005      -3.24180682E-11
  -12.0100002      -3.32727006E-11
  -12.0000000      -3.37620314E-11
  -11.9899998      -3.38605428E-11
  -11.9799995      -3.35455275E-11
  -11.9700003      -3.27976500E-11
  -11.9600000      -3.16015027E-11
  -11.9499998      -2.99464203E-11
  -11.9399996      -2.78270965E-11
  -11.9300003      -2.52440967E-11
  -11.9200001      -2.22042298E-11
  -11.9099998      -1.87203430E-11
  -11.8999996      -1.48110586E-11
  -11.8900003      -1.05004096E-11
  -11.8800001      -5.81706731E-12
  -11.8699999      -7.93774931E-13
  -11.8599997       4.53287191E-12
  -11.8500004       1.01228427E-11
  -11.8400002       1.59324116E-11
  -11.8299999       2.19143540E-11
  -11.8199997       2.80178710E-11
  -11.8100004       3.41886207E-11
  -11.8000002       4.03692114E-11
  -11.7900000       4.64998283E-11
  -11.7799997       5.25192945E-11
  -11.7700005       5.83660342E-11
  -11.7600002       6.39792039E-11
  -11.7500000       6.92994828E-11
  -11.7399998       7.42697848E-11
  -11.7299995       7.88352439E-11
  -11.7200003       8.29434368E-11
  -11.7100000       8.65437860E-11
  -11.6999998       8.95875527E-11
  -11.6899996       9.20277327E-11
  -11.6800003       9.38192024E-11
  -11.6700001       9.49196138E-11
  -11.6599998       9.52902271E-11
  -11.6499996       9.48970000E-11
  -11.6400003       9.37118508E-11
  -11.6300001       9.17136089E-11
  -11.6199999       8.88884175E-11
  -11.6099997       8.52298163E-11
  -11.6000004       8.07383466E-11
  -11.5900002       7.54209403E-11
  -11.5799999       6.92896782E-11
  -11.5699997       6.23614632E-11
  -11.5600004       5.46568346E-11
  -11.5500002       4.61999466E-11
  -11.5400000       3.70180588E-11
  -11.5299997       2.71421809E-11
  -11.5200005       1.66072312E-11
  -11.5100002       5.45228836E-12
  -11.5000000      -6.27949645E-12
  -11.4899998      -1.85396993E-11
  -11.4799995      -3.12756071E-11
  -11.4700003      -4.44298209E-11
  -11.4600000      -5.79404302E-11
  -11.4499998      -7.17409326E-11
  -11.4399996      -8.57610094E-11
  -11.4300003      -9.99267127E-11
  -11.4200001      -1.14160924E-10
  -11.4099998      -1.28384720E-10
  -11.3999996      -1.42518330E-10
  -11.3900003      -1.56483201E-10
  -11.3800001      -1.70203310E-10
  -11.3699999      -1.83607005E-10
  -11.3599997      -1.96628949E-10
  -11.3500004      -2.09211218E-10
  -11.3400002      -2.21304045E-10
  -11.3299999      -2.32865643E-10
  -11.3199997      -2.43861431E-10
  -11.3100004      -2.54263194E-10
  -11.3000002      -2.64047645E-10
  -11.2900000      -2.73195216E-10
  -11.2799997      -2.81688506E-10
  -11.2700005      -2.89512109E-10
  -11.2600002      -2.96652258E-10
  -11.2500000      -3.03096659E-10
  -11.2399998      -3.08835346E-10
  -11.2299995      -3.13861298E-10
  -11.2200003      -3.18170601E-10
  -11.2100000      -3.21762561E-10
  -11.1999998      -3.24638066E-10
  -11.1899996      -3.26800642E-10
  -11.1800003      -3.28253064E-10
  -11.1700001      -3.28997440E-10
  -11.1599998      -3.29033994E-10
  -11.1499996      -3.28361560E-10
  -11.1400003      -3.26977889E-10
  -11.1300001      -3.24882204E-10
  -11.1199999      -3.22077032E-10
  -11.1099997      -3.18570365E-10
  -11.1000004      -3.14380855E-10
  -11.0900002      -3.09535869E-10
  -11.0799999      -3.04074488E-10
  -11.0699997      -2.98043618E-10
  -11.0600004      -2.91499908E-10
  -11.0500002      -2.84503643E-10
  -11.0400000      -2.77113360E-10
  -11.0299997      -2.69384959E-10
  -11.0200005      -2.61370342E-10
  -11.0100002      -2.53110449E-10
  -11.0000000      -2.44639947E-10
  -10.9899998      -2.35981984E-10
  -10.9799995      -2.27156655E-10
  -10.9700003      -2.18177032E-10
  -10.9600000      -2.09056092E-10
  -10.9499998      -1.99800607E-10
  -10.9399996      -1.90415197E-10
  -10.9300003      -1.80905915E-10
  -10.9200001      -1.71271872E-10
  -10.9099998      -1.61511984E-10
  -10.8999996      -1.51618343E-10
  -10.8900003      -1.41576251E-10
  -10.8800001      -1.31368028E-10
  -10.8699999      -1.20975396E-10
  -10.8599997      -1.10375084E-10
  -10.8500004      -9.95458924E-11
  -10.8400002      -8.84655890E-11
  -10.8299999      -7.71281997E-11
  -10.8199997      -6.55287768E-11
  -10.8100004      -5.36710051E-11
  -10.8000002      -4.15722907E-11
  -10.7900000      -2.92595496E-11
  -10.7799997      -1.67706647E-11
  -10.7700005      -4.14617602E-12
  -10.7600002       8.56799874E-12
  -10.7500000       2.13187055E-11
  -10.7399998       3.40621142E-11
  -10.7299995       4.67503432E-11
  -10.7200003       5.93375973E-11
  -10.7100000       7.17828991E-11
  -10.6999998       8.40466099E-11
  -10.6899996       9.60879848E-11
  -10.6800003       1.07868166E-10
  -10.6700001       1.19340704E-10
  -10.6599998       1.30459893E-10
  -10.6499996       1.41172393E-10
  -10.6400003       1.51423554E-10
  -10.6300001       1.61157615E-10
  -10.6199999       1.70313319E-10
  -10.6099997       1.78827550E-10
  -10.6000004       1.86636900E-10
  -10.5900002       1.93686969E-10
  -10.5799999       1.99911740E-10
  -10.5699997       2.05265305E-10
  -10.5600004       2.09690487E-10
  -10.5500002       2.13156007E-10
  -10.5400000       2.15617441E-10
  -10.5299997       2.17053528E-10
  -10.5200005       2.17445756E-10
  -10.5100002       2.16779358E-10
  -10.5000000       2.15056778E-10
  -10.4899998       2.12285217E-10
  -10.4799995       2.08474779E-10
  -10.4700003       2.03652012E-10
  -10.4600000       1.97840369E-10
  -10.4499998       1.91078806E-10
  -10.4399996       1.83399740E-10
  -10.4300003       1.74854117E-10
  -10.4200001       1.65502070E-10
  -10.4099998       1.55405036E-10
  -10.3999996       1.44639065E-10
  -10.3900003       1.33285355E-10
  -10.3800001       1.21431823E-10
  -10.3699999       1.09172761E-10
  -10.3599997       9.66071598E-11
  -10.3500004       8.38376729E-11
  -10.3400002       7.09509326E-11
  -10.3299999       5.80335988E-11
  -10.3199997       4.51530098E-11
  -10.3100004       3.23727919E-11
  -10.3000002       1.97285591E-11
  -10.2900000       7.25256747E-12
  -10.2799997      -5.03960589E-12
  -10.2700005      -1.71363861E-11
  -10.2600002      -2.90310224E-11
  -10.2500000      -4.07188519E-11
  -10.2399998      -5.21901203E-11
  -10.2299995      -6.34191796E-11
  -10.2200003      -7.43881137E-11
  -10.2100000      -8.50635187E-11
  -10.1999998      -9.54186868E-11
  -10.1899996      -1.05427736E-10
  -10.1800003      -1.15082714E-10
  -10.1700001      -1.24365407E-10
  -10.1599998      -1.33301828E-10
  -10.1499996      -1.41921364E-10
  -10.1400003      -1.50252033E-10
  -10.1300001      -1.58349014E-10
  -10.1199999      -1.66274189E-10
  -10.1099997      -1.74088785E-10
  -10.1000004      -1.81859861E-10
  -10.0900002      -1.89649421E-10
  -10.0799999      -1.97534017E-10
  -10.0699997      -2.05579900E-10
  -10.0600004      -2.13864745E-10
  -10.0500002      -2.22460605E-10
  -10.0400000      -2.31463765E-10
  -10.0299997      -2.40963582E-10
  -10.0200005      -2.51048571E-10
  -10.0100002      -2.61822009E-10
  -10.0000000      -2.73388340E-10
  -9.98999977      -2.85844098E-10
  -9.97999954      -2.99283459E-10
  -9.97000027      -3.13779586E-10
  -9.96000004      -3.29397565E-10
  -9.94999981      -3.46195128E-10
  -9.93999958      -3.64193758E-10
  -9.93000031      -3.83416437E-10
  -9.92000008      -4.03855088E-10
  -9.90999985      -4.25510377E-10
  -9.89999962      -4.48366705E-10
  -9.89000034      -4.72414663E-10
  -9.88000011      -4.97661690E-10
  -9.86999989      -5.24101762E-10
  -9.85999966      -5.51756640E-10
  -9.85000038      -5.80669290E-10
  -9.84000015      -6.10869078E-10
  -9.82999992      -6.42406239E-10
  -9.81999969      -6.75318523E-10
  -9.81000042      -7.09653725E-10
  -9.80000019      -7.45439377E-10
  -9.78999996      -7.82695520E-10
  -9.77999973      -8.21421486E-10
  -9.77000046      -8.61597294E-10
  -9.76000023      -9.03197184E-10
  -9.75000000      -9.46139722E-10
  -9.73999977      -9.90347360E-10
  -9.72999954      -1.03571751E-09
  -9.72000027      -1.08211040E-09
  -9.71000004      -1.12939191E-09
  -9.69999981      -1.17740606E-09
  -9.68999958      -1.22600163E-09
  -9.68000031      -1.27505184E-09
  -9.67000008      -1.32442046E-09
  -9.65999985      -1.37398060E-09
  -9.64999962      -1.42363676E-09
  -9.64000034      -1.47326318E-09
  -9.63000011      -1.52275847E-09
  -9.61999989      -1.57199254E-09
  -9.60999966      -1.62081293E-09
  -9.60000038      -1.66903114E-09
  -9.59000015      -1.71645487E-09
  -9.57999992      -1.76284298E-09
  -9.56999969      -1.80793214E-09
  -9.56000042      -1.85147819E-09
  -9.55000019      -1.89322136E-09
  -9.53999996      -1.93290517E-09
  -9.52999973      -1.97032168E-09
  -9.52000046      -2.00527639E-09
  -9.51000023      -2.03760875E-09
  -9.50000000      -2.06719353E-09
  -9.48999977      -2.09392215E-09
  -9.47999954      -2.11775553E-09
  -9.47000027      -2.13862772E-09
  -9.46000004      -2.15653517E-09
  -9.44999981      -2.17149254E-09
  -9.43999958      -2.18352758E-09
  -9.43000031      -2.19268115E-09
  -9.42000008      -2.19902851E-09
  -9.40999985      -2.20268426E-09
  -9.39999962      -2.20375607E-09
  -9.39000034      -2.20244156E-09
  -9.38000011      -2.19895835E-09
  -9.36999989      -2.19359109E-09
  -9.35999966      -2.18667617E-09
  -9.35000038      -2.17861151E-09
  -9.34000015      -2.16986407E-09
  -9.32999992      -2.16091389E-09
  -9.31999969      -2.15233942E-09
  -9.31000042      -2.14467866E-09
  -9.30000019      -2.13854490E-09
  -9.28999996      -2.13448681E-09
  -9.27999973      -2.13309592E-09
  -9.27000046      -2.13494511E-09
  -9.26000023      -2.14054929E-09
  -9.25000000      -2.15042095E-09
  -9.23999977      -2.16504947E-09
  -9.22999954      -2.18486562E-09
  -9.22000027      -2.21026575E-09
  -9.21000004      -2.24162022E-09
  -9.19999981      -2.27921770E-09
  -9.18999958      -2.32332220E-09
  -9.18000031      -2.37413667E-09
  -9.17000008      -2.43179921E-09
  -9.15999985      -2.49638665E-09
  -9.14999962      -2.56792565E-09
  -9.14000034      -2.64639821E-09
  -9.13000011      -2.73168732E-09
  -9.11999989      -2.82363599E-09
  -9.10999966      -2.92198221E-09
  -9.10000038      -3.02641245E-09
  -9.09000015      -3.13650195E-09
  -9.07999992      -3.25177418E-09
  -9.06999969      -3.37166672E-09
  -9.06000042      -3.49553364E-09
  -9.05000019      -3.62271368E-09
  -9.03999996      -3.75242282E-09
  -9.02999973      -3.88390298E-09
  -9.02000046      -4.01635170E-09
  -9.01000023      -4.14892076E-09
  -9.00000000      -4.28075086E-09
  -8.98999977      -4.41099957E-09
  -8.97999954      -4.53884486E-09
  -8.97000027      -4.66343808E-09
  -8.96000004      -4.78396389E-09
  -8.94999981      -4.89965979E-09
  -8.93999958      -5.00976105E-09
  -8.93000031      -5.11358866E-09
  -8.92000008      -5.21046362E-09
  -8.90999985      -5.29975575E-09
  -8.89999962      -5.38089839E-09
  -8.89000034      -5.45339951E-09
  -8.88000011      -5.51678614E-09
  -8.86999989      -5.57067636E-09
  -8.85999966      -5.61469848E-09
  -8.85000038      -5.64861580E-09
  -8.84000015      -5.67224756E-09
  -8.82999992      -5.68545788E-09
  -8.81999969      -5.68817482E-09
  -8.81000042      -5.68045033E-09
  -8.80000019      -5.66234482E-09
  -8.78999996      -5.63403413E-09
  -8.77999973      -5.59575497E-09
  -8.77000046      -5.54778401E-09
  -8.76000023      -5.49052848E-09
  -8.75000000      -5.42444401E-09
  -8.73999977      -5.35001510E-09
  -8.72999954      -5.26783372E-09
  -8.72000027      -5.17847720E-09
  -8.71000004      -5.08262232E-09
  -8.69999981      -4.98094410E-09
  -8.68999958      -4.87413043E-09
  -8.68000031      -4.76291406E-09
  -8.67000008      -4.64801975E-09
  -8.65999985      -4.53013405E-09
  -8.64999962      -4.40991155E-09
  -8.64000034      -4.28797664E-09
  -8.63000011      -4.16493151E-09
  -8.61999989      -4.04136502E-09
  -8.60999966      -3.91773680E-09
  -8.60000038      -3.79454246E-09
  -8.59000015      -3.67220165E-09
  -8.57999992      -3.55108365E-09
  -8.56999969      -3.43156481E-09
  -8.56000042      -3.31391603E-09
  -8.55000019      -3.19845816E-09
  -8.53999996      -3.08548187E-09
  -8.52999973      -2.97523295E-09
  -8.52000046      -2.86789659E-09
  -8.51000023      -2.76378276E-09
  -8.50000000      -2.66296318E-09
  -8.48999977      -2.56566546E-09
  -8.47999954      -2.47199194E-09
  -8.47000027      -2.38193887E-09
  -8.46000004      -2.29557839E-09
  -8.44999981      -2.21300045E-09
  -8.43999958      -2.13408247E-09
  -8.43000031      -2.05881756E-09
  -8.42000008      -1.98714267E-09
  -8.40999985      -1.91899141E-09
  -8.39999962      -1.85422477E-09
  -8.39000034      -1.79282122E-09
  -8.38000011      -1.73468573E-09
  -8.36999989      -1.67972014E-09
  -8.35999966      -1.62790159E-09
  -8.35000038      -1.57908087E-09
  -8.34000015      -1.53327384E-09
  -8.32999992      -1.49042334E-09
  -8.31999969      -1.45050350E-09
  -8.31000042      -1.41348744E-09
  -8.30000019      -1.37936251E-09
  -8.28999996      -1.34814504E-09
  -8.27999973      -1.31984623E-09
  -8.27000046      -1.29448086E-09
  -8.26000023      -1.27217847E-09
  -8.25000000      -1.25299737E-09
  -8.23999977      -1.23706989E-09
  -8.22999954      -1.22453347E-09
  -8.22000027      -1.21560761E-09
  -8.21000004      -1.21045585E-09
  -8.19999981      -1.20929888E-09
  -8.18999958      -1.21239285E-09
  -8.18000031      -1.21999488E-09
  -8.17000008      -1.23228772E-09
  -8.15999985      -1.24958655E-09
  -8.14999962      -1.27212851E-09
  -8.14000034      -1.30015410E-09
  -8.13000011      -1.33385891E-09
  -8.11999989      -1.37347911E-09
  -8.10999966      -1.41917933E-09
  -8.10000038      -1.47107149E-09
  -8.09000015      -1.52929325E-09
  -8.07999992      -1.59392011E-09
  -8.06999969      -1.66497538E-09
  -8.06000042      -1.74241943E-09
  -8.05000019      -1.82614890E-09
  -8.03999996      -1.91609684E-09
  -8.02999973      -2.01210026E-09
  -8.02000046      -2.11390705E-09
  -8.01000023      -2.22130958E-09
  -8.00000000      -2.33401276E-09
  -7.98999977      -2.45170795E-09
  -7.98000002      -2.57393507E-09
  -7.96999979      -2.70039613E-09
  -7.96000004      -2.83059998E-09
  -7.94999981      -2.96409031E-09
  -7.94000006      -3.10039461E-09
  -7.92999983      -3.23902527E-09
  -7.92000008      -3.37952155E-09
  -7.90999985      -3.52129570E-09
  -7.90000010      -3.66383723E-09
  -7.88999987      -3.80663590E-09
  -7.88000011      -3.94921740E-09
  -7.86999989      -4.09095247E-09
  -7.86000013      -4.23145696E-09
  -7.84999990      -4.37032011E-09
  -7.84000015      -4.50696591E-09
  -7.82999992      -4.64094096E-09
  -7.82000017      -4.77195528E-09
  -7.80999994      -4.89969221E-09
  -7.80000019      -5.02377739E-09
  -7.78999996      -5.14402121E-09
  -7.78000021      -5.26020738E-09
  -7.76999998      -5.37215428E-09
  -7.76000023      -5.47963008E-09
  -7.75000000      -5.58274316E-09
  -7.73999977      -5.68139225E-09
  -7.73000002      -5.77565684E-09
  -7.71999979      -5.86547655E-09
  -7.71000004      -5.95089622E-09
  -7.69999981      -6.03218497E-09
  -7.69000006      -6.10941120E-09
  -7.67999983      -6.18274187E-09
  -7.67000008      -6.25251761E-09
  -7.65999985      -6.31899377E-09
  -7.65000010      -6.38236441E-09
  -7.63999987      -6.44295328E-09
  -7.63000011      -6.50109699E-09
  -7.61999989      -6.55727961E-09
  -7.61000013      -6.61183730E-09
  -7.59999990      -6.66531719E-09
  -7.59000015      -6.71816114E-09
  -7.57999992      -6.77083900E-09
  -7.57000017      -6.82383527E-09
  -7.55999994      -6.87756518E-09
  -7.55000019      -6.93258650E-09
  -7.53999996      -6.98952629E-09
  -7.53000021      -7.04862924E-09
  -7.51999998      -7.11038961E-09
  -7.51000023      -7.17535853E-09
  -7.50000000      -7.24381799E-09
  -7.48999977      -7.31626848E-09
  -7.48000002      -7.39302131E-09
  -7.46999979      -7.47443529E-09
  -7.46000004      -7.56080620E-09
  -7.44999981      -7.65232677E-09
  -7.44000006      -7.74935316E-09