  -16.0000000       0.00000000    
  -15.9899998       0.00000000    
  -15.9799995       0.00000000    
  -15.9700003       0.00000000    
  -15.9600000       0.00000000    
  -15.9499998       0.00000000    
  -15.9399996       0.00000000    
  -15.9300003       0.00000000    
  -15.9200001       0.00000000    
  -15.9099998       0.00000000    
  -15.8999996       0.00000000    
  -15.8900003       0.00000000    
  -15.8800001       0.00000000    
  -15.8699999      -1.68155816E-44
  -15.8599997      -4.62428493E-43
  -15.8500004      -6.51463656E-42
  -15.8400002      -6.02460249E-41
  -15.8299999      -4.12566090E-40
  -15.8199997      -2.22463698E-39
  -15.8100004      -9.76816573E-39
  -15.8000002      -3.54455252E-38
  -15.7900000      -1.05814087E-37
  -15.7799997      -2.50015412E-37
  -15.7700005      -4.01155249E-37
  -15.7600002      -3.57007857E-38
  -15.7500000       2.75519618E-36
  -15.7399998       1.30371894E-35
  -15.7299995       4.12617200E-35
  -15.7200003       1.03631042E-34
  -15.7100000       2.14960953E-34
  -15.6999998       3.65738812E-34
  -15.6899996       4.78872521E-34
  -15.6800003       3.60200374E-34
  -15.6700001      -3.07588025E-34
  -15.6599998      -1.84636900E-33
  -15.6499996      -4.28843996E-33
  -15.6400003      -7.02212775E-33
  -15.6300001      -8.78957975E-33
  -15.6199999      -8.63166383E-33
  -15.6099997      -7.86355836E-33
  -15.6000004      -1.13263193E-32
  -15.5900002      -2.32730602E-32
  -15.5799999      -3.20092842E-32
  -15.5699997       1.63240989E-32
  -15.5600004       2.34286486E-31
  -15.5500002       7.47276899E-31
  -15.5400000       1.51212678E-30
  -15.5299997       1.97261456E-30
  -15.5200005       7.03341340E-31
  -15.5100002      -4.48067865E-30
  -15.5000000      -1.51534214E-29
  -15.4899998      -2.89642320E-29
  -15.4799995      -3.48729309E-29
  -15.4700003      -1.00837532E-29
  -15.4600000       7.46415275E-29
  -15.4499998       2.32812575E-28
  -15.4399996       4.19439905E-28
  -15.4300003       4.80324232E-28
  -15.4200001       1.34641377E-28
  -15.4099998      -9.38576921E-28
  -15.3999996      -2.83796928E-27
  -15.3900003      -4.99724240E-27
  -15.3800001      -5.72744448E-27
  -15.3699999      -2.15780055E-27
  -15.3599997       8.80776143E-27
  -15.3500004       2.79893488E-26
  -15.3400002       5.00349512E-26
  -15.3299999       5.97027436E-26
  -15.3199997       3.17600608E-26
  -15.3100004      -6.08023294E-26
  -15.3000002      -2.26668137E-25
  -15.2900000      -4.26042180E-25
  -15.2799997      -5.42569311E-25
  -15.2700005      -3.81992310E-25
  -15.2600002       2.70288053E-25
  -15.2500000       1.50949333E-24
  -15.2399998       3.10263629E-24
  -15.2299995       4.28937477E-24
  -15.2200003       3.74886739E-24
  -15.2100000      -6.60140068E-26
  -15.1999998      -8.07848629E-24
  -15.1899996      -1.92840630E-23
  -15.1800003      -2.94330567E-23
  -15.1700001      -3.05848283E-23
  -15.1599998      -1.26942747E-23
  -15.1499996       3.18486088E-23
  -15.1400003       1.00878188E-22
  -15.1300001       1.74426044E-22
  -15.1199999       2.10505589E-22
  -15.1099997       1.50859816E-22
  -15.1000004      -5.79324240E-23
  -15.0900002      -4.27363590E-22
  -15.0799999      -8.82531234E-22
  -15.0699997      -1.23072227E-21
  -15.0600004      -1.17286820E-21
  -15.0500002      -3.87089578E-22
  -15.0400000       1.30469213E-21
  -15.0299997       3.71527405E-21
  -15.0200005       6.09783775E-21
  -15.0100002       7.10979104E-21
  -15.0000000       5.07864783E-21
  -14.9899998      -1.34369190E-21
  -14.9799995      -1.21998154E-20
  -14.9700003      -2.52033855E-20
  -14.9600000      -3.51892100E-20
  -14.9499998      -3.46734952E-20
  -14.9399996      -1.60304808E-20
  -14.9300003       2.46946064E-20
  -14.9200001       8.31469156E-20
  -14.9099998       1.42984735E-19
  -14.8999996       1.75670841E-19
  -14.8900003       1.46170866E-19
  -14.8800001       2.56669734E-20
  -14.8699999      -1.90337245E-19
  -14.8599997      -4.63807562E-19
  -14.8500004      -7.04539455E-19
  -14.8400002      -7.79060776E-19
  -14.8299999      -5.45385045E-19
  -14.8199997       8.67904976E-20
  -14.8100004       1.08292583E-18
  -14.8000002       2.22333307E-18
  -14.7900000       3.09066771E-18
  -14.7799997       3.13852714E-18
  -14.7700005       1.85687365E-18
  -14.7600002      -9.84319803E-19
  -14.7500000      -5.07654969E-18
  -14.7399998      -9.40354802E-18
  -14.7299995      -1.22824376E-17
  -14.7200003      -1.17096887E-17
  -14.7100000      -6.02543794E-18
  -14.6999998       5.21790742E-18
  -14.6899996       2.04399456E-17
  -14.6800003       3.56323831E-17
  -14.6700001       4.47443401E-17
  -14.6599998       4.10796917E-17
  -14.6499996       1.96307793E-17
  -14.6400003      -2.01383357E-17
  -14.6300001      -7.19497314E-17
  -14.6199999      -1.21930922E-16
  -14.6099997      -1.50404305E-16
  -14.6000004      -1.36700133E-16
  -14.5900002      -6.64768199E-17
  -14.5799999       6.01458773E-17
  -14.5699997       2.22352554E-16
  -14.5600004       3.77411438E-16
  -14.5500002       4.66971434E-16
  -14.5400000       4.31596030E-16
  -14.5299997       2.31510172E-16
  -14.5200005      -1.31502844E-16
  -14.5100002      -5.98440053E-16
  -14.5000000      -1.05154164E-15
  -14.4899998      -1.33261332E-15
  -14.4799995      -1.28198511E-15
  -14.4700003      -7.91945471E-16
  -14.4600000       1.38644590E-16
  -14.4499998       1.36671921E-15
  -14.4399996       2.60268216E-15
  -14.4300003       3.45566594E-15
  -14.4200001       3.52653422E-15
  -14.4099998       2.53293874E-15
  -14.3999996       4.35453259E-16
  -14.3900003      -2.47563230E-15
  -14.3800001      -5.57200888E-15
  -14.3699999      -7.98231906E-15
  -14.3599997      -8.78886468E-15
  -14.3500004      -7.29187964E-15
  -14.3400002      -3.27720075E-15
  -14.3299999       2.79376242E-15
  -14.3199997       9.74834041E-15
  -14.3100004       1.58681780E-14
  -14.3000002       1.92524033E-14
  -14.2900000       1.83143363E-14
  -14.2799997       1.22944452E-14
  -14.2700005       1.64431594E-15
  -14.2600002      -1.18532571E-14
  -14.2500000      -2.53100255E-14
  -14.2399998      -3.52998169E-14
  -14.2299995      -3.86650449E-14
  -14.2200003      -3.33759137E-14
  -14.2100000      -1.92154845E-14
  -14.1999998       1.91618610E-15
  -14.1899996       2.62033301E-14
  -14.1800003       4.86184105E-14
  -14.1700001       6.39877081E-14
  -14.1599998       6.81685475E-14
  -14.1499996       5.90435768E-14
  -14.1400003       3.70762923E-14
  -14.1300001       5.28678579E-15
  -14.1199999      -3.13343915E-14
  -14.1099997      -6.68010908E-14
  -14.1000004      -9.52224478E-14
  -14.0900002      -1.11726878E-13
  -14.0799999      -1.13023624E-13
  -14.0699997      -9.75599403E-14
  -14.0600004      -6.53985058E-14
  -14.0500002      -1.80512648E-14
  -14.0400000       4.14914786E-14
  -14.0299997       1.08420312E-13
  -14.0200005       1.75555466E-13
  -14.0100002       2.32923923E-13
  -14.0000000       2.67960323E-13
  -13.9899998       2.66809605E-13
  -13.9799995       2.16971880E-13
  -13.9700003       1.11093643E-13
  -13.9600000      -4.88186321E-14
  -13.9499998      -2.47944758E-13
  -13.9399996      -4.57346455E-13
  -13.9300003      -6.36009095E-13
  -13.9200001      -7.36803413E-13
  -13.9099998      -7.15952091E-13
  -13.8999996      -5.44466273E-13
  -13.8900003      -2.19055825E-13
  -13.8800001       2.30457770E-13
  -13.8699999       7.39951557E-13
  -13.8599997       1.21772037E-12
  -13.8500004       1.55909888E-12
  -13.8400002       1.66697255E-12
  -13.8299999       1.47434354E-12
  -13.8199997       9.63985836E-13
  -13.8100004       1.80178396E-13
  -13.8000002      -7.71290258E-13
  -13.7900000      -1.73635889E-12
  -13.7799997      -2.53774822E-12
  -13.7700005      -3.00753541E-12
  -13.7600002      -3.02082643E-12
  -13.7500000      -2.52337691E-12
  -13.7399998      -1.54693272E-12
  -13.7299995      -2.08521338E-13
  -13.7200003       1.30660760E-12
  -13.7100000       2.77504365E-12
  -13.6999998       3.97204665E-12
  -13.6899996       4.70753297E-12
  -13.6800003       4.85412795E-12
  -13.6700001       4.36248910E-12
  -13.6599998       3.26255841E-12
  -13.6499996       1.65302429E-12
  -13.6400003      -3.16035718E-13
  -13.6300001      -2.46136553E-12
  -13.6199999      -4.58075721E-12
  -13.6099997      -6.46132106E-12
  -13.6000004      -7.88353931E-12
  -13.5900002      -8.62609116E-12
  -13.5799999      -8.47798567E-12
  -13.5699997      -7.26335875E-12
  -13.5600004      -4.88046452E-12
  -13.5500002      -1.35054251E-12
  -13.5400000       3.13396097E-12
  -13.5299997       8.17687237E-12
  -13.5200005       1.31776213E-11
  -13.5100002       1.73749279E-11
  -13.5000000       1.99391198E-11
  -13.4899998       2.01058944E-11
  -13.4799995       1.73322381E-11
  -13.4700003       1.14454271E-11
  -13.4600000       2.75184910E-12
  -13.4499998      -7.92458286E-12
  -13.4399996      -1.92941392E-11
  -13.4300003      -2.97461743E-11
  -13.4200001      -3.75713870E-11
  -13.4099998      -4.12281737E-11
  -13.3999996      -3.96082750E-11
  -13.3900003      -3.22543485E-11
  -13.3800001      -1.94889018E-11
  -13.3699999      -2.42968883E-12
  -13.3599997       1.71132171E-11
  -13.3500004       3.68424805E-11
  -13.3400002       5.42485848E-11
  -13.3299999       6.69135580E-11
  -13.3199997       7.28025487E-11
  -13.3100004       7.05100492E-11
  -13.3000002       5.94397448E-11
  -13.2900000       3.99097110E-11
  -13.2799997       1.31832852E-11
  -13.2700005      -1.85709156E-11
  -13.2600002      -5.23886767E-11
  -13.2500000      -8.46938353E-11
  -13.2399998      -1.11564001E-10
  -13.2299995      -1.29083910E-10
  -13.2200003      -1.33781153E-10
  -13.2100000      -1.23118682E-10
  -13.1999998      -9.59922419E-11
  -13.1899996      -5.31569649E-11
  -13.1800003       2.50828156E-12
  -13.1700001       6.59876112E-11
  -13.1599998       1.30431638E-10
  -13.1499996       1.87797708E-10
  -13.1400003       2.29786870E-10
  -13.1300001       2.48973897E-10
  -13.1199999       2.39972625E-10
  -13.1099997       2.00448852E-10
  -13.1000004       1.31797281E-10
  -13.0900002       3.93391777E-11
  -13.0799999      -6.80327183E-11
  -13.0699997      -1.78743881E-10
  -13.0600004      -2.79853973E-10
  -13.0500002      -3.58619134E-10
  -13.0400000      -4.04078243E-10
  -13.0299997      -4.08441475E-10
  -13.0200005      -3.68099135E-10
  -13.0100002      -2.84136492E-10
  -13.0000000      -1.62321434E-10
  -12.9899998      -1.26079694E-11
  -12.9799995       1.51746407E-10
  -12.9700003       3.15327681E-10
  -12.9600000       4.61856858E-10
  -12.9499998       5.75532677E-10
  -12.9399996       6.42362885E-10
  -12.9300003       6.51442900E-10
  -12.9200001       5.96145078E-10
  -12.9099998       4.75155693E-10
  -12.8999996       2.93264024E-10
  -12.8900003       6.17622412E-11
  -12.8800001      -2.01705375E-10
  -12.8699999      -4.73989958E-10
  -12.8599997      -7.28071048E-10
  -12.8500004      -9.35454714E-10
  -12.8400002      -1.06917419E-09
  -12.8299999      -1.10709275E-09
  -12.8199997      -1.03508480E-09
  -12.8100004      -8.49622428E-10
  -12.8000002      -5.59311264E-10
  -12.7900000      -1.85036667E-10
  -12.7799997       2.41433068E-10
  -12.7700005       6.80311418E-10
  -12.7600002       1.08782128E-09
  -12.7500000       1.42088674E-09
  -12.7399998       1.64188829E-09
  -12.7299995       1.72286796E-09
  -12.7200003       1.64866509E-09
  -12.7100000       1.41863243E-09
  -12.6999998       1.04679909E-09
  -12.6899996       5.60557434E-10
  -12.6800003      -1.87982746E-12
  -12.6700001      -5.94892691E-10
  -12.6599998      -1.16935617E-09
  -12.6499996      -1.67666858E-09
  -12.6400003      -2.07262696E-09
  -12.6300001      -2.32092812E-09
  -12.6199999      -2.39614217E-09
  -12.6099997      -2.28601427E-09
  -12.6000004      -1.99294448E-09
  -12.5900002      -1.53446933E-09
  -12.5799999      -9.42562473E-10
  -12.5699997      -2.61613842E-10
  -12.5600004       4.54951965E-10
  -12.5500002       1.14929222E-09
  -12.5400000       1.76466031E-09
  -12.5299997       2.25127805E-09
  -12.5200005       2.57186827E-09
  -12.5100002       2.70609202E-09
  -12.5000000       2.65319322E-09
  -12.4899998       2.43235587E-09
  -12.4799995       2.08056372E-09
  -12.4700003       1.64809133E-09
  -12.4600000       1.19209809E-09
  -12.4499998       7.69044828E-10
  -12.4399996       4.26776947E-10
  -12.4300003       1.97131561E-10
  -12.4200001       8.97837846E-11
  -12.4099998       8.78666861E-11
  -12.3999996       1.45622250E-10
  -12.3900003       1.88175961E-10
  -12.3800001       1.13414091E-10
  -12.3699999      -2.04230424E-10
  -12.3599997      -9.08086217E-10
  -12.3500004      -2.15181850E-09
  -12.3400002      -4.09028322E-09
  -12.3299999      -6.86890989E-09
  -12.3199997      -1.06118483E-08
  -12.3100004      -1.54095421E-08
  -12.3000002      -2.13065672E-08
  -12.2900000      -2.82908434E-08
  -12.2799997      -3.62854138E-08
  -12.2700005      -4.51441551E-08
  -12.2600002      -5.46521548E-08
  -12.2500000      -6.45314344E-08
  -12.2399998      -7.44517550E-08
  -12.2299995      -8.40461496E-08
  -12.2200003      -9.29295112E-08
  -12.2100000      -1.00718857E-07
  -12.1999998      -1.07053438E-07
  -12.1899996      -1.11612806E-07
  -12.1800003      -1.14131502E-07
  -12.1700001      -1.14409424E-07
  -12.1599998      -1.12317331E-07
  -12.1499996      -1.07797717E-07
  -12.1400003      -1.00861278E-07
  -12.1300001      -9.15800200E-08
  -12.1199999      -8.00775410E-08
  -12.1099997      -6.65175435E-08
  -12.1000004      -5.10912663E-08
  -12.0900002      -3.40047386E-08
  -12.0799999      -1.54662576E-08
  -12.0699997       4.32486980E-09
  -12.0600004       2.51878145E-08
  -12.0500002       4.69670738E-08
  -12.0400000       6.95359361E-08
  -12.0299997       9.27961779E-08
  -12.0200005       1.16673640E-07
  -12.0100002       1.41109837E-07
  -12.0000000       1.66050384E-07
  -11.9899998       1.91430757E-07
  -11.9799995       2.17161727E-07
  -11.9700003       2.43114926E-07
  -11.9600000       2.69110757E-07
  -11.9499998       2.94910052E-07
  -11.9399996       3.20209892E-07
  -11.9300003       3.44644008E-07
  -11.9200001       3.67789085E-07
  -11.9099998       3.89174147E-07
  -11.8999996       4.08294710E-07
  -11.8900003       4.24628837E-07
  -11.8800001       4.37655331E-07
  -11.8699999       4.46872178E-07
  -11.8599997       4.51815055E-07
  -11.8500004       4.52074431E-07
  -11.8400002       4.47310981E-07
  -11.8299999       4.37268085E-07
  -11.8199997       4.21781749E-07
  -11.8100004       4.00785694E-07
  -11.8000002       3.74313061E-07
  -11.7900000       3.42493166E-07
  -11.7799997       3.05544205E-07
  -11.7700005       2.63761990E-07
  -11.7600002       2.17505701E-07
  -11.7500000       1.67181597E-07
  -11.7399998       1.13226392E-07
  -11.7299995       5.60912135E-08
  -11.7200003      -3.77249698E-09
  -11.7100000      -6.59242332E-08
  -11.6999998      -1.29942578E-07
  -11.6899996      -1.95429180E-07
  -11.6800003      -2.62010360E-07
  -11.6700001      -3.29335023E-07
  -11.6599998      -3.97070522E-07
  -11.6499996      -4.64896743E-07
  -11.6400003      -5.32499030E-07
  -11.6300001      -5.99559257E-07
  -11.6199999      -6.65747848E-07
  -11.6099997      -7.30714078E-07
  -11.6000004      -7.94077550E-07
  -11.5900002      -8.55420865E-07
  -11.5799999      -9.14282793E-07
  -11.5699997      -9.70155156E-07
  -11.5600004      -1.02248191E-06
  -11.5500002      -1.07066273E-06
  -11.5400000      -1.11406030E-06
  -11.5299997      -1.15201135E-06
  -11.5200005      -1.18384003E-06
  -11.5100002      -1.20887421E-06
  -11.5000000      -1.22646213E-06
  -11.4899998      -1.23598875E-06
  -11.4799995      -1.23688960E-06
  -11.4700003      -1.22866322E-06
  -11.4600000      -1.21087953E-06
  -11.4499998      -1.18318587E-06
  -11.4399996      -1.14530997E-06
  -11.4300003      -1.09705911E-06
  -11.4200001      -1.03831860E-06
  -11.4099998      -9.69046937E-07
  -11.3999996      -8.89270041E-07
  -11.3900003      -7.99073746E-07
  -11.3800001      -6.98595386E-07
  -11.3699999      -5.88014871E-07
  -11.3599997      -4.67543686E-07
  -11.3500004      -3.37415628E-07
  -11.3400002      -1.97876489E-07
  -11.3299999      -4.91750249E-08
  -11.3199997       1.08444723E-07
  -11.3100004       2.74750761E-07
  -11.3000002       4.49527931E-07
  -11.2900000       6.32582214E-07
  -11.2799997       8.23743676E-07
  -11.2700005       1.02286879E-06
  -11.2600002       1.22984113E-06
  -11.2500000       1.44457135E-06
  -11.2399998       1.66699658E-06
  -11.2299995       1.89707498E-06
  -11.2200003       2.13478529E-06
  -11.2100000       2.38011376E-06
  -11.1999998       2.63305196E-06
  -11.1899996       2.89358127E-06
  -11.1800003       3.16166711E-06
  -11.1700001       3.43724741E-06
  -11.1599998       3.72022464E-06
  -11.1499996       4.01046054E-06
  -11.1400003       4.30777663E-06
  -11.1300001       4.61195259E-06
  -11.1199999       4.92273148E-06
  -11.1099997       5.23982726E-06
  -11.1000004       5.56293207E-06
  -11.0900002       5.89172396E-06
  -11.0799999       6.22587186E-06
  -11.0699997       6.56504790E-06
  -11.0600004       6.90893057E-06
  -11.0500002       7.25721293E-06
  -11.0400000       7.60960529E-06
  -11.0299997       7.96584391E-06
  -11.0200005       8.32569367E-06
  -11.0100002       8.68895404E-06
  -11.0000000       9.05546312E-06
  -10.9899998       9.42509087E-06
  -10.9799995       9.79774541E-06
  -10.9700003       1.01733585E-05
  -10.9600000       1.05518911E-05
  -10.9499998       1.09333096E-05
  -10.9399996       1.13175720E-05
  -10.9300003       1.17046311E-05
  -10.9200001       1.20944042E-05
  -10.9099998       1.24867865E-05
  -10.8999996       1.28816137E-05
  -10.8900003       1.32786899E-05
  -10.8800001       1.36777635E-05
  -10.8699999       1.40785378E-05
  -10.8599997       1.44806709E-05
  -10.8500004       1.48837789E-05
  -10.8400002       1.52874472E-05
  -10.8299999       1.56912247E-05
  -10.8199997       1.60946365E-05
  -10.8100004       1.64971989E-05
  -10.8000002       1.68984043E-05
  -10.7900000       1.72977616E-05
  -10.7799997       1.76947760E-05
  -10.7700005       1.80889692E-05
  -10.7600002       1.84798955E-05
  -10.7500000       1.88671274E-05
  -10.7399998       1.92502757E-05
  -10.7299995       1.96289802E-05
  -10.7200003       2.00029390E-05
  -10.7100000       2.03718846E-05
  -10.6999998       2.07355715E-05
  -10.6899996       2.10938251E-05
  -10.6800003       2.14464999E-05
  -10.6700001       2.17934903E-05
  -10.6599998       2.21347382E-05
  -10.6499996       2.24702253E-05
  -10.6400003       2.27999735E-05
  -10.6300001       2.31240465E-05
  -10.6199999       2.34425388E-05
  -10.6099997       2.37555960E-05
  -10.6000004       2.40633854E-05
  -10.5900002       2.43661143E-05
  -10.5799999       2.46640175E-05
  -10.5699997       2.49573714E-05
  -10.5600004       2.52464815E-05
  -10.5500002       2.55316791E-05
  -10.5400000       2.58133314E-05
  -10.5299997       2.60918514E-05
  -10.5200005       2.63676757E-05
  -10.5100002       2.66412644E-05
  -10.5000000       2.69131233E-05
  -10.4899998       2.71837562E-05
  -10.4799995       2.74536851E-05
  -10.4700003       2.77234194E-05
  -10.4600000       2.79934611E-05
  -10.4499998       2.82642559E-05
  -10.4399996       2.85362221E-05
  -10.4300003       2.88097035E-05
  -10.4200001       2.90849566E-05
  -10.4099998       2.93621506E-05
  -10.3999996       2.96413800E-05
  -10.3900003       2.99226213E-05
  -10.3800001       3.02057560E-05
  -10.3699999       3.04906025E-05
  -10.3599997       3.07768787E-05
  -10.3500004       3.10642426E-05
  -10.3400002       3.13523196E-05
  -10.3299999       3.16406804E-05
  -10.3199997       3.19288883E-05
  -10.3100004       3.22165070E-05
  -10.3000002       3.25030924E-05
  -10.2900000       3.27882444E-05
  -10.2799997       3.30715666E-05
  -10.2700005       3.33526914E-05
  -10.2600002       3.36313315E-05
  -10.2500000       3.39072067E-05
  -10.2399998       3.41800915E-05
  -10.2299995       3.44498330E-05
  -10.2200003       3.47163223E-05
  -10.2100000       3.49795409E-05
  -10.1999998       3.52395218E-05
  -10.1899996       3.54963777E-05
  -10.1800003       3.57502831E-05
  -10.1700001       3.60014928E-05
  -10.1599998       3.62503088E-05
  -10.1499996       3.64970801E-05
  -10.1400003       3.67422217E-05
  -10.1300001       3.69861591E-05
  -10.1199999       3.72293362E-05
  -10.1099997       3.74722367E-05
  -10.1000004       3.77153374E-05
  -10.0900002       3.79591293E-05
  -10.0799999       3.82041071E-05
  -10.0699997       3.84507621E-05
  -10.0600004       3.86995926E-05
  -10.0500002       3.89510787E-05
  -10.0400000       3.92057300E-05
  -10.0299997       3.94640083E-05
  -10.0200005       3.97263975E-05
  -10.0100002       3.99933742E-05
  -10.0000000       4.02654005E-05
  -9.98999977       4.05429309E-05
  -9.97999954       4.08264495E-05
  -9.97000027       4.11164292E-05
  -9.96000004       4.14133610E-05
  -9.94999981       4.17177362E-05
  -9.93999958       4.20300785E-05
  -9.93000031       4.23509191E-05
  -9.92000008       4.26807783E-05
  -9.90999985       4.30202126E-05
  -9.89999962       4.33697642E-05
  -9.89000034       4.37299823E-05
  -9.88000011       4.41014236E-05
  -9.86999989       4.44846482E-05
  -9.85999966       4.48802348E-05
  -9.85000038       4.52887507E-05
  -9.84000015       4.57107926E-05
  -9.82999992       4.61469463E-05
  -9.81999969       4.65978046E-05
  -9.81000042       4.70639716E-05
  -9.80000019       4.75460183E-05
  -9.78999996       4.80445269E-05
  -9.77999973       4.85600431E-05
  -9.77000046       4.90931125E-05
  -9.76000023       4.96442372E-05
  -9.75000000       5.02139228E-05
  -9.73999977       5.08026460E-05
  -9.72999954       5.14108870E-05
  -9.72000027       5.20390822E-05
  -9.71000004       5.26876720E-05
  -9.69999981       5.33570346E-05
  -9.68999958       5.40475739E-05
  -9.68000031       5.47595955E-05
  -9.67000008       5.54934122E-05
  -9.65999985       5.62492023E-05
  -9.64999962       5.70271513E-05
  -9.64000034       5.78273102E-05
  -9.63000011       5.86496462E-05
  -9.61999989       5.94940975E-05
  -9.60999966       6.03604349E-05
  -9.60000038       6.12483855E-05
  -9.59000015       6.21575382E-05
  -9.57999992       6.30873910E-05
  -9.56999969       6.40373546E-05
  -9.56000042       6.50067450E-05
  -9.55000019       6.59947400E-05
  -9.53999996       6.70004301E-05
  -9.52999973       6.80228404E-05
  -9.52000046       6.90608722E-05
  -9.51000023       7.01133904E-05
  -9.50000000       7.11792018E-05
  -9.48999977       7.22570549E-05
  -9.47999954       7.33457273E-05
  -9.47000027       7.44439531E-05
  -9.46000004       7.55505316E-05
  -9.44999981       7.66643061E-05
  -9.43999958       7.77841851E-05
  -9.43000031       7.89091646E-05
  -9.42000008       8.00383204E-05
  -9.40999985       8.11708887E-05
  -9.39999962       8.23062146E-05
  -9.39000034       8.34438106E-05
  -9.38000011       8.45833129E-05
  -9.36999989       8.57245759E-05
  -9.35999966       8.68676070E-05
  -9.35000038       8.80126317E-05
  -9.34000015       8.91600357E-05
  -9.32999992       9.03104301E-05
  -9.31999969       9.14645716E-05
  -9.31000042       9.26233988E-05
  -9.30000019       9.37880031E-05
  -9.28999996       9.49596506E-05
  -9.27999973       9.61397527E-05
  -9.27000046       9.73297938E-05
  -9.26000023       9.85314182E-05
  -9.25000000       9.97464158E-05
  -9.23999977       1.00976635E-04
  -9.22999954       1.02224025E-04
  -9.22000027       1.03490609E-04
  -9.21000004       1.04778534E-04
  -9.19999981       1.06089923E-04
  -9.18999958       1.07426924E-04
  -9.18000031       1.08791755E-04
  -9.17000008       1.10186564E-04
  -9.15999985       1.11613503E-04
  -9.14999962       1.13074624E-04
  -9.14000034       1.14571951E-04
  -9.13000011       1.16107403E-04
  -9.11999989       1.17682757E-04
  -9.10999966       1.19299701E-04
  -9.10000038       1.20959739E-04
  -9.09000015       1.22664162E-04
  -9.07999992       1.24414073E-04
  -9.06999969       1.26210332E-04
  -9.06000042       1.28053580E-04
  -9.05000019       1.29944165E-04
  -9.03999996       1.31882203E-04
  -9.02999973       1.33867463E-04
  -9.02000046       1.35899507E-04
  -9.01000023       1.37977549E-04
  -9.00000000       1.40100572E-04
  -8.98999977       1.42267236E-04
  -8.97999954       1.44475925E-04
  -8.97000027       1.46724764E-04
  -8.96000004       1.49011554E-04
  -8.94999981       1.51333879E-04
  -8.93999958       1.53689150E-04
  -8.93000031       1.56074500E-04
  -8.92000008       1.58486888E-04
  -8.90999985       1.60923155E-04
  -8.89999962       1.63380057E-04
  -8.89000034       1.65854246E-04
  -8.88000011       1.68342289E-04
  -8.86999989       1.70840707E-04
  -8.85999966       1.73346139E-04
  -8.85000038       1.75855079E-04
  -8.84000015       1.78364338E-04
  -8.82999992       1.80870615E-04
  -8.81999969       1.83370823E-04
  -8.81000042       1.85862082E-04
  -8.80000019       1.88341626E-04
  -8.78999996       1.90806895E-04
  -8.77999973       1.93255648E-04
  -8.77000046       1.95685818E-04
  -8.76000023       1.98095528E-04
  -8.75000000       2.00483293E-04
  -8.73999977       2.02847805E-04
  -8.72999954       2.05187927E-04
  -8.72000027       2.07502919E-04
  -8.71000004       2.09792168E-04
  -8.69999981       2.12055413E-04
  -8.68999958       2.14292508E-04
  -8.68000031       2.16503555E-04
  -8.67000008       2.18688874E-04
  -8.65999985       2.20848917E-04
  -8.64999962       2.22984279E-04
  -8.64000034       2.25095820E-04
  -8.63000011       2.27184370E-04
  -8.61999989       2.29251120E-04
  -8.60999966       2.31297148E-04
  -8.60000038       2.33323735E-04
  -8.59000015       2.35332205E-04
  -8.57999992       2.37323897E-04
  -8.56999969       2.39300236E-04
  -8.56000042       2.41262693E-04
  -8.55000019       2.43212678E-04
  -8.53999996       2.45151808E-04
  -8.52999973       2.47081392E-04
  -8.52000046       2.49003060E-04
  -8.51000023       2.50918296E-04
  -8.50000000       2.52828526E-04
  -8.48999977       2.54735263E-04
  -8.47999954       2.56639905E-04
  -8.47000027       2.58543965E-04
  -8.46000004       2.60448840E-04
  -8.44999981       2.62355810E-04
  -8.43999958       2.64266157E-04
  -8.43000031       2.66181072E-04
  -8.42000008       2.68101721E-04
  -8.40999985       2.70029122E-04
  -8.39999962       2.71964294E-04
  -8.39000034       2.73908110E-04
  -8.38000011       2.75861443E-04
  -8.36999989       2.77824991E-04
  -8.35999966       2.79799511E-04
  -8.35000038       2.81785702E-04
  -8.34000015       2.83784204E-04
  -8.32999992       2.85795802E-04
  -8.31999969       2.87821313E-04
  -8.31000042       2.89861404E-04
  -8.30000019       2.91917095E-04
  -8.28999996       2.93989171E-04
  -8.27999973       2.96078797E-04
  -8.27000046       2.98186933E-04
  -8.26000023       3.00314918E-04
  -8.25000000       3.02463915E-04
  -8.23999977       3.04635440E-04
  -8.22999954       3.06831033E-04
  -8.22000027       3.09052295E-04
  -8.21000004       3.11300886E-04
  -8.19999981       3.13578668E-04
  -8.18999958       3.15887650E-04
  -8.18000031       3.18229751E-04
  -8.17000008       3.20606952E-04
  -8.15999985       3.23021552E-04
  -8.14999962       3.25475587E-04
  -8.14000034       3.27971356E-04
  -8.13000011       3.30511073E-04
  -8.11999989       3.33097210E-04
  -8.10999966       3.35731893E-04
  -8.10000038       3.38417449E-04
  -8.09000015       3.41156323E-04
  -8.07999992       3.43950698E-04
  -8.06999969       3.46802699E-04
  -8.06000042       3.49714654E-04
  -8.05000019       3.52688599E-04
  -8.03999996       3.55726515E-04
  -8.02999973       3.58830352E-04
  -8.02000046       3.62001738E-04
  -8.01000023       3.65242391E-04
  -8.00000000       3.68553738E-04
  -7.98999977       3.71937116E-04
  -7.98000002       3.75393574E-04
  -7.96999979       3.78924015E-04
  -7.96000004       3.82529252E-04
  -7.94999981       3.86209809E-04
  -7.94000006       3.89965979E-04
  -7.92999983       3.93797935E-04
  -7.92000008       3.97705560E-04
  -7.90999985       4.01688681E-04
  -7.90000010       4.05746774E-04
  -7.88999987       4.09879256E-04
  -7.88000011       4.14085429E-04
  -7.86999989       4.18364129E-04
  -7.86000013       4.22714395E-04
  -7.84999990       4.27134859E-04
  -7.84000015       4.31624067E-04
  -7.82999992       4.36180475E-04
  -7.82000017       4.40802338E-04
  -7.80999994       4.45487967E-04
  -7.80000019       4.50235384E-04
  -7.78999996       4.55042929E-04
  -7.78000021       4.59908566E-04
  -7.76999998       4.64830460E-04
  -7.76000023       4.69806808E-04
  -7.75000000       4.74835833E-04
  -7.73999977       4.79915790E-04
  -7.73000002       4.85044991E-04
  -7.71999979       4.90221893E-04
  -7.71000004       4.95445449E-04
  -7.69999981       5.00713941E-04
  -7.69000006       5.06026496E-04
  -7.67999983       5.11382124E-04
  -7.67000008       5.16780012E-04
  -7.65999985       5.22219401E-04
  -7.65000010       5.27699827E-04
  -7.63999987       5.33221115E-04
  -7.63000011       5.38783032E-04
  -7.61999989       5.44385810E-04
  -7.61000013       5.50029508E-04
  -7.59999990       5.55714592E-04
  -7.59000015       5.61441528E-04
  -7.57999992       5.67211304E-04
  -7.57000017       5.73024852E-04
  -7.55999994       5.78883162E-04
  -7.55000019       5.84787573E-04
  -7.53999996       5.90739422E-04
  -7.53000021       5.96740225E-04
  -7.51999998       6.02791959E-04
  -7.51000023       6.08896196E-04
  -7.50000000       6.15054858E-04
  -7.48999977       6.21270330E-04
  -7.48000002       6.27544534E-04
  -7.46999979       6.33879856E-04
  -7.46000004       6.40278507E-04
  -7.44999981       6.46743050E-04
  -7.44000006       6.53275929E-04