  -16.0000000       0.00000000    
  -15.9899998       0.00000000    
  -15.9799995       0.00000000    
  -15.9700003       0.00000000    
  -15.9600000       0.00000000    
  -15.9499998       0.00000000    
  -15.9399996       0.00000000    
  -15.9300003       0.00000000    
  -15.9200001       0.00000000    
  -15.9099998       0.00000000    
  -15.8999996       0.00000000    
  -15.8900003       0.00000000    
  -15.8800001       0.00000000    
  -15.8699999      -0.00000000    
  -15.8599997      -0.00000000    
  -15.8500004      -1.40129846E-45
  -15.8400002      -2.38220739E-44
  -15.8299999      -2.25609053E-43
  -15.8199997      -1.69977504E-42
  -15.8100004      -1.05657904E-41
  -15.8000002      -5.55110374E-41
  -15.7900000      -2.50602612E-40
  -15.7799997      -9.85426711E-40
  -15.7700005      -3.41027701E-39
  -15.7600002      -1.04635026E-38
  -15.7500000      -2.85847511E-38
  -15.7399998      -6.95676584E-38
  -15.7299995      -1.50130846E-37
  -15.7200003      -2.83350397E-37
  -15.7100000      -4.51993012E-37
  -15.6999998      -5.52723054E-37
  -15.6899996      -3.09795231E-37
  -15.6800003       8.12423614E-37
  -15.6700001       3.61003649E-36
  -15.6599998       8.88750139E-36
  -15.6499996       1.67325910E-35
  -15.6400003       2.51568131E-35
  -15.6300001       2.82434903E-35
  -15.6199999       1.46153710E-35
  -15.6099997      -3.19570824E-35
  -15.6000004      -1.27038039E-34
  -15.5900002      -2.72448022E-34
  -15.5799999      -4.35709333E-34
  -15.5699997      -5.28725145E-34
  -15.5600004      -4.01995145E-34
  -15.5500002       1.22400967E-34
  -15.5400000       1.16248833E-33
  -15.5299997       2.64736187E-33
  -15.5200005       4.21435480E-33
  -15.5100002       5.23676525E-33
  -15.5000000       5.03705721E-33
  -15.4899998       3.13899420E-33
  -15.4799995      -8.91614577E-34
  -15.4700003      -8.57543920E-33
  -15.4600000      -2.45257360E-32
  -15.4499998      -5.73430418E-32
  -15.4399996      -1.14664560E-31
  -15.4300003      -1.86380519E-31
  -15.4200001      -2.14829257E-31
  -15.4099998      -6.63432084E-32
  -15.3999996       4.55934480E-31
  -15.3900003       1.49676316E-30
  -15.3800001       2.88514274E-30
  -15.3699999       3.76947673E-30
  -15.3599997       2.38729963E-30
  -15.3500004      -3.57050898E-30
  -15.3400002      -1.54658855E-29
  -15.3299999      -3.09207150E-29
  -15.3199997      -4.06113475E-29
  -15.3100004      -2.71834630E-29
  -15.3000002       2.97494095E-29
  -15.2900000       1.38991884E-28
  -15.2799997       2.74285791E-28
  -15.2700005       3.51741927E-28
  -15.2600002       2.29435144E-28
  -15.2500000      -2.42942316E-28
  -15.2399998      -1.10622335E-27
  -15.2299995      -2.12440646E-27
  -15.2200003      -2.65012332E-27
  -15.2100000      -1.67239995E-27
  -15.1999998       1.78493319E-27
  -15.1899996       7.84338051E-27
  -15.1800003       1.47178426E-26
  -15.1700001       1.80094895E-26
  -15.1599998       1.12622536E-26
  -15.1499996      -1.13146774E-26
  -15.1400003      -4.97808425E-26
  -15.1300001      -9.24662879E-26
  -15.1199999      -1.12559678E-25
  -15.1099997      -7.23632955E-26
  -15.1000004       6.03575228E-26
  -15.0900002       2.83988299E-25
  -15.0799999       5.31356245E-25
  -15.0699997       6.53908892E-25
  -15.0600004       4.47598297E-25
  -15.0500002      -2.59086154E-25
  -15.0400000      -1.45873437E-24
  -15.0299997      -2.80708462E-24
  -15.0200005      -3.54918264E-24
  -15.0100002      -2.65214267E-24
  -15.0000000       7.64403308E-25
  -14.9899998       6.72657671E-24
  -14.9799995       1.36573721E-23
  -14.9700003       1.80201169E-23
  -14.9600000       1.49031413E-23
  -14.9499998      -5.54491994E-26
  -14.9399996      -2.75225839E-23
  -14.9300003      -6.10734788E-23
  -14.9200001      -8.54216390E-23
  -14.9099998      -7.86122927E-23
  -14.8999996      -1.99074903E-23
  -14.8900003       9.70080241E-23
  -14.8800001       2.49297641E-22
  -14.8699999       3.76211047E-22
  -14.8599997       3.85759041E-22
  -14.8500004       1.84200246E-22
  -14.8400002      -2.72097740E-22
  -14.8299999      -9.15876144E-22
  -14.8199997      -1.52713758E-21
  -14.8100004      -1.74669768E-21
  -14.8000002      -1.17575374E-21
  -14.7900000       4.34576076E-22
  -14.7799997       2.94623155E-21
  -14.7700005       5.64590188E-21
  -14.7600002       7.23822941E-21
  -14.7500000       6.14234556E-21
  -14.7399998       1.13094785E-21
  -14.7299995      -7.80375195E-21
  -14.7200003      -1.86631866E-20
  -14.7100000      -2.71887902E-20
  -14.6999998      -2.75999571E-20
  -14.6899996      -1.45543495E-20
  -14.6800003       1.39174027E-20
  -14.6700001       5.33857521E-20
  -14.6599998       9.13499236E-20
  -14.6499996       1.08531680E-19
  -14.6400003       8.42168738E-20
  -14.6300001       5.36975321E-21
  -14.6199999      -1.22730506E-19
  -14.6099997      -2.68557421E-19
  -14.6000004      -3.74361292E-19
  -14.5900002      -3.68487508E-19
  -14.5799999      -1.90883132E-19
  -14.5699997       1.72984469E-19
  -14.5600004       6.60962029E-19
  -14.5500002       1.12147979E-18
  -14.5400000       1.33456358E-18
  -14.5299997       1.07437144E-18
  -14.5200005       2.06262436E-19
  -14.5100002      -1.20746253E-18
  -14.5000000      -2.83551372E-18
  -14.4899998      -4.08727394E-18
  -14.4799995      -4.23943299E-18
  -14.4700003      -2.68072424E-18
  -14.4600000       7.74484606E-19
  -14.4499998       5.60524094E-18
  -14.4399996       1.04696250E-17
  -14.4300003       1.33809062E-17
  -14.4200001       1.22315702E-17
  -14.4099998       5.60281854E-18
  -14.3999996      -6.34817735E-18
  -14.3900003      -2.12522883E-17
  -14.3800001      -3.45098660E-17
  -14.3699999      -4.01590993E-17
  -14.3599997      -3.26548407E-17
  -14.3500004      -9.22703512E-18
  -14.3400002       2.78768138E-17
  -14.3299999       7.01924689E-17
  -14.3199997       1.03766797E-16
  -14.3100004       1.12289662E-16
  -14.3000002       8.23590980E-17
  -14.2900000       9.68564143E-18
  -14.2799997      -9.57644465E-17
  -14.2700005      -2.08024701E-16
  -14.2600002      -2.88691090E-16
  -14.2500000      -2.96399275E-16
  -14.2399998      -2.00838592E-16
  -14.2299995       2.23851411E-18
  -14.2200003       2.80140160E-16
  -14.2100000       5.61864324E-16
  -14.1999998       7.49964507E-16
  -14.1899996       7.45848932E-16
  -14.1800003       4.83968368E-16
  -14.1700001      -3.42861434E-17
  -14.1599998      -7.18965007E-16
  -14.1499996      -1.39365687E-15
  -14.1400003      -1.82798604E-15
  -14.1300001      -1.79869585E-15
  -14.1199999      -1.16709515E-15
  -14.1099997       4.85613683E-17
  -14.1000004       1.63169028E-15
  -14.0900002       3.17987561E-15
  -14.0799999       4.18245811E-15
  -14.0699997       4.15579690E-15
  -14.0600004       2.80762178E-15
  -14.0500002       1.84602453E-16
  -14.0400000      -3.24936408E-15
  -14.0299997      -6.64769033E-15
  -14.0200005      -8.94659492E-15
  -14.0100002      -9.14204523E-15
  -14.0000000      -6.61811617E-15
  -13.9899998      -1.43577177E-15
  -13.9799995       5.51809990E-15
  -13.9700003       1.26010457E-14
  -13.9600000       1.77341289E-14
  -13.9499998       1.89281201E-14
  -13.9399996       1.49019082E-14
  -13.9300003       5.62470196E-15
  -13.9200001      -7.39905218E-15
  -13.9099998      -2.12423886E-14
  -13.8999996      -3.21148205E-14
  -13.8900003      -3.62910623E-14
  -13.8800001      -3.12064217E-14
  -13.8699999      -1.64269318E-14
  -13.8599997       5.81585781E-15
  -13.8500004       3.07634370E-14
  -13.8400002       5.20238556E-14
  -13.8299999       6.30935191E-14
  -13.8199997       5.91738708E-14
  -13.8100004       3.88064113E-14
  -13.8000002       4.82400976E-15
  -13.7900000      -3.57647871E-14
  -13.7799997      -7.30914624E-14
  -13.7700005      -9.67470461E-14
  -13.7600002      -9.85883602E-14
  -13.7500000      -7.52967431E-14
  -13.7399998      -2.99221199E-14
  -13.7299995       2.81665628E-14
  -13.7200003       8.51181376E-14
  -13.7100000       1.25922100E-13
  -13.6999998       1.38443686E-13
  -13.6899996       1.17090799E-13
  -13.6800003       6.50060382E-14
  -13.6700001      -6.02148353E-15
  -13.6599998      -7.81519828E-14
  -13.6499996      -1.32105359E-13
  -13.6400003      -1.52631217E-13
  -13.6300001      -1.33289904E-13
  -13.6199999      -7.90240472E-14
  -13.6099997      -5.49586486E-15
  -13.6000004       6.49590448E-14
  -13.5900002       1.09880224E-13
  -13.5799999       1.13959921E-13
  -13.5699997       7.48218965E-14
  -13.5600004       5.25576786E-15
  -13.5500002      -6.92888807E-14
  -13.5400000      -1.17799813E-13
  -13.5299997      -1.13751849E-13
  -13.5200005      -4.52818664E-14
  -13.5100002       7.78103100E-14
  -13.5000000       2.23040255E-13
  -13.4899998       3.41549109E-13
  -13.4799995       3.81001654E-13
  -13.4700003       3.02136110E-13
  -13.4600000       9.44069381E-14
  -13.4499998      -2.14307996E-13
  -13.4399996      -5.57974131E-13
  -13.4300003      -8.44305366E-13
  -13.4200001      -9.76740715E-13
  -13.4099998      -8.81676026E-13
  -13.3999996      -5.33839574E-13
  -13.3900003       2.78266146E-14
  -13.3800001       6.99793142E-13
  -13.3699999       1.33147475E-12
  -13.3599997       1.75829522E-12
  -13.3500004       1.84319552E-12
  -13.3400002       1.51621510E-12
  -13.3299999       8.01061637E-13
  -13.3199997      -1.80096538E-13
  -13.3100004      -1.22730428E-12
  -13.3000002      -2.10599593E-12
  -13.2900000      -2.60320801E-12
  -13.2799997      -2.58284475E-12
  -13.2700005      -2.02501124E-12
  -13.2600002      -1.03751935E-12
  -13.2500000       1.65599115E-13
  -13.2399998       1.31498295E-12
  -13.2299995       2.15416487E-12
  -13.2200003       2.50728214E-12
  -13.2100000       2.32728680E-12
  -13.1999998       1.70985372E-12
  -13.1899996       8.66944862E-13
  -13.1800003       6.52385047E-14
  -13.1700001      -4.54742499E-13
  -13.1599998      -5.56030699E-13
  -13.1499996      -2.55526964E-13
  -13.1400003       2.70407421E-13
  -13.1300001       7.30987970E-13
  -13.1199999       8.08022540E-13
  -13.1099997       2.62834513E-13
  -13.1000004      -9.67238984E-13
  -13.0900002      -2.71333563E-12
  -13.0799999      -4.58244597E-12
  -13.0699997      -6.03366749E-12
  -13.0600004      -6.51004814E-12
  -13.0500002      -5.59527424E-12
  -13.0400000      -3.15400830E-12
  -13.0299997       5.85250110E-13
  -13.0200005       5.03414541E-12
  -13.0100002       9.34373325E-12
  -13.0000000       1.25822174E-11
  -12.9899998       1.39514875E-11
  -12.9799995       1.29890066E-11
  -12.9700003       9.70123201E-12
  -12.9600000       4.58919057E-12
  -12.9499998      -1.44711315E-12
  -12.9399996      -7.30718524E-12
  -12.9300003      -1.19446189E-11
  -12.9200001      -1.46134060E-11
  -12.9099998      -1.50407065E-11
  -12.8999996      -1.34778065E-11
  -12.8900003      -1.06120789E-11
  -12.8800001      -7.36038314E-12
  -12.8699999      -4.59789802E-12
  -12.8599997      -2.89663584E-12
  -12.8500004      -2.34817092E-12
  -12.8400002      -2.52436635E-12
  -12.8299999      -2.59289942E-12
  -12.8199997      -1.56098897E-12
  -12.8100004       1.41712998E-12
  -12.8000002       6.75431803E-12
  -12.7900000       1.42487654E-11
  -12.7799997       2.30618389E-11
  -12.7700005       3.18665719E-11
  -12.7600002       3.91279856E-11
  -12.7500000       4.34361609E-11
  -12.7399998       4.37945791E-11
  -12.7299995       3.97772336E-11
  -12.7200003       3.15067104E-11
  -12.7100000       1.94623553E-11
  -12.6999998       4.18652005E-12
  -12.6899996      -1.40002281E-11
  -12.6800003      -3.51525545E-11
  -12.6700001      -5.96265745E-11
  -12.6599998      -8.77443118E-11
  -12.6499996      -1.19244573E-10
  -12.6400003      -1.52649102E-10
  -12.6300001      -1.84729787E-10
  -12.6199999      -2.10276047E-10
  -12.6099997      -2.22321578E-10
  -12.6000004      -2.12902196E-10
  -12.5900002      -1.74298576E-10
  -12.5799999      -1.00597183E-10
  -12.5699997       1.06905084E-11
  -12.5600004       1.57253932E-10
  -12.5500002       3.31133398E-10
  -12.5400000       5.18591836E-10
  -12.5299997       7.00778158E-10
  -12.5200005       8.55118254E-10
  -12.5100002       9.57249058E-10
  -12.5000000       9.83245929E-10
  -12.4899998       9.11892006E-10
  -12.4799995       7.26789906E-10
  -12.4700003       4.18215795E-10
  -12.4600000      -1.52765543E-11
  -12.4499998      -5.65419267E-10
  -12.4399996      -1.21285315E-09
  -12.4300003      -1.92574134E-09
  -12.4200001      -2.65840372E-09
  -12.4099998      -3.35014616E-09
  -12.3999996      -3.92457888E-09
  -12.3900003      -4.28979074E-09
  -12.3800001      -4.33977743E-09
  -12.3699999      -3.95738109E-09
  -12.3599997      -3.01886072E-09
  -12.3500004      -1.39994316E-09
  -12.3400002       1.01700537E-09
  -12.3299999       4.33527880E-09
  -12.3199997       8.63629168E-09
  -12.3100004       1.39728229E-08
  -12.3000002       2.03636628E-08
  -12.2900000       2.77899144E-08
  -12.2799997       3.61931498E-08
  -12.2700005       4.54751579E-08
  -12.2600002       5.54990081E-08
  -12.2500000       6.60911113E-08
  -12.2399998       7.70438362E-08
  -12.2299995       8.81186182E-08
  -12.2200003       9.90493518E-08
  -12.2100000       1.09546406E-07
  -12.1999998       1.19301433E-07
  -12.1899996       1.27992948E-07
  -12.1800003       1.35293320E-07
  -12.1700001       1.40876693E-07
  -12.1599998       1.44427503E-07
  -12.1499996       1.45649452E-07
  -12.1400003       1.44273812E-07
  -12.1300001       1.40066817E-07
  -12.1199999       1.32835254E-07
  -12.1099997       1.22430308E-07
  -12.1000004       1.08749354E-07
  -12.0900002       9.17363536E-08
  -12.0799999       7.13810664E-08
  -12.0699997       4.77178439E-08
  -12.0600004       2.08246256E-08
  -12.0500002      -9.17765242E-09
  -12.0400000      -4.21250803E-08
  -12.0299997      -7.78103271E-08
  -12.0200005      -1.15982296E-07
  -12.0100002      -1.56346175E-07
  -12.0000000      -1.98564393E-07
  -11.9899998      -2.42258665E-07
  -11.9799995      -2.87013279E-07
  -11.9700003      -3.32378590E-07
  -11.9600000      -3.77875949E-07
  -11.9499998      -4.23001126E-07
  -11.9399996      -4.67228517E-07
  -11.9300003      -5.10013990E-07
  -11.9200001      -5.50797608E-07
  -11.9099998      -5.89006390E-07
  -11.8999996      -6.24058089E-07
  -11.8900003      -6.55365966E-07
  -11.8800001      -6.82345103E-07
  -11.8699999      -7.04420927E-07
  -11.8599997      -7.21038930E-07
  -11.8500004      -7.31674788E-07
  -11.8400002      -7.35844594E-07
  -11.8299999      -7.33113779E-07
  -11.8199997      -7.23104165E-07
  -11.8100004      -7.05498451E-07
  -11.8000002      -6.80042433E-07
  -11.7900000      -6.46546027E-07
  -11.7799997      -6.04882473E-07
  -11.7700005      -5.54987537E-07
  -11.7600002      -4.96859514E-07
  -11.7500000      -4.30559339E-07
  -11.7399998      -3.56212155E-07
  -11.7299995      -2.74009153E-07
  -11.7200003      -1.84209583E-07
  -11.7100000      -8.71423822E-08
  -11.6999998       1.67932637E-08
  -11.6899996       1.27127933E-07
  -11.6800003       2.43323370E-07
  -11.6700001       3.64773911E-07
  -11.6599998       4.90808645E-07
  -11.6499996       6.20692674E-07
  -11.6400003       7.53629308E-07
  -11.6300001       8.88760212E-07
  -11.6199999       1.02516822E-06
  -11.6099997       1.16187869E-06
  -11.6000004       1.29786486E-06
  -11.5900002       1.43205114E-06
  -11.5799999       1.56332169E-06
  -11.5699997       1.69052907E-06
  -11.5600004       1.81250186E-06
  -11.5500002       1.92805601E-06
  -11.5400000       2.03600234E-06
  -11.5299997       2.13515523E-06
  -11.5200005       2.22433982E-06
  -11.5100002       2.30239789E-06
  -11.5000000       2.36819528E-06
  -11.4899998       2.42062833E-06
  -11.4799995       2.45863134E-06
  -11.4700003       2.48118431E-06
  -11.4600000       2.48732454E-06
  -11.4499998       2.47615344E-06
  -11.4399996       2.44684611E-06
  -11.4300003       2.39865858E-06
  -11.4200001       2.33093056E-06
  -11.4099998       2.24308792E-06
  -11.3999996       2.13464182E-06
  -11.3900003       2.00518434E-06
  -11.3800001       1.85438364E-06
  -11.3699999       1.68197960E-06
  -11.3599997       1.48777758E-06
  -11.3500004       1.27164662E-06
  -11.3400002       1.03351670E-06
  -11.3299999       7.73378872E-07
  -11.3199997       4.91287096E-07
  -11.3100004       1.87359575E-07
  -11.3000002      -1.38218880E-07
  -11.2900000      -4.85195471E-07
  -11.2799997      -8.53249617E-07
  -11.2700005      -1.24199244E-06
  -11.2600002      -1.65096958E-06
  -11.2500000      -2.07966150E-06
  -11.2399998      -2.52748805E-06
  -11.2299995      -2.99380781E-06
  -11.2200003      -3.47791934E-06
  -11.2100000      -3.97906297E-06
  -11.1999998      -4.49642266E-06
  -11.1899996      -5.02912371E-06
  -11.1800003      -5.57623753E-06
  -11.1700001      -6.13678640E-06
  -11.1599998      -6.70974396E-06
  -11.1499996      -7.29404837E-06
  -11.1400003      -7.88860962E-06
  -11.1300001      -8.49231310E-06
  -11.1199999      -9.10403742E-06
  -11.1099997      -9.72265298E-06
  -11.1000004      -1.03470375E-05
  -11.0900002      -1.09760786E-05
  -11.0799999      -1.16086740E-05
  -11.0699997      -1.22437423E-05
  -11.0600004      -1.28802267E-05
  -11.0500002      -1.35170949E-05
  -11.0400000      -1.41533392E-05
  -11.0299997      -1.47880019E-05
  -11.0200005      -1.54201553E-05
  -11.0100002      -1.60489217E-05
  -11.0000000      -1.66734626E-05
  -10.9899998      -1.72929886E-05
  -10.9799995      -1.79067538E-05
  -10.9700003      -1.85140489E-05
  -10.9600000      -1.91141862E-05
  -10.9499998      -1.97065037E-05
  -10.9399996      -2.02903557E-05
  -10.9300003      -2.08650999E-05
  -10.9200001      -2.14301017E-05
  -10.9099998      -2.19847207E-05
  -10.8999996      -2.25283202E-05
  -10.8900003      -2.30602636E-05
  -10.8800001      -2.35799089E-05
  -10.8699999      -2.40866066E-05
  -10.8599997      -2.45797164E-05
  -10.8500004      -2.50585690E-05
  -10.8400002      -2.55224877E-05
  -10.8299999      -2.59707904E-05
  -10.8199997      -2.64027585E-05
  -10.8100004      -2.68176736E-05
  -10.8000002      -2.72147918E-05
  -10.7900000      -2.75933726E-05
  -10.7799997      -2.79526685E-05
  -10.7700005      -2.82919445E-05
  -10.7600002      -2.86104805E-05
  -10.7500000      -2.89075761E-05
  -10.7399998      -2.91825490E-05
  -10.7299995      -2.94347501E-05
  -10.7200003      -2.96635335E-05
  -10.7100000      -2.98682753E-05
  -10.6999998      -3.00483516E-05
  -10.6899996      -3.02031422E-05
  -10.6800003      -3.03320176E-05
  -10.6700001      -3.04343375E-05
  -10.6599998      -3.05094418E-05
  -10.6499996      -3.05566718E-05
  -10.6400003      -3.05753420E-05
  -10.6300001      -3.05647773E-05
  -10.6199999      -3.05242938E-05
  -10.6099997      -3.04532277E-05
  -10.6000004      -3.03509278E-05
  -10.5900002      -3.02167628E-05
  -10.5799999      -3.00501415E-05
  -10.5699997      -2.98505111E-05
  -10.5600004      -2.96173548E-05
  -10.5500002      -2.93502108E-05
  -10.5400000      -2.90486678E-05
  -10.5299997      -2.87123639E-05
  -10.5200005      -2.83409991E-05
  -10.5100002      -2.79343349E-05
  -10.5000000      -2.74921676E-05
  -10.4899998      -2.70143883E-05
  -10.4799995      -2.65009312E-05
  -10.4700003      -2.59518038E-05
  -10.4600000      -2.53670914E-05
  -10.4499998      -2.47469579E-05
  -10.4399996      -2.40916524E-05
  -10.4300003      -2.34015406E-05
  -10.4200001      -2.26770717E-05
  -10.4099998      -2.19188241E-05
  -10.3999996      -2.11274946E-05
  -10.3900003      -2.03039053E-05
  -10.3800001      -1.94489967E-05
  -10.3699999      -1.85638328E-05
  -10.3599997      -1.76495760E-05
  -10.3500004      -1.67074886E-05
  -10.3400002      -1.57389131E-05
  -10.3299999      -1.47452529E-05
  -10.3199997      -1.37279731E-05
  -10.3100004      -1.26885770E-05
  -10.3000002      -1.16285973E-05
  -10.2900000      -1.05495901E-05
  -10.2799997      -9.45313786E-06
  -10.2700005      -8.34083312E-06
  -10.2600002      -7.21428796E-06
  -10.2500000      -6.07511902E-06
  -10.2399998      -4.92494792E-06
  -10.2299995      -3.76539242E-06
  -10.2200003      -2.59805120E-06
  -10.2100000      -1.42449130E-06
  -10.1999998      -2.46233895E-07
  -10.1899996       9.35270236E-07
  -10.1800003       2.11865745E-06
  -10.1700001       3.30266857E-06
  -10.1599998       4.48616493E-06
  -10.1499996       5.66813333E-06
  -10.1400003       6.84769884E-06
  -10.1300001       8.02410705E-06
  -10.1199999       9.19673221E-06
  -10.1099997       1.03650545E-05
  -10.1000004       1.15286457E-05
  -10.0900002       1.26871655E-05
  -10.0799999       1.38403220E-05
  -10.0699997       1.49878970E-05
  -10.0600004       1.61296994E-05
  -10.0500002       1.72655855E-05
  -10.0400000       1.83954435E-05
  -10.0299997       1.95191951E-05
  -10.0200005       2.06368040E-05
  -10.0100002       2.17482575E-05
  -10.0000000       2.28535864E-05
  -9.98999977       2.39528563E-05
  -9.97999954       2.50461635E-05
  -9.97000027       2.61336409E-05
  -9.96000004       2.72154612E-05
  -9.94999981       2.82918118E-05
  -9.93999958       2.93629146E-05
  -9.93000031       3.04290152E-05
  -9.92000008       3.14903627E-05
  -9.90999985       3.25472320E-05
  -9.89999962       3.35999175E-05
  -9.89000034       3.46487432E-05
  -9.88000011       3.56940509E-05
  -9.86999989       3.67362409E-05
  -9.85999966       3.77757460E-05
  -9.85000038       3.88130757E-05
  -9.84000015       3.98487864E-05
  -9.82999992       4.08835040E-05
  -9.81999969       4.19179160E-05
  -9.81000042       4.29527572E-05
  -9.80000019       4.39887845E-05
  -9.78999996       4.50268126E-05
  -9.77999973       4.60676529E-05
  -9.77000046       4.71121493E-05
  -9.76000023       4.81611642E-05
  -9.75000000       4.92155559E-05
  -9.73999977       5.02762596E-05
  -9.72999954       5.13442064E-05
  -9.72000027       5.24203824E-05
  -9.71000004       5.35058098E-05
  -9.69999981       5.46015472E-05
  -9.68999958       5.57086714E-05
  -9.68000031       5.68282449E-05
  -9.67000008       5.79613297E-05
  -9.65999985       5.91089229E-05
  -9.64999962       6.02719556E-05
  -9.64000034       6.14512464E-05
  -9.63000011       6.26474939E-05
  -9.61999989       6.38612619E-05
  -9.60999966       6.50929505E-05
  -9.60000038       6.63427563E-05
  -9.59000015       6.76107156E-05
  -9.57999992       6.88966466E-05
  -9.56999969       7.02001489E-05
  -9.56000042       7.15206115E-05
  -9.55000019       7.28572413E-05
  -9.53999996       7.42089615E-05
  -9.52999973       7.55745350E-05
  -9.52000046       7.69524631E-05
  -9.51000023       7.83410505E-05
  -9.50000000       7.97383545E-05
  -9.48999977       8.11422142E-05
  -9.47999954       8.25502866E-05
  -9.47000027       8.39599525E-05
  -9.46000004       8.53684687E-05
  -9.44999981       8.67728595E-05
  -9.43999958       8.81700325E-05
  -9.43000031       8.95567937E-05
  -9.42000008       9.09298833E-05
  -9.40999985       9.22860490E-05
  -9.39999962       9.36220531E-05
  -9.39000034       9.49348105E-05
  -9.38000011       9.62213744E-05
  -9.36999989       9.74790091E-05
  -9.35999966       9.87053063E-05
  -9.35000038       9.98981341E-05
  -9.34000015       1.01055739E-04
  -9.32999992       1.02176855E-04
  -9.31999969       1.03260594E-04
  -9.31000042       1.04306608E-04
  -9.30000019       1.05315055E-04
  -9.28999996       1.06286636E-04
  -9.27999973       1.07222586E-04
  -9.27000046       1.08124710E-04
  -9.26000023       1.08995358E-04
  -9.25000000       1.09837376E-04
  -9.23999977       1.10654226E-04
  -9.22999954       1.11449874E-04
  -9.22000027       1.12228729E-04
  -9.21000004       1.12995767E-04
  -9.19999981       1.13756359E-04
  -9.18999958       1.14516282E-04
  -9.18000031       1.15281749E-04
  -9.17000008       1.16059222E-04
  -9.15999985       1.16855437E-04
  -9.14999962       1.17677366E-04
  -9.14000034       1.18532036E-04
  -9.13000011       1.19426579E-04
  -9.11999989       1.20368117E-04
  -9.10999966       1.21363671E-04
  -9.10000038       1.22420053E-04
  -9.09000015       1.23543883E-04
  -9.07999992       1.24741418E-04
  -9.06999969       1.26018509E-04
  -9.06000042       1.27380554E-04
  -9.05000019       1.28832384E-04
  -9.03999996       1.30378248E-04
  -9.02999973       1.32021771E-04
  -9.02000046       1.33765832E-04
  -9.01000023       1.35612689E-04
  -9.00000000       1.37563809E-04
  -8.98999977       1.39619951E-04
  -8.97999954       1.41781085E-04
  -8.97000027       1.44046397E-04
  -8.96000004       1.46414284E-04
  -8.94999981       1.48882391E-04
  -8.93999958       1.51447573E-04
  -8.93000031       1.54105917E-04
  -8.92000008       1.56852868E-04
  -8.90999985       1.59683055E-04
  -8.89999962       1.62590513E-04
  -8.89000034       1.65568563E-04
  -8.88000011       1.68609971E-04
  -8.86999989       1.71706793E-04
  -8.85999966       1.74850677E-04
  -8.85000038       1.78032627E-04
  -8.84000015       1.81243318E-04
  -8.82999992       1.84472927E-04
  -8.81999969       1.87711412E-04
  -8.81000042       1.90948413E-04
  -8.80000019       1.94173423E-04
  -8.78999996       1.97375863E-04
  -8.77999973       2.00545008E-04
  -8.77000046       2.03670250E-04
  -8.76000023       2.06740995E-04
  -8.75000000       2.09746795E-04
  -8.73999977       2.12677216E-04
  -8.72999954       2.15522174E-04
  -8.72000027       2.18271831E-04
  -8.71000004       2.20916583E-04
  -8.69999981       2.23447263E-04
  -8.68999958       2.25854994E-04
  -8.68000031       2.28131365E-04
  -8.67000008       2.30268430E-04
  -8.65999985       2.32258521E-04
  -8.64999962       2.34094652E-04
  -8.64000034       2.35770116E-04
  -8.63000011       2.37278815E-04
  -8.61999989       2.38615059E-04
  -8.60999966       2.39773770E-04
  -8.60000038       2.40750262E-04
  -8.59000015       2.41540547E-04
  -8.57999992       2.42140901E-04
  -8.56999969       2.42548413E-04
  -8.56000042       2.42760361E-04
  -8.55000019       2.42774666E-04
  -8.53999996       2.42589565E-04
  -8.52999973       2.42203823E-04
  -8.52000046       2.41616523E-04
  -8.51000023       2.40827110E-04
  -8.50000000       2.39835455E-04
  -8.48999977       2.38641704E-04
  -8.47999954       2.37246306E-04
  -8.47000027       2.35649946E-04
  -8.46000004       2.33853702E-04
  -8.44999981       2.31858736E-04
  -8.43999958       2.29666475E-04
  -8.43000031       2.27278564E-04
  -8.42000008       2.24696807E-04
  -8.40999985       2.21923256E-04
  -8.39999962       2.18960107E-04
  -8.39000034       2.15809792E-04
  -8.38000011       2.12474959E-04
  -8.36999989       2.08958489E-04
  -8.35999966       2.05263394E-04
  -8.35000038       2.01393035E-04
  -8.34000015       1.97350877E-04
  -8.32999992       1.93140717E-04
  -8.31999969       1.88766644E-04
  -8.31000042       1.84232980E-04
  -8.30000019       1.79544310E-04
  -8.28999996       1.74705594E-04
  -8.27999973       1.69722029E-04
  -8.27000046       1.64599202E-04
  -8.26000023       1.59343035E-04
  -8.25000000       1.53959729E-04
  -8.23999977       1.48455845E-04
  -8.22999954       1.42838267E-04
  -8.22000027       1.37114359E-04
  -8.21000004       1.31291701E-04
  -8.19999981       1.25378196E-04
  -8.18999958       1.19382268E-04
  -8.18000031       1.13312533E-04
  -8.17000008       1.07177992E-04
  -8.15999985       1.00988007E-04
  -8.14999962       9.47522349E-05
  -8.14000034       8.84806723E-05
  -8.13000011       8.21836366E-05
  -8.11999989       7.58717288E-05
  -8.10999966       6.95558556E-05
  -8.10000038       6.32472002E-05
  -8.09000015       5.69571384E-05
  -8.07999992       5.06972829E-05
  -8.06999969       4.44794096E-05
  -8.06000042       3.83154220E-05
  -8.05000019       3.22172782E-05
  -8.03999996       2.61969926E-05
  -8.02999973       2.02665069E-05
  -8.02000046       1.44377673E-05
  -8.01000023       8.72258443E-06
  -8.00000000       3.13264991E-06
  -7.98999977      -2.32057755E-06
  -7.98000002      -7.62587342E-06
  -7.96999979      -1.27722733E-05
  -7.96000004      -1.77491183E-05
  -7.94999981      -2.25461390E-05
  -7.94000006      -2.71534918E-05
  -7.92999983      -3.15616780E-05
  -7.92000008      -3.57617646E-05
  -7.90999985      -3.97452059E-05
  -7.90000010      -4.35040565E-05
  -7.88999987      -4.70307568E-05
  -7.88000011      -5.03183765E-05
  -7.86999989      -5.33604907E-05
  -7.86000013      -5.61512679E-05
  -7.84999990      -5.86854221E-05
  -7.84000015      -6.09582166E-05
  -7.82999992      -6.29655915E-05
  -7.82000017      -6.47039924E-05
  -7.80999994      -6.61705199E-05
  -7.80000019      -6.73628674E-05
  -7.78999996      -6.82792815E-05
  -7.78000021      -6.89186418E-05
  -7.76999998      -6.92803587E-05
  -7.76000023      -6.93645270E-05
  -7.75000000      -6.91716632E-05
  -7.73999977      -6.87028805E-05
  -7.73000002      -6.79598452E-05
  -7.71999979      -6.69446454E-05
  -7.71000004      -6.56598859E-05
  -7.69999981      -6.41086226E-05
  -7.69000006      -6.22943044E-05
  -7.67999983      -6.02207547E-05
  -7.67000008      -5.78921463E-05
  -7.65999985      -5.53129503E-05
  -7.65000010      -5.24879688E-05
  -7.63999987      -4.94222186E-05
  -7.63000011      -4.61210002E-05
  -7.61999989      -4.25897560E-05
  -7.61000013      -3.88340486E-05
  -7.59999990      -3.48596113E-05
  -7.59000015      -3.06722650E-05
  -7.57999992      -2.62777503E-05
  -7.57000017      -2.16819280E-05
  -7.55999994      -1.68904990E-05
  -7.55000019      -1.19091201E-05
  -7.53999996      -6.74327566E-06
  -7.53000021      -1.39818189E-06
  -7.51999998       4.12103873E-06
  -7.51000023       9.80968161E-06
  -7.50000000       1.56632286E-05
  -7.48999977       2.16775625E-05
  -7.48000002       2.78488260E-05
  -7.46999979       3.41735686E-05
  -7.46000004       4.06486652E-05
  -7.44999981       4.72713546E-05
  -7.44000006       5.40391702E-05