  -16.0000000       0.00000000    
  -15.9899998       0.00000000    
  -15.9799995       0.00000000    
  -15.9700003       0.00000000    
  -15.9600000       0.00000000    
  -15.9499998       0.00000000    
  -15.9399996       0.00000000    
  -15.9300003       0.00000000    
  -15.9200001       0.00000000    
  -15.9099998       0.00000000    
  -15.8999996       0.00000000    
  -15.8900003       0.00000000    
  -15.8800001       0.00000000    
  -15.8699999      -0.00000000    
  -15.8599997       1.40129846E-45
  -15.8500004       7.00649232E-45
  -15.8400002       8.68805048E-44
  -15.8299999       6.95044038E-43
  -15.8199997       4.23892785E-42
  -15.8100004       2.14636886E-41
  -15.8000002       9.43017815E-41
  -15.7900000       3.67797407E-40
  -15.7799997       1.28305830E-39
  -15.7700005       3.99458064E-39
  -15.7600002       1.09975921E-38
  -15.7500000       2.63045806E-38
  -15.7399998       5.26997075E-38
  -15.7299995       8.02648234E-38
  -15.7200003       5.71338923E-38
  -15.7100000      -1.62883918E-37
  -15.6999998      -8.75904990E-37
  -15.6899996      -2.50200177E-36
  -15.6800003      -5.29143466E-36
  -15.6700001      -8.51768631E-36
  -15.6599998      -9.11538113E-36
  -15.6499996      -5.32540276E-37
  -15.6400003       2.58375208E-35
  -15.6300001       7.26563760E-35
  -15.6199999       1.19167852E-34
  -15.6099997       1.00043581E-34
  -15.6000004      -9.34453896E-35
  -15.5900002      -5.38298674E-34
  -15.5799999      -1.07756089E-33
  -15.5699997      -1.01921835E-33
  -15.5600004       1.01168361E-33
  -15.5500002       6.47929107E-33
  -15.5400000       1.48305084E-32
  -15.5299997       1.96745854E-32
  -15.5200005       5.11435515E-33
  -15.5100002      -5.22157647E-32
  -15.5000000      -1.66386723E-31
  -15.4899998      -3.03513699E-31
  -15.4799995      -3.28767338E-31
  -15.4700003       2.07634326E-32
  -15.4600000       1.05516341E-30
  -15.4499998       2.84356353E-30
  -15.4399996       4.69057718E-30
  -15.4300003       4.57276631E-30
  -15.4200001      -8.96867865E-31
  -15.4099998      -1.50617411E-29
  -15.3999996      -3.75523959E-29
  -15.3900003      -5.86455117E-29
  -15.3800001      -5.44292719E-29
  -15.3699999       1.11031434E-29
  -15.3599997       1.68823757E-28
  -15.3500004       4.06879905E-28
  -15.3400002       6.19681682E-28
  -15.3299999       5.72626158E-28
  -15.3199997      -6.33270020E-29
  -15.3100004      -1.54468075E-27
  -15.3000002      -3.73022470E-27
  -15.2900000      -5.67789531E-27
  -15.2799997      -5.41238777E-27
  -15.2700005      -2.74228687E-28
  -15.2600002       1.17275991E-26
  -15.2500000       2.94624110E-26
  -15.2399998       4.58086566E-26
  -15.2299995       4.61782934E-26
  -15.2200003       1.11980654E-26
  -15.2100000      -7.38409060E-26
  -15.1999998      -2.02486691E-25
  -15.1899996      -3.28351371E-25
  -15.1800003      -3.55620690E-25
  -15.1700001      -1.55696824E-25
  -15.1599998       3.74813824E-25
  -15.1499996       1.21384473E-24
  -15.1400003       2.09958821E-24
  -15.1300001       2.46826728E-24
  -15.1199999       1.53839631E-24
  -15.1099997      -1.37377336E-24
  -15.1000004      -6.29940853E-24
  -15.0900002      -1.19676439E-23
  -15.0799999      -1.54026843E-23
  -15.0699997      -1.22575187E-23
  -15.0600004       1.66332347E-24
  -15.0500002       2.76018013E-23
  -15.0400000       6.04079578E-23
  -15.0299997       8.60623771E-23
  -15.0200005       8.25199057E-23
  -15.0100002       2.61759841E-23
  -15.0000000      -9.52554781E-23
  -14.9899998      -2.65881920E-22
  -14.9799995      -4.27555189E-22
  -14.9700003      -4.79102970E-22
  -14.9600000      -2.99903510E-22
  -14.9499998       1.96667189E-22
  -14.9399996       9.87265507E-22
  -14.9300003       1.86580260E-21
  -14.9200001       2.41703892E-21
  -14.9099998       2.08584234E-21
  -14.8999996       3.74617826E-22
  -14.8900003      -2.84522908E-21
  -14.8800001      -6.99375796E-21
  -14.8699999      -1.05764589E-20
  -14.8599997      -1.13145537E-20
  -14.8500004      -6.77642029E-21
  -14.8400002       4.47520019E-21
  -14.8299999       2.14628360E-20
  -14.8199997       3.96441915E-20
  -14.8100004       5.07932679E-20
  -14.8000002       4.46445791E-20
  -14.7900000       1.26169455E-20
  -14.7799997      -4.68987141E-20
  -14.7700005      -1.23292834E-19
  -14.7600002      -1.91103072E-19
  -14.7500000      -2.12861062E-19
  -14.7399998      -1.49378375E-19
  -14.7299995       2.29481922E-20
  -14.7200003       2.91788245E-19
  -14.7100000       5.93182074E-19
  -14.6999998       8.10420176E-19
  -14.6899996       7.96296170E-19
  -14.6800003       4.21755846E-19
  -14.6700001      -3.56340671E-19
  -14.6599998      -1.42815669E-18
  -14.6499996      -2.49461750E-18
  -14.6400003      -3.09433378E-18
  -14.6300001      -2.71524559E-18
  -14.6199999      -9.86728657E-19
  -14.6099997       2.08902334E-18
  -14.6000004       5.94502068E-18
  -14.5900002       9.39777513E-18
  -14.5799999       1.08267536E-17
  -14.5699997       8.62290211E-18
  -14.5600004       1.85023966E-18
  -14.5500002      -9.04956021E-18
  -14.5400000      -2.17760656E-17
  -14.5299997      -3.22097182E-17
  -14.5200005      -3.51931668E-17
  -14.5100002      -2.60766008E-17
  -14.5000000      -2.75540790E-18
  -14.4899998       3.23827545E-17
  -14.4799995       7.13969100E-17
  -14.4700003       1.01402073E-16
  -14.4600000       1.07313675E-16
  -14.4499998       7.65625603E-17
  -14.4399996       4.80214824E-18
  -14.4300003      -9.91315745E-17
  -14.4200001      -2.11143172E-16
  -14.4099998      -2.94564813E-16
  -14.3999996      -3.08439530E-16
  -14.3900003      -2.20490524E-16
  -14.3800001      -2.18310235E-17
  -14.3699999       2.61217205E-16
  -14.3599997       5.63424029E-16
  -14.3500004       7.89221731E-16
  -14.3400002       8.34779927E-16
  -14.3299999       6.20490492E-16
  -14.3199997       1.26129162E-16
  -14.3100004      -5.82460406E-16
  -14.3000002      -1.34694375E-15
  -14.2900000      -1.93887091E-15
  -14.2799997      -2.11224627E-15
  -14.2700005      -1.67796390E-15
  -14.2600002      -5.82046525E-16
  -14.2500000       1.03681449E-15
  -14.2399998       2.83499429E-15
  -14.2299995       4.31347209E-15
  -14.2200003       4.93010953E-15
  -14.2100000       4.25564388E-15
  -14.1999998       2.13551617E-15
  -14.1899996      -1.19166281E-15
  -14.1800003      -5.06651317E-15
  -14.1700001      -8.50248623E-15
  -14.1599998      -1.04002763E-14
  -14.1499996      -9.84526893E-15
  -14.1400003      -6.41647448E-15
  -14.1300001      -4.16790900E-16
  -14.1199999       7.06022248E-15
  -14.1099997       1.42794745E-14
  -14.1000004       1.92272769E-14
  -14.0900002       2.01219385E-14
  -14.0799999       1.59505181E-14
  -14.0699997       6.88171156E-15
  -14.0600004      -5.58337395E-15
  -14.0500002      -1.88064252E-14
  -14.0400000      -2.95491103E-14
  -14.0299997      -3.47492522E-14
  -14.0200005      -3.23504922E-14
  -14.0100002      -2.19612045E-14
  -14.0000000      -5.14048710E-15
  -13.9899998       1.48072269E-14
  -13.9799995       3.35195942E-14
  -13.9700003       4.65985926E-14
  -13.9600000       5.07121539E-14
  -13.9499998       4.44768869E-14
  -13.9399996       2.88654700E-14
  -13.9300003       7.00339123E-15
  -13.9200001      -1.66095555E-14
  -13.9099998      -3.72459835E-14
  -13.8999996      -5.11393906E-14
  -13.8900003      -5.63622093E-14
  -13.8800001      -5.31251373E-14
  -13.8699999      -4.34047329E-14
  -13.8599997      -3.00244177E-14
  -13.8500004      -1.55061883E-14
  -13.8400002      -1.11192651E-15
  -13.8299999       1.35410829E-14
  -13.8199997       3.00773912E-14
  -13.8100004       5.02292638E-14
  -13.8000002       7.43125315E-14
  -13.7900000       9.98627857E-14
  -13.7799997       1.21031616E-13
  -13.7700005       1.29192704E-13
  -13.7600002       1.14876872E-13
  -13.7500000       7.07233480E-14
  -13.7399998      -5.27408622E-15
  -13.7299995      -1.07200043E-13
  -13.7200003      -2.20294432E-13
  -13.7100000      -3.22332439E-13
  -13.6999998      -3.87409560E-13
  -13.6899996      -3.91559560E-13
  -13.6800003      -3.19022152E-13
  -13.6700001      -1.67616328E-13
  -13.6599998       4.82992755E-14
  -13.6499996       2.98350266E-13
  -13.6400003       5.40440305E-13
  -13.6300001       7.28158148E-13
  -13.6199999       8.19801312E-13
  -13.6099997       7.87019755E-13
  -13.6000004       6.21081366E-13
  -13.5900002       3.35301963E-13
  -13.5799999      -3.68786050E-14
  -13.5699997      -4.47591102E-13
  -13.5600004      -8.42485749E-13
  -13.5500002      -1.16892737E-12
  -13.5400000      -1.38255087E-12
  -13.5299997      -1.45099948E-12
  -13.5200005      -1.35476233E-12
  -13.5100002      -1.08613097E-12
  -13.5000000      -6.48031704E-13
  -13.4899998      -5.45372023E-14
  -13.4799995       6.65895832E-13
  -13.4700003       1.46481687E-12
  -13.4600000       2.26779229E-12
  -13.4499998       2.97134864E-12
  -13.4399996       3.44659045E-12
  -13.4300003       3.55240273E-12
  -13.4200001       3.15901927E-12
  -13.4099998       2.17964080E-12
  -13.3999996       6.04539476E-13
  -13.3900003      -1.47046221E-12
  -13.3800001      -3.83014280E-12
  -13.3699999      -6.14827590E-12
  -13.3599997      -8.02222351E-12
  -13.3500004      -9.03218472E-12
  -13.3400002      -8.81745805E-12
  -13.3299999      -7.15668974E-12
  -13.3199997      -4.03597815E-12
  -13.3100004       3.11155507E-13
  -13.3000002       5.40413114E-12
  -13.2900000       1.05612871E-11
  -13.2799997       1.49880316E-11
  -13.2700005       1.78949529E-11
  -13.2600002       1.86269646E-11
  -13.2500000       1.67812812E-11
  -13.2399998       1.22932593E-11
  -13.2299995       5.47437876E-12
  -13.2200003      -3.00490080E-12
  -13.2100000      -1.21852146E-11
  -13.1999998      -2.09303738E-11
  -13.1899996      -2.80646270E-11
  -13.1800003      -3.25158962E-11
  -13.1700001      -3.34472658E-11
  -13.1599998      -3.03631217E-11
  -13.1499996      -2.31817603E-11
  -13.1400003      -1.22712673E-11
  -13.1300001       1.55169215E-12
  -13.1199999       1.70594112E-11
  -13.1099997       3.26873528E-11
  -13.1000004       4.66465130E-11
  -13.0900002       5.70751849E-11
  -13.0799999       6.22282781E-11
  -13.0699997       6.06954209E-11
  -13.0600004       5.16297768E-11
  -13.0500002       3.49586436E-11
  -13.0400000       1.15395072E-11
  -13.0299997      -1.67780911E-11
  -13.0200005      -4.72183508E-11
  -13.0100002      -7.62918825E-11
  -13.0000000      -1.00151804E-10
  -12.9899998      -1.15063556E-10
  -12.9799995      -1.17932511E-10
  -12.9700003      -1.06814745E-10
  -12.9600000      -8.13283330E-11
  -12.9499998      -4.28899555E-11
  -12.9399996       5.27745772E-12
  -12.9300003       5.83871007E-11
  -12.9200001       1.10563676E-10
  -12.9099998       1.55497837E-10
  -12.8999996       1.87197272E-10
  -12.8900003       2.00737107E-10
  -12.8800001       1.92913019E-10
  -12.8699999       1.62716091E-10
  -12.8599997       1.11573382E-10
  -12.8500004       4.33301173E-11
  -12.8400002      -3.60225287E-11
  -12.8299999      -1.18844962E-10
  -12.8199997      -1.96527350E-10
  -12.8100004      -2.60294175E-10
  -12.8000002      -3.02075753E-10
  -12.7900000      -3.15384219E-10
  -12.7799997      -2.96125208E-10
  -12.7700005      -2.43270237E-10
  -12.7600002      -1.59307040E-10
  -12.7500000      -5.03858240E-11
  -12.7399998       7.39123970E-11
  -12.7299995       2.01230657E-10
  -12.7200003       3.17516374E-10
  -12.7100000       4.08468342E-10
  -12.6999998       4.61225225E-10
  -12.6899996       4.66107264E-10
  -12.6800003       4.18181573E-10
  -12.6700001       3.18405829E-10
  -12.6599998       1.74137038E-10
  -12.6499996      -1.14256066E-12
  -12.6400003      -1.88930385E-10
  -12.6300001      -3.67565006E-10
  -12.6199999      -5.14657483E-10
  -12.6099997      -6.09807593E-10
  -12.6000004      -6.37266295E-10
  -12.5900002      -5.88201654E-10
  -12.5799999      -4.62267224E-10
  -12.5699997      -2.68263661E-10
  -12.5600004      -2.37914133E-11
  -12.5500002       2.46081239E-10
  -12.5400000       5.11006681E-10
  -12.5299997       7.38189676E-10
  -12.5200005       8.95600649E-10
  -12.5100002       9.55292734E-10
  -12.5000000       8.96549779E-10
  -12.4899998       7.08623049E-10
  -12.4799995       3.92840982E-10
  -12.4700003      -3.60837089E-11
  -12.4600000      -5.49700896E-10
  -12.4499998      -1.10652965E-09
  -12.4399996      -1.65387537E-09
  -12.4300003      -2.13075713E-09
  -12.4200001      -2.47183007E-09
  -12.4099998      -2.61210653E-09
  -12.3999996      -2.49214871E-09
  -12.3900003      -2.06331596E-09
  -12.3800001      -1.29259636E-09
  -12.3699999      -1.66527986E-10
  -12.3599997       1.30623401E-09
  -12.3500004       3.09401127E-09
  -12.3400002       5.14300513E-09
  -12.3299999       7.37997974E-09
  -12.3199997       9.71648184E-09
  -12.3100004       1.20541515E-08
  -12.3000002       1.42906460E-08
  -12.2900000       1.63256217E-08
  -12.2799997       1.80662241E-08
  -12.2700005       1.94316883E-08
  -12.2600002       2.03567616E-08
  -12.2500000       2.07937951E-08
  -12.2399998       2.07135535E-08
  -12.2299995       2.01047818E-08
  -12.2200003       1.89727931E-08
  -12.2100000       1.73372730E-08
  -12.1999998       1.52294781E-08
  -12.1899996       1.26890924E-08
  -12.1800003       9.76100090E-09
  -12.1700001       6.49201093E-09
  -12.1599998       2.92797386E-09
  -12.1499996      -8.88746188E-10
  -12.1400003      -4.92097563E-09
  -12.1300001      -9.13767462E-09
  -12.1199999      -1.35138505E-08
  -12.1099997      -1.80294641E-08
  -12.1000004      -2.26674590E-08
  -12.0900002      -2.74110814E-08
  -12.0799999      -3.22407736E-08
  -12.0699997      -3.71310698E-08
  -12.0600004      -4.20479225E-08
  -12.0500002      -4.69465924E-08
  -12.0400000      -5.17705985E-08
  -12.0299997      -5.64516149E-08
  -12.0200005      -6.09104660E-08
  -12.0100002      -6.50590053E-08
  -12.0000000      -6.88025850E-08
  -11.9899998      -7.20431430E-08
  -11.9799995      -7.46824540E-08
  -11.9700003      -7.66254118E-08
  -11.9600000      -7.77833620E-08
  -11.9499998      -7.80773064E-08
  -11.9399996      -7.74409656E-08
  -11.9300003      -7.58237917E-08
  -11.9200001      -7.31933127E-08
  -11.9099998      -6.95375704E-08
  -11.8999996      -6.48663843E-08
  -11.8900003      -5.92119136E-08
  -11.8800001      -5.26283124E-08
  -11.8699999      -4.51897648E-08
  -11.8599997      -3.69876432E-08
  -11.8500004      -2.81262764E-08
  -11.8400002      -1.87181914E-08
  -11.8299999      -8.87863383E-09
  -11.8199997       1.27989064E-09
  -11.8100004       1.16526646E-08
  -11.8000002       2.21469776E-08
  -11.7900000       3.26855023E-08
  -11.7799997       4.32084093E-08
  -11.7700005       5.36742597E-08
  -11.7600002       6.40598401E-08
  -11.7500000       7.43587947E-08
  -11.7399998       8.45794190E-08
  -11.7299995       9.47414804E-08
  -11.7200003       1.04872299E-07
  -11.7100000       1.15002187E-07
  -11.6999998       1.25159204E-07
  -11.6899996       1.35363777E-07
  -11.6800003       1.45623005E-07
  -11.6700001       1.55925150E-07
  -11.6599998       1.66235282E-07
  -11.6499996       1.76491199E-07
  -11.6400003       1.86601739E-07
  -11.6300001       1.96445782E-07
  -11.6199999       2.05873931E-07
  -11.6099997       2.14711847E-07
  -11.6000004       2.22765095E-07
  -11.5900002       2.29825474E-07
  -11.5799999       2.35678542E-07
  -11.5699997       2.40111319E-07
  -11.5600004       2.42920549E-07
  -11.5500002       2.43920084E-07
  -11.5400000       2.42947891E-07
  -11.5299997       2.39871895E-07
  -11.5200005       2.34594310E-07
  -11.5100002       2.27054144E-07
  -11.5000000       2.17228774E-07
  -11.4899998       2.05132338E-07
  -11.4799995       1.90813608E-07
  -11.4700003       1.74350419E-07
  -11.4600000       1.55844063E-07
  -11.4499998       1.35410914E-07
  -11.4399996       1.13174018E-07
  -11.4300003       8.92542928E-08
  -11.4200001       6.37609006E-08
  -11.4099998       3.67833302E-08
  -11.3999996       8.38432612E-09
  -11.3900003      -2.14059703E-08
  -11.3800001      -5.25929273E-08
  -11.3699999      -8.52187014E-08
  -11.3599997      -1.19361204E-07
  -11.3500004      -1.55130124E-07
  -11.3400002      -1.92661091E-07
  -11.3299999      -2.32107865E-07
  -11.3199997      -2.73632651E-07
  -11.3100004      -3.17395632E-07
  -11.3000002      -3.63543904E-07
  -11.2900000      -4.12199142E-07
  -11.2799997      -4.63448401E-07
  -11.2700005      -5.17332978E-07
  -11.2600002      -5.73841419E-07
  -11.2500000      -6.32904118E-07
  -11.2399998      -6.94388802E-07
  -11.2299995      -7.58101919E-07
  -11.2200003      -8.23789435E-07
  -11.2100000      -8.91143827E-07
  -11.1999998      -9.59809881E-07
  -11.1899996      -1.02939680E-06
  -11.1800003      -1.09948996E-06
  -11.1700001      -1.16966305E-06
  -11.1599998      -1.23949246E-06
  -11.1499996      -1.30856927E-06
  -11.1400003      -1.37651421E-06
  -11.1300001      -1.44298792E-06
  -11.1199999      -1.50769768E-06
  -11.1099997      -1.57040847E-06
  -11.1000004      -1.63094137E-06
  -11.0900002      -1.68917882E-06
  -11.0799999      -1.74505976E-06
  -11.0699997      -1.79857682E-06
  -11.0600004      -1.84976761E-06
  -11.0500002      -1.89870491E-06
  -11.0400000      -1.94548670E-06
  -11.0299997      -1.99022429E-06
  -11.0200005      -2.03302488E-06
  -11.0100002      -2.07398421E-06
  -11.0000000      -2.11317047E-06
  -10.9899998      -2.15061573E-06
  -10.9799995      -2.18630430E-06
  -10.9700003      -2.22017024E-06
  -10.9600000      -2.25209260E-06
  -10.9499998      -2.28189538E-06
  -10.9399996      -2.30935348E-06
  -10.9300003      -2.33419996E-06
  -10.9200001      -2.35613561E-06
  -10.9099998      -2.37484051E-06
  -10.8999996      -2.38998723E-06
  -10.8900003      -2.40125746E-06
  -10.8800001      -2.40834697E-06
  -10.8699999      -2.41098519E-06
  -10.8599997      -2.40893951E-06
  -10.8500004      -2.40202280E-06
  -10.8400002      -2.39010296E-06
  -10.8299999      -2.37310383E-06
  -10.8199997      -2.35100561E-06
  -10.8100004      -2.32384696E-06
  -10.8000002      -2.29172065E-06
  -10.7900000      -2.25476856E-06
  -10.7799997      -2.21317828E-06
  -10.7700005      -2.16717376E-06
  -10.7600002      -2.11700444E-06
  -10.7500000      -2.06293817E-06
  -10.7399998      -2.00524710E-06
  -10.7299995      -1.94419727E-06
  -10.7200003      -1.88004299E-06
  -10.7100000      -1.81300766E-06
  -10.6999998      -1.74328829E-06
  -10.6899996      -1.67104236E-06
  -10.6800003      -1.59638853E-06
  -10.6700001      -1.51940435E-06
  -10.6599998      -1.44013109E-06
  -10.6499996      -1.35857454E-06
  -10.6400003      -1.27471083E-06
  -10.6300001      -1.18849266E-06
  -10.6199999      -1.09985172E-06
  -10.6099997      -1.00871023E-06
  -10.6000004      -9.14980092E-07
  -10.5900002      -8.18571323E-07
  -10.5799999      -7.19396780E-07
  -10.5699997      -6.17376543E-07
  -10.5600004      -5.12440806E-07
  -10.5500002      -4.04536451E-07
  -10.5400000      -2.93627238E-07
  -10.5299997      -1.79699143E-07
  -10.5200005      -6.27619698E-08
  -10.5100002       5.71508529E-08
  -10.5000000       1.79979480E-07
  -10.4899998       3.05637741E-07
  -10.4799995       4.34013600E-07
  -10.4700003       5.64968559E-07
  -10.4600000       6.98337487E-07
  -10.4499998       8.33928084E-07
  -10.4399996       9.71519512E-07
  -10.4300003       1.11086263E-06
  -10.4200001       1.25167901E-06
  -10.4099998       1.39366159E-06
  -10.3999996       1.53647591E-06
  -10.3900003       1.67976259E-06
  -10.3800001       1.82314182E-06
  -10.3699999       1.96621818E-06
  -10.3599997       2.10858752E-06
  -10.3500004       2.24984274E-06
  -10.3400002       2.38958251E-06
  -10.3299999       2.52741734E-06
  -10.3199997       2.66297820E-06
  -10.3100004       2.79592314E-06
  -10.3000002       2.92594382E-06
  -10.2900000       3.05277467E-06
  -10.2799997       3.17619538E-06
  -10.2700005       3.29603836E-06
  -10.2600002       3.41219311E-06
  -10.2500000       3.52460893E-06
  -10.2399998       3.63329809E-06
  -10.2299995       3.73833154E-06
  -10.2200003       3.83984298E-06
  -10.2100000       3.93801884E-06
  -10.1999998       4.03309605E-06
  -10.1899996       4.12535474E-06
  -10.1800003       4.21510231E-06
  -10.1700001       4.30267210E-06
  -10.1599998       4.38840425E-06
  -10.1499996       4.47264119E-06
  -10.1400003       4.55570853E-06
  -10.1300001       4.63791275E-06
  -10.1199999       4.71951989E-06
  -10.1099997       4.80076187E-06
  -10.1000004       4.88181286E-06
  -10.0900002       4.96278972E-06
  -10.0799999       5.04375384E-06
  -10.0699997       5.12469342E-06
  -10.0600004       5.20553613E-06
  -10.0500002       5.28614737E-06
  -10.0400000       5.36632842E-06
  -10.0299997       5.44583690E-06
  -10.0200005       5.52437677E-06
  -10.0100002       5.60161970E-06
  -10.0000000       5.67721372E-06
  -9.98999977       5.75079775E-06
  -9.97999954       5.82201119E-06
  -9.97000027       5.89050933E-06
  -9.96000004       5.95598112E-06
  -9.94999981       6.01815555E-06
  -9.93999958       6.07682387E-06
  -9.93000031       6.13185102E-06
  -9.92000008       6.18318472E-06
  -9.90999985       6.23087863E-06
  -9.89999962       6.27508871E-06
  -9.89000034       6.31608509E-06
  -9.88000011       6.35425022E-06
  -9.86999989       6.39008476E-06
  -9.85999966       6.42419309E-06
  -9.85000038       6.45728369E-06
  -9.84000015       6.49013418E-06
  -9.82999992       6.52359677E-06
  -9.81999969       6.55857320E-06
  -9.81000042       6.59599436E-06
  -9.80000019       6.63679930E-06
  -9.78999996       6.68192024E-06
  -9.77999973       6.73226396E-06
  -9.77000046       6.78870128E-06
  -9.76000023       6.85203713E-06
  -9.75000000       6.92301091E-06
  -9.73999977       7.00226610E-06
  -9.72999954       7.09035749E-06
  -9.72000027       7.18772617E-06
  -9.71000004       7.29469730E-06
  -9.69999981       7.41146096E-06
  -9.68999958       7.53807944E-06
  -9.68000031       7.67448273E-06
  -9.67000008       7.82046573E-06
  -9.65999985       7.97568646E-06
  -9.64999962       8.13968200E-06
  -9.64000034       8.31186208E-06
  -9.63000011       8.49152366E-06
  -9.61999989       8.67786912E-06
  -9.60999966       8.86999806E-06
  -9.60000038       9.06693822E-06
  -9.59000015       9.26763278E-06
  -9.57999992       9.47098670E-06
  -9.56999969       9.67585129E-06
  -9.56000042       9.88105239E-06
  -9.55000019       1.00854122E-05
  -9.53999996       1.02877548E-05
  -9.52999973       1.04869232E-05
  -9.52000046       1.06818070E-05
  -9.51000023       1.08713439E-05
  -9.50000000       1.10545570E-05
  -9.48999977       1.12305352E-05
  -9.47999954       1.13984888E-05
  -9.47000027       1.15577186E-05
  -9.46000004       1.17076643E-05
  -9.44999981       1.18478965E-05
  -9.43999958       1.19781616E-05
  -9.43000031       1.20983404E-05
  -9.42000008       1.22085194E-05
  -9.40999985       1.23089476E-05
  -9.39999962       1.24000580E-05
  -9.39000034       1.24824837E-05
  -9.38000011       1.25570323E-05
  -9.36999989       1.26246987E-05
  -9.35999966       1.26866380E-05
  -9.35000038       1.27441554E-05
  -9.34000015       1.27987078E-05
  -9.32999992       1.28518695E-05
  -9.31999969       1.29053205E-05
  -9.31000042       1.29608388E-05
  -9.30000019       1.30202634E-05
  -9.28999996       1.30854769E-05
  -9.27999973       1.31584093E-05
  -9.27000046       1.32409805E-05
  -9.26000023       1.33350968E-05
  -9.25000000       1.34426291E-05
  -9.23999977       1.35654027E-05
  -9.22999954       1.37051793E-05
  -9.22000027       1.38636151E-05
  -9.21000004       1.40422480E-05
  -9.19999981       1.42425106E-05
  -9.18999958       1.44656851E-05
  -9.18000031       1.47128949E-05
  -9.17000008       1.49850957E-05
  -9.15999985       1.52830708E-05
  -9.14999962       1.56074075E-05
  -9.14000034       1.59585015E-05
  -9.13000011       1.63365276E-05
  -9.11999989       1.67414655E-05
  -9.10999966       1.71730990E-05
  -9.10000038       1.76309841E-05
  -9.09000015       1.81144496E-05
  -9.07999992       1.86225989E-05
  -9.06999969       1.91543149E-05
  -9.06000042       1.97082918E-05
  -9.05000019       2.02829688E-05
  -9.03999996       2.08766160E-05
  -9.02999973       2.14872816E-05
  -9.02000046       2.21128339E-05
  -9.01000023       2.27509681E-05
  -9.00000000       2.33992614E-05
  -8.98999977       2.40551308E-05
  -8.97999954       2.47158951E-05
  -8.97000027       2.53787548E-05
  -8.96000004       2.60408724E-05
  -8.94999981       2.66993338E-05
  -8.93999958       2.73512305E-05
  -8.93000031       2.79936648E-05
  -8.92000008       2.86237027E-05
  -8.90999985       2.92385321E-05
  -8.89999962       2.98353862E-05
  -8.89000034       3.04115893E-05
  -8.88000011       3.09646239E-05
  -8.86999989       3.14920908E-05
  -8.85999966       3.19917126E-05
  -8.85000038       3.24614339E-05
  -8.84000015       3.28993119E-05
  -8.82999992       3.33036478E-05
  -8.81999969       3.36729245E-05
  -8.81000042       3.40058250E-05
  -8.80000019       3.43012252E-05
  -8.78999996       3.45582303E-05
  -8.77999973       3.47761161E-05
  -8.77000046       3.49543843E-05
  -8.76000023       3.50927512E-05
  -8.75000000       3.51911003E-05
  -8.73999977       3.52495299E-05
  -8.72999954       3.52682910E-05
  -8.72000027       3.52478455E-05
  -8.71000004       3.51887757E-05
  -8.69999981       3.50917871E-05
  -8.68999958       3.49577494E-05
  -8.68000031       3.47876048E-05
  -8.67000008       3.45823646E-05
  -8.65999985       3.43431529E-05
  -8.64999962       3.40711013E-05
  -8.64000034       3.37674355E-05
  -8.63000011       3.34333563E-05
  -8.61999989       3.30700823E-05
  -8.60999966       3.26788540E-05
  -8.60000038       3.22608503E-05
  -8.59000015       3.18172715E-05
  -8.57999992       3.13492601E-05
  -8.56999969       3.08579401E-05
  -8.56000042       3.03443521E-05
  -8.55000019       2.98095456E-05
  -8.53999996       2.92544519E-05
  -8.52999973       2.86800205E-05
  -8.52000046       2.80871263E-05
  -8.51000023       2.74765989E-05
  -8.50000000       2.68492277E-05
  -8.48999977       2.62057747E-05
  -8.47999954       2.55469677E-05
  -8.47000027       2.48735068E-05
  -8.46000004       2.41860234E-05
  -8.44999981       2.34851977E-05
  -8.43999958       2.27716955E-05
  -8.43000031       2.20461679E-05
  -8.42000008       2.13093044E-05
  -8.40999985       2.05618198E-05
  -8.39999962       1.98044818E-05
  -8.39000034       1.90380979E-05
  -8.38000011       1.82635667E-05
  -8.36999989       1.74818560E-05
  -8.35999966       1.66940335E-05
  -8.35000038       1.59012907E-05
  -8.34000015       1.51049217E-05
  -8.32999992       1.43063226E-05
  -8.31999969       1.35070413E-05
  -8.31000042       1.27086605E-05
  -8.30000019       1.19129927E-05
  -8.28999996       1.11218678E-05
  -8.27999973       1.03372913E-05
  -8.27000046       9.56133681E-06
  -8.26000023       8.79619711E-06
  -8.25000000       8.04417414E-06
  -8.23999977       7.30768215E-06
  -8.22999954       6.58920999E-06
  -8.22000027       5.89127148E-06
  -8.21000004       5.21650372E-06
  -8.19999981       4.56760017E-06
  -8.18999958       3.94720837E-06
  -8.18000031       3.35804361E-06
  -8.17000008       2.80277186E-06
  -8.15999985       2.28405270E-06
  -8.14999962       1.80451252E-06
  -8.14000034       1.36669337E-06
  -8.13000011       9.73085548E-07
  -8.11999989       6.26086148E-07
  -8.10999966       3.27992694E-07
  -8.10000038       8.09067515E-08
  -8.09000015      -1.13170543E-07
  -8.07999992      -2.52405187E-07
  -8.06999969      -3.35193221E-07
  -8.06000042      -3.60068128E-07
  -8.05000019      -3.25762528E-07
  -8.03999996      -2.31210024E-07
  -8.02999973      -7.55017169E-08
  -8.02000046       1.42029180E-07
  -8.01000023       4.21856726E-07
  -8.00000000       7.64263234E-07
  -7.98999977       1.16927879E-06
  -7.98000002       1.63677407E-06
  -7.96999979       2.16640888E-06
  -7.96000004       2.75762864E-06
  -7.94999981       3.40970132E-06
  -7.94000006       4.12172085E-06
  -7.92999983       4.89256945E-06
  -7.92000008       5.72099725E-06
  -7.90999985       6.60559544E-06
  -7.90000010       7.54476378E-06
  -7.88999987       8.53681377E-06
  -7.88000011       9.57982866E-06
  -7.86999989       1.06718253E-05
  -7.86000013       1.18106664E-05
  -7.84999990       1.29941682E-05
  -7.84000015       1.42199951E-05
  -7.82999992       1.54857626E-05
  -7.82000017       1.67890503E-05
  -7.80999994       1.81274063E-05
  -7.80000019       1.94983331E-05
  -7.78999996       2.08993497E-05
  -7.78000021       2.23279731E-05
  -7.76999998       2.37816876E-05
  -7.76000023       2.52580576E-05
  -7.75000000       2.67546729E-05
  -7.73999977       2.82691508E-05
  -7.73000002       2.97991919E-05
  -7.71999979       3.13426171E-05
  -7.71000004       3.28972455E-05
  -7.69999981       3.44610125E-05
  -7.69000006       3.60319646E-05
  -7.67999983       3.76081953E-05
  -7.67000008       3.91879621E-05
  -7.65999985       4.07695770E-05
  -7.65000010       4.23514648E-05
  -7.63999987       4.39321811E-05
  -7.63000011       4.55103436E-05
  -7.61999989       4.70847699E-05
  -7.61000013       4.86544050E-05
  -7.59999990       5.02182556E-05
  -7.59000015       5.17754415E-05
  -7.57999992       5.33252387E-05
  -7.57000017       5.48669559E-05
  -7.55999994       5.64000875E-05
  -7.55000019       5.79241896E-05
  -7.53999996       5.94388948E-05
  -7.53000021       6.09439630E-05
  -7.51999998       6.24392487E-05
  -7.51000023       6.39245700E-05
  -7.50000000       6.53999232E-05
  -7.48999977       6.68653011E-05
  -7.48000002       6.83207836E-05
  -7.46999979       6.97664073E-05
  -7.46000004       7.12022520E-05
  -7.44999981       7.26285725E-05
  -7.44000006       7.40454343E-05