  -16.0000000       0.00000000    
  -15.9899998       0.00000000    
  -15.9799995       0.00000000    
  -15.9700003       0.00000000    
  -15.9600000       0.00000000    
  -15.9499998       0.00000000    
  -15.9399996       0.00000000    
  -15.9300003       0.00000000    
  -15.9200001       0.00000000    
  -15.9099998       0.00000000    
  -15.8999996       0.00000000    
  -15.8900003       0.00000000    
  -15.8800001       0.00000000    
  -15.8699999       0.00000000    
  -15.8599997       0.00000000    
  -15.8500004       0.00000000    
  -15.8400002      -0.00000000    
  -15.8299999      -0.00000000    
  -15.8199997      -2.80259693E-45
  -15.8100004      -2.80259693E-44
  -15.8000002      -1.66754517E-43
  -15.7900000      -8.50588168E-43
  -15.7799997      -3.76388768E-42
  -15.7700005      -1.47262456E-41
  -15.7600002      -5.15958095E-41
  -15.7500000      -1.63328343E-40
  -15.7399998      -4.70219713E-40
  -15.7299995      -1.23683087E-39
  -15.7200003      -2.97998450E-39
  -15.7100000      -6.58030281E-39
  -15.6999998      -1.32907722E-38
  -15.6899996      -2.44185982E-38
  -15.6800003      -4.03413341E-38
  -15.6700001      -5.85315474E-38
  -15.6599998      -7.06234752E-38
  -15.6499996      -5.94869527E-38
  -15.6400003       1.19982678E-39
  -15.6300001       1.40803893E-37
  -15.6199999       3.74671493E-37
  -15.6099997       6.74908478E-37
  -15.6000004       9.36010067E-37
  -15.5900002       9.55096873E-37
  -15.5799999       4.58441900E-37
  -15.5699997      -7.93692311E-37
  -15.5600004      -2.81626481E-36
  -15.5500002      -5.17067672E-36
  -15.5400000      -6.82041352E-36
  -15.5299997      -6.24713545E-36
  -15.5200005      -1.97570366E-36
  -15.5100002       6.50278826E-36
  -15.5000000       1.77039838E-35
  -15.4899998       2.76086143E-35
  -15.4799995       3.02940133E-35
  -15.4700003       2.01113853E-35
  -15.4600000      -5.00663305E-36
  -15.4499998      -4.05185355E-35
  -15.4399996      -7.45294757E-35
  -15.4300003      -9.08291284E-35
  -15.4200001      -7.53543594E-35
  -15.4099998      -2.32348124E-35
  -15.3999996       5.77658817E-35
  -15.3900003       1.49795128E-34
  -15.3800001       2.30474976E-34
  -15.3699999       2.72591125E-34
  -15.3599997       2.29271242E-34
  -15.3500004       9.76113677E-36
  -15.3400002      -5.21063631E-34
  -15.3299999      -1.45830589E-33
  -15.3199997      -2.63184259E-33
  -15.3100004      -3.26517764E-33
  -15.3000002      -1.72093732E-33
  -15.2900000       4.23666605E-33
  -15.2799997       1.61113932E-32
  -15.2700005       3.19782188E-32
  -15.2600002       4.30163106E-32
  -15.2500000       3.14436275E-32
  -15.2399998      -2.62419857E-32
  -15.2299995      -1.46257840E-31
  -15.2200003      -3.12971750E-31
  -15.2100000      -4.48688027E-31
  -15.1999998      -3.96260838E-31
  -15.1899996       5.40918184E-32
  -15.1800003       1.05962023E-30
  -15.1700001       2.52949006E-30
  -15.1599998       3.88583149E-30
  -15.1499996       3.92048092E-30
  -15.1400003       9.76390622E-31
  -15.1300001      -6.30397120E-30
  -15.1199999      -1.75824284E-29
  -15.1099997      -2.91086948E-29
  -15.1000004      -3.26249433E-29
  -15.0900002      -1.64083198E-29
  -15.0799999       2.99726248E-29
  -15.0699997       1.06661792E-28
  -15.0600004       1.92301758E-28
  -15.0500002       2.36343526E-28
  -15.0400000       1.64014878E-28
  -15.0299997      -9.66250187E-29
  -15.0200005      -5.62189399E-28
  -15.0100002      -1.12704188E-27
  -15.0000000      -1.51358834E-27
  -14.9899998      -1.29003920E-27
  -14.9799995      -7.88415910E-30
  -14.9700003       2.51988443E-27
  -14.9600000       5.85239343E-27
  -14.9499998       8.62433047E-27
  -14.9399996       8.57305297E-27
  -14.9300003       3.15930395E-27
  -14.9200001      -9.09118513E-27
  -14.9099998      -2.67424402E-26
  -14.8999996      -4.38147799E-26
  -14.8900003      -4.95456079E-26
  -14.8800001      -3.08476600E-26
  -14.8699999       2.18076299E-26
  -14.8599997       1.05830608E-25
  -14.8500004       1.98215428E-25
  -14.8400002       2.52589170E-25
  -14.8299999       2.07495095E-25
  -14.8199997       9.76632989E-27
  -14.8100004      -3.48934650E-25
  -14.8000002      -7.93289669E-25
  -14.7900000      -1.14340221E-24
  -14.7799997      -1.13658665E-24
  -14.7700005      -5.10715107E-25
  -14.7600002       8.52680936E-25
  -14.7500000       2.76139360E-24
  -14.7399998       4.59530055E-24
  -14.7299995       5.33622474E-24
  -14.7200003       3.82933909E-24
  -14.7100000      -7.05914005E-25
  -14.6999998      -8.01715709E-24
  -14.6899996      -1.62581913E-23
  -14.6800003      -2.18793475E-23
  -14.6700001      -2.03159135E-23
  -14.6599998      -7.63211093E-24
  -14.6499996       1.71085676E-23
  -14.6400003       4.94831210E-23
  -14.6300001       7.85400078E-23
  -14.6199999       8.81226483E-23
  -14.6099997       6.15349119E-23
  -14.6000004      -1.07369988E-23
  -14.5900002      -1.22182261E-22
  -14.5799999      -2.43895319E-22
  -14.5699997      -3.25131231E-22
  -14.5600004      -3.04455856E-22
  -14.5500002      -1.32202473E-22
  -14.5400000       1.99962154E-22
  -14.5299997       6.32149054E-22
  -14.5200005       1.02584502E-21
  -14.5100002       1.18358449E-21
  -14.5000000       9.05719352E-22
  -14.4899998       7.81708461E-23
  -14.4799995      -1.23200454E-21
  -14.4700003      -2.71164002E-21
  -14.4600000      -3.81116884E-21
  -14.4499998      -3.86212486E-21
  -14.4399996      -2.30462091E-21
  -14.4300003       1.01962945E-21
  -14.4200001       5.60268856E-21
  -14.4099998       1.01602918E-20
  -14.3999996       1.27955600E-20
  -14.3900003       1.14952490E-20
  -14.3800001       4.90466687E-21
  -14.3699999      -6.81287521E-21
  -14.3599997      -2.13473231E-20
  -14.3500004      -3.42025774E-20
  -14.3400002      -3.95203535E-20
  -14.3299999      -3.18086682E-20
  -14.3199997      -8.27004433E-21
  -14.3100004       2.89419478E-20
  -14.3000002       7.14565918E-20
  -14.2900000       1.05312034E-19
  -14.2799997       1.13996461E-19
  -14.2700005       8.36957500E-20
  -14.2600002       9.60713332E-21
  -14.2500000      -9.86677901E-20
  -14.2399998      -2.15040864E-19
  -14.2299995      -3.00200181E-19
  -14.2200003      -3.10994423E-19
  -14.2100000      -2.14721766E-19
  -14.1999998      -4.85754989E-21
  -14.1899996       2.86997603E-19
  -14.1800003       5.88601768E-19
  -14.1700001       7.98161514E-19
  -14.1599998       8.09724258E-19
  -14.1499996       5.48692992E-19
  -14.1400003       8.34449139E-21
  -14.1300001      -7.25062581E-19
  -14.1199999      -1.47093982E-18
  -14.1099997      -1.98474750E-18
  -14.1000004      -2.01959062E-18
  -14.0900002      -1.40771995E-18
  -14.0799999      -1.40549308E-19
  -14.0699997       1.57994289E-18
  -14.0600004       3.34370599E-18
  -14.0500002       4.60354838E-18
  -14.0400000       4.81056067E-18
  -14.0299997       3.58795836E-18
  -14.0200005       8.97967317E-19
  -14.0100002      -2.85316844E-18
  -14.0000000      -6.82125517E-18
  -13.9899998      -9.86757898E-18
  -13.9799995      -1.08293898E-17
  -13.9700003      -8.86511052E-18
  -13.9600000      -3.78658800E-18
  -13.9499998       3.72519093E-18
  -13.9399996       1.21124438E-17
  -13.9300003       1.91896638E-17
  -13.9200001       2.26317807E-17
  -13.9099998       2.06093257E-17
  -13.8999996       1.24165972E-17
  -13.8900003      -1.08934145E-18
  -13.8800001      -1.74015524E-17
  -13.8699999      -3.27198968E-17
  -13.8599997      -4.27341588E-17
  -13.8500004      -4.36932516E-17
  -13.8400002      -3.35159291E-17
  -13.8299999      -1.26473211E-17
  -13.8199997       1.56121622E-17
  -13.8100004       4.54770004E-17
  -13.8000002       6.97540102E-17
  -13.7900000       8.14473265E-17
  -13.7799997       7.55475568E-17
  -13.7700005       5.05686246E-17
  -13.7600002       9.40884777E-18
  -13.7500000      -4.07616011E-17
  -13.7399998      -8.96683173E-17
  -13.7299995      -1.25977662E-16
  -13.7200003      -1.39805488E-16
  -13.7100000      -1.25126579E-16
  -13.6999998      -8.15048388E-17
  -13.6899996      -1.46929363E-17
  -13.6800003       6.41016204E-17
  -13.6700001       1.40177468E-16
  -13.6599998       1.98130628E-16
  -13.6499996       2.24881768E-16
  -13.6400003       2.12296566E-16
  -13.6300001       1.58865039E-16
  -13.6199999       7.01446777E-17
  -13.6099997      -4.20359224E-17
  -13.6000004      -1.61350525E-16
  -13.5900002      -2.69301764E-16
  -13.5799999      -3.47662794E-16
  -13.5699997      -3.80711108E-16
  -13.5600004      -3.57123728E-16
  -13.5500002      -2.71575995E-16
  -13.5400000      -1.26153117E-16
  -13.5299997       6.84055139E-17
  -13.5200005       2.91840490E-16
  -13.5100002       5.14386009E-16
  -13.5000000       6.98367336E-16
  -13.4899998       8.02060103E-16
  -13.4799995       7.86128367E-16
  -13.4700003       6.22260843E-16
  -13.4600000       3.02721184E-16
  -13.4499998      -1.51334731E-16
  -13.4399996      -6.85429702E-16
  -13.4300003      -1.21375025E-15
  -13.4200001      -1.62913256E-15
  -13.4099998      -1.82095948E-15
  -13.3999996      -1.69871251E-15
  -13.3900003      -1.21686246E-15
  -13.3800001      -3.95319250E-16
  -13.3699999       6.70534204E-16
  -13.3599997       1.81489176E-15
  -13.3500004       2.82352758E-15
  -13.3400002       3.47081533E-15
  -13.3299999       3.56580966E-15
  -13.3199997       2.99830774E-15
  -13.3100004       1.77436271E-15
  -13.3000002       3.17534553E-17
  -13.2900000      -1.97070283E-15
  -13.2799997      -3.89073700E-15
  -13.2700005      -5.36181300E-15
  -13.2600002      -6.06315670E-15
  -13.2500000      -5.78652972E-15
  -13.2399998      -4.48526053E-15
  -13.2299995      -2.29414279E-15
  -13.2200003       4.85394189E-16
  -13.2100000       3.43301247E-15
  -13.1999998       6.08101174E-15
  -13.1899996       7.99531255E-15
  -13.1800003       8.84944448E-15
  -13.1700001       8.47698546E-15
  -13.1599998       6.89299869E-15
  -13.1499996       4.28246560E-15
  -13.1400003       9.61202824E-16
  -13.1300001      -2.67938205E-15
  -13.1199999      -6.22980662E-15
  -13.1099997      -9.30975606E-15
  -13.1000004      -1.15972829E-14
  -13.0900002      -1.28390688E-14
  -13.0799999      -1.28476060E-14
  -13.0699997      -1.14958092E-14
  -13.0600004      -8.72028720E-15
  -13.0500002      -4.54122569E-15
  -13.0400000       9.00396129E-16
  -13.0299997       7.29609532E-15
  -13.0200005       1.41294913E-14
  -13.0100002       2.06621490E-14
  -13.0000000       2.59646058E-14
  -12.9899998       2.90043360E-14
  -12.9799995       2.87901315E-14
  -12.9700003       2.45578094E-14
  -12.9600000       1.59680364E-14
  -12.9499998       3.27756752E-15
  -12.9399996      -1.25571322E-14
  -12.9300003      -2.98788805E-14
  -12.9200001      -4.64516561E-14
  -12.9099998      -5.97053331E-14
  -12.8999996      -6.70805168E-14
  -12.8900003      -6.64294195E-14
  -12.8800001      -5.64139630E-14
  -12.8699999      -3.68356875E-14
  -12.8599997      -8.83673475E-15
  -12.8500004       2.50747062E-14
  -12.8400002       6.11977713E-14
  -12.8299999       9.50060207E-14
  -12.8199997       1.21674223E-13
  -12.8100004       1.36703013E-13
  -12.8000002       1.36561904E-13
  -12.7900000       1.19260572E-13
  -12.7799997       8.47635289E-14
  -12.7700005       3.51786912E-14
  -12.7600002      -2.53202814E-14
  -12.7500000      -9.08424066E-14
  -12.7399998      -1.54364775E-13
  -12.7299995      -2.08486169E-13
  -12.7200003      -2.46255897E-13
  -12.7100000      -2.61972898E-13
  -12.6999998      -2.51859270E-13
  -12.6899996      -2.14528902E-13
  -12.6800003      -1.51209218E-13
  -12.6700001      -6.57026245E-14
  -12.6599998       3.58904258E-14
  -12.6499996       1.45644036E-13
  -12.6400003       2.54423381E-13
  -12.6300001       3.52592060E-13
  -12.6199999       4.30764799E-13
  -12.6099997       4.80562421E-13
  -12.6000004       4.95328550E-13
  -12.5900002       4.70757548E-13
  -12.5799999       4.05369694E-13
  -12.5699997       3.00762806E-13
  -12.5600004       1.61571752E-13
  -12.5500002      -4.90957491E-15
  -12.5400000      -1.89436276E-13
  -12.5299997      -3.81778674E-13
  -12.5200005      -5.71796842E-13
  -12.5100002      -7.50416114E-13
  -12.5000000      -9.10267630E-13
  -12.4899998      -1.04578466E-12
  -12.4799995      -1.15262921E-12
  -12.4700003      -1.22644755E-12
  -12.4600000      -1.26111643E-12
  -12.4499998      -1.24678263E-12
  -12.4399996      -1.16810435E-12
  -12.4300003      -1.00312673E-12
  -12.4200001      -7.23186973E-13
  -12.4099998      -2.94087996E-13
  -12.3999996       3.21412629E-13
  -12.3900003       1.15996069E-12
  -12.3800001       2.25318787E-12
  -12.3699999       3.62301487E-12
  -12.3599997       5.27725476E-12
  -12.3500004       7.20606517E-12
  -12.3400002       9.37966198E-12
  -12.3299999       1.17476012E-11
  -12.3199997       1.42396858E-11
  -12.3100004       1.67684859E-11
  -12.3000002       1.92331880E-11
  -12.2900000       2.15244836E-11
  -12.2799997       2.35300876E-11
  -12.2700005       2.51405233E-11
  -12.2600002       2.62547206E-11
  -12.2500000       2.67850516E-11
  -12.2399998       2.66616052E-11
  -12.2299995       2.58351968E-11
  -12.2200003       2.42790215E-11
  -12.2100000       2.19892143E-11
  -12.1999998       1.89837555E-11
  -12.1899996       1.53000303E-11
  -12.1800003       1.09914846E-11
  -12.1700001       6.12354568E-12
  -12.1599998       7.68861483E-13
  -12.1499996      -4.99752279E-12
  -12.1400003      -1.11025763E-11
  -12.1300001      -1.74790980E-11
  -12.1199999      -2.40681555E-11
  -12.1099997      -3.08205683E-11
  -12.1000004      -3.76960130E-11
  -12.0900002      -4.46606120E-11
  -12.0799999      -5.16822765E-11
  -12.0699997      -5.87250734E-11
  -12.0600004      -6.57425225E-11
  -12.0500002      -7.26711469E-11
  -12.0400000      -7.94255009E-11
  -12.0299997      -8.58955407E-11
  -12.0200005      -9.19471096E-11
  -12.0100002      -9.74259423E-11
  -12.0000000      -1.02165415E-10
  -11.9899998      -1.05996031E-10
  -11.9799995      -1.08756983E-10
  -11.9700003      -1.10306736E-10
  -11.9600000      -1.10531251E-10
  -11.9499998      -1.09349522E-10
  -11.9399996      -1.06714693E-10
  -11.9300003      -1.02611995E-10
  -11.9200001      -9.70530115E-11
  -11.9099998      -9.00688274E-11
  -11.8999996      -8.17033385E-11
  -11.8900003      -7.20078164E-11
  -11.8800001      -6.10368422E-11
  -11.8699999      -4.88489839E-11
  -11.8599997      -3.55070244E-11
  -11.8500004      -2.10825021E-11
  -11.8400002      -5.65771692E-12
  -11.8299999       1.06711827E-11
  -11.8199997       2.77932538E-11
  -11.8100004       4.55838527E-11
  -11.8000002       6.39068867E-11
  -11.7900000       8.26170729E-11
  -11.7799997       1.01564555E-10
  -11.7700005       1.20595797E-10
  -11.7600002       1.39557060E-10
  -11.7500000       1.58293892E-10
  -11.7399998       1.76651901E-10
  -11.7299995       1.94478142E-10
  -11.7200003       2.11620818E-10
  -11.7100000       2.27930827E-10
  -11.6999998       2.43264159E-10
  -11.6899996       2.57482896E-10
  -11.6800003       2.70457157E-10
  -11.6700001       2.82065260E-10
  -11.6599998       2.92193297E-10
  -11.6499996       3.00732939E-10
  -11.6400003       3.07578796E-10
  -11.6300001       3.12625398E-10
  -11.6199999       3.15765358E-10
  -11.6099997       3.16887822E-10
  -11.6000004       3.15877241E-10
  -11.5900002       3.12617709E-10
  -11.5799999       3.06991904E-10
  -11.5699997       2.98887054E-10
  -11.5600004       2.88195329E-10
  -11.5500002       2.74820611E-10
  -11.5400000       2.58679911E-10
  -11.5299997       2.39709141E-10
  -11.5200005       2.17867779E-10
  -11.5100002       1.93142669E-10
  -11.5000000       1.65554098E-10
  -11.4899998       1.35161382E-10
  -11.4799995       1.02063476E-10
  -11.4700003       6.63991431E-11
  -11.4600000       2.83457164E-11
  -11.4499998      -1.18913724E-11
  -11.4399996      -5.40880223E-11
  -11.4300003      -9.80163520E-11
  -11.4200001      -1.43456289E-10
  -11.4099998      -1.90209321E-10
  -11.3999996      -2.38106729E-10
  -11.3900003      -2.87015051E-10
  -11.3800001      -3.36832562E-10
  -11.3699999      -3.87489041E-10
  -11.3599997      -4.38930503E-10
  -11.3500004      -4.91108099E-10
  -11.3400002      -5.43968481E-10
  -11.3299999      -5.97442984E-10
  -11.3199997      -6.51439069E-10
  -11.3100004      -7.05837611E-10
  -11.3000002      -7.60495666E-10
  -11.2900000      -8.15249479E-10
  -11.2799997      -8.69922856E-10
  -11.2700005      -9.24337384E-10
  -11.2600002      -9.78320314E-10
  -11.2500000      -1.03171560E-09
  -11.2399998      -1.08438825E-09
  -11.2299995      -1.13622789E-09
  -11.2200003      -1.18715271E-09
  -11.2100000      -1.23709964E-09
  -11.1999998      -1.28602629E-09
  -11.1899996      -1.33390032E-09
  -11.1800003      -1.38069478E-09
  -11.1700001      -1.42637491E-09
  -11.1599998      -1.47089385E-09
  -11.1499996      -1.51419077E-09
  -11.1400003      -1.55618862E-09
  -11.1300001      -1.59678948E-09
  -11.1199999      -1.63587921E-09
  -11.1099997      -1.67333669E-09
  -11.1000004      -1.70903980E-09
  -11.0900002      -1.74288006E-09
  -11.0799999      -1.77477077E-09
  -11.0699997      -1.80464765E-09
  -11.0600004      -1.83251303E-09
  -11.0500002      -1.85840565E-09
  -11.0400000      -1.88242399E-09
  -11.0299997      -1.90471861E-09
  -11.0200005      -1.92548466E-09
  -11.0100002      -1.94493355E-09
  -11.0000000      -1.96329175E-09
  -10.9899998      -1.98076311E-09
  -10.9799995      -1.99749883E-09
  -10.9700003      -2.01360439E-09
  -10.9600000      -2.02909822E-09
  -10.9499998      -2.04391659E-09
  -10.9399996      -2.05794004E-09
  -10.9300003      -2.07098005E-09
  -10.9200001      -2.08284656E-09
  -10.9099998      -2.09331530E-09
  -10.8999996      -2.10220019E-09
  -10.8900003      -2.10935114E-09
  -10.8800001      -2.11471174E-09
  -10.8699999      -2.11824225E-09
  -10.8599997      -2.11998374E-09
  -10.8500004      -2.12002771E-09
  -10.8400002      -2.11844520E-09
  -10.8299999      -2.11535300E-09
  -10.8199997      -2.11083684E-09
  -10.8100004      -2.10494910E-09
  -10.8000002      -2.09771289E-09
  -10.7900000      -2.08910222E-09
  -10.7799997      -2.07910000E-09
  -10.7700005      -2.06762563E-09
  -10.7600002      -2.05465378E-09
  -10.7500000      -2.04012807E-09
  -10.7399998      -2.02407713E-09
  -10.7299995      -2.00649475E-09
  -10.7200003      -1.98749284E-09
  -10.7100000      -1.96720462E-09
  -10.6999998      -1.94577954E-09
  -10.6899996      -1.92343053E-09
  -10.6800003      -1.90037275E-09
  -10.6700001      -1.87681604E-09
  -10.6599998      -1.85298288E-09
  -10.6499996      -1.82906423E-09
  -10.6400003      -1.80526993E-09
  -10.6300001      -1.78169524E-09
  -10.6199999      -1.75852766E-09
  -10.6099997      -1.73586612E-09
  -10.6000004      -1.71375436E-09
  -10.5900002      -1.69234315E-09
  -10.5799999      -1.67161496E-09
  -10.5699997      -1.65165426E-09
  -10.5600004      -1.63245428E-09
  -10.5500002      -1.61406277E-09
  -10.5400000      -1.59648150E-09
  -10.5299997      -1.57968416E-09
  -10.5200005      -1.56375546E-09
  -10.5100002      -1.54869573E-09
  -10.5000000      -1.53453383E-09
  -10.4899998      -1.52129598E-09
  -10.4799995      -1.50906554E-09
  -10.4700003      -1.49790569E-09
  -10.4600000      -1.48789614E-09
  -10.4499998      -1.47912738E-09
  -10.4399996      -1.47165191E-09
  -10.4300003      -1.46562107E-09
  -10.4200001      -1.46114110E-09
  -10.4099998      -1.45837387E-09
  -10.3999996      -1.45743329E-09
  -10.3900003      -1.45846635E-09
  -10.3800001      -1.46155277E-09
  -10.3699999      -1.46681456E-09
  -10.3599997      -1.47420187E-09
  -10.3500004      -1.48368340E-09
  -10.3400002      -1.49514090E-09
  -10.3299999      -1.50834534E-09
  -10.3199997      -1.52306434E-09
  -10.3100004      -1.53896706E-09
  -10.3000002      -1.55577484E-09
  -10.2900000      -1.57321423E-09
  -10.2799997      -1.59101121E-09
  -10.2700005      -1.60894875E-09
  -10.2600002      -1.62692593E-09
  -10.2500000      -1.64491343E-09
  -10.2399998      -1.66286918E-09
  -10.2299995      -1.68090541E-09
  -10.2200003      -1.69912473E-09
  -10.2100000      -1.71762371E-09
  -10.1999998      -1.73650105E-09
  -10.1899996      -1.75588810E-09
  -10.1800003      -1.77575032E-09
  -10.1700001      -1.79609305E-09
  -10.1599998      -1.81680260E-09
  -10.1499996      -1.83778792E-09
  -10.1400003      -1.85887261E-09
  -10.1300001      -1.87998173E-09
  -10.1199999      -1.90103466E-09
  -10.1099997      -1.92202254E-09
  -10.1000004      -1.94302463E-09
  -10.0900002      -1.96423189E-09
  -10.0799999      -1.98600358E-09
  -10.0699997      -2.00861328E-09
  -10.0600004      -2.03252504E-09
  -10.0500002      -2.05812856E-09
  -10.0400000      -2.08579842E-09
  -10.0299997      -2.11593143E-09
  -10.0200005      -2.14867124E-09
  -10.0100002      -2.18422502E-09
  -10.0000000      -2.22263297E-09
  -9.98999977      -2.26375407E-09
  -9.97999954      -2.30744357E-09
  -9.97000027      -2.35349762E-09
  -9.96000004      -2.40162934E-09
  -9.94999981      -2.45160559E-09
  -9.93999958      -2.50327403E-09
  -9.93000031      -2.55655097E-09
  -9.92000008      -2.61145394E-09
  -9.90999985      -2.66807154E-09
  -9.89999962      -2.72660605E-09
  -9.89000034      -2.78740497E-09
  -9.88000011      -2.85081292E-09
  -9.86999989      -2.91705082E-09
  -9.85999966      -2.98651814E-09
  -9.85000038      -3.05945336E-09
  -9.84000015      -3.13606008E-09
  -9.82999992      -3.21640248E-09
  -9.81999969      -3.30053318E-09
  -9.81000042      -3.38839756E-09
  -9.80000019      -3.48000295E-09
  -9.78999996      -3.57523788E-09
  -9.77999973      -3.67396780E-09
  -9.77000046      -3.77605414E-09
  -9.76000023      -3.88138055E-09
  -9.75000000      -3.98979338E-09
  -9.73999977      -4.10112788E-09
  -9.72999954      -4.21531432E-09
  -9.72000027      -4.33217151E-09
  -9.71000004      -4.45153336E-09
  -9.69999981      -4.57330751E-09
  -9.68999958      -4.69746064E-09
  -9.68000031      -4.82388574E-09
  -9.67000008      -4.95250863E-09
  -9.65999985      -5.08327824E-09
  -9.64999962      -5.21620880E-09
  -9.64000034      -5.35119327E-09
  -9.63000011      -5.48814549E-09
  -9.61999989      -5.62702107E-09
  -9.60999966      -5.76768500E-09
  -9.60000038      -5.90997251E-09
  -9.59000015      -6.05368378E-09
  -9.57999992      -6.19869889E-09
  -9.56999969      -6.34463149E-09
  -9.56000042      -6.49127285E-09
  -9.55000019      -6.63815669E-09
  -9.53999996      -6.78494549E-09
  -9.52999973      -6.93114055E-09
  -9.52000046      -7.07616055E-09
  -9.51000023      -7.21947968E-09
  -9.50000000      -7.36043848E-09
  -9.48999977      -7.49858220E-09
  -9.47999954      -7.63339170E-09
  -9.47000027      -7.76435449E-09
  -9.46000004      -7.89118992E-09
  -9.44999981      -8.01373368E-09
  -9.43999958      -8.13172907E-09
  -9.43000031      -8.24530755E-09
  -9.42000008      -8.35454905E-09
  -9.40999985      -8.45955039E-09
  -9.39999962      -8.56063753E-09
  -9.39000034      -8.65803695E-09
  -9.38000011      -8.75219897E-09
  -9.36999989      -8.84347617E-09
  -9.35999966      -8.93228869E-09
  -9.35000038      -9.01926267E-09
  -9.34000015      -9.10471076E-09
  -9.32999992      -9.18930620E-09
  -9.31999969      -9.27374089E-09
  -9.31000042      -9.35864097E-09
  -9.30000019      -9.44465928E-09
  -9.28999996      -9.53270707E-09
  -9.27999973      -9.62351532E-09
  -9.27000046      -9.71794289E-09
  -9.26000023      -9.81695880E-09
  -9.25000000      -9.92125404E-09
  -9.23999977      -1.00317648E-08
  -9.22999954      -1.01492592E-08
  -9.22000027      -1.02744950E-08
  -9.21000004      -1.04081410E-08
  -9.19999981      -1.05509894E-08
  -9.18999958      -1.07035323E-08
  -9.18000031      -1.08661498E-08
  -9.17000008      -1.10393064E-08
  -9.15999985      -1.12232046E-08
  -9.14999962      -1.14179679E-08
  -9.14000034      -1.16235608E-08
  -9.13000011      -1.18398127E-08
  -9.11999989      -1.20664119E-08
  -9.10999966      -1.23030022E-08
  -9.10000038      -1.25489237E-08
  -9.09000015      -1.28037856E-08
  -9.07999992      -1.30667352E-08
  -9.06999969      -1.33372566E-08
  -9.06000042      -1.36145752E-08
  -9.05000019      -1.38977567E-08
  -9.03999996      -1.41860950E-08
  -9.02999973      -1.44786414E-08
  -9.02000046      -1.47744217E-08
  -9.01000023      -1.50725565E-08
  -9.00000000      -1.53719117E-08
  -8.98999977      -1.56717235E-08
  -8.97999954      -1.59709597E-08
  -8.97000027      -1.62686913E-08
  -8.96000004      -1.65641012E-08
  -8.94999981      -1.68560454E-08
  -8.93999958      -1.71435133E-08
  -8.93000031      -1.74254264E-08
  -8.92000008      -1.77006694E-08
  -8.90999985      -1.79683077E-08
  -8.89999962      -1.82271105E-08
  -8.89000034      -1.84761770E-08
  -8.88000011      -1.87143314E-08
  -8.86999989      -1.89408063E-08
  -8.85999966      -1.91549194E-08
  -8.85000038      -1.93561966E-08
  -8.84000015      -1.95440659E-08
  -8.82999992      -1.97183052E-08
  -8.81999969      -1.98790868E-08
  -8.81000042      -2.00262136E-08
  -8.80000019      -2.01600052E-08
  -8.78999996      -2.02807620E-08
  -8.77999973      -2.03889439E-08
  -8.77000046      -2.04849488E-08
  -8.76000023      -2.05695319E-08
  -8.75000000      -2.06431228E-08
  -8.73999977      -2.07066329E-08
  -8.72999954      -2.07602895E-08
  -8.72000027      -2.08050022E-08
  -8.71000004      -2.08410977E-08
  -8.69999981      -2.08693436E-08
  -8.68999958      -2.08900399E-08
  -8.68000031      -2.09039914E-08
  -8.67000008      -2.09114592E-08
  -8.65999985      -2.09133528E-08
  -8.64999962      -2.09101838E-08
  -8.64000034      -2.09026130E-08
  -8.63000011      -2.08915321E-08
  -8.61999989      -2.08776711E-08
  -8.60999966      -2.08619131E-08
  -8.60000038      -2.08453148E-08
  -8.59000015      -2.08287112E-08
  -8.57999992      -2.08127400E-08
  -8.56999969      -2.07982502E-08
  -8.56000042      -2.07860005E-08
  -8.55000019      -2.07761328E-08
  -8.53999996      -2.07693365E-08
  -8.52999973      -2.07659898E-08
  -8.52000046      -2.07659170E-08
  -8.51000023      -2.07695248E-08
  -8.50000000      -2.07769180E-08
  -8.48999977      -2.07876578E-08
  -8.47999954      -2.08020552E-08
  -8.47000027      -2.08197797E-08
  -8.46000004      -2.08405257E-08
  -8.44999981      -2.08640163E-08
  -8.43999958      -2.08902975E-08
  -8.43000031      -2.09191473E-08
  -8.42000008      -2.09508695E-08
  -8.40999985      -2.09850608E-08
  -8.39999962      -2.10224176E-08
  -8.39000034      -2.10629096E-08
  -8.38000011      -2.11070059E-08
  -8.36999989      -2.11545785E-08
  -8.35999966      -2.12060538E-08
  -8.35000038      -2.12615987E-08
  -8.34000015      -2.13213891E-08
  -8.32999992      -2.13857447E-08
  -8.31999969      -2.14546514E-08
  -8.31000042      -2.15286651E-08
  -8.30000019      -2.16075335E-08
  -8.28999996      -2.16915588E-08
  -8.27999973      -2.17810499E-08
  -8.27000046      -2.18762466E-08
  -8.26000023      -2.19776375E-08
  -8.25000000      -2.20855565E-08
  -8.23999977      -2.22007550E-08
  -8.22999954      -2.23234018E-08
  -8.22000027      -2.24543335E-08
  -8.21000004      -2.25939090E-08
  -8.19999981      -2.27431567E-08
  -8.18999958      -2.29027091E-08
  -8.18000031      -2.30725572E-08
  -8.17000008      -2.32534934E-08
  -8.15999985      -2.34459296E-08
  -8.14999962      -2.36501343E-08
  -8.14000034      -2.38665816E-08
  -8.13000011      -2.40949465E-08
  -8.11999989      -2.43352396E-08
  -8.10999966      -2.45876937E-08
  -8.10000038      -2.48516354E-08
  -8.09000015      -2.51272887E-08
  -8.07999992      -2.54137671E-08
  -8.06999969      -2.57111807E-08
  -8.06000042      -2.60186912E-08
  -8.05000019      -2.63365205E-08
  -8.03999996      -2.66642903E-08
  -8.02999973      -2.70016827E-08
  -8.02000046      -2.73489924E-08
  -8.01000023      -2.77056831E-08
  -8.00000000      -2.80713870E-08
  -7.98999977      -2.84460064E-08
  -7.98000002      -2.88291098E-08
  -7.96999979      -2.92203630E-08
  -7.96000004      -2.96194465E-08
  -7.94999981      -3.00251592E-08
  -7.94000006      -3.04374659E-08
  -7.92999983      -3.08549879E-08
  -7.92000008      -3.12769579E-08
  -7.90999985      -3.17028643E-08
  -7.90000010      -3.21309912E-08
  -7.88999987      -3.25614131E-08
  -7.88000011      -3.29924710E-08
  -7.86999989      -3.34239942E-08
  -7.86000013      -3.38544091E-08
  -7.84999990      -3.42835200E-08
  -7.84000015      -3.47113556E-08
  -7.82999992      -3.51370097E-08
  -7.82000017      -3.55602907E-08
  -7.80999994      -3.59805945E-08
  -7.80000019      -3.63981236E-08
  -7.78999996      -3.68124162E-08
  -7.78000021      -3.72236855E-08
  -7.76999998      -3.76313309E-08
  -7.76000023      -3.80362835E-08
  -7.75000000      -3.84378431E-08
  -7.73999977      -3.88363830E-08
  -7.73000002      -3.92312991E-08
  -7.71999979      -3.96230817E-08
  -7.71000004      -4.00118978E-08
  -7.69999981      -4.03975093E-08
  -7.69000006      -4.07797103E-08
  -7.67999983      -4.11597689E-08
  -7.67000008      -4.15369037E-08
  -7.65999985      -4.19112496E-08
  -7.65000010      -4.22838262E-08
  -7.63999987      -4.26553086E-08
  -7.63000011      -4.30260343E-08
  -7.61999989      -4.33966143E-08
  -7.61000013      -4.37677485E-08
  -7.59999990      -4.41396750E-08
  -7.59000015      -4.45144757E-08
  -7.57999992      -4.48934898E-08
  -7.57000017      -4.52770763E-08
  -7.55999994      -4.56662619E-08
  -7.55000019      -4.60626133E-08
  -7.53999996      -4.64675516E-08
  -7.53000021      -4.68813042E-08
  -7.51999998      -4.73058570E-08
  -7.51000023      -4.77413202E-08
  -7.50000000      -4.81892251E-08
  -7.48999977      -4.86506089E-08
  -7.48000002      -4.91258838E-08
  -7.46999979      -4.96174728E-08
  -7.46000004      -5.01254291E-08
  -7.44999981      -5.06513800E-08
  -7.44000006      -5.11955314E-08