  -16.0000000       0.00000000    
  -15.9899998       0.00000000    
  -15.9799995       0.00000000    
  -15.9700003       0.00000000    
  -15.9600000       0.00000000    
  -15.9499998       0.00000000    
  -15.9399996       0.00000000    
  -15.9300003       0.00000000    
  -15.9200001       0.00000000    
  -15.9099998       0.00000000    
  -15.8999996       0.00000000    
  -15.8900003       0.00000000    
  -15.8800001       0.00000000    
  -15.8699999       8.12753109E-44
  -15.8599997       7.28114682E-42
  -15.8500004       1.91603743E-40
  -15.8400002       2.81508810E-39
  -15.8299999       2.82815661E-38
  -15.8199997       2.16267526E-37
  -15.8100004       1.33583886E-36
  -15.8000002       6.92054004E-36
  -15.7900000       3.08511047E-35
  -15.7799997       1.20512657E-34
  -15.7700005       4.17829972E-34
  -15.7600002       1.29742241E-33
  -15.7500000       3.62903538E-33
  -15.7399998       9.16904255E-33
  -15.7299995       2.09121547E-32
  -15.7200003       4.28271912E-32
  -15.7100000       7.77344716E-32
  -15.6999998       1.21422513E-31
  -15.6899996       1.51303896E-31
  -15.6800003       1.10567151E-31
  -15.6700001      -1.04291669E-31
  -15.6599998      -6.33105882E-31
  -15.6499996      -1.58755515E-30
  -15.6400003      -2.90125773E-30
  -15.6300001      -4.09503977E-30
  -15.6199999      -4.04074547E-30
  -15.6099997      -9.37469440E-31
  -15.6000004       7.16397264E-30
  -15.5900002       2.09681064E-29
  -15.5799999       3.76864226E-29
  -15.5699997       4.87216762E-29
  -15.5600004       3.91661206E-29
  -15.5500002      -8.17608268E-30
  -15.5400000      -1.02053475E-28
  -15.5299997      -2.26222042E-28
  -15.5200005      -3.24065832E-28
  -15.5100002      -2.98582962E-28
  -15.5000000      -4.53038216E-29
  -15.4899998       4.72450067E-28
  -15.4799995       1.12250776E-27
  -15.4700003       1.53512294E-27
  -15.4600000       1.16282941E-27
  -15.4499998      -4.38549030E-28
  -15.4399996      -3.10660993E-27
  -15.4300003      -5.54543524E-27
  -15.4200001      -5.22807704E-27
  -15.4099998       6.75917584E-28
  -15.3999996       1.29838093E-26
  -15.3900003       2.72676736E-26
  -15.3800001       3.15848382E-26
  -15.3699999       8.42029976E-27
  -15.3599997      -5.58348168E-26
  -15.3500004      -1.53353956E-25
  -15.3400002      -2.35336732E-25
  -15.3299999      -2.05394937E-25
  -15.3199997       5.30460518E-26
  -15.3100004       5.99203065E-25
  -15.3000002       1.31547141E-24
  -15.2900000       1.79894444E-24
  -15.2799997       1.36685939E-24
  -15.2700005      -7.01340979E-25
  -15.2600002      -4.62180509E-24
  -15.2500000      -9.37396866E-24
  -15.2399998      -1.21567039E-23
  -15.2299995      -8.65950917E-24
  -15.2200003       5.21291671E-24
  -15.2100000       2.99951769E-23
  -15.1999998       5.85971750E-23
  -15.1899996       7.38625675E-23
  -15.1800003       5.11673390E-23
  -15.1700001      -3.09588936E-23
  -15.1599998      -1.72254405E-22
  -15.1499996      -3.30103579E-22
  -15.1400003      -4.09750434E-22
  -15.1300001      -2.82276974E-22
  -15.1199999       1.57051768E-22
  -15.1099997       8.94555746E-22
  -15.1000004       1.70141056E-21
  -15.0900002       2.09860770E-21
  -15.0799999       1.46082247E-21
  -15.0699997      -6.92278582E-22
  -15.0600004      -4.25413173E-21
  -15.0500002      -8.10688053E-21
  -15.0400000      -1.00088701E-20
  -15.0299997      -7.12203638E-21
  -15.0200005       2.64772012E-21
  -15.0100002       1.87135041E-20
  -15.0000000       3.60444081E-20
  -14.9899998       4.48337353E-20
  -14.9799995       3.29133162E-20
  -14.9700003      -8.50167752E-21
  -14.9600000      -7.67978327E-20
  -14.9499998      -1.50939136E-19
  -14.9399996      -1.90486822E-19
  -14.9300003      -1.45700343E-19
  -14.9200001       1.93466479E-20
  -14.9099998       2.95191137E-19
  -14.8999996       5.99808411E-19
  -14.8900003       7.75113884E-19
  -14.8800001       6.25786639E-19
  -14.8699999       7.00588213E-21
  -14.8599997      -1.05639670E-18
  -14.8500004      -2.26693996E-18
  -14.8400002      -3.03774015E-18
  -14.8299999      -2.62926451E-18
  -14.8199997      -4.63715900E-19
  -14.8100004       3.44332500E-18
  -14.8000002       8.09908668E-18
  -14.7900000       1.14414274E-17
  -14.7799997       1.07752037E-17
  -14.7700005       3.83224920E-18
  -14.7600002      -9.73053335E-18
  -14.7500000      -2.69315515E-17
  -14.7399998      -4.09728465E-17
  -14.7299995      -4.24692691E-17
  -14.7200003      -2.27848372E-17
  -14.7100000       2.10171407E-17
  -14.6999998       8.12316773E-17
  -14.6899996       1.37132742E-16
  -14.6800003       1.57852597E-16
  -14.6700001       1.12057363E-16
  -14.6599998      -1.66246396E-17
  -14.6499996      -2.12938551E-16
  -14.6400003      -4.19696170E-16
  -14.6300001      -5.42387383E-16
  -14.6199999      -4.74506428E-16
  -14.6099997      -1.42338831E-16
  -14.6000004       4.42116179E-16
  -14.5900002       1.14118991E-15
  -14.5799999       1.69022513E-15
  -14.5699997       1.75519192E-15
  -14.5600004       1.05192662E-15
  -14.5500002      -4.97780458E-16
  -14.5400000      -2.62718555E-15
  -14.5299997      -4.67458891E-15
  -14.5200005      -5.68770893E-15
  -14.5100002      -4.70835842E-15
  -14.5000000      -1.19401438E-15
  -14.4899998       4.54803838E-15
  -14.4799995       1.10999788E-14
  -14.4700003       1.60381792E-14
  -14.4600000       1.65196056E-14
  -14.4499998       1.03069451E-14
  -14.4399996      -3.01816495E-15
  -14.4300003      -2.10902276E-14
  -14.4200001      -3.85550051E-14
  -14.4099998      -4.80239932E-14
  -14.3999996      -4.22615942E-14
  -14.3900003      -1.71947333E-14
  -14.3800001       2.51666025E-14
  -14.3699999       7.51209465E-14
  -14.3599997       1.16131565E-13
  -14.3500004       1.28727527E-13
  -14.3400002       9.70224741E-14
  -14.3299999       1.62200694E-14
  -14.3199997      -1.01482550E-13
  -14.3100004      -2.25458893E-13
  -14.3000002      -3.11772608E-13
  -14.2900000      -3.15102355E-13
  -14.2799997      -2.05184597E-13
  -14.2700005       1.69749926E-14
  -14.2600002       3.09267775E-13
  -14.2500000       5.90667706E-13
  -14.2399998       7.58279507E-13
  -14.2299995       7.17426769E-13
  -14.2200003       4.17629771E-13
  -14.2100000      -1.16808066E-13
  -14.1999998      -7.74004016E-13
  -14.1899996      -1.36878822E-12
  -14.1800003      -1.68606589E-12
  -14.1700001      -1.54552423E-12
  -14.1599998      -8.70547991E-13
  -14.1499996       2.61155030E-13
  -14.1400003       1.60647288E-12
  -14.1300001       2.79757749E-12
  -14.1199999       3.43160222E-12
  -14.1099997       3.18959225E-12
  -14.1000004       1.95161053E-12
  -14.0900002      -1.29434332E-13
  -14.0799999      -2.62518241E-12
  -14.0699997      -4.91183309E-12
  -14.0600004      -6.31925935E-12
  -14.0500002      -6.31243712E-12
  -14.0400000      -4.65464212E-12
  -14.0299997      -1.50374483E-12
  -14.0200005       2.58983286E-12
  -14.0100002       6.78606520E-12
  -14.0000000       1.01321868E-11
  -13.9899998       1.17657689E-11
  -13.9799995       1.10927613E-11
  -13.9700003       7.90362480E-12
  -13.9600000       2.41689915E-12
  -13.9499998      -4.73498801E-12
  -13.9399996      -1.25506081E-11
  -13.9300003      -1.97162130E-11
  -13.9200001      -2.46827333E-11
  -13.9099998      -2.58019404E-11
  -13.8999996      -2.15779027E-11
  -13.8900003      -1.10677656E-11
  -13.8800001       5.59459597E-12
  -13.8699999       2.66740206E-11
  -13.8599997       4.85186891E-11
  -13.8500004       6.57087787E-11
  -13.8400002       7.18719251E-11
  -13.8299999       6.12079137E-11
  -13.8199997       3.05113851E-11
  -13.8100004      -1.87977151E-11
  -13.8000002      -7.93327626E-11
  -13.7900000      -1.37810291E-10
  -13.7799997      -1.77028905E-10
  -13.7700005      -1.79774751E-10
  -13.7600002      -1.34025610E-10
  -13.7500000      -3.81942013E-11
  -13.7399998       9.52487186E-11
  -13.7299995       2.39397807E-10
  -13.7200003       3.56823071E-10
  -13.7100000       4.07729545E-10
  -13.6999998       3.60984909E-10
  -13.6899996       2.05376854E-10
  -13.6800003      -4.22557718E-11
  -13.6700001      -3.35215244E-10
  -13.6599998      -6.03475991E-10
  -13.6499996      -7.68488939E-10
  -13.6400003      -7.63680619E-10
  -13.6300001      -5.55819946E-10
  -13.6199999      -1.61174268E-10
  -13.6099997       3.49327733E-10
  -13.6000004       8.59569915E-10
  -13.5900002       1.23240118E-09
  -13.5799999       1.34421441E-09
  -13.5699997       1.12185117E-09
  -13.5600004       5.71645398E-10
  -13.5500002      -2.09148088E-10
  -13.5400000      -1.04479503E-09
  -13.5299997      -1.71779990E-09
  -13.5200005      -2.02335992E-09
  -13.5100002      -1.82875648E-09
  -13.5000000      -1.12143372E-09
  -13.4899998      -3.01519400E-11
  -13.4799995       1.19102150E-09
  -13.4700003       2.21700680E-09
  -13.4600000       2.73445022E-09
  -13.4499998       2.53331200E-09
  -13.4399996       1.58215552E-09
  -13.4300003       6.28521193E-11
  -13.4200001      -1.65151415E-09
  -13.4099998      -3.07763881E-09
  -13.3999996      -3.74730336E-09
  -13.3900003      -3.34719252E-09
  -13.3800001      -1.83483517E-09
  -13.3699999       5.06693076E-10
  -13.3599997       3.10064796E-09
  -13.3500004       5.19892263E-09
  -13.3400002       6.07343331E-09
  -13.3299999       5.23196064E-09
  -13.3199997       2.60011612E-09
  -13.3100004      -1.38759981E-09
  -13.3000002      -5.82759530E-09
  -13.2900000      -9.52600043E-09
  -13.2799997      -1.12870291E-08
  -13.2700005      -1.02462270E-08
  -13.2600002      -6.16240525E-09
  -13.2500000       4.17983731E-10
  -13.2399998       8.18711143E-09
  -13.2299995       1.53110715E-08
  -13.2200003       1.98384527E-08
  -13.2100000       2.01947294E-08
  -13.1999998       1.56412412E-08
  -13.1899996       6.57329524E-09
  -13.1800003      -5.43932943E-09
  -13.1700001      -1.79084605E-08
  -13.1599998      -2.79445320E-08
  -13.1499996      -3.29269838E-08
  -13.1400003      -3.11703090E-08
  -13.1300001      -2.24151773E-08
  -13.1199999      -8.00511568E-09
  -13.1099997       9.31941457E-09
  -13.1000004       2.59846331E-08
  -13.0900002       3.83839414E-08
  -13.0799999       4.37263736E-08
  -13.0699997       4.07193745E-08
  -13.0600004       2.99043954E-08
  -13.0500002       1.35451685E-08
  -13.0400000      -4.91815255E-09
  -13.0299997      -2.17184777E-08
  -13.0200005      -3.36976527E-08
  -13.0100002      -3.90777224E-08
  -13.0000000      -3.78503451E-08
  -12.9899998      -3.16650812E-08
  -12.9799995      -2.32316317E-08
  -12.9700003      -1.53945763E-08
  -12.9600000      -1.01429922E-08
  -12.9499998      -7.85785126E-09
  -12.9399996      -7.05309056E-09
  -12.9300003      -4.74310013E-09
  -12.9200001       2.60595057E-09
  -12.9099998       1.77615469E-08
  -12.8999996       4.14047889E-08
  -12.8900003       7.12065784E-08
  -12.8800001       1.01644162E-07
  -12.8699999       1.24730647E-07
  -12.8599997       1.31602889E-07
  -12.8500004       1.14667557E-07
  -12.8400002       6.98196558E-08
  -12.8299999      -1.82931292E-09
  -12.8199997      -9.32054860E-08
  -12.8100004      -1.91805015E-07
  -12.8000002      -2.81500434E-07
  -12.7900000      -3.45303761E-07
  -12.7799997      -3.68520773E-07
  -12.7700005      -3.41607603E-07
  -12.7600002      -2.62086559E-07
  -12.7500000      -1.35117119E-07
  -12.7399998       2.73858785E-08
  -12.7299995       2.08804195E-07
  -12.7200003       3.90496524E-07
  -12.7100000       5.54407563E-07
  -12.6999998       6.84995769E-07
  -12.6899996       7.70082465E-07
  -12.6800003       8.00599935E-07
  -12.6700001       7.69591452E-07
  -12.6599998       6.71071348E-07
  -12.6499996       4.99454131E-07
  -12.6400003       2.50108030E-07
  -12.6300001      -7.87445131E-08
  -12.6199999      -4.83001941E-07
  -12.6099997      -9.49221430E-07
  -12.6000004      -1.45164620E-06
  -12.5900002      -1.95076564E-06
  -12.5799999      -2.39412475E-06
  -12.5699997      -2.71977592E-06
  -12.5600004      -2.86206296E-06
  -12.5500002      -2.75897173E-06
  -12.5400000      -2.35987454E-06
  -12.5299997      -1.63248194E-06
  -12.5200005      -5.67963866E-07
  -12.5100002       8.16226020E-07
  -12.5000000       2.47569642E-06
  -12.4899998       4.34009416E-06
  -12.4799995       6.31458670E-06
  -12.4700003       8.28103384E-06
  -12.4600000       1.00981151E-05
  -12.4499998       1.16005367E-05
  -12.4399996       1.25977613E-05
  -12.4300003       1.28737929E-05
  -12.4200001       1.21894718E-05
  -12.4099998       1.02885688E-05
  -12.3999996       6.90892011E-06
  -12.3900003       1.79845654E-06
  -12.3800001      -5.26486747E-06
  -12.3699999      -1.44510641E-05
  -12.3599997      -2.58563468E-05
  -12.3500004      -3.94844428E-05
  -12.3400002      -5.52338315E-05
  -12.3299999      -7.28907689E-05
  -12.3199997      -9.21311439E-05
  -12.3100004      -1.12527967E-04
  -12.3000002      -1.33565132E-04
  -12.2900000      -1.54654554E-04
  -12.2799997      -1.75153473E-04
  -12.2700005      -1.94383072E-04
  -12.2600002      -2.11646242E-04
  -12.2500000      -2.26240314E-04
  -12.2399998      -2.37475106E-04
  -12.2299995      -2.44685012E-04
  -12.2200003      -2.47245829E-04
  -12.2100000      -2.44591793E-04
  -12.1999998      -2.36236985E-04
  -12.1899996      -2.21789960E-04
  -12.1800003      -2.00976094E-04
  -12.1700001      -1.73653010E-04
  -12.1599998      -1.39817683E-04
  -12.1499996      -9.96125018E-05
  -12.1400003      -5.33206257E-05
  -12.1300001      -1.35896551E-06
  -12.1199999       5.57424391E-05
  -12.1099997       1.17351279E-04
  -12.1000004       1.82754084E-04
  -12.0900002       2.51172052E-04
  -12.0799999       3.21770814E-04
  -12.0699997       3.93671013E-04
  -12.0600004       4.65954276E-04
  -12.0500002       5.37668471E-04
  -12.0400000       6.07836817E-04
  -12.0299997       6.75467309E-04
  -12.0200005       7.39569950E-04
  -12.0100002       7.99174944E-04
  -12.0000000       8.53354693E-04
  -11.9899998       9.01243242E-04
  -11.9799995       9.42053914E-04
  -11.9700003       9.75083094E-04
  -11.9600000       9.99713200E-04
  -11.9499998       1.01540470E-03
  -11.9399996       1.02167646E-03
  -11.9300003       1.01809530E-03
  -11.9200001       1.00425689E-03
  -11.9099998       9.79777076E-04
  -11.8999996       9.44299856E-04
  -11.8900003       8.97499442E-04
  -11.8800001       8.39108834E-04
  -11.8699999       7.68941478E-04
  -11.8599997       6.86919608E-04
  -11.8500004       5.93098754E-04
  -11.8400002       4.87683690E-04
  -11.8299999       3.71039408E-04
  -11.8199997       2.43688686E-04
  -11.8100004       1.06308835E-04
  -11.8000002      -4.02795304E-05
  -11.7900000      -1.95123939E-04
  -11.7799997      -3.57153884E-04
  -11.7700005      -5.25195559E-04
  -11.7600002      -6.97972195E-04
  -11.7500000      -8.74128658E-04
  -11.7399998      -1.05223793E-03
  -11.7299995      -1.23082194E-03
  -11.7200003      -1.40836718E-03
  -11.7100000      -1.58335001E-03
  -11.6999998      -1.75425189E-03
  -11.6899996      -1.91958458E-03
  -11.6800003      -2.07789568E-03
  -11.6700001      -2.22778530E-03
  -11.6599998      -2.36790278E-03
  -11.6499996      -2.49696150E-03
  -11.6400003      -2.61372887E-03
  -11.6300001      -2.71703326E-03
  -11.6199999      -2.80576618E-03
  -11.6099997      -2.87888339E-03
  -11.6000004      -2.93540093E-03
  -11.5900002      -2.97440495E-03
  -11.5799999      -2.99503305E-03
  -11.5699997      -2.99647544E-03
  -11.5600004      -2.97796493E-03
  -11.5500002      -2.93876347E-03
  -11.5400000      -2.87815835E-03
  -11.5299997      -2.79547623E-03
  -11.5200005      -2.69007566E-03
  -11.5100002      -2.56138877E-03
  -11.5000000      -2.40892614E-03
  -11.4899998      -2.23231642E-03
  -11.4799995      -2.03132094E-03
  -11.4700003      -1.80584891E-03
  -11.4600000      -1.55595748E-03
  -11.4499998      -1.28183875E-03
  -11.4399996      -9.83804348E-04
  -11.4300003      -6.62262959E-04
  -11.4200001      -3.17688828E-04
  -11.4099998       4.93755288E-05
  -11.3999996       4.38337593E-04
  -11.3900003       8.48527707E-04
  -11.3800001       1.27919449E-03
  -11.3699999       1.72947755E-03
  -11.3599997       2.19837693E-03
  -11.3500004       2.68474547E-03
  -11.3400002       3.18730273E-03
  -11.3299999       3.70462704E-03
  -11.3199997       4.23522200E-03
  -11.3100004       4.77754138E-03
  -11.3000002       5.33007085E-03
  -11.2900000       5.89134870E-03
  -11.2799997       6.46005152E-03
  -11.2700005       7.03499326E-03
  -11.2600002       7.61514995E-03
  -11.2500000       8.19965824E-03
  -11.2399998       8.78777262E-03
  -11.2299995       9.37884022E-03
  -11.2200003       9.97225288E-03
  -11.2100000       1.05673932E-02
  -11.1999998       1.11635998E-02
  -11.1899996       1.17601492E-02
  -11.1800003       1.23562440E-02
  -11.1700001       1.29510099E-02
  -11.1599998       1.35435266E-02
  -11.1499996       1.41328536E-02
  -11.1400003       1.47180604E-02
  -11.1300001       1.52982632E-02
  -11.1199999       1.58726424E-02
  -11.1099997       1.64404865E-02
  -11.1000004       1.70011502E-02
  -11.0900002       1.75541174E-02
  -11.0799999       1.80989485E-02
  -11.0699997       1.86352711E-02
  -11.0600004       1.91627890E-02
  -11.0500002       1.96812358E-02
  -11.0400000       2.01903731E-02
  -11.0299997       2.06899680E-02
  -11.0200005       2.11797561E-02
  -11.0100002       2.16594543E-02
  -11.0000000       2.21287105E-02
  -10.9899998       2.25870870E-02
  -10.9799995       2.30341032E-02
  -10.9700003       2.34691817E-02
  -10.9600000       2.38917042E-02
  -10.9499998       2.43010242E-02
  -10.9399996       2.46965233E-02
  -10.9300003       2.50776354E-02
  -10.9200001       2.54438892E-02
  -10.9099998       2.57949568E-02
  -10.8999996       2.61306688E-02
  -10.8900003       2.64509805E-02
  -10.8800001       2.67559998E-02
  -10.8699999       2.70459242E-02
  -10.8599997       2.73210220E-02
  -10.8500004       2.75815353E-02
  -10.8400002       2.78276727E-02
  -10.8299999       2.80595496E-02
  -10.8199997       2.82772034E-02
  -10.8100004       2.84805372E-02
  -10.8000002       2.86694020E-02
  -10.7900000       2.88435929E-02
  -10.7799997       2.90029664E-02
  -10.7700005       2.91474704E-02
  -10.7600002       2.92771459E-02
  -10.7500000       2.93923505E-02
  -10.7399998       2.94935815E-02
  -10.7299995       2.95815822E-02
  -10.7200003       2.96572763E-02
  -10.7100000       2.97217499E-02
  -10.6999998       2.97761578E-02
  -10.6899996       2.98216641E-02
  -10.6800003       2.98594516E-02
  -10.6700001       2.98906714E-02
  -10.6599998       2.99164560E-02
  -10.6499996       2.99379490E-02
  -10.6400003       2.99563874E-02
  -10.6300001       2.99730897E-02
  -10.6199999       2.99895406E-02
  -10.6099997       3.00073605E-02
  -10.6000004       3.00282855E-02
  -10.5900002       3.00541576E-02
  -10.5799999       3.00867949E-02
  -10.5699997       3.01279668E-02
  -10.5600004       3.01792510E-02
  -10.5500002       3.02420538E-02
  -10.5400000       3.03174686E-02
  -10.5299997       3.04062907E-02
  -10.5200005       3.05090956E-02
  -10.5100002       3.06261498E-02
  -10.5000000       3.07575297E-02
  -10.4899998       3.09032016E-02
  -10.4799995       3.10630109E-02
  -10.4700003       3.12367342E-02
  -10.4600000       3.14241499E-02
  -10.4499998       3.16249952E-02
  -10.4399996       3.18389609E-02
  -10.4300003       3.20656076E-02
  -10.4200001       3.23043913E-02
  -10.4099998       3.25545222E-02
  -10.3999996       3.28150056E-02
  -10.3900003       3.30844894E-02
  -10.3800001       3.33614759E-02
  -10.3699999       3.36441621E-02
  -10.3599997       3.39305773E-02
  -10.3500004       3.42187062E-02
  -10.3400002       3.45065258E-02
  -10.3299999       3.47921178E-02
  -10.3199997       3.50736566E-02
  -10.3100004       3.53495665E-02
  -10.3000002       3.56184840E-02
  -10.2900000       3.58792394E-02
  -10.2799997       3.61309312E-02
  -10.2700005       3.63728553E-02
  -10.2600002       3.66044901E-02
  -10.2500000       3.68254371E-02
  -10.2399998       3.70355323E-02
  -10.2299995       3.72346826E-02
  -10.2200003       3.74229625E-02
  -10.2100000       3.76005583E-02
  -10.1999998       3.77677120E-02
  -10.1899996       3.79249081E-02
  -10.1800003       3.80727239E-02
  -10.1700001       3.82119566E-02
  -10.1599998       3.83435413E-02
  -10.1499996       3.84686738E-02
  -10.1400003       3.85888442E-02
  -10.1300001       3.87057699E-02
  -10.1199999       3.88213284E-02
  -10.1099997       3.89376581E-02
  -10.1000004       3.90570909E-02
  -10.0900002       3.91820110E-02
  -10.0799999       3.93149517E-02
  -10.0699997       3.94582637E-02
  -10.0600004       3.96144763E-02
  -10.0500002       3.97857726E-02
  -10.0400000       3.99742797E-02
  -10.0299997       4.01818939E-02
  -10.0200005       4.04103994E-02
  -10.0100002       4.06611785E-02
  -10.0000000       4.09356505E-02
  -9.98999977       4.12349775E-02
  -9.97999954       4.15602066E-02
  -9.97000027       4.19124328E-02
  -9.96000004       4.22928557E-02
  -9.94999981       4.27027047E-02
  -9.93999958       4.31433022E-02
  -9.93000031       4.36160900E-02
  -9.92000008       4.41225953E-02
  -9.90999985       4.46643047E-02
  -9.89999962       4.52425033E-02
  -9.89000034       4.58584502E-02
  -9.88000011       4.65131067E-02
  -9.86999989       4.72073779E-02
  -9.85999966       4.79418747E-02
  -9.85000038       4.87171412E-02
  -9.84000015       4.95338775E-02
  -9.82999992       5.03929481E-02
  -9.81999969       5.12951873E-02
  -9.81000042       5.22417389E-02
  -9.80000019       5.32338284E-02
  -9.78999996       5.42726330E-02
  -9.77999973       5.53595200E-02
  -9.77000046       5.64955249E-02
  -9.76000023       5.76814823E-02
  -9.75000000       5.89183010E-02
  -9.73999977       6.02064542E-02
  -9.72999954       6.15463406E-02
  -9.72000027       6.29384667E-02
  -9.71000004       6.43830225E-02
  -9.69999981       6.58802986E-02
  -9.68999958       6.74303621E-02
  -9.68000031       6.90329000E-02
  -9.67000008       7.06875101E-02
  -9.65999985       7.23929852E-02
  -9.64999962       7.41476491E-02
  -9.64000034       7.59490877E-02
  -9.63000011       7.77942538E-02
  -9.61999989       7.96795040E-02
  -9.60999966       8.16004053E-02
  -9.60000038       8.35522264E-02
  -9.59000015       8.55294168E-02
  -9.57999992       8.75261500E-02
  -9.56999969       8.95359218E-02
  -9.56000042       9.15518403E-02
  -9.55000019       9.35666114E-02
  -9.53999996       9.55724269E-02
  -9.52999973       9.75612402E-02
  -9.52000046       9.95250344E-02
  -9.51000023      0.101455532    
  -9.50000000      0.103344813    
  -9.48999977      0.105185285    
  -9.47999954      0.106969528    
  -9.47000027      0.108691290    
  -9.46000004      0.110344686    
  -9.44999981      0.111924633    
  -9.43999958      0.113427646    
  -9.43000031      0.114850923    
  -9.42000008      0.116193235    
  -9.40999985      0.117454670    
  -9.39999962      0.118636750    
  -9.39000034      0.119742535    
  -9.38000011      0.120776430    
  -9.36999989      0.121744685    
  -9.35999966      0.122654386    
  -9.35000038      0.123514414    
  -9.34000015      0.124335013    
  -9.32999992      0.125127703    
  -9.31999969      0.125905141    
  -9.31000042      0.126681432    
  -9.30000019      0.127471313    
  -9.28999996      0.128290445    
  -9.27999973      0.129155055    
  -9.27000046      0.130081564    
  -9.26000023      0.131086558    
  -9.25000000      0.132186517    
  -9.23999977      0.133397326    
  -9.22999954      0.134734407    
  -9.22000027      0.136212662    
  -9.21000004      0.137845919    
  -9.19999981      0.139646739    
  -9.18999958      0.141626641    
  -9.18000031      0.143795341    
  -9.17000008      0.146161214    
  -9.15999985      0.148730442    
  -9.14999962      0.151507273    
  -9.14000034      0.154494509    
  -9.13000011      0.157692209    
  -9.11999989      0.161099061    
  -9.10999966      0.164711297    
  -9.10000038      0.168523356    
  -9.09000015      0.172527730    
  -9.07999992      0.176714674    
  -9.06999969      0.181072265    
  -9.06000042      0.185586840    
  -9.05000019      0.190242961    
  -9.03999996      0.195023328    
  -9.02999973      0.199909896    
  -9.02000046      0.204882711    
  -9.01000023      0.209921688    
  -9.00000000      0.215005681    
  -8.98999977      0.220112756    
  -8.97999954      0.225221276    
  -8.97000027      0.230308250    
  -8.96000004      0.235351190    
  -8.94999981      0.240327731    
  -8.93999958      0.245214850    
  -8.93000031      0.249990344    
  -8.92000008      0.254632622    
  -8.90999985      0.259120852    
  -8.89999962      0.263434649    
  -8.89000034      0.267555207    
  -8.88000011      0.271464348    
  -8.86999989      0.275145650    
  -8.85999966      0.278584033    
  -8.85000038      0.281765878    
  -8.84000015      0.284679085    
  -8.82999992      0.287313998    
  -8.81999969      0.289662451    
  -8.81000042      0.291718304    
  -8.80000019      0.293477029    
  -8.78999996      0.294936568    
  -8.77999973      0.296096146    
  -8.77000046      0.296956450    
  -8.76000023      0.297520906    
  -8.75000000      0.297793418    
  -8.73999977      0.297780335    
  -8.72999954      0.297489405    
  -8.72000027      0.296929359    
  -8.71000004      0.296111614    
  -8.69999981      0.295047283    
  -8.68999958      0.293750137    
  -8.68000031      0.292233586    
  -8.67000008      0.290512979    
  -8.65999985      0.288603574    
  -8.64999962      0.286521941    
  -8.64000034      0.284284264    
  -8.63000011      0.281907856    
  -8.61999989      0.279409558    
  -8.60999966      0.276806235    
  -8.60000038      0.274114817    
  -8.59000015      0.271351099    
  -8.57999992      0.268530458    
  -8.56999969      0.265667737    
  -8.56000042      0.262776822    
  -8.55000019      0.259870708    
  -8.53999996      0.256962061    
  -8.52999973      0.254063040    
  -8.52000046      0.251184255    
  -8.51000023      0.248335719    
  -8.50000000      0.245526820    
  -8.48999977      0.242765695    
  -8.47999954      0.240059838    
  -8.47000027      0.237415463    
  -8.46000004      0.234838694    
  -8.44999981      0.232334197    
  -8.43999958      0.229907036    
  -8.43000031      0.227560982    
  -8.42000008      0.225300685    
  -8.40999985      0.223130122    
  -8.39999962      0.221052438    
  -8.39000034      0.219071627    
  -8.38000011      0.217191815    
  -8.36999989      0.215415984    
  -8.35999966      0.213749394    
  -8.35000038      0.212196112    
  -8.34000015      0.210762143    
  -8.32999992      0.209453434    
  -8.31999969      0.208276227    
  -8.31000042      0.207238093    
  -8.30000019      0.206347615    
  -8.28999996      0.205612928    
  -8.27999973      0.205043033    
  -8.27000046      0.204647496    
  -8.26000023      0.204436705    
  -8.25000000      0.204419598    
  -8.23999977      0.204607457    
  -8.22999954      0.205010220    
  -8.22000027      0.205639005    
  -8.21000004      0.206503600    
  -8.19999981      0.207615152    
  -8.18999958      0.208983243    
  -8.18000031      0.210618794    
  -8.17000008      0.212530449    
  -8.15999985      0.214727759    
  -8.14999962      0.217220053    
  -8.14000034      0.220014244    
  -8.13000011      0.223118395    
  -8.11999989      0.226538584    
  -8.10999966      0.230279878    
  -8.10000038      0.234347284    
  -8.09000015      0.238744035    
  -8.07999992      0.243473068    
  -8.06999969      0.248534814    
  -8.06000042      0.253931344    
  -8.05000019      0.259660393    
  -8.03999996      0.265721530    
  -8.02999973      0.272109300    
  -8.02000046      0.278819352    
  -8.01000023      0.285844505    
  -8.00000000      0.293177515    
  -7.98999977      0.300808340    
  -7.98000002      0.308726192    
  -7.96999979      0.316919804    
  -7.96000004      0.325376570    
  -7.94999981      0.334083259    
  -7.94000006      0.343026072    
  -7.92999983      0.352190048    
  -7.92000008      0.361560851    
  -7.90999985      0.371122658    
  -7.90000010      0.380860388    
  -7.88999987      0.390758634    
  -7.88000011      0.400801808    
  -7.86999989      0.410975128    
  -7.86000013      0.421262950    
  -7.84999990      0.431650698    
  -7.84000015      0.442124158    
  -7.82999992      0.452668577    
  -7.82000017      0.463268429    
  -7.80999994      0.473910719    
  -7.80000019      0.484581143    
  -7.78999996      0.495266318    
  -7.78000021      0.505951524    
  -7.76999998      0.516623974    
  -7.76000023      0.527270317    
  -7.75000000      0.537879229    
  -7.73999977      0.548438191    
  -7.73000002      0.558936834    
  -7.71999979      0.569364190    
  -7.71000004      0.579711616    
  -7.69999981      0.589971662    
  -7.69000006      0.600135624    
  -7.67999983      0.610199392    
  -7.67000008      0.620156646    
  -7.65999985      0.630003333    
  -7.65000010      0.639736950    
  -7.63999987      0.649356723    
  -7.63000011      0.658859074    
  -7.61999989      0.668247581    
  -7.61000013      0.677521706    
  -7.59999990      0.686685205    
  -7.59000015      0.695742309    
  -7.57999992      0.704695582    
  -7.57000017      0.713552952    
  -7.55999994      0.722321033    
  -7.55000019      0.731008589    
  -7.53999996      0.739624262    
  -7.53000021      0.748179138    
  -7.51999998      0.756685078    
  -7.51000023      0.765155613    
  -7.50000000      0.773603976    
  -7.48999977      0.782045066    
  -7.48000002      0.790494263    
  -7.46999979      0.798965037    
  -7.46000004      0.807473958    
  -7.44999981      0.816034734    
  -7.44000006      0.824663162    