  -16.0000000       0.00000000    
  -15.9899998       0.00000000    
  -15.9799995       0.00000000    
  -15.9700003       0.00000000    
  -15.9600000       0.00000000    
  -15.9499998       0.00000000    
  -15.9399996       0.00000000    
  -15.9300003       0.00000000    
  -15.9200001       0.00000000    
  -15.9099998       0.00000000    
  -15.8999996       0.00000000    
  -15.8900003       0.00000000    
  -15.8800001       0.00000000    
  -15.8699999       6.29183010E-43
  -15.8599997       1.61443596E-41
  -15.8500004       2.53321131E-40
  -15.8400002       2.86079706E-39
  -15.8299999       2.36052958E-38
  -15.8199997       1.48105858E-37
  -15.8100004       7.27559858E-37
  -15.8000002       2.84748619E-36
  -15.7900000       8.84555553E-36
  -15.7799997       2.07811875E-35
  -15.7700005       2.94704125E-35
  -15.7600002      -2.31840575E-35
  -15.7500000      -3.35347416E-34
  -15.7399998      -1.40729862E-33
  -15.7299995      -4.23076029E-33
  -15.7200003      -1.03270360E-32
  -15.7100000      -2.12955921E-32
  -15.6999998      -3.75187880E-32
  -15.6899996      -5.59955844E-32
  -15.6800003      -6.77707288E-32
  -15.6700001      -5.49782998E-32
  -15.6599998       1.58113438E-32
  -15.6499996       2.13620966E-31
  -15.6400003       6.87840002E-31
  -15.6300001       1.72395651E-30
  -15.6199999       3.71295407E-30
  -15.6099997       6.79037609E-30
  -15.6000004       9.79092303E-30
  -15.5900002       8.37707604E-30
  -15.5799999      -6.82617657E-30
  -15.5699997      -4.92816042E-29
  -15.5600004      -1.27708595E-28
  -15.5500002      -2.24382972E-28
  -15.5400000      -2.62560440E-28
  -15.5299997      -8.29842829E-29
  -15.5200005       5.24152716E-28
  -15.5100002       1.66834567E-27
  -15.5000000       3.05472538E-27
  -15.4899998       3.61181545E-27
  -15.4799995       1.35574789E-27
  -15.4700003      -5.97221824E-27
  -15.4600000      -1.89520135E-26
  -15.4499998      -3.32444259E-26
  -15.4399996      -3.64975403E-26
  -15.4300003      -8.80934300E-27
  -15.4200001       6.85202487E-26
  -15.4099998       1.92803768E-25
  -15.3999996       3.12135004E-25
  -15.3900003       3.06372350E-25
  -15.3800001       7.13552884E-27
  -15.3699999      -7.09928666E-25
  -15.3599997      -1.75158754E-24
  -15.3500004      -2.60658379E-24
  -15.3400002      -2.26596528E-24
  -15.3299999       5.13034063E-25
  -15.3199997       6.40853678E-24
  -15.3100004       1.42473565E-23
  -15.3000002       1.97534147E-23
  -15.2900000       1.54376340E-23
  -15.2799997      -6.94844699E-24
  -15.2700005      -5.04865520E-23
  -15.2600002      -1.04617200E-22
  -15.2500000      -1.38132347E-22
  -15.2399998      -1.00856820E-22
  -15.2299995       5.78645062E-23
  -15.2200003       3.50286402E-22
  -15.2100000       6.99414025E-22
  -15.1999998       9.02463540E-22
  -15.1899996       6.50925458E-22
  -15.1800003      -3.50156423E-22
  -15.1700001      -2.15191965E-21
  -15.1599998      -4.27814460E-21
  -15.1499996      -5.54039718E-21
  -15.1400003      -4.17870926E-21
  -15.1300001       1.46099029E-21
  -15.1199999       1.16790123E-20
  -15.1099997       2.39329265E-20
  -15.1000004       3.18996322E-20
  -15.0900002       2.62197449E-20
  -15.0799999      -2.06887585E-21
  -15.0699997      -5.52964553E-20
  -15.0600004      -1.21751810E-19
  -15.0500002      -1.70867662E-19
  -15.0400000      -1.56281896E-19
  -15.0299997      -3.14463599E-20
  -15.0200005       2.21585453E-19
  -15.0100002       5.57240921E-19
  -15.0000000       8.41838408E-19
  -14.9899998       8.62502052E-19
  -14.9799995       3.90607662E-19
  -14.9700003      -6.95569249E-19
  -14.9600000      -2.25584395E-18
  -14.9499998      -3.76672491E-18
  -14.9399996      -4.32907662E-18
  -14.9300003      -2.89594423E-18
  -14.9200001       1.24779865E-18
  -14.9099998       7.84224627E-18
  -14.8999996       1.50875957E-17
  -14.8900003       1.95251848E-17
  -14.8800001       1.67396276E-17
  -14.8699999       3.06520772E-18
  -14.8599997      -2.19409773E-17
  -14.8500004      -5.30647182E-17
  -14.8400002      -7.83536181E-17
  -14.8299999      -8.08409171E-17
  -14.8199997      -4.39896999E-17
  -14.8100004       3.95800067E-17
  -14.8000002       1.58479401E-16
  -14.7900000       2.76384283E-16
  -14.7799997       3.34538548E-16
  -14.7700005       2.66936081E-16
  -14.7600002       2.82665085E-17
  -14.7500000      -3.71578557E-16
  -14.7399998      -8.39427968E-16
  -14.7299995      -1.19451360E-15
  -14.7200003      -1.20352307E-15
  -14.7100000      -6.60503799E-16
  -14.6999998       5.01297127E-16
  -14.6899996       2.10065441E-15
  -14.6800003       3.65509413E-15
  -14.6700001       4.43754166E-15
  -14.6599998       3.67494096E-15
  -14.6499996       8.72373050E-16
  -14.6400003      -3.81966628E-15
  -14.6300001      -9.33814861E-15
  -14.6199999      -1.37104293E-14
  -14.6099997      -1.44597130E-14
  -14.6000004      -9.43167206E-15
  -14.5900002       2.11659219E-15
  -14.5799999       1.85136533E-14
  -14.5699997       3.52310039E-14
  -14.5600004       4.54509477E-14
  -14.5500002       4.18663720E-14
  -14.5400000       1.95067470E-14
  -14.5299997      -2.11403974E-14
  -14.5200005      -7.18898953E-14
  -14.5100002      -1.16814476E-13
  -14.5000000      -1.35355689E-13
  -14.4899998      -1.08646301E-13
  -14.4799995      -2.78048509E-14
  -14.4700003       9.83537457E-14
  -14.4600000       2.39534548E-13
  -14.4499998       3.47195552E-13
  -14.4399996       3.66276264E-13
  -14.4300003       2.54077141E-13
  -14.4200001       1.59601802E-15
  -14.4099998      -3.50106147E-13
  -14.3999996      -7.06736319E-13
  -14.3900003      -9.36870265E-13
  -14.3800001      -9.08090985E-13
  -14.3699999      -5.36466271E-13
  -14.3599997       1.64790802E-13
  -14.3500004       1.05623312E-12
  -14.3400002       1.88025615E-12
  -14.3299999       2.31585692E-12
  -14.3199997       2.07505627E-12
  -14.3100004       1.01879735E-12
  -14.3000002      -7.44230740E-13
  -14.2900000      -2.81760227E-12
  -14.2799997      -4.56893247E-12
  -14.2700005      -5.28282669E-12
  -14.2600002      -4.39013062E-12
  -14.2500000      -1.71365537E-12
  -14.2399998       2.35298413E-12
  -14.2299995       6.81670042E-12
  -14.2200003       1.02593654E-11
  -14.2100000       1.12107363E-11
  -14.1999998       8.64342712E-12
  -14.1899996       2.44974288E-12
  -14.1800003      -6.27079595E-12
  -14.1700001      -1.52634520E-11
  -14.1599998      -2.15801561E-11
  -14.1499996      -2.23983505E-11
  -14.1400003      -1.60066405E-11
  -14.1300001      -2.66374813E-12
  -14.1199999       1.49916989E-11
  -14.1099997       3.22280640E-11
  -14.1000004       4.32749843E-11
  -14.0900002       4.29750541E-11
  -14.0799999       2.86245437E-11
  -14.0699997       1.44009739E-12
  -14.0600004      -3.29149936E-11
  -14.0500002      -6.51257520E-11
  -14.0400000      -8.43767556E-11
  -14.0299997      -8.14619622E-11
  -14.0200005      -5.20672117E-11
  -14.0100002       7.82343266E-13
  -14.0000000       6.60518029E-11
  -13.9899998       1.26379934E-10
  -13.9799995       1.62069635E-10
  -13.9700003       1.56618149E-10
  -13.9600000       1.02397084E-10
  -13.9499998       4.79547044E-12
  -13.9399996      -1.16721702E-10
  -13.9300003      -2.31527131E-10
  -13.9200001      -3.04595404E-10
  -13.9099998      -3.05833137E-10
  -13.8999996      -2.19723836E-10
  -13.8900003      -5.25572676E-11
  -13.8800001       1.65246580E-10
  -13.8699999       3.83218762E-10
  -13.8599997       5.41260536E-10
  -13.8500004       5.84541693E-10
  -13.8400002       4.79467077E-10
  -13.8299999       2.26483207E-10
  -13.8199997      -1.34291286E-10
  -13.8100004      -5.27271726E-10
  -13.8000002      -8.55812088E-10
  -13.7900000      -1.02446063E-09
  -13.7799997      -9.64240354E-10
  -13.7700005      -6.54608701E-10
  -13.7600002      -1.35747302E-10
  -13.7500000       4.93455055E-10
  -13.7399998       1.09311959E-09
  -13.7299995       1.51315316E-09
  -13.7200003       1.63050751E-09
  -13.7100000       1.38374190E-09
  -13.6999998       7.95252919E-10
  -13.6899996      -2.63014610E-11
  -13.6800003      -9.06226427E-10
  -13.6700001      -1.64357261E-09
  -13.6599998      -2.06144390E-09
  -13.6499996      -2.05470885E-09
  -13.6400003      -1.62136060E-09
  -13.6300001      -8.66819561E-10
  -13.6199999       2.23815948E-11
  -13.6099997       8.30510438E-10
  -13.6000004       1.37631573E-09
  -13.5900002       1.56951541E-09
  -13.5799999       1.44094847E-09
  -13.5699997       1.13340315E-09
  -13.5600004       8.51387016E-10
  -13.5500002       7.81702036E-10
  -13.5400000       1.00862696E-09
  -13.5299997       1.45347645E-09
  -13.5200005       1.86531679E-09
  -13.5100002       1.87719196E-09
  -13.5000000       1.12240250E-09
  -13.4899998      -6.16224016E-10
  -13.4799995      -3.26824945E-09
  -13.4700003      -6.39875664E-09
  -13.4600000      -9.23351529E-09
  -13.4499998      -1.08027560E-08
  -13.4399996      -1.01861461E-08
  -13.4300003      -6.80555878E-09
  -13.4200001      -6.87468416E-10
  -13.4099998       7.39035499E-09
  -13.3999996       1.59346261E-08
  -13.3900003       2.29800659E-08
  -13.3800001       2.65108469E-08
  -13.3699999       2.49731880E-08
  -13.3599997       1.77536457E-08
  -13.3500004       5.48781731E-09
  -13.3400002      -9.90866855E-09
  -13.3299999      -2.55321222E-08
  -13.3199997      -3.80697571E-08
  -13.3100004      -4.45462156E-08
  -13.3000002      -4.30610072E-08
  -13.2900000      -3.33223156E-08
  -13.2799997      -1.68219874E-08
  -13.2700005       3.42359985E-09
  -13.2600002       2.35279050E-08
  -13.2500000       3.96354984E-08
  -13.2399998       4.88428959E-08
  -13.2299995       4.98894970E-08
  -13.2200003       4.34188152E-08
  -13.2100000       3.17172422E-08
  -13.1999998       1.79839752E-08
  -13.1899996       5.32709787E-09
  -13.1800003      -4.22237578E-09
  -13.1700001      -1.03669811E-08
  -13.1599998      -1.46303112E-08
  -13.1499996      -1.97892760E-08
  -13.1400003      -2.87598994E-08
  -13.1300001      -4.32329728E-08
  -13.1199999      -6.24784136E-08
  -13.1099997      -8.27470004E-08
  -13.1000004      -9.75843051E-08
  -13.0900002      -9.91429587E-08
  -13.0799999      -8.02936313E-08
  -13.0699997      -3.70637459E-08
  -13.0600004       2.92466176E-08
  -13.0500002       1.10940732E-07
  -13.0400000       1.94297598E-07
  -13.0299997       2.61615526E-07
  -13.0200005       2.94685094E-07
  -13.0100002       2.79025642E-07
  -13.0000000       2.07937745E-07
  -12.9899998       8.53402682E-08
  -12.9799995      -7.34652303E-08
  -12.9700003      -2.43529399E-07
  -12.9600000      -3.94362417E-07
  -12.9499998      -4.95687175E-07
  -12.9399996      -5.23663118E-07
  -12.9300003      -4.66210224E-07
  -12.9200001      -3.26182004E-07
  -12.9099998      -1.21586652E-07
  -12.8999996       1.17278169E-07
  -12.8900003       3.53216620E-07
  -12.8800001       5.48878972E-07
  -12.8699999       6.73379759E-07
  -12.8599997       7.07380991E-07
  -12.8500004       6.45608793E-07
  -12.8400002       4.96493954E-07
  -12.8299999       2.79289679E-07
  -12.8199997       1.97059613E-08
  -12.8100004      -2.54657806E-07
  -12.8000002      -5.17836895E-07
  -12.7900000      -7.47219190E-07
  -12.7799997      -9.23357845E-07
  -12.7700005      -1.02851595E-06
  -12.7600002      -1.04509706E-06
  -12.7500000      -9.55273208E-07
  -12.7399998      -7.42822863E-07
  -12.7299995      -3.97472803E-07
  -12.7200003       7.88206620E-08
  -12.7100000       6.65197376E-07
  -12.6999998       1.31684612E-06
  -12.6899996       1.96373162E-06
  -12.6800003       2.51466463E-06
  -12.6700001       2.86720228E-06
  -12.6599998       2.92251252E-06
  -12.6499996       2.60299453E-06
  -12.6400003       1.86941497E-06
  -12.6300001       7.34125138E-07
  -12.6199999      -7.32714454E-07
  -12.6099997      -2.40570853E-06
  -12.6000004      -4.11571727E-06
  -12.5900002      -5.66866947E-06
  -12.5799999      -6.86849580E-06
  -12.5699997      -7.54039365E-06
  -12.5600004      -7.55046722E-06
  -12.5500002      -6.81904203E-06
  -12.5400000      -5.32620516E-06
  -12.5299997      -3.11009262E-06
  -12.5200005      -2.60111022E-07
  -12.5100002       3.09216534E-06
  -12.5000000       6.78124616E-06
  -12.4899998       1.06130428E-05
  -12.4799995       1.43666703E-05
  -12.4700003       1.77936490E-05
  -12.4600000       2.06172026E-05
  -12.4499998       2.25344484E-05
  -12.4399996       2.32245220E-05
  -12.4300003       2.23639290E-05
  -12.4200001       1.96486617E-05
  -12.4099998       1.48202616E-05
  -12.3999996       7.69174767E-06
  -12.3900003      -1.83181328E-06
  -12.3800001      -1.37422794E-05
  -12.3699999      -2.79293909E-05
  -12.3599997      -4.41936791E-05
  -12.3500004      -6.22680382E-05
  -12.3400002      -8.18425760E-05
  -12.3299999      -1.02586222E-04
  -12.3199997      -1.24159997E-04
  -12.3100004      -1.46216131E-04
  -12.3000002      -1.68384984E-04
  -12.2900000      -1.90251070E-04
  -12.2799997      -2.11323757E-04
  -12.2700005      -2.31014812E-04
  -12.2600002      -2.48621393E-04
  -12.2500000      -2.63335154E-04
  -12.2399998      -2.74260936E-04
  -12.2299995      -2.80461245E-04
  -12.2200003      -2.81009852E-04
  -12.2100000      -2.75052123E-04
  -12.1999998      -2.61859765E-04
  -12.1899996      -2.40876296E-04
  -12.1800003      -2.11744089E-04
  -12.1700001      -1.74317174E-04
  -12.1599998      -1.28655898E-04
  -12.1499996      -7.50131294E-05
  -12.1400003      -1.38153382E-05
  -12.1300001       5.43539390E-05
  -12.1199999       1.28766667E-04
  -12.1099997       2.08557190E-04
  -12.1000004       2.92727986E-04
  -12.0900002       3.80153477E-04
  -12.0799999       4.69589722E-04
  -12.0699997       5.59698732E-04
  -12.0600004       6.49072696E-04
  -12.0500002       7.36277492E-04
  -12.0400000       8.19894776E-04
  -12.0299997       8.98566388E-04
  -12.0200005       9.71027941E-04
  -12.0100002       1.03613501E-03
  -12.0000000       1.09286897E-03
  -11.9899998       1.14033790E-03
  -11.9799995       1.17775332E-03
  -11.9700003       1.20441255E-03
  -11.9600000       1.21968135E-03
  -11.9499998       1.22297346E-03
  -11.9399996       1.21374964E-03
  -11.9300003       1.19151978E-03
  -11.9200001       1.15585537E-03
  -11.9099998       1.10640598E-03
  -11.8999996       1.04291481E-03
  -11.8900003       9.65228886E-04
  -11.8800001       8.73303332E-04
  -11.8699999       7.67205958E-04
  -11.8599997       6.47107256E-04
  -11.8500004       5.13281964E-04
  -11.8400002       3.66102409E-04
  -11.8299999       2.06048469E-04
  -11.8199997       3.37200108E-05
  -11.8100004      -1.50153457E-04
  -11.8000002      -3.44685221E-04
  -11.7900000      -5.48823096E-04
  -11.7799997      -7.61334086E-04
  -11.7700005      -9.80808516E-04
  -11.7600002      -1.20567437E-03
  -11.7500000      -1.43420277E-03
  -11.7399998      -1.66454853E-03
  -11.7299995      -1.89476064E-03
  -11.7200003      -2.12281221E-03
  -11.7100000      -2.34660855E-03
  -11.6999998      -2.56399950E-03
  -11.6899996      -2.77277804E-03
  -11.6800003      -2.97068874E-03
  -11.6700001      -3.15543264E-03
  -11.6599998      -3.32468445E-03
  -11.6499996      -3.47612519E-03
  -11.6400003      -3.60747473E-03
  -11.6300001      -3.71654308E-03
  -11.6199999      -3.80127714E-03
  -11.6099997      -3.85980913E-03
  -11.6000004      -3.89048317E-03
  -11.5900002      -3.89187690E-03
  -11.5799999      -3.86281335E-03
  -11.5699997      -3.80234164E-03
  -11.5600004      -3.70971486E-03
  -11.5500002      -3.58438538E-03
  -11.5400000      -3.42597417E-03
  -11.5299997      -3.23425489E-03
  -11.5200005      -3.00916331E-03
  -11.5100002      -2.75079394E-03
  -11.5000000      -2.45939870E-03
  -11.4899998      -2.13540858E-03
  -11.4799995      -1.77941844E-03
  -11.4700003      -1.39218720E-03
  -11.4600000      -9.74618772E-04
  -11.4499998      -5.27745229E-04
  -11.4399996      -5.27004413E-05
  -11.4300003       4.49287880E-04
  -11.4200001       9.76910000E-04
  -11.4099998       1.52876205E-03
  -11.3999996       2.10333965E-03
  -11.3900003       2.69899657E-03
  -11.3800001       3.31392582E-03
  -11.3699999       3.94613482E-03
  -11.3599997       4.59342031E-03
  -11.3500004       5.25336061E-03
  -11.3400002       5.92334382E-03
  -11.3299999       6.60057180E-03
  -11.3199997       7.28211226E-03
  -11.3100004       7.96493609E-03
  -11.3000002       8.64596665E-03
  -11.2900000       9.32213664E-03
  -11.2799997       9.99043137E-03
  -11.2700005       1.06479302E-02
  -11.2600002       1.12918550E-02
  -11.2500000       1.19196139E-02
  -11.2399998       1.25288079E-02
  -11.2299995       1.31173003E-02
  -11.2200003       1.36832055E-02
  -11.2100000       1.42249372E-02
  -11.1999998       1.47411712E-02
  -11.1899996       1.52308745E-02
  -11.1800003       1.56932790E-02
  -11.1700001       1.61278434E-02
  -11.1599998       1.65342093E-02
  -11.1499996       1.69121884E-02
  -11.1400003       1.72616690E-02
  -11.1300001       1.75826196E-02
  -11.1199999       1.78750269E-02
  -11.1099997       1.81389004E-02
  -11.1000004       1.83742326E-02
  -11.0900002       1.85810030E-02
  -11.0799999       1.87591799E-02
  -11.0699997       1.89087316E-02
  -11.0600004       1.90296564E-02
  -11.0500002       1.91219710E-02
  -11.0400000       1.91857498E-02
  -11.0299997       1.92211438E-02
  -11.0200005       1.92284118E-02
  -11.0100002       1.92079023E-02
  -11.0000000       1.91601105E-02
  -10.9899998       1.90856811E-02
  -10.9799995       1.89853609E-02
  -10.9700003       1.88600644E-02
  -10.9600000       1.87108032E-02
  -10.9499998       1.85387060E-02
  -10.9399996       1.83449965E-02
  -10.9300003       1.81309395E-02
  -10.9200001       1.78978741E-02
  -10.9099998       1.76471788E-02
  -10.8999996       1.73802637E-02
  -10.8900003       1.70985218E-02
  -10.8800001       1.68033615E-02
  -10.8699999       1.64961386E-02
  -10.8599997       1.61781050E-02
  -10.8500004       1.58504061E-02
  -10.8400002       1.55139910E-02
  -10.8299999       1.51696010E-02
  -10.8199997       1.48177091E-02
  -10.8100004       1.44585157E-02
  -10.8000002       1.40919844E-02
  -10.7900000       1.37178069E-02
  -10.7799997       1.33354813E-02
  -10.7700005       1.29443621E-02
  -10.7600002       1.25437165E-02
  -10.7500000       1.21327667E-02
  -10.7399998       1.17107751E-02
  -10.7299995       1.12770749E-02
  -10.7200003       1.08311325E-02
  -10.7100000       1.03725623E-02
  -10.6999998       9.90117341E-03
  -10.6899996       9.41699091E-03
  -10.6800003       8.92029703E-03
  -10.6700001       8.41160491E-03
  -10.6599998       7.89171457E-03
  -10.6499996       7.36165373E-03
  -10.6400003       6.82274811E-03
  -10.6300001       6.27650833E-03
  -10.6199999       5.72467502E-03
  -10.6099997       5.16916253E-03
  -10.6000004       4.61201556E-03
  -10.5900002       4.05538129E-03
  -10.5799999       3.50147695E-03
  -10.5699997       2.95253168E-03
  -10.5600004       2.41077552E-03
  -10.5500002       1.87836855E-03
  -10.5400000       1.35740836E-03
  -10.5299997       8.49858043E-04
  -10.5200005       3.57505516E-04
  -10.5100002      -1.18030090E-04
  -10.5000000      -5.75348269E-04
  -10.4899998      -1.01330807E-03
  -10.4799995      -1.43099797E-03
  -10.4700003      -1.82776747E-03
  -10.4600000      -2.20322842E-03
  -10.4499998      -2.55720946E-03
  -10.4399996      -2.88975844E-03
  -10.4300003      -3.20109143E-03
  -10.4200001      -3.49156442E-03
  -10.4099998      -3.76163935E-03
  -10.3999996      -4.01185034E-03
  -10.3900003      -4.24275873E-03
  -10.3800001      -4.45496337E-03
  -10.3699999      -4.64905519E-03
  -10.3599997      -4.82562510E-03
  -10.3500004      -4.98526590E-03
  -10.3400002      -5.12857828E-03
  -10.3299999      -5.25618484E-03
  -10.3199997      -5.36873657E-03
  -10.3100004      -5.46693429E-03
  -10.3000002      -5.55153703E-03
  -10.2900000      -5.62332943E-03
  -10.2799997      -5.68315573E-03
  -10.2700005      -5.73186344E-03
  -10.2600002      -5.77029120E-03
  -10.2500000      -5.79922600E-03
  -10.2399998      -5.81938913E-03
  -10.2299995      -5.83142182E-03
  -10.2200003      -5.83585631E-03
  -10.2100000      -5.83316851E-03
  -10.1999998      -5.82379336E-03
  -10.1899996      -5.80817740E-03
  -10.1800003      -5.78678772E-03
  -10.1700001      -5.76020870E-03
  -10.1599998      -5.72909089E-03
  -10.1499996      -5.69415838E-03
  -10.1400003      -5.65620093E-03
  -10.1300001      -5.61597245E-03
  -10.1199999      -5.57414209E-03
  -10.1099997      -5.53121138E-03
  -10.1000004      -5.48751652E-03
  -10.0900002      -5.44309383E-03
  -10.0799999      -5.39772352E-03
  -10.0699997      -5.35093294E-03
  -10.0600004      -5.30203199E-03
  -10.0500002      -5.25011774E-03
  -10.0400000      -5.19420858E-03
  -10.0299997      -5.13322651E-03
  -10.0200005      -5.06614242E-03
  -10.0100002      -4.99200588E-03
  -10.0000000      -4.90997639E-03
  -9.98999977      -4.81938757E-03
  -9.97999954      -4.71973093E-03
  -9.97000027      -4.61069541E-03
  -9.96000004      -4.49203653E-03
  -9.94999981      -4.36359365E-03
  -9.93999958      -4.22518980E-03
  -9.93000031      -4.07652836E-03
  -9.92000008      -3.91720282E-03
  -9.90999985      -3.74658406E-03
  -9.89999962      -3.56387300E-03
  -9.89000034      -3.36804008E-03
  -9.88000011      -3.15789157E-03
  -9.86999989      -2.93215038E-03
  -9.85999966      -2.68943864E-03
  -9.85000038      -2.42837681E-03
  -9.84000015      -2.14769389E-03
  -9.82999992      -1.84618658E-03
  -9.81999969      -1.52289809E-03
  -9.81000042      -1.17702631E-03
  -9.80000019      -8.08083219E-04
  -9.78999996      -4.15802439E-04
  -9.77999973      -1.16925598E-07
  -9.77000046       4.38817573E-04
  -9.76000023       9.00719489E-04
  -9.75000000       1.38526643E-03
  -9.73999977       1.89210684E-03
  -9.72999954       2.42083520E-03
  -9.72000027       2.97101913E-03
  -9.71000004       3.54212825E-03
  -9.69999981       4.13335906E-03
  -9.68999958       4.74358676E-03
  -9.68000031       5.37132425E-03
  -9.67000008       6.01455988E-03
  -9.65999985       6.67087501E-03
  -9.64999962       7.33737601E-03
  -9.64000034       8.01088382E-03
  -9.63000011       8.68801493E-03
  -9.61999989       9.36536305E-03
  -9.60999966       1.00396592E-02
  -9.60000038       1.07078385E-02
  -9.59000015       1.13672111E-02
  -9.57999992       1.20155374E-02
  -9.56999969       1.26510439E-02
  -9.56000042       1.32724121E-02
  -9.55000019       1.38787916E-02
  -9.53999996       1.44696785E-02
  -9.52999973       1.50448615E-02
  -9.52000046       1.56043330E-02
  -9.51000023       1.61481425E-02
  -9.50000000       1.66763421E-02
  -9.48999977       1.71888713E-02
  -9.47999954       1.76855382E-02
  -9.47000027       1.81660783E-02
  -9.46000004       1.86300669E-02
  -9.44999981       1.90770663E-02
  -9.43999958       1.95066202E-02
  -9.43000031       1.99182983E-02
  -9.42000008       2.03117281E-02
  -9.40999985       2.06865631E-02
  -9.39999962       2.10425090E-02
  -9.39000034       2.13792529E-02
  -9.38000011       2.16964409E-02
  -9.36999989       2.19936240E-02
  -9.35999966       2.22702343E-02
  -9.35000038       2.25255620E-02
  -9.34000015       2.27587353E-02
  -9.32999992       2.29686573E-02
  -9.31999969       2.31540278E-02
  -9.31000042       2.33133361E-02
  -9.30000019       2.34448444E-02
  -9.28999996       2.35466752E-02
  -9.27999973       2.36168671E-02
  -9.27000046       2.36533657E-02
  -9.26000023       2.36541443E-02
  -9.25000000       2.36173142E-02
  -9.23999977       2.35410333E-02
  -9.22999954       2.34236438E-02
  -9.22000027       2.32636072E-02
  -9.21000004       2.30594929E-02
  -9.19999981       2.28101090E-02
  -9.18999958       2.25143898E-02
  -9.18000031       2.21714452E-02
  -9.17000008       2.17806697E-02
  -9.15999985       2.13417131E-02
  -9.14999962       2.08544806E-02
  -9.14000034       2.03192420E-02
  -9.13000011       1.97365656E-02
  -9.11999989       1.91073585E-02
  -9.10999966       1.84328035E-02
  -9.10000038       1.77144464E-02
  -9.09000015       1.69541519E-02
  -9.07999992       1.61542390E-02
  -9.06999969       1.53173441E-02
  -9.06000042       1.44465640E-02
  -9.05000019       1.35453036E-02
  -9.03999996       1.26174167E-02
  -9.02999973       1.16670532E-02
  -9.02000046       1.06985662E-02
  -9.01000023       9.71650612E-03
  -9.00000000       8.72571021E-03
  -8.98999977       7.73114851E-03
  -8.97999954       6.73799589E-03
  -8.97000027       5.75166801E-03
  -8.96000004       4.77790274E-03
  -8.94999981       3.82255414E-03
  -8.93999958       2.89173075E-03
  -8.93000031       1.99165498E-03
  -8.92000008       1.12853723E-03
  -8.90999985       3.08627466E-04
  -8.89999962      -4.61860735E-04
  -8.89000034      -1.17677951E-03
  -8.88000011      -1.82996399E-03
  -8.86999989      -2.41525541E-03
  -8.85999966      -2.92633497E-03
  -8.85000038      -3.35687213E-03
  -8.84000015      -3.70044052E-03
  -8.82999992      -3.95060517E-03
  -8.81999969      -4.10100957E-03
  -8.81000042      -4.14549233E-03
  -8.80000019      -4.07808833E-03
  -8.78999996      -3.89318587E-03
  -8.77999973      -3.58554791E-03
  -8.77000046      -3.15024145E-03
  -8.76000023      -2.58280640E-03
  -8.75000000      -1.87904085E-03
  -8.73999977      -1.03523536E-03
  -8.72999954      -4.80421768E-05
  -8.72000027       1.08538626E-03
  -8.71000004       2.36731488E-03
  -8.69999981       3.79934465E-03
  -8.68999958       5.38232224E-03
  -8.68000031       7.11613288E-03
  -8.67000008       8.99978634E-03
  -8.65999985       1.10312738E-02
  -8.64999962       1.32078081E-02
  -8.64000034       1.55256009E-02
  -8.63000011       1.79801974E-02
  -8.61999989       2.05663312E-02
  -8.60999966       2.32784245E-02
  -8.60000038       2.61101481E-02
  -8.59000015       2.90547945E-02
  -8.57999992       3.21052782E-02
  -8.56999969       3.52540240E-02
  -8.56000042       3.84929925E-02
  -8.55000019       4.18138504E-02
  -8.53999996       4.52080220E-02
  -8.52999973       4.86665703E-02
  -8.52000046       5.21806180E-02
  -8.51000023       5.57412468E-02
  -8.50000000       5.93395494E-02
  -8.48999977       6.29667789E-02
  -8.47999954       6.66141808E-02
  -8.47000027       7.02731758E-02
  -8.46000004       7.39353225E-02
  -8.44999981       7.75922015E-02
  -8.43999958       8.12358111E-02
  -8.43000031       8.48585069E-02
  -8.42000008       8.84528756E-02
  -8.40999985       9.20123905E-02
  -8.39999962       9.55305472E-02
  -8.39000034       9.90016460E-02
  -8.38000011      0.102420405    
  -8.36999989      0.105781808    
  -8.35999966      0.109081216    
  -8.35000038      0.112314388    
  -8.34000015      0.115477256    
  -8.32999992      0.118566565    
  -8.31999969      0.121579371    
  -8.31000042      0.124513112    
  -8.30000019      0.127365783    
  -8.28999996      0.130135193    
  -8.27999973      0.132819444    
  -8.27000046      0.135416269    
  -8.26000023      0.137923077    
  -8.25000000      0.140336901    
  -8.23999977      0.142654419    
  -8.22999954      0.144872352    
  -8.22000027      0.146987259    
  -8.21000004      0.148996040    
  -8.19999981      0.150895566    
  -8.18999958      0.152683228    
  -8.18000031      0.154355973    
  -8.17000008      0.155910820    
  -8.15999985      0.157344505    
  -8.14999962      0.158653304    
  -8.14000034      0.159833565    
  -8.13000011      0.160881132    
  -8.11999989      0.161792040    
  -8.10999966      0.162562519    
  -8.10000038      0.163188964    
  -8.09000015      0.163667947    
  -8.07999992      0.163996175    
  -8.06999969      0.164170340    
  -8.06000042      0.164186895    
  -8.05000019      0.164042324    
  -8.03999996      0.163732752    
  -8.02999973      0.163254648    
  -8.02000046      0.162604660    
  -8.01000023      0.161779985    
  -8.00000000      0.160778388    
  -7.98999977      0.159598246    
  -7.98000002      0.158238932    
  -7.96999979      0.156700179    
  -7.96000004      0.154982433    
  -7.94999981      0.153086692    
  -7.94000006      0.151014268    
  -7.92999983      0.148767591    
  -7.92000008      0.146349505    
  -7.90999985      0.143763587    
  -7.90000010      0.141014561    
  -7.88999987      0.138107866    
  -7.88000011      0.135049701    
  -7.86999989      0.131847218    
  -7.86000013      0.128507674    
  -7.84999990      0.125038981    
  -7.84000015      0.121449284    
  -7.82999992      0.117746979    
  -7.82000017      0.113941222    
  -7.80999994      0.110041343    
  -7.80000019      0.106057592    
  -7.78999996      0.102000579    
  -7.78000021       9.78820696E-02
  -7.76999998       9.37139690E-02
  -7.76000023       8.95085409E-02
  -7.75000000       8.52783322E-02
  -7.73999977       8.10358375E-02
  -7.73000002       7.67933056E-02
  -7.71999979       7.25628659E-02
  -7.71000004       6.83568269E-02
  -7.69999981       6.41871765E-02
  -7.69000006       6.00665025E-02
  -7.67999983       5.60077466E-02
  -7.67000008       5.20236865E-02
  -7.65999985       4.81272936E-02
  -7.65000010       4.43313345E-02
  -7.63999987       4.06480953E-02
  -7.63000011       3.70890088E-02
  -7.61999989       3.36649530E-02
  -7.61000013       3.03855352E-02
  -7.59999990       2.72602681E-02
  -7.59000015       2.42978446E-02
  -7.57999992       2.15069894E-02
  -7.57000017       1.88958682E-02
  -7.55999994       1.64723266E-02
  -7.55000019       1.42437872E-02
  -7.53999996       1.22167924E-02
  -7.53000021       1.03968866E-02
  -7.51999998       8.78834538E-03
  -7.51000023       7.39446562E-03
  -7.50000000       6.21764874E-03
  -7.48999977       5.25962375E-03
  -7.48000002       4.52112919E-03
  -7.46999979       4.00296086E-03
  -7.46000004       3.70464870E-03
  -7.44999981       3.62544297E-03
  -7.44000006       3.76313250E-03