  -16.0000000       0.00000000    
  -15.9899998       0.00000000    
  -15.9799995       0.00000000    
  -15.9700003       0.00000000    
  -15.9600000       0.00000000    
  -15.9499998       0.00000000    
  -15.9399996       0.00000000    
  -15.9300003       0.00000000    
  -15.9200001       0.00000000    
  -15.9099998       0.00000000    
  -15.8999996       0.00000000    
  -15.8900003       0.00000000    
  -15.8800001       0.00000000    
  -15.8699999      -1.10184098E-41
  -15.8599997      -1.27338794E-40
  -15.8500004       4.35939748E-40
  -15.8400002       2.28932863E-38
  -15.8299999       2.85535705E-37
  -15.8199997       2.28521332E-36
  -15.8100004       1.38188186E-35
  -15.8000002       6.76217417E-35
  -15.7900000       2.77786167E-34
  -15.7799997       9.79086234E-34
  -15.7700005       2.99856927E-33
  -15.7600002       8.02163516E-33
  -15.7500000       1.86859535E-32
  -15.7399998       3.72790695E-32
  -15.7299995       6.07089171E-32
  -15.7200003       6.83732343E-32
  -15.7100000       5.87172469E-34
  -15.6999998      -2.68005777E-31
  -15.6899996      -9.38603275E-31
  -15.6800003      -2.23194592E-30
  -15.6700001      -4.18565740E-30
  -15.6599998      -6.22886557E-30
  -15.6499996      -6.56035235E-30
  -15.6400003      -1.63645346E-30
  -15.6300001       1.34538951E-29
  -15.6199999       4.24857708E-29
  -15.6099997       8.23502246E-29
  -15.6000004       1.14617375E-28
  -15.5900002       9.89994496E-29
  -15.5799999      -2.09418972E-29
  -15.5699997      -2.85945563E-28
  -15.5600004      -6.55924650E-28
  -15.5500002      -9.30877053E-28
  -15.5400000      -7.24480967E-28
  -15.5299997       3.97120567E-28
  -15.5200005       2.51153032E-27
  -15.5100002       4.72185984E-27
  -15.5000000       4.70410662E-27
  -15.4899998      -7.96780522E-28
  -15.4799995      -1.36166822E-26
  -15.4700003      -2.97963765E-26
  -15.4600000      -3.50633142E-26
  -15.4499998      -5.10197177E-27
  -15.4399996       8.23404816E-26
  -15.4300003       2.18980392E-25
  -15.4200001       3.27768797E-25
  -15.4099998       2.41724903E-25
  -15.3999996      -2.52545388E-25
  -15.3900003      -1.25841369E-24
  -15.3800001      -2.49955074E-24
  -15.3699999      -3.05064522E-24
  -15.3599997      -1.33738843E-24
  -15.3500004       4.22587225E-24
  -15.3400002       1.37161959E-23
  -15.3299999       2.35700989E-23
  -15.3199997       2.50292565E-23
  -15.3100004       5.33398201E-24
  -15.3000002      -4.59267278E-23
  -15.2900000      -1.24518147E-22
  -15.2799997      -1.96763253E-22
  -15.2700005      -1.91979058E-22
  -15.2600002      -1.72038667E-23
  -15.2500000       3.91878279E-22
  -15.2399998       9.83817642E-22
  -15.2299995       1.49748580E-21
  -15.2200003       1.42881314E-21
  -15.2100000       1.51610761E-22
  -15.1999998      -2.73315378E-21
  -15.1899996      -6.84143636E-21
  -15.1800003      -1.04442756E-20
  -15.1700001      -1.03120899E-20
  -15.1599998      -2.49758260E-21
  -15.1499996       1.55588731E-20
  -15.1400003       4.17844083E-20
  -15.1300001       6.62567406E-20
  -15.1199999       7.02817756E-20
  -15.1099997       3.05925673E-20
  -15.1000004      -6.93497821E-20
  -15.0900002      -2.21932067E-19
  -15.0799999      -3.77762477E-19
  -15.0699997      -4.39185136E-19
  -15.0600004      -2.79040410E-19
  -15.0500002       2.05151933E-19
  -15.0400000       1.00513270E-18
  -15.0299997       1.91043546E-18
  -15.0200005       2.46339412E-18
  -15.0100002       2.02657492E-18
  -15.0000000       1.40154478E-20
  -14.9899998      -3.71958182E-18
  -14.9799995      -8.43556638E-18
  -14.9700003      -1.22305188E-17
  -14.9600000      -1.22057224E-17
  -14.9499998      -5.33441374E-18
  -14.9399996       9.93866770E-18
  -14.9300003       3.17170197E-17
  -14.9200001       5.31111595E-17
  -14.9099998       6.23009210E-17
  -14.8999996       4.53126132E-17
  -14.8900003      -8.07227279E-18
  -14.8800001      -9.62536147E-17
  -14.8699999      -1.98379735E-16
  -14.8599997      -2.71867003E-16
  -14.8500004      -2.59469062E-16
  -14.8400002      -1.08555531E-16
  -14.8299999       1.99282725E-16
  -14.8199997       6.16633051E-16
  -14.8100004       1.01122266E-15
  -14.8000002       1.17675619E-15
  -14.7900000       8.86721470E-16
  -14.7799997      -8.88359387E-18
  -14.7700005      -1.46498986E-15
  -14.7600002      -3.14489971E-15
  -14.7500000      -4.40462977E-15
  -14.7399998      -4.41218785E-15
  -14.7299995      -2.42294007E-15
  -14.7200003       1.82911852E-15
  -14.7100000       7.73986943E-15
  -14.6999998       1.36222041E-14
  -14.6899996       1.68645395E-14
  -14.6800003       1.45873354E-14
  -14.6700001       4.76640855E-15
  -14.6599998      -1.24320135E-14
  -14.6499996      -3.35826337E-14
  -14.6400003      -5.17984296E-14
  -14.6300001      -5.79121305E-14
  -14.6199999      -4.32134153E-14
  -14.6099997      -3.32849855E-15
  -14.6000004       5.78550405E-14
  -14.5900002       1.25840161E-13
  -14.5799999       1.76460233E-13
  -14.5699997       1.81214717E-13
  -14.5600004       1.16791776E-13
  -14.5500002      -2.32518896E-14
  -14.5400000      -2.18427788E-13
  -14.5299997      -4.17614565E-13
  -14.5200005      -5.45872267E-13
  -14.5100002      -5.23480348E-13
  -14.5000000      -2.94700896E-13
  -14.4899998       1.40982671E-13
  -14.4799995       7.06326111E-13
  -14.4700003       1.24450743E-12
  -14.4600000       1.54675209E-12
  -14.4499998       1.41002455E-12
  -14.4399996       7.14227397E-13
  -14.4300003      -5.02827435E-13
  -14.4200001      -2.00139167E-12
  -14.4099998      -3.35394256E-12
  -14.3999996      -4.03245623E-12
  -14.3900003      -3.56194393E-12
  -14.3800001      -1.70683151E-12
  -14.3699999       1.36617670E-12
  -14.3599997       5.01463844E-12
  -14.3500004       8.19059837E-12
  -14.3400002       9.67439063E-12
  -14.3299999       8.43957369E-12
  -14.3199997       4.06050367E-12
  -14.3100004      -2.96594086E-12
  -14.3000002      -1.11207744E-11
  -14.2900000      -1.80809256E-11
  -14.2799997      -2.12680255E-11
  -14.2700005      -1.86298425E-11
  -14.2600002      -9.45166341E-12
  -14.2500000       5.06717411E-12
  -14.2399998       2.17220790E-11
  -14.2299995       3.58466971E-11
  -14.2200003       4.24606773E-11
  -14.2100000       3.77852541E-11
  -14.1999998       2.07117153E-11
  -14.1899996      -6.26564425E-12
  -14.1800003      -3.70706035E-11
  -14.1700001      -6.32101732E-11
  -14.1599998      -7.59410382E-11
  -14.1499996      -6.89360374E-11
  -14.1400003      -4.06920678E-11
  -14.1300001       4.13685752E-12
  -14.1199999       5.51020132E-11
  -14.1099997       9.81972836E-11
  -14.1000004       1.19579888E-10
  -14.0900002       1.09838402E-10
  -14.0799999       6.75463158E-11
  -14.0699997       8.57842334E-13
  -14.0600004      -7.36455272E-11
  -14.0500002      -1.34907210E-10
  -14.0400000      -1.63294975E-10
  -14.0299997      -1.46851017E-10
  -14.0200005      -8.59633684E-11
  -14.0100002       5.23767574E-12
  -14.0000000       1.01639974E-10
  -13.9899998       1.73728754E-10
  -13.9799995       1.96395178E-10
  -13.9700003       1.57453162E-10
  -13.9600000       6.31110442E-11
  -13.9499998      -6.17089504E-11
  -13.9399996      -1.78993514E-10
  -13.9300003      -2.48145227E-10
  -13.9200001      -2.38688236E-10
  -13.9099998      -1.41441692E-10
  -13.8999996       2.55380508E-11
  -13.8900003       2.18750407E-10
  -13.8800001       3.79207499E-10
  -13.8699999       4.48486165E-10
  -13.8599997       3.86755905E-10
  -13.8500004       1.87548463E-10
  -13.8400002      -1.15472971E-10
  -13.8299999      -4.52704818E-10
  -13.8199997      -7.33699879E-10
  -13.8100004      -8.69988803E-10
  -13.8000002      -7.99899869E-10
  -13.7900000      -5.08579845E-10
  -13.7799997      -3.72710994E-11
  -13.7700005       5.21620080E-10
  -13.7600002       1.04337250E-09
  -13.7500000       1.39962830E-09
  -13.7399998       1.48988766E-09
  -13.7299995       1.26775401E-09
  -13.7200003       7.54951934E-10
  -13.7100000       3.91147462E-11
  -13.6999998      -7.44442397E-10
  -13.6899996      -1.44249190E-09
  -13.6800003      -1.91771266E-09
  -13.6700001      -2.07813899E-09
  -13.6599998      -1.89485494E-09
  -13.6499996      -1.40412704E-09
  -13.6400003      -6.94323210E-10
  -13.6300001       1.17954507E-10
  -13.6199999       9.15057197E-10
  -13.6099997       1.60107128E-09
  -13.6000004       2.11406115E-09
  -13.5900002       2.42552400E-09
  -13.5799999       2.52880472E-09
  -13.5699997       2.42257681E-09
  -13.5600004       2.09691442E-09
  -13.5500002       1.52905921E-09
  -13.5400000       6.92747415E-10
  -13.5299997      -4.19918073E-10
  -13.5200005      -1.77042792E-09
  -13.5100002      -3.24937566E-09
  -13.5000000      -4.66670658E-09
  -13.4899998      -5.76490455E-09
  -13.4799995      -6.25794971E-09
  -13.4700003      -5.89105076E-09
  -13.4600000      -4.50939330E-09
  -13.4499998      -2.11852114E-09
  -13.4399996       1.08083487E-09
  -13.4300003       4.69686690E-09
  -13.4200001       8.19487411E-09
  -13.4099998       1.09831779E-08
  -13.3999996       1.25206991E-08
  -13.3900003       1.24232216E-08
  -13.3800001       1.05443432E-08
  -13.3699999       7.01148428E-09
  -13.3599997       2.20906915E-09
  -13.3500004      -3.28661343E-09
  -13.3400002      -8.80549589E-09
  -13.3299999      -1.36886191E-08
  -13.3199997      -1.73772339E-08
  -13.3100004      -1.94666505E-08
  -13.3000002      -1.97202592E-08
  -13.2900000      -1.80490840E-08
  -13.2799997      -1.44776688E-08
  -13.2700005      -9.11803433E-09
  -13.2600002      -2.16903873E-09
  -13.2500000       6.04960260E-09
  -13.2399998       1.50420423E-08
  -13.2299995       2.40812881E-08
  -13.2200003       3.21906590E-08
  -13.2100000       3.81910574E-08
  -13.1999998       4.08316758E-08
  -13.1899996       3.89986425E-08
  -13.1800003       3.19677440E-08
  -13.1700001       1.96487555E-08
  -13.1599998       2.75642620E-09
  -13.1499996      -1.71491941E-08
  -13.1400003      -3.77856786E-08
  -13.1300001      -5.64317872E-08
  -13.1199999      -7.03329022E-08
  -13.1099997      -7.71524498E-08
  -13.1000004      -7.53800791E-08
  -13.0900002      -6.46127134E-08
  -13.0799999      -4.56485765E-08
  -13.0699997      -2.03763051E-08
  -13.0600004       8.51355253E-09
  -13.0500002       3.79329599E-08
  -13.0400000       6.48229701E-08
  -13.0299997       8.65304628E-08
  -13.0200005       1.01063257E-07
  -13.0100002       1.07207121E-07
  -13.0000000       1.04513688E-07
  -12.9899998       9.32062747E-08
  -12.9799995       7.40619868E-08
  -12.9700003       4.83164726E-08
  -12.9600000       1.76102812E-08
  -12.9499998      -1.60182250E-08
  -12.9399996      -5.01637452E-08
  -12.9300003      -8.21285369E-08
  -12.9200001      -1.09115575E-07
  -12.9099998      -1.28537650E-07
  -12.8999996      -1.38420589E-07
  -12.8900003      -1.37822028E-07
  -12.8800001      -1.27159538E-07
  -12.8699999      -1.08321998E-07
  -12.8599997      -8.44955181E-08
  -12.8500004      -5.96464247E-08
  -12.8400002      -3.77280749E-08
  -12.8299999      -2.17247997E-08
  -12.8199997      -1.27280426E-08
  -12.8100004      -9.24580856E-09
  -12.8000002      -6.97835700E-09
  -12.7900000       8.59356197E-10
  -12.7799997       2.25723280E-08
  -12.7700005       6.65072193E-08
  -12.7600002       1.39226756E-07
  -12.7500000       2.43622964E-07
  -12.7399998       3.77281367E-07
  -12.7299995       5.31392459E-07
  -12.7200003       6.90448474E-07
  -12.7100000       8.32845956E-07
  -12.6999998       9.32404134E-07
  -12.6899996       9.60713805E-07
  -12.6800003       8.90090746E-07
  -12.6700001       6.96896848E-07
  -12.6599998       3.64958282E-07
  -12.6499996      -1.11197423E-07
  -12.6400003      -7.23555218E-07
  -12.6300001      -1.44849741E-06
  -12.6199999      -2.24561245E-06
  -12.6099997      -3.05763410E-06
  -12.6000004      -3.81177074E-06
  -12.5900002      -4.42263172E-06
  -12.5799999      -4.79684695E-06
  -12.5699997      -4.83943495E-06
  -12.5600004      -4.46177501E-06
  -12.5500002      -3.59076125E-06
  -12.5400000      -2.17855109E-06
  -12.5299997      -2.12211461E-07
  -12.5200005       2.27777082E-06
  -12.5100002       5.21096808E-06
  -12.5000000       8.45330032E-06
  -12.4899998       1.18166881E-05
  -12.4799995       1.50623973E-05
  -12.4700003       1.79081671E-05
  -12.4600000       2.00385530E-05
  -12.4499998       2.11180013E-05
  -12.4399996       2.08059409E-05
  -12.4300003       1.87734222E-05
  -12.4200001       1.47193396E-05
  -12.4099998       8.38719006E-06
  -12.3999996      -4.19629430E-07
  -12.3900003      -1.18239177E-05
  -12.3800001      -2.58623313E-05
  -12.3699999      -4.24763384E-05
  -12.3599997      -6.15047466E-05
  -12.3500004      -8.26805044E-05
  -12.3400002      -1.05630017E-04
  -12.3299999      -1.29875712E-04
  -12.3199997      -1.54843845E-04
  -12.3100004      -1.79873605E-04
  -12.3000002      -2.04230848E-04
  -12.2900000      -2.27124561E-04
  -12.2799997      -2.47724616E-04
  -12.2700005      -2.65183247E-04
  -12.2600002      -2.78656546E-04
  -12.2500000      -2.87326606E-04
  -12.2399998      -2.90425203E-04
  -12.2299995      -2.87256844E-04
  -12.2200003      -2.77219835E-04
  -12.2100000      -2.59828696E-04
  -12.1999998      -2.34729407E-04
  -12.1899996      -2.01718460E-04
  -12.1800003      -1.60750365E-04
  -12.1700001      -1.11948037E-04
  -12.1599998      -5.56036539E-05
  -12.1499996       7.82341795E-06
  -12.1400003       7.77147507E-05
  -12.1300001       1.53303175E-04
  -12.1199999       2.33687373E-04
  -12.1099997       3.17851285E-04
  -12.1000004       4.04681341E-04
  -12.0900002       4.92989260E-04
  -12.0799999       5.81528526E-04
  -12.0699997       6.69015164E-04
  -12.0600004       7.54147070E-04
  -12.0500002       8.35618295E-04
  -12.0400000       9.12136573E-04
  -12.0299997       9.82436584E-04
  -12.0200005       1.04529352E-03
  -12.0100002       1.09953363E-03
  -12.0000000       1.14404864E-03
  -11.9899998       1.17780431E-03
  -11.9799995       1.19985349E-03
  -11.9700003       1.20934623E-03
  -11.9600000       1.20553921E-03
  -11.9499998       1.18781242E-03
  -11.9399996       1.15567667E-03
  -11.9300003       1.10878237E-03
  -11.9200001       1.04692648E-03
  -11.9099998       9.70063207E-04
  -11.8999996       8.78298073E-04
  -11.8900003       7.71889230E-04
  -11.8800001       6.51244947E-04
  -11.8699999       5.16916858E-04
  -11.8599997       3.69589165E-04
  -11.8500004       2.10077225E-04
  -11.8400002       3.93187111E-05
  -11.8299999      -1.41621902E-04
  -11.8199997      -3.31560877E-04
  -11.8100004      -5.29190700E-04
  -11.8000002      -7.33072113E-04
  -11.7900000      -9.41645761E-04
  -11.7799997      -1.15322927E-03
  -11.7700005      -1.36602798E-03
  -11.7600002      -1.57815393E-03
  -11.7500000      -1.78763806E-03
  -11.7399998      -1.99246383E-03
  -11.7299995      -2.19058595E-03
  -11.7200003      -2.37996480E-03
  -11.7100000      -2.55858735E-03
  -11.6999998      -2.72449618E-03
  -11.6899996      -2.87580187E-03
  -11.6800003      -3.01070651E-03
  -11.6700001      -3.12751671E-03
  -11.6599998      -3.22466251E-03
  -11.6499996      -3.30068986E-03
  -11.6400003      -3.35428980E-03
  -11.6300001      -3.38429399E-03
  -11.6199999      -3.38968425E-03
  -11.6099997      -3.36959329E-03
  -11.6000004      -3.32330959E-03
  -11.5900002      -3.25026806E-03
  -11.5799999      -3.15004890E-03
  -11.5699997      -3.02236737E-03
  -11.5600004      -2.86707259E-03
  -11.5500002      -2.68413196E-03
  -11.5400000      -2.47363932E-03
  -11.5299997      -2.23580725E-03
  -11.5200005      -1.97097263E-03
  -11.5100002      -1.67960708E-03
  -11.5000000      -1.36232702E-03
  -11.4899998      -1.01990392E-03
  -11.4799995      -6.53272669E-04
  -11.4700003      -2.63534952E-04
  -11.4600000       1.48035178E-04
  -11.4499998       5.79999643E-04
  -11.4399996       1.03076838E-03
  -11.4300003       1.49862119E-03
  -11.4200001       1.98171474E-03
  -11.4099998       2.47812853E-03
  -11.3999996       2.98587116E-03
  -11.3900003       3.50292237E-03
  -11.3800001       4.02724789E-03
  -11.3699999       4.55682538E-03
  -11.3599997       5.08967089E-03
  -11.3500004       5.62384725E-03
  -11.3400002       6.15750812E-03
  -11.3299999       6.68889144E-03
  -11.3199997       7.21636321E-03
  -11.3100004       7.73841655E-03
  -11.3000002       8.25369172E-03
  -11.2900000       8.76097940E-03
  -11.2799997       9.25922114E-03
  -11.2700005       9.74750705E-03
  -11.2600002       1.02250483E-02
  -11.2500000       1.06911743E-02
  -11.2399998       1.11452872E-02
  -11.2299995       1.15868645E-02
  -11.2200003       1.20154293E-02
  -11.2100000       1.24305263E-02
  -11.1999998       1.28317447E-02
  -11.1899996       1.32186823E-02
  -11.1800003       1.35909859E-02
  -11.1700001       1.39483232E-02
  -11.1599998       1.42904017E-02
  -11.1499996       1.46169653E-02
  -11.1400003       1.49278129E-02
  -11.1300001       1.52227720E-02
  -11.1199999       1.55017255E-02
  -11.1099997       1.57645866E-02
  -11.1000004       1.60113368E-02
  -11.0900002       1.62420273E-02
  -11.0799999       1.64567921E-02
  -11.0699997       1.66558493E-02
  -11.0600004       1.68395564E-02
  -11.0500002       1.70083456E-02
  -11.0400000       1.71627812E-02
  -11.0299997       1.73035152E-02
  -11.0200005       1.74312610E-02
  -11.0100002       1.75467934E-02
  -11.0000000       1.76508557E-02
  -10.9899998       1.77441910E-02
  -10.9799995       1.78274866E-02
  -10.9700003       1.79013330E-02
  -10.9600000       1.79662257E-02
  -10.9499998       1.80225465E-02
  -10.9399996       1.80705320E-02
  -10.9300003       1.81102976E-02
  -10.9200001       1.81418173E-02
  -10.9099998       1.81649216E-02
  -10.8999996       1.81793161E-02
  -10.8900003       1.81845538E-02
  -10.8800001       1.81801077E-02
  -10.8699999       1.81653369E-02
  -10.8599997       1.81395449E-02
  -10.8500004       1.81019902E-02
  -10.8400002       1.80519763E-02
  -10.8299999       1.79888234E-02
  -10.8199997       1.79119837E-02
  -10.8100004       1.78210139E-02
  -10.8000002       1.77156776E-02
  -10.7900000       1.75959095E-02
  -10.7799997       1.74618978E-02
  -10.7700005       1.73140094E-02
  -10.7600002       1.71528589E-02
  -10.7500000       1.69792287E-02
  -10.7399998       1.67941023E-02
  -10.7299995       1.65985506E-02
  -10.7200003       1.63938403E-02
  -10.7100000       1.61812566E-02
  -10.6999998       1.59622394E-02
  -10.6899996       1.57382451E-02
  -10.6800003       1.55108282E-02
  -10.6700001       1.52815832E-02
  -10.6599998       1.50521314E-02
  -10.6499996       1.48241762E-02
  -10.6400003       1.45993829E-02
  -10.6300001       1.43794576E-02
  -10.6199999       1.41660254E-02
  -10.6099997       1.39607033E-02
  -10.6000004       1.37650250E-02
  -10.5900002       1.35804461E-02
  -10.5799999       1.34083368E-02
  -10.5699997       1.32500147E-02
  -10.5600004       1.31066740E-02
  -10.5500002       1.29794823E-02
  -10.5400000       1.28694633E-02
  -10.5299997       1.27775762E-02
  -10.5200005       1.27045969E-02
  -10.5100002       1.26511464E-02
  -10.5000000       1.26176449E-02
  -10.4899998       1.26042506E-02
  -10.4799995       1.26108751E-02
  -10.4700003       1.26371337E-02
  -10.4600000       1.26823820E-02
  -10.4499998       1.27457399E-02
  -10.4399996       1.28261102E-02
  -10.4300003       1.29222460E-02
  -10.4200001       1.30328033E-02
  -10.4099998       1.31563647E-02
  -10.3999996       1.32914986E-02
  -10.3900003       1.34367496E-02
  -10.3800001       1.35907084E-02
  -10.3699999       1.37519147E-02
  -10.3599997       1.39189512E-02
  -10.3500004       1.40903927E-02
  -10.3400002       1.42647671E-02
  -10.3299999       1.44406874E-02
  -10.3199997       1.46167297E-02
  -10.3100004       1.47915063E-02
  -10.3000002       1.49638010E-02
  -10.2900000       1.51324142E-02
  -10.2799997       1.52963074E-02
  -10.2700005       1.54546201E-02
  -10.2600002       1.56065598E-02
  -10.2500000       1.57515369E-02
  -10.2399998       1.58890989E-02
  -10.2299995       1.60188805E-02
  -10.2200003       1.61407515E-02
  -10.2100000       1.62546467E-02
  -10.1999998       1.63606666E-02
  -10.1899996       1.64591447E-02
  -10.1800003       1.65504534E-02
  -10.1700001       1.66352354E-02
  -10.1599998       1.67142432E-02
  -10.1499996       1.67883262E-02
  -10.1400003       1.68585572E-02
  -10.1300001       1.69260148E-02
  -10.1199999       1.69920065E-02
  -10.1099997       1.70579515E-02
  -10.1000004       1.71253476E-02
  -10.0900002       1.71958916E-02
  -10.0799999       1.72714312E-02
  -10.0699997       1.73539873E-02
  -10.0600004       1.74456742E-02
  -10.0500002       1.75487511E-02
  -10.0400000       1.76655110E-02
  -10.0299997       1.77983120E-02
  -10.0200005       1.79494135E-02
  -10.0100002       1.81210358E-02
  -10.0000000       1.83151923E-02
  -9.98999977       1.85337979E-02
  -9.97999954       1.87785588E-02
  -9.97000027       1.90509837E-02
  -9.96000004       1.93524733E-02
  -9.94999981       1.96841881E-02
  -9.93999958       2.00472642E-02
  -9.93000031       2.04426628E-02
  -9.92000008       2.08714083E-02
  -9.90999985       2.13343035E-02
  -9.89999962       2.18322519E-02
  -9.89000034       2.23660655E-02
  -9.88000011       2.29365081E-02
  -9.86999989       2.35442463E-02
  -9.85999966       2.41898075E-02
  -9.85000038       2.48736609E-02
  -9.84000015       2.55960915E-02
  -9.82999992       2.63571106E-02
  -9.81999969       2.71565262E-02
  -9.81000042       2.79939119E-02
  -9.80000019       2.88685039E-02
  -9.78999996       2.97792368E-02
  -9.77999973       3.07246707E-02
  -9.77000046       3.17031406E-02
  -9.76000023       3.27127315E-02
  -9.75000000       3.37512381E-02
  -9.73999977       3.48162316E-02
  -9.72999954       3.59052829E-02
  -9.72000027       3.70157100E-02
  -9.71000004       3.81448418E-02
  -9.69999981       3.92899998E-02
  -9.68999958       4.04483378E-02
  -9.68000031       4.16170731E-02
  -9.67000008       4.27932441E-02
  -9.65999985       4.39739041E-02
  -9.64999962       4.51560207E-02
  -9.64000034       4.63364832E-02
  -9.63000011       4.75121103E-02
  -9.61999989       4.86796387E-02
  -9.60999966       4.98359166E-02
  -9.60000038       5.09777367E-02
  -9.59000015       5.21018021E-02
  -9.57999992       5.32050543E-02
  -9.56999969       5.42843267E-02
  -9.56000042       5.53366467E-02
  -9.55000019       5.63589074E-02
  -9.53999996       5.73481917E-02
  -9.52999973       5.83016537E-02
  -9.52000046       5.92164099E-02
  -9.51000023       6.00897893E-02
  -9.50000000       6.09193183E-02
  -9.48999977       6.17027245E-02
  -9.47999954       6.24383390E-02
  -9.47000027       6.31249174E-02
  -9.46000004       6.37617931E-02
  -9.44999981       6.43492118E-02
  -9.43999958       6.48880005E-02
  -9.43000031       6.53799921E-02
  -9.42000008       6.58274218E-02
  -9.40999985       6.62335604E-02
  -9.39999962       6.66019469E-02
  -9.39000034       6.69370294E-02
  -9.38000011       6.72435388E-02
  -9.36999989       6.75266907E-02
  -9.35999966       6.77922145E-02
  -9.35000038       6.80463612E-02
  -9.34000015       6.82957694E-02
  -9.32999992       6.85474798E-02
  -9.31999969       6.88090920E-02
  -9.31000042       6.90884665E-02
  -9.30000019       6.93937317E-02
  -9.28999996       6.97332174E-02
  -9.27999973       7.01152980E-02
  -9.27000046       7.05483407E-02
  -9.26000023       7.10405335E-02
  -9.25000000       7.16000497E-02
  -9.23999977       7.22343698E-02
  -9.22999954       7.29508549E-02
  -9.22000027       7.37561136E-02
  -9.21000004       7.46560618E-02
  -9.19999981       7.56555647E-02
  -9.18999958       7.67587796E-02
  -9.18000031       7.79685825E-02
  -9.17000008       7.92867094E-02
  -9.15999985       8.07139874E-02
  -9.14999962       8.22498277E-02
  -9.14000034       8.38926956E-02
  -9.13000011       8.56397599E-02
  -9.11999989       8.74873400E-02
  -9.10999966       8.94306451E-02
  -9.10000038       9.14638489E-02
  -9.09000015       9.35797468E-02
  -9.07999992       9.57706645E-02
  -9.06999969       9.80276316E-02
  -9.06000042      0.100340560    
  -9.05000019      0.102698959    
  -9.03999996      0.105091229    
  -9.02999973      0.107505403    
  -9.02000046      0.109928742    
  -9.01000023      0.112348489    
  -9.00000000      0.114751443    
  -8.98999977      0.117124304    
  -8.97999954      0.119454227    
  -8.97000027      0.121728204    
  -8.96000004      0.123933665    
  -8.94999981      0.126058370    
  -8.93999958      0.128090933    
  -8.93000031      0.130020186    
  -8.92000008      0.131836146    
  -8.90999985      0.133529574    
  -8.89999962      0.135092095    
  -8.89000034      0.136516631    
  -8.88000011      0.137797326    
  -8.86999989      0.138929531    
  -8.85999966      0.139909700    
  -8.85000038      0.140735939    
  -8.84000015      0.141407207    
  -8.82999992      0.141923681    
  -8.81999969      0.142287403    
  -8.81000042      0.142501011    
  -8.80000019      0.142568350    
  -8.78999996      0.142494351    
  -8.77999973      0.142285392    
  -8.77000046      0.141948611    
  -8.76000023      0.141492009    
  -8.75000000      0.140924737    
  -8.73999977      0.140256062    
  -8.72999954      0.139496297    
  -8.72000027      0.138656199    
  -8.71000004      0.137746692    
  -8.69999981      0.136778906    
  -8.68999958      0.135764048    
  -8.68000031      0.134713784    
  -8.67000008      0.133639097    
  -8.65999985      0.132551104    
  -8.64999962      0.131460339    
  -8.64000034      0.130377263    
  -8.63000011      0.129311636    
  -8.61999989      0.128272697    
  -8.60999966      0.127269223    
  -8.60000038      0.126308784    
  -8.59000015      0.125399187    
  -8.57999992      0.124546900    
  -8.56999969      0.123758093    
  -8.56000042      0.123038076    
  -8.55000019      0.122391917    
  -8.53999996      0.121823728    
  -8.52999973      0.121337429    
  -8.52000046      0.120936193    
  -8.51000023      0.120623805    
  -8.50000000      0.120402455    
  -8.48999977      0.120274276    
  -8.47999954      0.120241806    
  -8.47000027      0.120306455    
  -8.46000004      0.120468915    
  -8.44999981      0.120729811    
  -8.43999958      0.121089153    
  -8.43000031      0.121546052    
  -8.42000008      0.122099638    
  -8.40999985      0.122748107    
  -8.39999962      0.123490147    
  -8.39000034      0.124323994    
  -8.38000011      0.125247598    
  -8.36999989      0.126259387    
  -8.35999966      0.127357438    
  -8.35000038      0.128539979    
  -8.34000015      0.129805058    
  -8.32999992      0.131151259    
  -8.31999969      0.132576942    
  -8.31000042      0.134080634    
  -8.30000019      0.135661677    
  -8.28999996      0.137319177    
  -8.27999973      0.139052659    
  -8.27000046      0.140862301    
  -8.26000023      0.142748386    
  -8.25000000      0.144711927    
  -8.23999977      0.146753609    
  -8.22999954      0.148874864    
  -8.22000027      0.151077569    
  -8.21000004      0.153363764    
  -8.19999981      0.155735925    
  -8.18999958      0.158196688    
  -8.18000031      0.160749391    
  -8.17000008      0.163397297    
  -8.15999985      0.166143253    
  -8.14999962      0.168990657    
  -8.14000034      0.171942055    
  -8.13000011      0.175000265    
  -8.11999989      0.178166837    
  -8.10999966      0.181443214    
  -8.10000038      0.184829861    
  -8.09000015      0.188326597    
  -8.07999992      0.191933125    
  -8.06999969      0.195647836    
  -8.06000042      0.199467972    
  -8.05000019      0.203390688    
  -8.03999996      0.207411677    
  -8.02999973      0.211526513    
  -8.02000046      0.215729192    
  -8.01000023      0.220013484    
  -8.00000000      0.224372149    
  -7.98999977      0.228797719    
  -7.98000002      0.233281791    
  -7.96999979      0.237815484    
  -7.96000004      0.242390186    
  -7.94999981      0.246995911    
  -7.94000006      0.251623333    
  -7.92999983      0.256262124    
  -7.92000008      0.260903090    
  -7.90999985      0.265535802    
  -7.90000010      0.270151198    
  -7.88999987      0.274739712    
  -7.88000011      0.279292732    
  -7.86999989      0.283801258    
  -7.86000013      0.288257927    
  -7.84999990      0.292655557    
  -7.84000015      0.296986729    
  -7.82999992      0.301246315    
  -7.82000017      0.305428773    
  -7.80999994      0.309530079    
  -7.80000019      0.313546211    
  -7.78999996      0.317474514    
  -7.78000021      0.321312517    
  -7.76999998      0.325059384    
  -7.76000023      0.328714401    
  -7.75000000      0.332277089    
  -7.73999977      0.335748672    
  -7.73000002      0.339130640    
  -7.71999979      0.342426449    
  -7.71000004      0.345637739    
  -7.69999981      0.348769188    
  -7.69000006      0.351825625    
  -7.67999983      0.354812235    
  -7.67000008      0.357735097    
  -7.65999985      0.360600263    
  -7.65000010      0.363415062    
  -7.63999987      0.366186231    
  -7.63000011      0.368922234    
  -7.61999989      0.371630579    
  -7.61000013      0.374319136    
  -7.59999990      0.376997650    
  -7.59000015      0.379674345    
  -7.57999992      0.382358879    
  -7.57000017      0.385061234    
  -7.55999994      0.387789786    
  -7.55000019      0.390555620    
  -7.53999996      0.393367529    
  -7.53000021      0.396234274    
  -7.51999998      0.399164438    
  -7.51000023      0.402167350    
  -7.50000000      0.405250162    
  -7.48999977      0.408419639    
  -7.48000002      0.411685199    
  -7.46999979      0.415051788    
  -7.46000004      0.418525308    
  -7.44999981      0.422112525    
  -7.44000006      0.425817549    