  -16.0000000       0.00000000    
  -15.9899998       0.00000000    
  -15.9799995       0.00000000    
  -15.9700003       0.00000000    
  -15.9600000       0.00000000    
  -15.9499998       0.00000000    
  -15.9399996       0.00000000    
  -15.9300003       0.00000000    
  -15.9200001       0.00000000    
  -15.9099998       0.00000000    
  -15.8999996       0.00000000    
  -15.8900003       0.00000000    
  -15.8800001       0.00000000    
  -15.8699999       0.00000000    
  -15.8599997       0.00000000    
  -15.8500004       0.00000000    
  -15.8400002       1.40129846E-45
  -15.8299999       9.80908925E-45
  -15.8199997       7.84727140E-44
  -15.8100004       5.22684327E-43
  -15.8000002       2.87826705E-42
  -15.7900000       1.35379445E-41
  -15.7799997       5.56161348E-41
  -15.7700005       2.02490431E-40
  -15.7600002       6.59809790E-40
  -15.7500000       1.93672900E-39
  -15.7399998       5.13972034E-39
  -15.7299995       1.23449140E-38
  -15.7200003       2.67872214E-38
  -15.7100000       5.22133673E-38
  -15.6999998       9.03169819E-38
  -15.6899996       1.35172030E-37
  -15.6800003       1.64824346E-37
  -15.6700001       1.33394556E-37
  -15.6599998      -2.82466374E-38
  -15.6499996      -3.91958561E-37
  -15.6400003      -9.84682790E-37
  -15.6300001      -1.72304825E-36
  -15.6199999      -2.36705651E-36
  -15.6099997      -2.55087099E-36
  -15.6000004      -1.93142514E-36
  -15.5900002      -4.12295056E-37
  -15.5799999       1.73164850E-36
  -15.5699997       4.08213336E-36
  -15.5600004       6.76674069E-36
  -15.5500002       1.12298690E-35
  -15.5400000       2.00284866E-35
  -15.5299997       3.43182218E-35
  -15.5200005       4.87237644E-35
  -15.5100002       4.61399527E-35
  -15.5000000      -1.26604505E-36
  -15.4899998      -1.17177685E-34
  -15.4799995      -2.90191191E-34
  -15.4700003      -4.39538598E-34
  -15.4600000      -4.09604726E-34
  -15.4499998      -3.36961568E-35
  -15.4399996       7.17254465E-34
  -15.4300003       1.55582169E-33
  -15.4200001       1.81819589E-33
  -15.4099998       7.19084333E-34
  -15.3999996      -1.98687235E-33
  -15.3900003      -5.16450357E-33
  -15.3800001      -5.95356738E-33
  -15.3699999      -8.58010041E-34
  -15.3599997       1.12003512E-32
  -15.3500004       2.47603191E-32
  -15.3400002       2.57088608E-32
  -15.3299999      -4.14636494E-33
  -15.3199997      -7.23805357E-32
  -15.3100004      -1.53840696E-31
  -15.3000002      -1.74577580E-31
  -15.2900000      -2.55835825E-32
  -15.2799997       3.70383341E-31
  -15.2700005       9.38751105E-31
  -15.2600002       1.33031175E-30
  -15.2500000       9.08974799E-31
  -15.2399998      -1.00384011E-30
  -15.2299995      -4.54281885E-30
  -15.2200003      -8.49152293E-30
  -15.2100000      -9.71166725E-30
  -15.1999998      -3.59038368E-30
  -15.1899996       1.36888330E-29
  -15.1800003       4.08704633E-29
  -15.1700001       6.66342089E-29
  -15.1599998       6.72096527E-29
  -15.1499996       1.15016800E-29
  -15.1400003      -1.21989317E-28
  -15.1300001      -3.16827128E-28
  -15.1199999      -4.88590708E-28
  -15.1099997      -4.74561272E-28
  -15.1000004      -7.22966717E-29
  -15.0900002       8.49975092E-28
  -15.0799999       2.17783446E-27
  -15.0699997       3.37149367E-27
  -15.0600004       3.40957855E-27
  -15.0500002       1.02136081E-27
  -15.0400000      -4.66756749E-27
  -15.0299997      -1.31187630E-26
  -15.0200005      -2.13348680E-26
  -15.0100002      -2.34723452E-26
  -15.0000000      -1.20047574E-26
  -14.9899998       1.88803581E-26
  -14.9799995       6.78227108E-26
  -14.9700003       1.20451098E-25
  -14.9600000       1.46606422E-25
  -14.9499998       1.05143806E-25
  -14.9399996      -4.00465454E-26
  -14.9300003      -2.93095821E-25
  -14.9200001      -5.95661326E-25
  -14.9099998      -8.08641740E-25
  -14.8999996      -7.27452965E-25
  -14.8900003      -1.49327031E-25
  -14.8800001       1.00526429E-24
  -14.8699999       2.54552713E-24
  -14.8599997       3.90358353E-24
  -14.8500004       4.16165030E-24
  -14.8400002       2.30083333E-24
  -14.8299999      -2.30183873E-24
  -14.8199997      -9.22306825E-24
  -14.8100004      -1.64410777E-23
  -14.8000002      -2.02608432E-23
  -14.7900000      -1.61031660E-23
  -14.7799997      -3.41872225E-25
  -14.7700005       2.70704057E-23
  -14.7600002       6.00541884E-23
  -14.7500000       8.53482371E-23
  -14.7399998       8.45202235E-23
  -14.7299995       4.00381556E-23
  -14.7200003      -5.50825346E-23
  -14.7100000      -1.86719464E-22
  -14.6999998      -3.13015059E-22
  -14.6899996      -3.67569196E-22
  -14.6800003      -2.77019854E-22
  -14.6700001       6.88354031E-24
  -14.6599998       4.67826021E-22
  -14.6499996       9.93172699E-22
  -14.6400003       1.37016693E-21
  -14.6300001       1.32850205E-21
  -14.6199999       6.35764738E-22
  -14.6099997      -7.69648494E-22
  -14.6000004      -2.65032465E-21
  -14.5900002      -4.40989977E-21
  -14.5799999      -5.16777493E-21
  -14.5699997      -4.00773652E-21
  -14.5600004      -3.79554429E-22
  -14.5500002       5.44966742E-21
  -14.5400000       1.20749717E-20
  -14.5299997       1.69787270E-20
  -14.5200005       1.70695004E-20
  -14.5100002       9.75591516E-21
  -14.5000000      -5.65276247E-21
  -14.4899998      -2.66767363E-20
  -14.4799995      -4.71500219E-20
  -14.4700003      -5.80527955E-20
  -14.4600000      -4.99803399E-20
  -14.4499998      -1.69627424E-20
  -14.4399996       3.93651958E-20
  -14.4300003       1.06855088E-19
  -14.4200001       1.63004483E-19
  -14.4099998       1.79505327E-19
  -14.3999996       1.31246421E-19
  -14.3900003       8.00733532E-21
  -14.3800001      -1.74792298E-19
  -14.3699999      -3.71081184E-19
  -14.3599997      -5.09323899E-19
  -14.3500004      -5.10077513E-19
  -14.3400002      -3.13992591E-19
  -14.3299999       8.66198076E-20
  -14.3199997       6.23676863E-19
  -14.3100004       1.14905427E-18
  -14.3000002       1.45954199E-18
  -14.2900000       1.35258061E-18
  -14.2799997       7.03030057E-19
  -14.2700005      -4.60466425E-19
  -14.2600002      -1.90855465E-18
  -14.2500000      -3.22193569E-18
  -14.2399998      -3.87627423E-18
  -14.2299995      -3.39566430E-18
  -14.2200003      -1.54172890E-18
  -14.2100000       1.51873431E-18
  -14.1999998       5.13550906E-18
  -14.1899996       8.24348760E-18
  -14.1800003       9.60042363E-18
  -14.1700001       8.16262077E-18
  -14.1599998       3.50852214E-18
  -14.1499996      -3.82378672E-18
  -14.1400003      -1.22281415E-17
  -14.1300001      -1.92549780E-17
  -14.1199999      -2.21867161E-17
  -14.1099997      -1.88653709E-17
  -14.1000004      -8.56076347E-18
  -14.0900002       7.40171965E-18
  -14.0799999       2.55258408E-17
  -14.0699997       4.07095086E-17
  -14.0600004       4.74713163E-17
  -14.0500002       4.15957333E-17
  -14.0400000       2.17592557E-17
  -14.0299997      -9.39215361E-18
  -14.0200005      -4.51802146E-17
  -14.0100002      -7.60801287E-17
  -14.0000000      -9.20328561E-17
  -13.9899998      -8.53742507E-17
  -13.9799995      -5.35766769E-17
  -13.9700003      -9.12198339E-19
  -13.9600000       6.16651698E-17
  -13.9499998       1.18670031E-16
  -13.9399996       1.53912901E-16
  -13.9300003       1.55059334E-16
  -13.9200001       1.17605707E-16
  -13.9099998       4.69635399E-17
  -13.8999996      -4.22119796E-17
  -13.8900003      -1.29522045E-16
  -13.8800001      -1.94298056E-16
  -13.8699999      -2.21437071E-16
  -13.8599997      -2.05687763E-16
  -13.8500004      -1.52812010E-16
  -13.8400002      -7.70012241E-17
  -13.8299999       4.75063102E-18
  -13.8199997       7.93459635E-17
  -13.8100004       1.42653173E-16
  -13.8000002       2.00441480E-16
  -13.7900000       2.63910426E-16
  -13.7799997       3.40582419E-16
  -13.7700005       4.23567269E-16
  -13.7600002       4.83843748E-16
  -13.7500000       4.70440564E-16
  -13.7399998       3.21770029E-16
  -13.7299995      -1.20398636E-17
  -13.7200003      -5.40417026E-16
  -13.7100000      -1.20596485E-15
  -13.6999998      -1.87146043E-15
  -13.6899996      -2.33031321E-15
  -13.6800003      -2.34578448E-15
  -13.6700001      -1.71615207E-15
  -13.6599998      -3.53331747E-16
  -13.6499996       1.64601848E-15
  -13.6400003       3.96207496E-15
  -13.6300001       6.06865014E-15
  -13.6199999       7.31733383E-15
  -13.6099997       7.08399319E-15
  -13.6000004       4.95245384E-15
  -13.5900002       8.92381503E-16
  -13.5799999      -4.62136475E-15
  -13.5699997      -1.05971318E-14
  -13.5600004      -1.56531875E-14
  -13.5500002      -1.82815578E-14
  -13.5400000      -1.72091548E-14
  -13.5299997      -1.17804885E-14
  -13.5200005      -2.26422241E-15
  -13.5100002       1.00136201E-14
  -13.5000000       2.27792452E-14
  -13.4899998       3.31811706E-14
  -13.4799995       3.83723272E-14
  -13.4700003       3.61916883E-14
  -13.4600000       2.57889142E-14
  -13.4499998       8.02672138E-15
  -13.4399996      -1.44700044E-14
  -13.4300003      -3.76753614E-14
  -13.4200001      -5.68927975E-14
  -13.4099998      -6.77151409E-14
  -13.3999996      -6.70033961E-14
  -13.3900003      -5.36516971E-14
  -13.3800001      -2.89445185E-14
  -13.3699999       3.59467696E-15
  -13.3599997       3.88383919E-14
  -13.3500004       7.10248510E-14
  -13.3400002       9.48271070E-14
  -13.3299999       1.06265670E-13
  -13.3199997       1.03262180E-13
  -13.3100004       8.57461143E-14
  -13.3000002       5.53670879E-14
  -13.2900000       1.49859136E-14
  -13.2799997      -3.18250607E-14
  -13.2700005      -8.10726337E-14
  -13.2600002      -1.28339830E-13
  -13.2500000      -1.68568704E-13
  -13.2399998      -1.95861949E-13
  -13.2299995      -2.03617383E-13
  -13.2200003      -1.85265472E-13
  -13.2100000      -1.35707499E-13
  -13.1999998      -5.32785824E-14
  -13.1899996       5.82293613E-14
  -13.1800003       1.88156186E-13
  -13.1700001       3.18871150E-13
  -13.1599998       4.27475817E-13
  -13.1499996       4.89387502E-13
  -13.1400003       4.83332721E-13
  -13.1300001       3.96755003E-13
  -13.1199999       2.30300913E-13
  -13.1099997       4.20581405E-17
  -13.1000004      -2.63535260E-13
  -13.0900002      -5.20020984E-13
  -13.0799999      -7.26403800E-13
  -13.0699997      -8.45733097E-13
  -13.0600004      -8.55087756E-13
  -13.0500002      -7.50779430E-13
  -13.0400000      -5.49251237E-13
  -13.0299997      -2.83140997E-13
  -13.0200005       6.75256953E-15
  -13.0100002       2.81681579E-13
  -13.0000000       5.14653532E-13
  -12.9899998       6.96848883E-13
  -12.9799995       8.38629621E-13
  -12.9700003       9.64313048E-13
  -12.9600000       1.10152957E-12
  -12.9499998       1.26754857E-12
  -12.9399996       1.45605489E-12
  -12.9300003       1.62816971E-12
  -12.9200001       1.71091299E-12
  -12.9099998       1.60492312E-12
  -12.8999996       1.20134848E-12
  -12.8900003       4.05857260E-13
  -12.8800001      -8.33957090E-13
  -12.8699999      -2.50249105E-12
  -12.8599997      -4.49629656E-12
  -12.8500004      -6.61482501E-12
  -12.8400002      -8.56489706E-12
  -12.8299999      -9.98044789E-12
  -12.8199997      -1.04574396E-11
  -12.8100004      -9.60214113E-12
  -12.8000002      -7.08945532E-12
  -12.7900000      -2.72659434E-12
  -12.7799997       3.48386185E-12
  -12.7700005       1.12886974E-11
  -12.7600002       2.01446464E-11
  -12.7500000       2.92033897E-11
  -12.7399998       3.73293896E-11
  -12.7299995       4.31577309E-11
  -12.7200003       4.51967352E-11
  -12.7100000       4.19763738E-11
  -12.6999998       3.22381427E-11
  -12.6899996       1.51559962E-11
  -12.6800003      -9.42945288E-12
  -12.6700001      -4.07878592E-11
  -12.6599998      -7.71182285E-11
  -12.6499996      -1.15445223E-10
  -12.6400003      -1.51629070E-10
  -12.6300001      -1.80521917E-10
  -12.6199999      -1.96295646E-10
  -12.6099997      -1.92950531E-10
  -12.6000004      -1.64995420E-10
  -12.5900002      -1.08264571E-10
  -12.5799999      -2.08098018E-11
  -12.5699997       9.62179086E-11
  -12.5600004       2.37805053E-10
  -12.5500002       3.94548255E-10
  -12.5400000       5.52481116E-10
  -12.5299997       6.93359370E-10
  -12.5200005       7.95480182E-10
  -12.5100002       8.35073011E-10
  -12.5000000       7.88251298E-10
  -12.4899998       6.33459452E-10
  -12.4799995       3.54305946E-10
  -12.4700003      -5.73837297E-11
  -12.4600000      -5.98488537E-10
  -12.4499998      -1.25171706E-09
  -12.4399996      -1.98317940E-09
  -12.4300003      -2.74064793E-09
  -12.4200001      -3.45273810E-09
  -12.4099998      -4.02921119E-09
  -12.3999996      -4.36254011E-09
  -12.3900003      -4.33082370E-09
  -12.3800001      -3.80204090E-09
  -12.3699999      -2.63952638E-09
  -12.3599997      -7.08481940E-10
  -12.3500004       2.11680096E-09
  -12.3400002       5.94539351E-09
  -12.3299999       1.08622462E-08
  -12.3199997       1.69212431E-08
  -12.3100004       2.41391813E-08
  -12.3000002       3.24910125E-08
  -12.2900000       4.19066133E-08
  -12.2799997       5.22692574E-08
  -12.2700005       6.34158255E-08
  -12.2600002       7.51387077E-08
  -12.2500000       8.71894485E-08
  -12.2399998       9.92838523E-08
  -12.2299995       1.11108342E-07
  -12.2200003       1.22327535E-07
  -12.2100000       1.32592575E-07
  -12.1999998       1.41550018E-07
  -12.1899996       1.48850759E-07
  -12.1800003       1.54158869E-07
  -12.1700001       1.57159576E-07
  -12.1599998       1.57566333E-07
  -12.1499996       1.55126671E-07
  -12.1400003       1.49626416E-07
  -12.1300001       1.40892695E-07
  -12.1199999       1.28795477E-07
  -12.1099997       1.13248099E-07
  -12.1000004       9.42071168E-08
  -12.0900002       7.16717992E-08
  -12.0799999       4.56835991E-08
  -12.0699997       1.63257639E-08
  -12.0600004      -1.62767932E-08
  -12.0500002      -5.19572296E-08
  -12.0400000      -9.05063047E-08
  -12.0299997      -1.31671811E-07
  -12.0200005      -1.75158036E-07
  -12.0100002      -2.20625239E-07
  -12.0000000      -2.67689529E-07
  -11.9899998      -3.15923018E-07
  -11.9799995      -3.64854770E-07
  -11.9700003      -4.13972202E-07
  -11.9600000      -4.62723762E-07
  -11.9499998      -5.10522284E-07
  -11.9399996      -5.56750820E-07
  -11.9300003      -6.00768601E-07
  -11.9200001      -6.41919769E-07
  -11.9099998      -6.79542438E-07
  -11.8999996      -7.12979386E-07
  -11.8900003      -7.41587883E-07
  -11.8800001      -7.64750837E-07
  -11.8699999      -7.81885888E-07
  -11.8599997      -7.92454159E-07
  -11.8500004      -7.95966173E-07
  -11.8400002      -7.91988157E-07
  -11.8299999      -7.80144319E-07
  -11.8199997      -7.60120315E-07
  -11.8100004      -7.31663818E-07
  -11.8000002      -6.94586163E-07
  -11.7900000      -6.48762295E-07
  -11.7799997      -5.94132814E-07
  -11.7700005      -5.30703005E-07
  -11.7600002      -4.58546054E-07
  -11.7500000      -3.77802934E-07
  -11.7399998      -2.88684873E-07
  -11.7299995      -1.91474584E-07
  -11.7200003      -8.65277769E-08
  -11.7100000       2.57256403E-08
  -11.6999998       1.44780458E-07
  -11.6899996       2.70056148E-07
  -11.6800003       4.00897051E-07
  -11.6700001       5.36573339E-07
  -11.6599998       6.76283321E-07
  -11.6499996       8.19155900E-07
  -11.6400003       9.64254696E-07
  -11.6300001       1.11058250E-06
  -11.6199999       1.25708607E-06
  -11.6099997       1.40266286E-06
  -11.6000004       1.54616725E-06
  -11.5900002       1.68641691E-06
  -11.5799999       1.82220174E-06
  -11.5699997       1.95228949E-06
  -11.5600004       2.07543621E-06
  -11.5500002       2.19039248E-06
  -11.5400000       2.29591478E-06
  -11.5299997       2.39076985E-06
  -11.5200005       2.47374714E-06
  -11.5100002       2.54366364E-06
  -11.5000000       2.59937224E-06
  -11.4899998       2.63976744E-06
  -11.4799995       2.66379357E-06
  -11.4700003       2.67044675E-06
  -11.4600000       2.65878225E-06
  -11.4499998       2.62791627E-06
  -11.4399996       2.57703255E-06
  -11.4300003       2.50537914E-06
  -11.4200001       2.41227781E-06
  -11.4099998       2.29712032E-06
  -11.3999996       2.15937393E-06
  -11.3900003       1.99858209E-06
  -11.3800001       1.81436735E-06
  -11.3699999       1.60643435E-06
  -11.3599997       1.37457164E-06
  -11.3500004       1.11865472E-06
  -11.3400002       8.38647907E-07
  -11.3299999       5.34605476E-07
  -11.3199997       2.06669824E-07
  -11.3100004      -1.44930027E-07
  -11.3000002      -5.19883713E-07
  -11.2900000      -9.17804357E-07
  -11.2799997      -1.33823619E-06
  -11.2700005      -1.78066148E-06
  -11.2600002      -2.24450719E-06
  -11.2500000      -2.72915031E-06
  -11.2399998      -3.23392305E-06
  -11.2299995      -3.75811419E-06
  -11.2200003      -4.30097043E-06
  -11.2100000      -4.86169665E-06
  -11.1999998      -5.43945680E-06
  -11.1899996      -6.03337048E-06
  -11.1800003      -6.64251456E-06
  -11.1700001      -7.26592634E-06
  -11.1599998      -7.90260583E-06
  -11.1499996      -8.55151666E-06
  -11.1400003      -9.21159972E-06
  -11.1300001      -9.88176998E-06
  -11.1199999      -1.05609379E-05
  -11.1099997      -1.12480075E-05
  -11.1000004      -1.19418874E-05
  -11.0900002      -1.26415098E-05
  -11.0799999      -1.33458207E-05
  -11.0699997      -1.40538014E-05
  -11.0600004      -1.47644641E-05
  -11.0500002      -1.54768532E-05
  -11.0400000      -1.61900498E-05
  -11.0299997      -1.69031609E-05
  -11.0200005      -1.76153117E-05
  -11.0100002      -1.83256489E-05
  -11.0000000      -1.90333230E-05
  -10.9899998      -1.97374866E-05
  -10.9799995      -2.04372936E-05
  -10.9700003      -2.11318857E-05
  -10.9600000      -2.18204059E-05
  -10.9499998      -2.25019976E-05
  -10.9399996      -2.31758022E-05
  -10.9300003      -2.38409830E-05
  -10.9200001      -2.44967105E-05
  -10.9099998      -2.51421770E-05
  -10.8999996      -2.57765987E-05
  -10.8900003      -2.63992169E-05
  -10.8800001      -2.70092914E-05
  -10.8699999      -2.76060946E-05
  -10.8599997      -2.81889206E-05
  -10.8500004      -2.87570638E-05
  -10.8400002      -2.93098165E-05
  -10.8299999      -2.98464656E-05
  -10.8199997      -3.03662873E-05
  -10.8100004      -3.08685339E-05
  -10.8000002      -3.13524506E-05
  -10.7900000      -3.18172388E-05
  -10.7799997      -3.22620981E-05
  -10.7700005      -3.26861918E-05
  -10.7600002      -3.30886687E-05
  -10.7500000      -3.34686665E-05
  -10.7399998      -3.38253085E-05
  -10.7299995      -3.41577215E-05
  -10.7200003      -3.44650289E-05
  -10.7100000      -3.47463683E-05
  -10.6999998      -3.50009104E-05
  -10.6899996      -3.52278003E-05
  -10.6800003      -3.54262338E-05
  -10.6700001      -3.55954144E-05
  -10.6599998      -3.57345489E-05
  -10.6499996      -3.58428624E-05
  -10.6400003      -3.59195874E-05
  -10.6300001      -3.59639853E-05
  -10.6199999      -3.59753394E-05
  -10.6099997      -3.59529695E-05
  -10.6000004      -3.58962170E-05
  -10.5900002      -3.58045290E-05
  -10.5799999      -3.56773780E-05
  -10.5699997      -3.55143420E-05
  -10.5600004      -3.53150826E-05
  -10.5500002      -3.50793416E-05
  -10.5400000      -3.48069480E-05
  -10.5299997      -3.44978325E-05
  -10.5200005      -3.41519990E-05
  -10.5100002      -3.37695419E-05
  -10.5000000      -3.33506105E-05
  -10.4899998      -3.28954557E-05
  -10.4799995      -3.24043649E-05
  -10.4700003      -3.18777129E-05
  -10.4600000      -3.13159544E-05
  -10.4499998      -3.07196060E-05
  -10.4399996      -3.00892752E-05
  -10.4300003      -2.94256606E-05
  -10.4200001      -2.87295516E-05
  -10.4099998      -2.80018467E-05
  -10.3999996      -2.72435482E-05
  -10.3900003      -2.64557511E-05
  -10.3800001      -2.56396543E-05
  -10.3699999      -2.47965527E-05
  -10.3599997      -2.39278179E-05
  -10.3500004      -2.30349087E-05
  -10.3400002      -2.21193313E-05
  -10.3299999      -2.11826555E-05
  -10.3199997      -2.02265128E-05
  -10.3100004      -1.92525713E-05
  -10.3000002      -1.82625299E-05
  -10.2900000      -1.72581349E-05
  -10.2799997      -1.62411416E-05
  -10.2700005      -1.52133280E-05
  -10.2600002      -1.41764795E-05
  -10.2500000      -1.31323886E-05
  -10.2399998      -1.20828345E-05
  -10.2299995      -1.10295723E-05
  -10.2200003      -9.97432107E-06
  -10.2100000      -8.91874970E-06
  -10.1999998      -7.86446435E-06
  -10.1899996      -6.81297388E-06
  -10.1800003      -5.76570119E-06
  -10.1700001      -4.72395232E-06
  -10.1599998      -3.68892483E-06
  -10.1499996      -2.66169877E-06
  -10.1400003      -1.64323706E-06
  -10.1300001      -6.34397168E-07
  -10.1199999       3.64066693E-07
  -10.1099997       1.35149821E-06
  -10.1000004       2.32732737E-06
  -10.0900002       3.29107661E-06
  -10.0799999       4.24234622E-06
  -10.0699997       5.18083107E-06
  -10.0600004       6.10631196E-06
  -10.0500002       7.01865747E-06
  -10.0400000       7.91781167E-06
  -10.0299997       8.80380230E-06
  -10.0200005       9.67672258E-06
  -10.0100002       1.05367335E-05
  -10.0000000       1.13840424E-05
  -9.98999977       1.22189049E-05
  -9.97999954       1.30416220E-05
  -9.97000027       1.38525220E-05
  -9.96000004       1.46519715E-05
  -9.94999981       1.54403624E-05
  -9.93999958       1.62181150E-05
  -9.93000031       1.69856794E-05
  -9.92000008       1.77435340E-05
  -9.90999985       1.84921773E-05
  -9.89999962       1.92321440E-05
  -9.89000034       1.99639962E-05
  -9.88000011       2.06883142E-05
  -9.86999989       2.14057254E-05
  -9.85999966       2.21168757E-05
  -9.85000038       2.28224399E-05
  -9.84000015       2.35231200E-05
  -9.82999992       2.42196456E-05
  -9.81999969       2.49127515E-05
  -9.81000042       2.56032108E-05
  -9.80000019       2.62917893E-05
  -9.78999996       2.69792745E-05
  -9.77999973       2.76664596E-05
  -9.77000046       2.83541558E-05
  -9.76000023       2.90431672E-05
  -9.75000000       2.97343249E-05
  -9.73999977       3.04284622E-05
  -9.72999954       3.11264121E-05
  -9.72000027       3.18290295E-05
  -9.71000004       3.25371948E-05
  -9.69999981       3.32517739E-05
  -9.68999958       3.39736544E-05
  -9.68000031       3.47037203E-05
  -9.67000008       3.54428557E-05
  -9.65999985       3.61919010E-05
  -9.64999962       3.69516565E-05
  -9.64000034       3.77228607E-05
  -9.63000011       3.85061685E-05
  -9.61999989       3.93021073E-05
  -9.60999966       4.01110738E-05
  -9.60000038       4.09333152E-05
  -9.59000015       4.17689116E-05
  -9.57999992       4.26177357E-05
  -9.56999969       4.34794892E-05
  -9.56000042       4.43536410E-05
  -9.55000019       4.52394706E-05
  -9.53999996       4.61360141E-05
  -9.52999973       4.70421146E-05
  -9.52000046       4.79563823E-05
  -9.51000023       4.88772312E-05
  -9.50000000       4.98028749E-05
  -9.48999977       5.07313271E-05
  -9.47999954       5.16604559E-05
  -9.47000027       5.25879186E-05
  -9.46000004       5.35112740E-05
  -9.44999981       5.44279246E-05
  -9.43999958       5.53352183E-05
  -9.43000031       5.62304231E-05
  -9.42000008       5.71107848E-05
  -9.40999985       5.79735970E-05
  -9.39999962       5.88162111E-05
  -9.39000034       5.96361533E-05
  -9.38000011       6.04310917E-05
  -9.36999989       6.11989672E-05
  -9.35999966       6.19379862E-05
  -9.35000038       6.26467154E-05
  -9.34000015       6.33240998E-05
  -9.32999992       6.39694990E-05
  -9.31999969       6.45827531E-05
  -9.31000042       6.51641603E-05
  -9.30000019       6.57145574E-05
  -9.28999996       6.62352904E-05
  -9.27999973       6.67282438E-05
  -9.27000046       6.71958187E-05
  -9.26000023       6.76409836E-05
  -9.25000000       6.80671583E-05
  -9.23999977       6.84782572E-05
  -9.22999954       6.88786749E-05
  -9.22000027       6.92731701E-05
  -9.21000004       6.96668867E-05
  -9.19999981       7.00652672E-05
  -9.18999958       7.04740014E-05
  -9.18000031       7.08989974E-05
  -9.17000008       7.13462650E-05
  -9.15999985       7.18218871E-05
  -9.14999962       7.23319827E-05
  -9.14000034       7.28825980E-05
  -9.13000011       7.34796195E-05
  -9.11999989       7.41287804E-05
  -9.10999966       7.48355451E-05
  -9.10000038       7.56050431E-05
  -9.09000015       7.64419892E-05
  -9.07999992       7.73506472E-05
  -9.06999969       7.83348005E-05
  -9.06000042       7.93976142E-05
  -9.05000019       8.05417003E-05
  -9.03999996       8.17689870E-05
  -9.02999973       8.30808131E-05
  -9.02000046       8.44778042E-05
  -9.01000023       8.59599240E-05
  -9.00000000       8.75264450E-05
  -8.98999977       8.91759773E-05
  -8.97999954       9.09064474E-05
  -8.97000027       9.27150686E-05
  -8.96000004       9.45984430E-05
  -8.94999981       9.65525251E-05
  -8.93999958       9.85726510E-05
  -8.93000031       1.00653575E-04
  -8.92000008       1.02789505E-04
  -8.90999985       1.04974162E-04
  -8.89999962       1.07200773E-04
  -8.89000034       1.09462162E-04
  -8.88000011       1.11750749E-04
  -8.86999989       1.14058617E-04
  -8.85999966       1.16377552E-04
  -8.85000038       1.18699056E-04
  -8.84000015       1.21014491E-04
  -8.82999992       1.23315025E-04
  -8.81999969       1.25591701E-04
  -8.81000042       1.27835519E-04
  -8.80000019       1.30037399E-04
  -8.78999996       1.32188346E-04
  -8.77999973       1.34279268E-04
  -8.77000046       1.36301285E-04
  -8.76000023       1.38245494E-04
  -8.75000000       1.40103264E-04
  -8.73999977       1.41866112E-04
  -8.72999954       1.43525831E-04
  -8.72000027       1.45074548E-04
  -8.71000004       1.46504593E-04
  -8.69999981       1.47808794E-04
  -8.68999958       1.48980325E-04
  -8.68000031       1.50012755E-04
  -8.67000008       1.50900130E-04
  -8.65999985       1.51636894E-04
  -8.64999962       1.52218025E-04
  -8.64000034       1.52638939E-04
  -8.63000011       1.52895605E-04
  -8.61999989       1.52984489E-04
  -8.60999966       1.52902561E-04
  -8.60000038       1.52647292E-04
  -8.59000015       1.52216599E-04
  -8.57999992       1.51608954E-04
  -8.56999969       1.50823180E-04
  -8.56000042       1.49858577E-04
  -8.55000019       1.48714767E-04
  -8.53999996       1.47391809E-04
  -8.52999973       1.45889993E-04
  -8.52000046       1.44209975E-04
  -8.51000023       1.42352597E-04
  -8.50000000       1.40318953E-04
  -8.48999977       1.38110219E-04
  -8.47999954       1.35727751E-04
  -8.47000027       1.33173089E-04
  -8.46000004       1.30447734E-04
  -8.44999981       1.27553343E-04
  -8.43999958       1.24491649E-04
  -8.43000031       1.21264464E-04
  -8.42000008       1.17873715E-04
  -8.40999985       1.14321374E-04
  -8.39999962       1.10609595E-04
  -8.39000034       1.06740612E-04
  -8.38000011       1.02716818E-04
  -8.36999989       9.85407678E-05
  -8.35999966       9.42151819E-05
  -8.35000038       8.97430145E-05
  -8.34000015       8.51274817E-05
  -8.32999992       8.03720541E-05
  -8.31999969       7.54805515E-05
  -8.31000042       7.04570048E-05
  -8.30000019       6.53058378E-05
  -8.28999996       6.00317580E-05
  -8.27999973       5.46398005E-05
  -8.27000046       4.91352876E-05
  -8.26000023       4.35238289E-05
  -8.25000000       3.78113400E-05
  -8.23999977       3.20039908E-05
  -8.22999954       2.61082187E-05
  -8.22000027       2.01306848E-05
  -8.21000004       1.40783295E-05
  -8.19999981       7.95824781E-06
  -8.18999958       1.77776110E-06
  -8.18000031      -4.45563592E-06
  -8.17000008      -1.07343049E-05
  -8.15999985      -1.70503936E-05
  -8.14999962      -2.33959072E-05
  -8.14000034      -2.97626411E-05
  -8.13000011      -3.61422426E-05
  -8.11999989      -4.25262042E-05
  -8.10999966      -4.89058148E-05
  -8.10000038      -5.52722049E-05
  -8.09000015      -6.16163743E-05
  -8.07999992      -6.79291625E-05
  -8.06999969      -7.42012926E-05
  -8.06000042      -8.04233787E-05
  -8.05000019      -8.65859110E-05
  -8.03999996      -9.26793218E-05
  -8.02999973      -9.86939558E-05
  -8.02000046      -1.04620165E-04
  -8.01000023      -1.10448287E-04
  -8.00000000      -1.16168740E-04
  -7.98999977      -1.21771984E-04
  -7.98000002      -1.27248684E-04
  -7.96999979      -1.32589645E-04
  -7.96000004      -1.37785959E-04
  -7.94999981      -1.42828983E-04
  -7.94000006      -1.47710380E-04
  -7.92999983      -1.52422275E-04
  -7.92000008      -1.56957103E-04
  -7.90999985      -1.61307820E-04
  -7.90000010      -1.65467936E-04
  -7.88999987      -1.69431427E-04
  -7.88000011      -1.73192893E-04
  -7.86999989      -1.76747533E-04
  -7.86000013      -1.80091141E-04
  -7.84999990      -1.83220138E-04
  -7.84000015      -1.86131670E-04
  -7.82999992      -1.88823382E-04
  -7.82000017      -1.91293613E-04
  -7.80999994      -1.93541317E-04
  -7.80000019      -1.95566055E-04
  -7.78999996      -1.97367961E-04
  -7.78000021      -1.98947761E-04
  -7.76999998      -2.00306662E-04
  -7.76000023      -2.01446426E-04
  -7.75000000      -2.02369207E-04
  -7.73999977      -2.03077536E-04
  -7.73000002      -2.03574411E-04
  -7.71999979      -2.03863077E-04
  -7.71000004      -2.03947042E-04
  -7.69999981      -2.03830161E-04
  -7.69000006      -2.03516363E-04
  -7.67999983      -2.03009986E-04
  -7.67000008      -2.02315379E-04
  -7.65999985      -2.01437055E-04
  -7.65000010      -2.00379785E-04
  -7.63999987      -1.99148286E-04
  -7.63000011      -1.97747388E-04
  -7.61999989      -1.96181980E-04
  -7.61000013      -1.94456894E-04
  -7.59999990      -1.92577005E-04
  -7.59000015      -1.90547144E-04
  -7.57999992      -1.88372098E-04
  -7.57000017      -1.86056466E-04
  -7.55999994      -1.83604818E-04
  -7.55000019      -1.81021533E-04
  -7.53999996      -1.78310816E-04
  -7.53000021      -1.75476656E-04
  -7.51999998      -1.72522865E-04
  -7.51000023      -1.69453007E-04
  -7.50000000      -1.66270387E-04
  -7.48999977      -1.62978147E-04
  -7.48000002      -1.59579125E-04
  -7.46999979      -1.56075883E-04
  -7.46000004      -1.52470850E-04
  -7.44999981      -1.48766092E-04
  -7.44000006      -1.44963487E-04