  -16.0000000       0.00000000    
  -15.9899998       0.00000000    
  -15.9799995       0.00000000    
  -15.9700003       0.00000000    
  -15.9600000       0.00000000    
  -15.9499998       0.00000000    
  -15.9399996       0.00000000    
  -15.9300003       0.00000000    
  -15.9200001       0.00000000    
  -15.9099998       0.00000000    
  -15.8999996       0.00000000    
  -15.8900003       0.00000000    
  -15.8800001       0.00000000    
  -15.8699999       0.00000000    
  -15.8599997       0.00000000    
  -15.8500004       0.00000000    
  -15.8400002      -0.00000000    
  -15.8299999      -1.40129846E-45
  -15.8199997      -8.40779079E-45
  -15.8100004      -4.76441478E-44
  -15.8000002      -2.52233724E-43
  -15.7900000      -1.14626214E-42
  -15.7799997      -4.57944338E-42
  -15.7700005      -1.63181206E-41
  -15.7600002      -5.23609184E-41
  -15.7500000      -1.52305729E-40
  -15.7399998      -4.03126944E-40
  -15.7299995      -9.72515147E-40
  -15.7200003      -2.13685965E-39
  -15.7100000      -4.26087359E-39
  -15.6999998      -7.64760739E-39
  -15.6899996      -1.21534476E-38
  -15.6800003      -1.65039524E-38
  -15.6700001      -1.74171184E-38
  -15.6599998      -8.96553280E-39
  -15.6499996       1.70090659E-38
  -15.6400003       6.84436545E-38
  -15.6300001       1.47984920E-37
  -15.6199999       2.45884541E-37
  -15.6099997       3.32998244E-37
  -15.6000004       3.56992958E-37
  -15.5900002       2.44341095E-37
  -15.5799999      -9.06558943E-38
  -15.5699997      -7.27332914E-37
  -15.5600004      -1.69988113E-36
  -15.5500002      -2.91359035E-36
  -15.5400000      -3.98848160E-36
  -15.5299997      -4.04714189E-36
  -15.5200005      -1.59190949E-36
  -15.5100002       5.18472037E-36
  -15.5000000       1.71815216E-35
  -15.4899998       3.20072332E-35
  -15.4799995       4.10801210E-35
  -15.4700003       2.84627389E-35
  -15.4600000      -2.46994552E-35
  -15.4499998      -1.26387017E-34
  -15.4399996      -2.50980166E-34
  -15.4300003      -3.17470810E-34
  -15.4200001      -1.90777992E-34
  -15.4099998       2.64908649E-34
  -15.3999996       1.06399954E-33
  -15.3900003       1.93459352E-33
  -15.3800001       2.20720646E-33
  -15.3699999       9.20096989E-34
  -15.3599997      -2.69702650E-33
  -15.3500004      -8.34283753E-33
  -15.3400002      -1.36688540E-32
  -15.3299999      -1.39220629E-32
  -15.3199997      -3.17834865E-33
  -15.3100004       2.21300535E-32
  -15.3000002       5.78117349E-32
  -15.2900000       8.69922655E-32
  -15.2799997       8.00479268E-32
  -15.2700005       4.38565555E-33
  -15.2600002      -1.53591914E-31
  -15.2500000      -3.59010856E-31
  -15.2399998      -5.06416038E-31
  -15.2299995      -4.28644767E-31
  -15.2200003       4.02369248E-32
  -15.2100000       9.42782204E-31
  -15.1999998       2.04973451E-30
  -15.1899996       2.76727451E-30
  -15.1800003       2.21681985E-30
  -15.1700001      -4.11960130E-31
  -15.1599998      -5.23479608E-30
  -15.1499996      -1.09612851E-29
  -15.1400003      -1.45091964E-29
  -15.1300001      -1.14910084E-29
  -15.1199999       1.99717619E-30
  -15.1099997       2.63546962E-29
  -15.1000004       5.51660966E-29
  -15.0900002       7.35226766E-29
  -15.0799999       6.04319441E-29
  -15.0699997      -2.84192649E-30
  -15.0600004      -1.18950320E-28
  -15.0500002      -2.59427482E-28
  -15.0400000      -3.56927806E-28
  -15.0299997      -3.15401169E-28
  -15.0200005      -4.61516431E-29
  -15.0100002       4.72016059E-28
  -15.0000000       1.12649039E-27
  -14.9899998       1.63381413E-27
  -14.9799995       1.57660670E-27
  -14.9700003       5.48479763E-28
  -14.9600000      -1.59796199E-27
  -14.9499998      -4.46966971E-27
  -14.9399996      -6.95855514E-27
  -14.9300003      -7.35355798E-27
  -14.9200001      -3.88189862E-27
  -14.9099998       4.32442956E-27
  -14.8999996       1.60879292E-26
  -14.8900003       2.73968866E-26
  -14.8800001       3.16598570E-26
  -14.8699999       2.15799218E-26
  -14.8599997      -7.29228645E-27
  -14.8500004      -5.21648633E-26
  -14.8400002      -9.96354311E-26
  -14.8299999      -1.25878793E-25
  -14.8199997      -1.02628326E-25
  -14.8100004      -9.47681408E-27
  -14.8000002       1.50073207E-25
  -14.7900000       3.35040542E-25
  -14.7799997       4.64705584E-25
  -14.7700005       4.35961761E-25
  -14.7600002       1.63302392E-25
  -14.7500000      -3.65639963E-25
  -14.7399998      -1.03853341E-24
  -14.7299995      -1.60000417E-24
  -14.7200003      -1.69588055E-24
  -14.7100000      -9.94459554E-25
  -14.6999998       6.31880445E-25
  -14.6899996       2.92183607E-24
  -14.6800003       5.12857880E-24
  -14.6700001       6.11035880E-24
  -14.6599998       4.66911071E-24
  -14.6499996       1.08258735E-25
  -14.6400003      -7.14348891E-24
  -14.6300001      -1.51114495E-23
  -14.6199999      -2.03727668E-23
  -14.6099997      -1.89048575E-23
  -14.6000004      -7.67763609E-24
  -14.5900002       1.33773739E-23
  -14.5799999       3.97571444E-23
  -14.5699997       6.20804692E-23
  -14.5600004       6.78938818E-23
  -14.5500002       4.58222952E-23
  -14.5400000      -8.67699901E-24
  -14.5299997      -8.77957633E-23
  -14.5200005      -1.68716762E-22
  -14.5100002      -2.16400929E-22
  -14.5000000      -1.93173545E-22
  -14.4899998      -7.40620609E-23
  -14.4799995       1.36202389E-22
  -14.4700003       3.91203772E-22
  -14.4600000       6.03380648E-22
  -14.4499998       6.62494981E-22
  -14.4399996       4.72082235E-22
  -14.4300003      -3.72774880E-24
  -14.4200001      -6.98287910E-22
  -14.4099998      -1.42506741E-21
  -14.3999996      -1.90241504E-21
  -14.3900003      -1.82779410E-21
  -14.3800001      -9.91397371E-22
  -14.3699999       6.01004826E-22
  -14.3599997       2.64180182E-21
  -14.3500004       4.52071936E-21
  -14.3400002       5.44290296E-21
  -14.3299999       4.66494121E-21
  -14.3199997       1.80125445E-21
  -14.3100004      -2.89156089E-21
  -14.3000002      -8.36953218E-21
  -14.2900000      -1.29004342E-20
  -14.2799997      -1.44564934E-20
  -14.2700005      -1.13561728E-20
  -14.2600002      -3.00266482E-21
  -14.2500000       9.51961131E-21
  -14.2399998       2.32544898E-20
  -14.2299995       3.37912521E-20
  -14.2200003       3.63351847E-20
  -14.2100000       2.72587483E-20
  -14.1999998       5.73777992E-21
  -14.1899996      -2.50698410E-20
  -14.1800003      -5.78458841E-20
  -14.1700001      -8.22906803E-20
  -14.1599998      -8.76530660E-20
  -14.1499996      -6.61512686E-20
  -14.1400003      -1.64009591E-20
  -14.1300001       5.42703765E-20
  -14.1199999       1.29676058E-19
  -14.1099997       1.87413949E-19
  -14.1000004       2.04193114E-19
  -14.0900002       1.62863035E-19
  -14.0799999       5.93873933E-20
  -14.0699997      -9.23964363E-20
  -14.0600004      -2.60236759E-19
  -14.0500002      -3.98334743E-19
  -14.0400000      -4.57485318E-19
  -14.0299997      -3.98741044E-19
  -14.0200005      -2.07441207E-19
  -14.0100002       9.63929530E-20
  -14.0000000       4.55140933E-19
  -13.9899998       7.80725736E-19
  -13.9799995       9.72128092E-19
  -13.9700003       9.40746720E-19
  -13.9600000       6.38309688E-19
  -13.9499998       8.01546221E-20
  -13.9399996      -6.43652499E-19
  -13.9300003      -1.37525653E-18
  -13.9200001      -1.91626460E-18
  -13.9099998      -2.07252357E-18
  -13.8999996      -1.70819559E-18
  -13.8900003      -7.96425055E-19
  -13.8800001       5.48021631E-19
  -13.8699999       2.06722775E-18
  -13.8599997       3.39717908E-18
  -13.8500004       4.14197746E-18
  -13.8400002       3.97317678E-18
  -13.8299999       2.73262010E-18
  -13.8199997       5.11434864E-19
  -13.8100004      -2.32154133E-18
  -13.8000002      -5.16027898E-18
  -13.7900000      -7.27414938E-18
  -13.7799997      -7.97633142E-18
  -13.7700005      -6.81311530E-18
  -13.7600002      -3.72655743E-18
  -13.7500000       8.58573099E-19
  -13.7399998       6.06071926E-18
  -13.7299995       1.06926511E-17
  -13.7200003       1.35178972E-17
  -13.7100000       1.35599362E-17
  -13.6999998       1.03894381E-17
  -13.6899996       4.30926275E-18
  -13.6800003      -3.62585977E-18
  -13.6700001      -1.17812307E-17
  -13.6599998      -1.82827777E-17
  -13.6499996      -2.14545587E-17
  -13.6400003      -2.02470901E-17
  -13.6300001      -1.45428046E-17
  -13.6199999      -5.24838240E-18
  -13.6099997       5.86493223E-18
  -13.6000004       1.65447670E-17
  -13.5900002       2.45728526E-17
  -13.5799999       2.82786913E-17
  -13.5699997       2.69136282E-17
  -13.5600004       2.07835548E-17
  -13.5500002       1.11077055E-17
  -13.5400000      -3.46765823E-19
  -13.5299997      -1.17345992E-17
  -13.5200005      -2.15529039E-17
  -13.5100002      -2.88753201E-17
  -13.5000000      -3.33289929E-17
  -13.4899998      -3.48401526E-17
  -13.4799995      -3.32713847E-17
  -13.4700003      -2.81345004E-17
  -13.4600000      -1.85603596E-17
  -13.4499998      -3.63075544E-18
  -13.4399996       1.69571413E-17
  -13.4300003       4.20796307E-17
  -13.4200001       6.85373202E-17
  -13.4099998       9.09162682E-17
  -13.3999996       1.02228195E-16
  -13.3900003       9.53991371E-17
  -13.3800001       6.54009160E-17
  -13.3699999       1.15332378E-17
  -13.3599997      -6.08275469E-17
  -13.3500004      -1.39725231E-16
  -13.3400002      -2.07882743E-16
  -13.3299999      -2.45841307E-16
  -13.3199997      -2.36567435E-16
  -13.3100004      -1.70587420E-16
  -13.3000002      -5.03390655E-17
  -13.2900000       1.07636202E-16
  -13.2799997       2.73735055E-16
  -13.2700005       4.09970458E-16
  -13.2600002       4.77785610E-16
  -13.2500000       4.47571045E-16
  -13.2399998       3.07742131E-16
  -13.2299995       7.09719510E-17
  -13.2200003      -2.24485754E-16
  -13.2100000      -5.19538828E-16
  -13.1999998      -7.44860498E-16
  -13.1899996      -8.35664653E-16
  -13.1800003      -7.47702399E-16
  -13.1700001      -4.70825117E-16
  -13.1599998      -3.65871779E-17
  -13.1499996       4.82672990E-16
  -13.1400003       9.84127559E-16
  -13.1300001       1.35291978E-15
  -13.1199999       1.48561045E-15
  -13.1099997       1.31398315E-15
  -13.1000004       8.24113559E-16
  -13.0900002       6.61757196E-17
  -13.0799999      -8.47874580E-16
  -13.0699997      -1.75928351E-15
  -13.0600004      -2.48808856E-15
  -13.0500002      -2.86500551E-15
  -13.0400000      -2.76386597E-15
  -13.0299997      -2.12852857E-15
  -13.0200005      -9.89142418E-16
  -13.0100002       5.35453625E-16
  -13.0000000       2.24984974E-15
  -12.9899998       3.90675397E-15
  -12.9799995       5.24017526E-15
  -12.9700003       6.00188403E-15
  -12.9600000       5.99578201E-15
  -12.9499998       5.10585955E-15
  -12.9399996       3.31499092E-15
  -12.9300003       7.13647704E-16
  -12.9200001      -2.50089696E-15
  -12.9099998      -6.03368631E-15
  -12.8999996      -9.50842849E-15
  -12.8900003      -1.24909577E-14
  -12.8800001      -1.45205181E-14
  -12.8699999      -1.51501567E-14
  -12.8599997      -1.39968603E-14
  -12.8500004      -1.07998022E-14
  -12.8400002      -5.48195149E-15
  -12.8299999       1.79338220E-15
  -12.8199997       1.05828110E-14
  -12.8100004       2.01521522E-14
  -12.8000002       2.95052882E-14
  -12.7900000       3.74576028E-14
  -12.7799997       4.27511555E-14
  -12.7700005       4.41995954E-14
  -12.7600002       4.08437525E-14
  -12.7500000       3.20940614E-14
  -12.7399998       1.78383343E-14
  -12.7299995      -1.50119533E-15
  -12.7200003      -2.49652882E-14
  -12.7100000      -5.11022533E-14
  -12.6999998      -7.80421124E-14
  -12.6899996      -1.03579153E-13
  -12.6800003      -1.25246384E-13
  -12.6700001      -1.40376656E-13
  -12.6599998      -1.46163829E-13
  -12.6499996      -1.39752562E-13
  -12.6400003      -1.18397317E-13
  -12.6300001      -7.97283856E-14
  -12.6199999      -2.21469893E-14
  -12.6099997       5.46592631E-14
  -12.6000004       1.49129353E-13
  -12.5900002       2.57259925E-13
  -12.5799999       3.72174622E-13
  -12.5699997       4.83963781E-13
  -12.5600004       5.79913613E-13
  -12.5500002       6.45202912E-13
  -12.5400000       6.64085161E-13
  -12.5299997       6.21499542E-13
  -12.5200005       5.04985376E-13
  -12.5100002       3.06710495E-13
  -12.5000000       2.53997026E-14
  -12.4899998      -3.32065403E-13
  -12.4799995      -7.49565503E-13
  -12.4700003      -1.20133515E-12
  -12.4600000      -1.65230828E-12
  -12.4499998      -2.05922887E-12
  -12.4399996      -2.37248827E-12
  -12.4300003      -2.53857894E-12
  -12.4200001      -2.50300800E-12
  -12.4099998      -2.21353144E-12
  -12.3999996      -1.62348509E-12
  -12.3900003      -6.95029212E-13
  -12.3800001       5.97871633E-13
  -12.3699999       2.26692254E-12
  -12.3599997       4.30754911E-12
  -12.3500004       6.69766933E-12
  -12.3400002       9.39720090E-12
  -12.3299999       1.23483333E-11
  -12.3199997       1.54765367E-11
  -12.3100004       1.86922595E-11
  -12.3000002       2.18931782E-11
  -12.2900000       2.49669764E-11
  -12.2799997       2.77945444E-11
  -12.2700005       3.02535531E-11
  -12.2600002       3.22223567E-11
  -12.2500000       3.35840453E-11
  -12.2399998       3.42306461E-11
  -12.2299995       3.40672421E-11
  -12.2200003       3.30158227E-11
  -12.2100000       3.10185939E-11
  -12.1999998       2.80406132E-11
  -12.1899996       2.40714046E-11
  -12.1800003       1.91256004E-11
  -12.1700001       1.32424341E-11
  -12.1599998       6.48429357E-12
  -12.1499996      -1.06565212E-12
  -12.1400003      -9.30631613E-12
  -12.1300001      -1.81221288E-11
  -12.1199999      -2.73865514E-11
  -12.1099997      -3.69657464E-11
  -12.1000004      -4.67220880E-11
  -12.0900002      -5.65174782E-11
  -12.0799999      -6.62164143E-11
  -12.0699997      -7.56883306E-11
  -12.0600004      -8.48096038E-11
  -12.0500002      -9.34643196E-11
  -12.0400000      -1.01544280E-10
  -12.0299997      -1.08947913E-10
  -12.0200005      -1.15578241E-10
  -12.0100002      -1.21340590E-10
  -12.0000000      -1.26139779E-10
  -11.9899998      -1.29878427E-10
  -11.9799995      -1.32455935E-10
  -11.9700003      -1.33769079E-10
  -11.9600000      -1.33714609E-10
  -11.9499998      -1.32192993E-10
  -11.9399996      -1.29113872E-10
  -11.9300003      -1.24401336E-10
  -11.9200001      -1.17999971E-10
  -11.9099998      -1.09878710E-10
  -11.8999996      -1.00034168E-10
  -11.8900003      -8.84914156E-11
  -11.8800001      -7.53030832E-11
  -11.8699999      -6.05469286E-11
  -11.8599997      -4.43217824E-11
  -11.8500004      -2.67433454E-11
  -11.8400002      -7.93958128E-12
  -11.8299999       1.19533021E-11
  -11.8199997       3.27940904E-11
  -11.8100004       5.44387035E-11
  -11.8000002       7.67415645E-11
  -11.7900000       9.95556693E-11
  -11.7799997       1.22731686E-10
  -11.7700005       1.46116813E-10
  -11.7600002       1.69552872E-10
  -11.7500000       1.92874244E-10
  -11.7399998       2.15906418E-10
  -11.7299995       2.38464748E-10
  -11.7200003       2.60353822E-10
  -11.7100000       2.81368151E-10
  -11.6999998       3.01293851E-10
  -11.6899996       3.19910931E-10
  -11.6800003       3.36996819E-10
  -11.6700001       3.52330387E-10
  -11.6599998       3.65695668E-10
  -11.6499996       3.76886800E-10
  -11.6400003       3.85710797E-10
  -11.6300001       3.91991578E-10
  -11.6199999       3.95572020E-10
  -11.6099997       3.96315841E-10
  -11.6000004       3.94108773E-10
  -11.5900002       3.88857835E-10
  -11.5799999       3.80490944E-10
  -11.5699997       3.68955311E-10
  -11.5600004       3.54215074E-10
  -11.5500002       3.36248751E-10
  -11.5400000       3.15047849E-10
  -11.5299997       2.90614727E-10
  -11.5200005       2.62962097E-10
  -11.5100002       2.32114258E-10
  -11.5000000       1.98108072E-10
  -11.4899998       1.60996397E-10
  -11.4799995       1.20849830E-10
  -11.4700003       7.77595696E-11
  -11.4600000       3.18386359E-11
  -11.4499998      -1.67785560E-11
  -11.4399996      -6.79364967E-11
  -11.4300003      -1.21463034E-10
  -11.4200001      -1.77171958E-10
  -11.4099998      -2.34867070E-10
  -11.3999996      -2.94345687E-10
  -11.3900003      -3.55402152E-10
  -11.3800001      -4.17829660E-10
  -11.3699999      -4.81422624E-10
  -11.3599997      -5.45977485E-10
  -11.3500004      -6.11293682E-10
  -11.3400002      -6.77176260E-10
  -11.3299999      -7.43436923E-10
  -11.3199997      -8.09895262E-10
  -11.3100004      -8.76380524E-10
  -11.3000002      -9.42732337E-10
  -11.2900000      -1.00879860E-09
  -11.2799997      -1.07443399E-09
  -11.2700005      -1.13949783E-09
  -11.2600002      -1.20385013E-09
  -11.2500000      -1.26734667E-09
  -11.2399998      -1.32983913E-09
  -11.2299995      -1.39117340E-09
  -11.2200003      -1.45119150E-09
  -11.2100000      -1.50973145E-09
  -11.1999998      -1.56663382E-09
  -11.1899996      -1.62174529E-09
  -11.1800003      -1.67492209E-09
  -11.1700001      -1.72603387E-09
  -11.1599998      -1.77496806E-09
  -11.1499996      -1.82163207E-09
  -11.1400003      -1.86595495E-09
  -11.1300001      -1.90789162E-09
  -11.1199999      -1.94741978E-09
  -11.1099997      -1.98454497E-09
  -11.1000004      -2.01929984E-09
  -11.0900002      -2.05173722E-09
  -11.0799999      -2.08193018E-09
  -11.0699997      -2.10996332E-09
  -11.0600004      -2.13592299E-09
  -11.0500002      -2.15989093E-09
  -11.0400000      -2.18193419E-09
  -11.0299997      -2.20209784E-09
  -11.0200005      -2.22040453E-09
  -11.0100002      -2.23684493E-09
  -11.0000000      -2.25139529E-09
  -10.9899998      -2.26401387E-09
  -10.9799995      -2.27465380E-09
  -10.9700003      -2.28327179E-09
  -10.9600000      -2.28983166E-09
  -10.9499998      -2.29431385E-09
  -10.9399996      -2.29671548E-09
  -10.9300003      -2.29705099E-09
  -10.9200001      -2.29534325E-09
  -10.9099998      -2.29162866E-09
  -10.8999996      -2.28593788E-09
  -10.8900003      -2.27830754E-09
  -10.8800001      -2.26876473E-09
  -10.8699999      -2.25733543E-09
  -10.8599997      -2.24403474E-09
  -10.8500004      -2.22886776E-09
  -10.8400002      -2.21183671E-09
  -10.8299999      -2.19292828E-09
  -10.8199997      -2.17210894E-09
  -10.8100004      -2.14933515E-09
  -10.8000002      -2.12454387E-09
  -10.7900000      -2.09764695E-09
  -10.7799997      -2.06854556E-09
  -10.7700005      -2.03713491E-09
  -10.7600002      -2.00331152E-09
  -10.7500000      -1.96698369E-09
  -10.7399998      -1.92808081E-09
  -10.7299995      -1.88657068E-09
  -10.7200003      -1.84243820E-09
  -10.7100000      -1.79572057E-09
  -10.6999998      -1.74645831E-09
  -10.6899996      -1.69472480E-09
  -10.6800003      -1.64058611E-09
  -10.6700001      -1.58410129E-09
  -10.6599998      -1.52531221E-09
  -10.6499996      -1.46422807E-09
  -10.6400003      -1.40084444E-09
  -10.6300001      -1.33514089E-09
  -10.6199999      -1.26708954E-09
  -10.6099997      -1.19667420E-09
  -10.6000004      -1.12390997E-09
  -10.5900002      -1.04884301E-09
  -10.5799999      -9.71572378E-10
  -10.5699997      -8.92233232E-10
  -10.5600004      -8.11009149E-10
  -10.5500002      -7.28101746E-10
  -10.5400000      -6.43740616E-10
  -10.5299997      -5.58145197E-10
  -10.5200005      -4.71536143E-10
  -10.5100002      -3.84120236E-10
  -10.5000000      -2.96087738E-10
  -10.4899998      -2.07621337E-10
  -10.4799995      -1.18909341E-10
  -10.4700003      -3.01407822E-11
  -10.4600000       5.84813586E-11
  -10.4499998       1.46752110E-10
  -10.4399996       2.34442660E-10
  -10.4300003       3.21320748E-10
  -10.4200001       4.07163359E-10
  -10.4099998       4.91747032E-10
  -10.3999996       5.74857717E-10
  -10.3900003       6.56287802E-10
  -10.3800001       7.35837724E-10
  -10.3699999       8.13294432E-10
  -10.3599997       8.88448148E-10
  -10.3500004       9.61065338E-10
  -10.3400002       1.03090758E-09
  -10.3299999       1.09772980E-09
  -10.3199997       1.16129029E-09
  -10.3100004       1.22136390E-09
  -10.3000002       1.27775179E-09
  -10.2900000       1.33029043E-09
  -10.2799997       1.37886302E-09
  -10.2700005       1.42339895E-09
  -10.2600002       1.46387180E-09
  -10.2500000       1.50030133E-09
  -10.2399998       1.53274859E-09
  -10.2299995       1.56130908E-09
  -10.2200003       1.58611380E-09
  -10.2100000       1.60732394E-09
  -10.1999998       1.62512770E-09
  -10.1899996       1.63973868E-09
  -10.1800003       1.65139025E-09
  -10.1700001       1.66032998E-09
  -10.1599998       1.66682124E-09
  -10.1499996       1.67112824E-09
  -10.1400003       1.67351810E-09
  -10.1300001       1.67425496E-09
  -10.1199999       1.67359560E-09
  -10.1099997       1.67178638E-09
  -10.1000004       1.66906244E-09
  -10.0900002       1.66564484E-09
  -10.0799999       1.66174319E-09
  -10.0699997       1.65755165E-09
  -10.0600004       1.65325376E-09
  -10.0500002       1.64901992E-09
  -10.0400000       1.64500802E-09
  -10.0299997       1.64135994E-09
  -10.0200005       1.63819702E-09
  -10.0100002       1.63561464E-09
  -10.0000000       1.63367209E-09
  -9.98999977       1.63239144E-09
  -9.97999954       1.63174962E-09
  -9.97000027       1.63168434E-09
  -9.96000004       1.63209657E-09
  -9.94999981       1.63286529E-09
  -9.93999958       1.63386316E-09
  -9.93000031       1.63497060E-09
  -9.92000008       1.63609237E-09
  -9.90999985       1.63716862E-09
  -9.89999962       1.63818092E-09
  -9.89000034       1.63915748E-09
  -9.88000011       1.64016944E-09
  -9.86999989       1.64132852E-09
  -9.85999966       1.64278158E-09
  -9.85000038       1.64470726E-09
  -9.84000015       1.64731240E-09
  -9.82999992       1.65083280E-09
  -9.81999969       1.65552783E-09
  -9.81000042       1.66167380E-09
  -9.80000019       1.66957193E-09
  -9.78999996       1.67953507E-09
  -9.77999973       1.69188763E-09
  -9.77000046       1.70696024E-09
  -9.76000023       1.72508630E-09
  -9.75000000       1.74660253E-09
  -9.73999977       1.77183324E-09
  -9.72999954       1.80109483E-09
  -9.72000027       1.83468107E-09
  -9.71000004       1.87284788E-09
  -9.69999981       1.91580463E-09
  -9.68999958       1.96369432E-09
  -9.68000031       2.01657779E-09
  -9.67000008       2.07441930E-09
  -9.65999985       2.13707430E-09
  -9.64999962       2.20427920E-09
  -9.64000034       2.27564478E-09
  -9.63000011       2.35066033E-09
  -9.61999989       2.42868037E-09
  -9.60999966       2.50894860E-09
  -9.60000038       2.59058663E-09
  -9.59000015       2.67261835E-09
  -9.57999992       2.75398082E-09
  -9.56999969       2.83354096E-09
  -9.56000042       2.91011526E-09
  -9.55000019       2.98249625E-09
  -9.53999996       3.04946579E-09
  -9.52999973       3.10980419E-09
  -9.52000046       3.16233439E-09
  -9.51000023       3.20591265E-09
  -9.50000000       3.23945915E-09
  -9.48999977       3.26197669E-09
  -9.47999954       3.27256511E-09
  -9.47000027       3.27045369E-09
  -9.46000004       3.25502758E-09
  -9.44999981       3.22584182E-09
  -9.43999958       3.18263971E-09
  -9.43000031       3.12540149E-09
  -9.42000008       3.05433900E-09
  -9.40999985       2.96989278E-09
  -9.39999962       2.87276469E-09
  -9.39000034       2.76390555E-09
  -9.38000011       2.64451039E-09
  -9.36999989       2.51601873E-09
  -9.35999966       2.38008036E-09
  -9.35000038       2.23856045E-09
  -9.34000015       2.09351159E-09
  -9.32999992       1.94716154E-09
  -9.31999969       1.80188053E-09
  -9.31000042       1.66015746E-09
  -9.30000019       1.52455137E-09
  -9.28999996       1.39769429E-09
  -9.27999973       1.28223820E-09
  -9.27000046       1.18078458E-09
  -9.26000023       1.09589515E-09
  -9.25000000       1.03001252E-09
  -9.23999977       9.85432846E-10
  -9.22999954       9.64260005E-10
  -9.22000027       9.68390257E-10
  -9.21000004       9.99481720E-10
  -9.19999981       1.05892894E-09
  -9.18999958       1.14785004E-09
  -9.18000031       1.26708011E-09
  -9.17000008       1.41716072E-09
  -9.15999985       1.59831870E-09
  -9.14999962       1.81045023E-09
  -9.14000034       2.05314099E-09
  -9.13000011       2.32565345E-09
  -9.11999989       2.62693245E-09
  -9.10999966       2.95563529E-09
  -9.10000038       3.31014016E-09
  -9.09000015       3.68859920E-09
  -9.07999992       4.08892342E-09
  -9.06999969       4.50885373E-09
  -9.06000042       4.94593344E-09
  -9.05000019       5.39756773E-09
  -9.03999996       5.86100413E-09
  -9.02999973       6.33337338E-09
  -9.02000046       6.81171297E-09
  -9.01000023       7.29295868E-09
  -9.00000000       7.77404274E-09
  -8.98999977       8.25183122E-09
  -8.97999954       8.72320083E-09
  -8.97000027       9.18505361E-09
  -8.96000004       9.63431379E-09
  -8.94999981       1.00679047E-08
  -8.93999958       1.04828199E-08
  -8.93000031       1.08760840E-08
  -8.92000008       1.12447696E-08
  -8.90999985       1.15859997E-08
  -8.89999962       1.18970087E-08
  -8.89000034       1.21751329E-08
  -8.88000011       1.24178046E-08
  -8.86999989       1.26226007E-08
  -8.85999966       1.27872166E-08
  -8.85000038       1.29094699E-08
  -8.84000015       1.29873197E-08
  -8.82999992       1.30189353E-08
  -8.81999969       1.30026638E-08
  -8.81000042       1.29370621E-08
  -8.80000019       1.28209505E-08
  -8.78999996       1.26534783E-08
  -8.77999973       1.24340716E-08
  -8.77000046       1.21625066E-08
  -8.76000023       1.18388792E-08
  -8.75000000       1.14636149E-08
  -8.73999977       1.10374492E-08
  -8.72999954       1.05614539E-08
  -8.72000027       1.00369997E-08
  -8.71000004       9.46571888E-09
  -8.69999981       8.84955753E-09
  -8.68999958       8.19069434E-09
  -8.68000031       7.49151852E-09
  -8.67000008       6.75458089E-09
  -8.65999985       5.98253136E-09
  -8.64999962       5.17809617E-09
  -8.64000034       4.34402736E-09
  -8.63000011       3.48305562E-09
  -8.61999989       2.59788768E-09
  -8.60999966       1.69121883E-09
  -8.60000038       7.65576380E-10
  -8.59000015      -1.76485632E-10
  -8.57999992      -1.13255760E-09
  -8.56999969      -2.10034745E-09
  -8.56000042      -3.07770653E-09
  -8.55000019      -4.06273060E-09
  -8.53999996      -5.05363973E-09
  -8.52999973      -6.04887918E-09
  -8.52000046      -7.04710956E-09
  -8.51000023      -8.04716294E-09
  -8.50000000      -9.04801833E-09
  -8.48999977      -1.00487938E-08
  -8.47999954      -1.10486775E-08
  -8.47000027      -1.20469501E-08
  -8.46000004      -1.30429356E-08
  -8.44999981      -1.40359679E-08
  -8.43999958      -1.50254262E-08
  -8.43000031      -1.60106506E-08
  -8.42000008      -1.69909509E-08
  -8.40999985      -1.79655739E-08
  -8.39999962      -1.89337541E-08
  -8.39000034      -1.98945820E-08
  -8.38000011      -2.08471125E-08
  -8.36999989      -2.17903811E-08
  -8.35999966      -2.27232633E-08
  -8.35000038      -2.36446418E-08
  -8.34000015      -2.45533744E-08
  -8.32999992      -2.54482710E-08
  -8.31999969      -2.63281787E-08
  -8.31000042      -2.71919181E-08
  -8.30000019      -2.80383095E-08
  -8.28999996      -2.88662534E-08
  -8.27999973      -2.96745899E-08
  -8.27000046      -3.04621963E-08
  -8.26000023      -3.12279766E-08
  -8.25000000      -3.19708064E-08
  -8.23999977      -3.26895311E-08
  -8.22999954      -3.33829533E-08
  -8.22000027      -3.40498367E-08
  -8.21000004      -3.46888669E-08
  -8.19999981      -3.52986405E-08
  -8.18999958      -3.58776902E-08
  -8.18000031      -3.64244492E-08
  -8.17000008      -3.69372870E-08
  -8.15999985      -3.74145479E-08
  -8.14999962      -3.78545728E-08
  -8.14000034      -3.82556564E-08
  -8.13000011      -3.86161396E-08
  -8.11999989      -3.89344450E-08
  -8.10999966      -3.92090449E-08
  -8.10000038      -3.94385005E-08
  -8.09000015      -3.96214794E-08
  -8.07999992      -3.97567952E-08
  -8.06999969      -3.98433926E-08
  -8.06000042      -3.98803692E-08
  -8.05000019      -3.98669897E-08
  -8.03999996      -3.98027389E-08
  -8.02999973      -3.96872863E-08
  -8.02000046      -3.95204935E-08
  -8.01000023      -3.93024564E-08
  -8.00000000      -3.90334911E-08
  -7.98999977      -3.87141341E-08
  -7.98000002      -3.83451919E-08
  -7.96999979      -3.79277054E-08
  -7.96000004      -3.74629572E-08
  -7.94999981      -3.69525281E-08
  -7.94000006      -3.63982693E-08
  -7.92999983      -3.58023087E-08
  -7.92000008      -3.51670266E-08
  -7.90999985      -3.44950912E-08
  -7.90000010      -3.37893695E-08
  -7.88999987      -3.30529275E-08
  -7.88000011      -3.22890017E-08
  -7.86999989      -3.15009423E-08
  -7.86000013      -3.06922061E-08
  -7.84999990      -2.98663103E-08
  -7.84000015      -2.90267970E-08
  -7.82999992      -2.81772241E-08
  -7.82000017      -2.73211143E-08
  -7.80999994      -2.64619224E-08
  -7.80000019      -2.56030184E-08
  -7.78999996      -2.47476404E-08
  -7.78000021      -2.38988971E-08
  -7.76999998      -2.30597372E-08
  -7.76000023      -2.22329639E-08
  -7.75000000      -2.14212132E-08
  -7.73999977      -2.06269668E-08
  -7.73000002      -1.98525552E-08
  -7.71999979      -1.91001135E-08
  -7.71000004      -1.83715869E-08
  -7.69999981      -1.76686896E-08
  -7.69000006      -1.69929049E-08
  -7.67999983      -1.63454388E-08
  -7.67000008      -1.57272293E-08
  -7.65999985      -1.51389461E-08
  -7.65000010      -1.45809862E-08
  -7.63999987      -1.40535166E-08
  -7.63000011      -1.35564395E-08
  -7.61999989      -1.30894380E-08
  -7.61000013      -1.26519604E-08
  -7.59999990      -1.22432242E-08
  -7.59000015      -1.18622685E-08
  -7.57999992      -1.15079306E-08
  -7.57000017      -1.11789120E-08
  -7.55999994      -1.08738334E-08
  -7.55000019      -1.05912505E-08
  -7.53999996      -1.03297157E-08
  -7.53000021      -1.00877982E-08
  -7.51999998      -9.86412640E-09
  -7.51000023      -9.65736557E-09
  -7.50000000      -9.46625178E-09
  -7.48999977      -9.28953447E-09
  -7.48000002      -9.12602349E-09
  -7.46999979      -8.97461838E-09
  -7.46000004      -8.83427465E-09
  -7.44999981      -8.70404282E-09
  -7.44000006      -8.58306670E-09