  -16.0000000       0.00000000    
  -15.9899998       0.00000000    
  -15.9799995       0.00000000    
  -15.9700003       0.00000000    
  -15.9600000       0.00000000    
  -15.9499998       0.00000000    
  -15.9399996       0.00000000    
  -15.9300003       0.00000000    
  -15.9200001       0.00000000    
  -15.9099998       0.00000000    
  -15.8999996       0.00000000    
  -15.8900003       0.00000000    
  -15.8800001       0.00000000    
  -15.8699999       0.00000000    
  -15.8599997      -0.00000000    
  -15.8500004      -1.40129846E-45
  -15.8400002      -1.82168800E-44
  -15.8299999      -1.34524653E-43
  -15.8199997      -8.18358303E-43
  -15.8100004      -4.25434214E-42
  -15.8000002      -1.90828825E-41
  -15.7900000      -7.33860006E-41
  -15.7799997      -2.37461235E-40
  -15.7700005      -6.20018519E-40
  -15.7600002      -1.15479745E-39
  -15.7500000      -6.25266381E-40
  -15.7399998       6.23590849E-39
  -15.7299995       3.51095582E-38
  -15.7200003       1.21957382E-37
  -15.7100000       3.29931688E-37
  -15.6999998       7.32038901E-37
  -15.6899996       1.32639559E-36
  -15.6800003       1.82595046E-36
  -15.6700001       1.28963538E-36
  -15.6599998      -2.32759881E-36
  -15.6499996      -1.24071865E-35
  -15.6400003      -3.31005692E-35
  -15.6300001      -6.72060426E-35
  -15.6199999      -1.11912699E-34
  -15.6099997      -1.52572520E-34
  -15.6000004      -1.55923460E-34
  -15.5900002      -6.57356587E-35
  -15.5799999       1.94310387E-34
  -15.5699997       7.02760803E-34
  -15.5600004       1.49443021E-33
  -15.5500002       2.46687591E-33
  -15.5400000       3.22292082E-33
  -15.5299997       2.87056639E-33
  -15.5200005      -9.28164026E-35
  -15.5100002      -7.50454181E-33
  -15.5000000      -2.03901603E-32
  -15.4899998      -3.65467042E-32
  -15.4799995      -4.71609627E-32
  -15.4700003      -3.43826543E-32
  -15.4600000       2.60071895E-32
  -15.4499998       1.51348953E-31
  -15.4399996       3.25168468E-31
  -15.4300003       4.62666489E-31
  -15.4200001       3.91341418E-31
  -15.4099998      -1.12897957E-31
  -15.3999996      -1.19122745E-30
  -15.3900003      -2.66162710E-30
  -15.3800001      -3.75524742E-30
  -15.3699999      -3.04090608E-30
  -15.3599997       1.15343709E-30
  -15.3500004       9.57713729E-30
  -15.3400002       2.02694933E-29
  -15.3299999       2.69615808E-29
  -15.3199997       1.92793472E-29
  -15.3100004      -1.33175061E-29
  -15.3000002      -7.29036767E-29
  -15.2900000      -1.41700464E-28
  -15.2799997      -1.74339476E-28
  -15.2700005      -1.04190427E-28
  -15.2600002       1.26119221E-28
  -15.2500000       5.08745276E-28
  -15.2399998       9.07181856E-28
  -15.2299995       1.02793420E-27
  -15.2200003       4.85883092E-28
  -15.2100000      -9.92170544E-28
  -15.1999998      -3.24407646E-27
  -15.1899996      -5.35775491E-27
  -15.1800003      -5.61325379E-27
  -15.1700001      -1.97457008E-27
  -15.1599998       6.70797933E-27
  -15.1499996       1.90003297E-26
  -15.1400003       2.94736461E-26
  -15.1300001       2.88729963E-26
  -15.1199999       7.19501928E-27
  -15.1099997      -3.98855315E-26
  -15.1000004      -1.02793580E-25
  -15.0900002      -1.52228868E-25
  -15.0799999      -1.41916422E-25
  -15.0699997      -2.54911850E-26
  -15.0600004       2.11910078E-25
  -15.0500002       5.16347131E-25
  -15.0400000       7.42478152E-25
  -15.0299997       6.73108731E-25
  -15.0200005       1.02719532E-25
  -15.0100002      -1.01782926E-24
  -15.0000000      -2.42070745E-24
  -14.9899998      -3.43636172E-24
  -14.9799995      -3.09957393E-24
  -14.9700003      -5.28554605E-25
  -14.9600000       4.45119578E-24
  -14.9499998       1.06430684E-23
  -14.9399996       1.51608700E-23
  -14.9300003       1.39152981E-23
  -14.9200001       3.20910076E-24
  -14.9099998      -1.77122418E-23
  -14.8999996      -4.40015821E-23
  -14.8900003      -6.39689959E-23
  -14.8800001      -6.10269801E-23
  -14.8699999      -1.99467945E-23
  -14.8599997       6.32084961E-23
  -14.8500004       1.70709424E-22
  -14.8400002       2.58070380E-22
  -14.8299999       2.60830030E-22
  -14.8199997       1.17429430E-22
  -14.8100004      -1.93919328E-22
  -14.8000002      -6.15797293E-22
  -14.7900000      -9.89964042E-22
  -14.7799997      -1.07730692E-21
  -14.7700005      -6.35450456E-22
  -14.7600002       4.51233991E-22
  -14.7500000       2.02636188E-21
  -14.7399998       3.56970116E-21
  -14.7299995       4.24142352E-21
  -14.7200003       3.12346570E-21
  -14.7100000      -3.48017891E-22
  -14.6999998      -5.86898458E-21
  -14.6899996      -1.18903150E-20
  -14.6800003      -1.56528147E-20
  -14.6700001      -1.38599992E-20
  -14.6599998      -4.02003598E-21
  -14.6499996       1.38314502E-20
  -14.6400003       3.56704579E-20
  -14.6300001       5.31582709E-20
  -14.6199999       5.52458938E-20
  -14.6099997       3.19969908E-20
  -14.6000004      -2.00059270E-20
  -14.5900002      -9.24121786E-20
  -14.5799999      -1.62599862E-19
  -14.5699997      -1.96560964E-19
  -14.5600004      -1.58651186E-19
  -14.5500002      -2.72186301E-20
  -14.5400000       1.88100031E-19
  -14.5299997       4.34516425E-19
  -14.5200005       6.17794730E-19
  -14.5100002       6.23486870E-19
  -14.5000000       3.57742975E-19
  -14.4899998      -2.00990853E-19
  -14.4799995      -9.57037836E-19
  -14.4700003      -1.68224848E-18
  -14.4600000      -2.05098109E-18
  -14.4499998      -1.73342429E-18
  -14.4399996      -5.33876068E-19
  -14.4300003       1.46461065E-18
  -14.4200001       3.80750078E-18
  -14.4099998       5.68977632E-18
  -14.3999996       6.13136214E-18
  -14.3900003       4.30093345E-18
  -14.3800001      -8.17168431E-20
  -14.3699999      -6.39559630E-18
  -14.3599997      -1.29836800E-17
  -14.3500004      -1.73753821E-17
  -14.3400002      -1.69219614E-17
  -14.3299999      -9.75838121E-18
  -14.3199997       4.15681750E-18
  -14.3100004       2.22976196E-17
  -14.3000002       3.95229742E-17
  -14.2900000       4.90066529E-17
  -14.2799997       4.41555000E-17
  -14.2700005       2.11562923E-17
  -14.2600002      -1.85731197E-17
  -14.2500000      -6.69728239E-17
  -14.2399998      -1.09856018E-16
  -14.2299995      -1.29832575E-16
  -14.2200003      -1.11407451E-16
  -14.2100000      -4.71564947E-17
  -14.1999998       5.68652657E-17
  -14.1899996       1.78648897E-16
  -14.1800003       2.82511561E-16
  -14.1700001       3.26857097E-16
  -14.1599998       2.76462528E-16
  -14.1499996       1.16482475E-16
  -14.1400003      -1.36062701E-16
  -14.1300001      -4.27955800E-16
  -14.1199999      -6.76186931E-16
  -14.1099997      -7.86116720E-16
  -14.1000004      -6.78820410E-16
  -14.0900002      -3.21290158E-16
  -14.0799999       2.49492046E-16
  -14.0699997       9.18053166E-16
  -14.0600004       1.50447642E-15
  -14.0500002       1.80262884E-15
  -14.0400000       1.63698360E-15
  -14.0299997       9.25200748E-16
  -14.0200005      -2.71420088E-16
  -14.0100002      -1.72820429E-15
  -14.0000000      -3.08184785E-15
  -13.9899998      -3.90319431E-15
  -13.9799995      -3.80796409E-15
  -13.9700003      -2.58154466E-15
  -13.9600000      -2.84234346E-16
  -13.9499998       2.69867408E-15
  -13.9399996       5.68941316E-15
  -13.9300003       7.84235365E-15
  -13.9200001       8.34554373E-15
  -13.9099998       6.65842266E-15
  -13.8999996       2.72591593E-15
  -13.8900003      -2.89704305E-15
  -13.8800001      -9.06460694E-15
  -13.8699999      -1.42276107E-14
  -13.8599997      -1.67719097E-14
  -13.8500004      -1.54442177E-14
  -13.8400002      -9.76521923E-15
  -13.8299999      -3.14138500E-16
  -13.8199997       1.12174987E-14
  -13.8100004       2.22605273E-14
  -13.8000002       2.98802663E-14
  -13.7900000       3.14775536E-14
  -13.7799997       2.55236031E-14
  -13.7700005       1.21388944E-14
  -13.7600002      -6.66278446E-15
  -13.7500000      -2.71815143E-14
  -13.7399998      -4.47033496E-14
  -13.7299995      -5.45291588E-14
  -13.7200003      -5.31423118E-14
  -13.7100000      -3.92323875E-14
  -13.6999998      -1.42946381E-14
  -13.6899996       1.73968607E-14
  -13.6800003       4.95023266E-14
  -13.6700001       7.49033946E-14
  -13.6599998       8.72924779E-14
  -13.6499996       8.26916457E-14
  -13.6400003       6.05195419E-14
  -13.6300001       2.39178879E-14
  -13.6199999      -2.07742759E-14
  -13.6099997      -6.52939142E-14
  -13.6000004      -1.01173227E-13
  -13.5900002      -1.21482848E-13
  -13.5799999      -1.22171885E-13
  -13.5699997      -1.02695000E-13
  -13.5600004      -6.58247803E-14
  -13.5500002      -1.67849624E-14
  -13.5400000       3.79658090E-14
  -13.5299997       9.18864052E-14
  -13.5200005       1.39089031E-13
  -13.5100002       1.74495970E-13
  -13.5000000       1.93520208E-13
  -13.4899998       1.91618585E-13
  -13.4799995       1.64196280E-13
  -13.4700003       1.07288073E-13
  -13.4600000       1.91853013E-14
  -13.4499998      -9.72242781E-14
  -13.4399996      -2.32071171E-13
  -13.4300003      -3.67052851E-13
  -13.4200001      -4.75947190E-13
  -13.4099998      -5.27817753E-13
  -13.3999996      -4.92999792E-13
  -13.3900003      -3.51087215E-13
  -13.3800001      -9.92792274E-14
  -13.3699999       2.41162071E-13
  -13.3599997       6.22692490E-13
  -13.3500004       9.75300569E-13
  -13.3400002       1.21696078E-12
  -13.3299999       1.26970038E-12
  -13.3199997       1.07854687E-12
  -13.3100004       6.29285523E-13
  -13.3000002      -3.95784784E-14
  -13.2900000      -8.34699876E-13
  -13.2799997      -1.61797615E-12
  -13.2700005      -2.22861790E-12
  -13.2600002      -2.51405580E-12
  -13.2500000      -2.36393283E-12
  -13.2399998      -1.73985620E-12
  -13.2299995      -6.93596059E-13
  -13.2200003       6.31828736E-13
  -13.2100000       2.02042246E-12
  -13.1999998       3.21890279E-12
  -13.1899996       3.98371353E-12
  -13.1800003       4.13016453E-12
  -13.1700001       3.57333108E-12
  -13.1599998       2.35146624E-12
  -13.1499996       6.26025273E-13
  -13.1400003      -1.34269950E-12
  -13.1300001      -3.24004864E-12
  -13.1199999      -4.75276199E-12
  -13.1099997      -5.62471424E-12
  -13.1000004      -5.70129317E-12
  -13.0900002      -4.95375355E-12
  -13.0799999      -3.47950271E-12
  -13.0699997      -1.47974038E-12
  -13.0600004       7.79223799E-13
  -13.0500002       3.01145870E-12
  -13.0400000       4.95356317E-12
  -13.0299997       6.39530312E-12
  -13.0200005       7.19450584E-12
  -13.0100002       7.27680763E-12
  -13.0000000       6.62509587E-12
  -12.9899998       5.26601289E-12
  -12.9799995       3.26084537E-12
  -12.9700003       7.05695268E-13
  -12.9600000      -2.25857961E-12
  -12.9499998      -5.43088708E-12
  -12.9399996      -8.53702178E-12
  -12.9300003      -1.12291209E-11
  -12.9200001      -1.31057162E-11
  -12.9099998      -1.37562427E-11
  -12.8999996      -1.28274604E-11
  -12.8900003      -1.01022125E-11
  -12.8800001      -5.57518311E-12
  -12.8699999       4.92332845E-13
  -12.8599997       7.55531662E-12
  -12.8500004       1.48168283E-11
  -12.8400002       2.13110137E-11
  -12.8299999       2.60292152E-11
  -12.8199997       2.80714323E-11
  -12.8100004       2.67981852E-11
  -12.8000002       2.19560568E-11
  -12.7900000       1.37529476E-11
  -12.7799997       2.86734915E-12
  -12.7700005      -9.61275070E-12
  -12.7600002      -2.23134046E-11
  -12.7500000      -3.37419988E-11
  -12.7399998      -4.24728724E-11
  -12.7299995      -4.73238636E-11
  -12.7200003      -4.74998478E-11
  -12.7100000      -4.26864759E-11
  -12.6999998      -3.30863982E-11
  -12.6899996      -1.93992513E-11
  -12.6800003      -2.75300442E-12
  -12.6700001       1.54019627E-11
  -12.6599998       3.34245652E-11
  -12.6499996       4.96300570E-11
  -12.6400003       6.24437377E-11
  -12.6300001       7.05526193E-11
  -12.6199999       7.30448202E-11
  -12.6099997       6.95224225E-11
  -12.6000004       6.01706532E-11
  -12.5900002       4.57645311E-11
  -12.5799999       2.75975024E-11
  -12.5699997       7.32544407E-12
  -12.5600004      -1.32662249E-11
  -12.5500002      -3.25468125E-11
  -12.5400000      -4.93334817E-11
  -12.5299997      -6.31383487E-11
  -12.5200005      -7.43109879E-11
  -12.5100002      -8.40258904E-11
  -12.5000000      -9.40846567E-11
  -12.4899998      -1.06531083E-10
  -12.4799995      -1.23110994E-10
  -12.4700003      -1.44641729E-10
  -12.4600000      -1.70379266E-10
  -12.4499998      -1.97482281E-10
  -12.4399996      -2.20672161E-10
  -12.4300003      -2.32165689E-10
  -12.4200001      -2.21926533E-10
  -12.4099998      -1.78245724E-10
  -12.3999996      -8.86176965E-11
  -12.3900003       5.91593927E-11
  -12.3800001       2.75755335E-10
  -12.3699999       5.69067848E-10
  -12.3599997       9.43095380E-10
  -12.3500004       1.39702960E-09
  -12.3400002       1.92466731E-09
  -12.3299999       2.51420484E-09
  -12.3199997       3.14844573E-09
  -12.3100004       3.80541731E-09
  -12.3000002       4.45936088E-09
  -12.2900000       5.08200060E-09
  -12.2799997       5.64400571E-09
  -12.2700005       6.11651529E-09
  -12.2600002       6.47262199E-09
  -12.2500000       6.68866518E-09
  -12.2399998       6.74528389E-09
  -12.2299995       6.62814426E-09
  -12.2200003       6.32832231E-09
  -12.2100000       5.84236393E-09
  -12.1999998       5.17204057E-09
  -12.1899996       4.32386527E-09
  -12.1800003       3.30842798E-09
  -12.1700001       2.13958984E-09
  -12.1599998       8.33605462E-10
  -12.1499996      -5.91811600E-10
  -12.1400003      -2.11841633E-09
  -12.1300001      -3.72831765E-09
  -12.1199999      -5.40471312E-09
  -12.1099997      -7.13244130E-09
  -12.1000004      -8.89821195E-09
  -12.0900002      -1.06904414E-08
  -12.0799999      -1.24986208E-08
  -12.0699997      -1.43122696E-08
  -12.0600004      -1.61195270E-08
  -12.0500002      -1.79055810E-08
  -12.0400000      -1.96511589E-08
  -12.0299997      -2.13313722E-08
  -12.0200005      -2.29151844E-08
  -12.0100002      -2.43656650E-08
  -12.0000000      -2.56411550E-08
  -11.9899998      -2.66971956E-08
  -11.9799995      -2.74891612E-08
  -11.9700003      -2.79751138E-08
  -11.9600000      -2.81186505E-08
  -11.9499998      -2.78912697E-08
  -11.9399996      -2.72740071E-08
  -11.9300003      -2.62582063E-08
  -11.9200001      -2.48453258E-08
  -11.9099998      -2.30458514E-08
  -11.8999996      -2.08776925E-08
  -11.8900003      -1.83642381E-08
  -11.8800001      -1.55323061E-08
  -11.8699999      -1.24103456E-08
  -11.8599997      -9.02700314E-09
  -11.8500004      -5.41004086E-09
  -11.8400002      -1.58583491E-09
  -11.8299999       2.42092923E-09
  -11.8199997       6.58712862E-09
  -11.8100004       1.08909664E-08
  -11.8000002       1.53115849E-08
  -11.7900000       1.98285495E-08
  -11.7799997       2.44212330E-08
  -11.7700005       2.90681808E-08
  -11.7600002       3.37463106E-08
  -11.7500000       3.84301089E-08
  -11.7399998       4.30907861E-08
  -11.7299995       4.76955293E-08
  -11.7200003       5.22070529E-08
  -11.7100000       5.65832572E-08
  -11.6999998       6.07775235E-08
  -11.6899996       6.47394529E-08
  -11.6800003       6.84159289E-08
  -11.6700001       7.17529289E-08
  -11.6599998       7.46972546E-08
  -11.6499996       7.71985782E-08
  -11.6400003       7.92110910E-08
  -11.6300001       8.06947966E-08
  -11.6199999       8.16161645E-08
  -11.6099997       8.19482082E-08
  -11.6000004       8.16695831E-08
  -11.5900002       8.07635203E-08
  -11.5799999       7.92162567E-08
  -11.5699997       7.70157200E-08
  -11.5600004       7.41504991E-08
  -11.5500002       7.06092749E-08
  -11.5400000       6.63809558E-08
  -11.5299997       6.14554878E-08
  -11.5200005       5.58249091E-08
  -11.5100002       4.94845622E-08
  -11.5000000       4.24347242E-08
  -11.4899998       3.46812143E-08
  -11.4799995       2.62366857E-08
  -11.4700003       1.71209269E-08
  -11.4600000       7.36120498E-09
  -11.4499998      -3.00748448E-09
  -11.4399996      -1.39425396E-08
  -11.4300003      -2.53940282E-08
  -11.4200001      -3.73053801E-08
  -11.4099998      -4.96146768E-08
  -11.3999996      -6.22565324E-08
  -11.3900003      -7.51647775E-08
  -11.3800001      -8.82753639E-08
  -11.3699999      -1.01529437E-07
  -11.3599997      -1.14876059E-07
  -11.3500004      -1.28274039E-07
  -11.3400002      -1.41692638E-07
  -11.3299999      -1.55110698E-07
  -11.3199997      -1.68514745E-07
  -11.3100004      -1.81896112E-07
  -11.3000002      -1.95247424E-07
  -11.2900000      -2.08559570E-07
  -11.2799997      -2.21818965E-07
  -11.2700005      -2.35005913E-07
  -11.2600002      -2.48093727E-07
  -11.2500000      -2.61048683E-07
  -11.2399998      -2.73831290E-07
  -11.2299995      -2.86396983E-07
  -11.2200003      -2.98697671E-07
  -11.2100000      -3.10683987E-07
  -11.1999998      -3.22306676E-07
  -11.1899996      -3.33519182E-07
  -11.1800003      -3.44279528E-07
  -11.1700001      -3.54553009E-07
  -11.1599998      -3.64314275E-07
  -11.1499996      -3.73548630E-07
  -11.1400003      -3.82253035E-07
  -11.1300001      -3.90434508E-07
  -11.1199999      -3.98110274E-07
  -11.1099997      -4.05304036E-07
  -11.1000004      -4.12043136E-07
  -11.0900002      -4.18356279E-07
  -11.0799999      -4.24271121E-07
  -11.0699997      -4.29810797E-07
  -11.0600004      -4.34995911E-07
  -11.0500002      -4.39841500E-07
  -11.0400000      -4.44361007E-07
  -11.0299997      -4.48564748E-07
  -11.0200005      -4.52463070E-07
  -11.0100002      -4.56066942E-07
  -11.0000000      -4.59388502E-07
  -10.9899998      -4.62442102E-07
  -10.9799995      -4.65244085E-07
  -10.9700003      -4.67812271E-07
  -10.9600000      -4.70164537E-07
  -10.9499998      -4.72317481E-07
  -10.9399996      -4.74284832E-07
  -10.9300003      -4.76074831E-07
  -10.9200001      -4.77689809E-07
  -10.9099998      -4.79124992E-07
  -10.8999996      -4.80367589E-07
  -10.8900003      -4.81399638E-07
  -10.8800001      -4.82197663E-07
  -10.8699999      -4.82734208E-07
  -10.8599997      -4.82981932E-07
  -10.8500004      -4.82913265E-07
  -10.8400002      -4.82503083E-07
  -10.8299999      -4.81728136E-07
  -10.8199997      -4.80568929E-07
  -10.8100004      -4.79008918E-07
  -10.8000002      -4.77032984E-07
  -10.7900000      -4.74631690E-07
  -10.7799997      -4.71795374E-07
  -10.7700005      -4.68519147E-07
  -10.7600002      -4.64798632E-07
  -10.7500000      -4.60630588E-07
  -10.7399998      -4.56009133E-07
  -10.7299995      -4.50926962E-07
  -10.7200003      -4.45373558E-07
  -10.7100000      -4.39334116E-07
  -10.6999998      -4.32793087E-07
  -10.6899996      -4.25738193E-07
  -10.6800003      -4.18160340E-07
  -10.6700001      -4.10060807E-07
  -10.6599998      -4.01456049E-07
  -10.6499996      -3.92374176E-07
  -10.6400003      -3.82859071E-07
  -10.6300001      -3.72967605E-07
  -10.6199999      -3.62769185E-07
  -10.6099997      -3.52342511E-07
  -10.6000004      -3.41771937E-07
  -10.5900002      -3.31145401E-07
  -10.5799999      -3.20554108E-07
  -10.5699997      -3.10081731E-07
  -10.5600004      -2.99811489E-07
  -10.5500002      -2.89812988E-07
  -10.5400000      -2.80141563E-07
  -10.5299997      -2.70835585E-07
  -10.5200005      -2.61906109E-07
  -10.5100002      -2.53341454E-07
  -10.5000000      -2.45110755E-07
  -10.4899998      -2.37165949E-07
  -10.4799995      -2.29447565E-07
  -10.4700003      -2.21895192E-07
  -10.4600000      -2.14455213E-07
  -10.4499998      -2.07084369E-07
  -10.4399996      -1.99754268E-07
  -10.4300003      -1.92452831E-07
  -10.4200001      -1.85182088E-07
  -10.4099998      -1.77955471E-07
  -10.3999996      -1.70792433E-07
  -10.3900003      -1.63713537E-07
  -10.3800001      -1.56738153E-07
  -10.3699999      -1.49879455E-07
  -10.3599997      -1.43139687E-07
  -10.3500004      -1.36509570E-07
  -10.3400002      -1.29967347E-07
  -10.3299999      -1.23472660E-07
  -10.3199997      -1.16973489E-07
  -10.3100004      -1.10405047E-07
  -10.3000002      -1.03692834E-07
  -10.2900000      -9.67621219E-08
  -10.2799997      -8.95417145E-08
  -10.2700005      -8.19717840E-08
  -10.2600002      -7.40075876E-08
  -10.2500000      -6.56275532E-08
  -10.2399998      -5.68301743E-08
  -10.2299995      -4.76382205E-08
  -10.2200003      -3.80929208E-08
  -10.2100000      -2.82520105E-08
  -10.1999998      -1.81828401E-08
  -10.1899996      -7.95745336E-09
  -10.1800003       2.35897524E-09
  -10.1700001       1.27065043E-08
  -10.1599998       2.30435671E-08
  -10.1499996       3.33489716E-08
  -10.1400003       4.36225882E-08
  -10.1300001       5.38854295E-08
  -10.1199999       6.41747206E-08
  -10.1099997       7.45387965E-08
  -10.1000004       8.50237853E-08
  -10.0900002       9.56660244E-08
  -10.0799999       1.06481139E-07
  -10.0699997       1.17455059E-07
  -10.0600004       1.28542581E-07
  -10.0500002       1.39664337E-07
  -10.0400000       1.50708701E-07
  -10.0299997       1.61541109E-07
  -10.0200005       1.72009265E-07
  -10.0100002       1.81950625E-07
  -10.0000000       1.91201778E-07
  -9.98999977       1.99602454E-07
  -9.97999954       2.07002472E-07
  -9.97000027       2.13261885E-07
  -9.96000004       2.18255508E-07
  -9.94999981       2.21875439E-07
  -9.93999958       2.24032931E-07
  -9.93000031       2.24659132E-07
  -9.92000008       2.23708597E-07
  -9.90999985       2.21158530E-07
  -9.89999962       2.17009827E-07
  -9.89000034       2.11284771E-07
  -9.88000011       2.04025170E-07
  -9.86999989       1.95287313E-07
  -9.85999966       1.85139584E-07
  -9.85000038       1.73656943E-07
  -9.84000015       1.60919114E-07
  -9.82999992       1.47007938E-07
  -9.81999969       1.32007713E-07
  -9.81000042       1.16004777E-07
  -9.80000019       9.90898812E-08
  -9.78999996       8.13568448E-08
  -9.77999973       6.29034815E-08
  -9.77000046       4.38306849E-08
  -9.76000023       2.42412224E-08
  -9.75000000       4.23725366E-09
  -9.73999977      -1.60800191E-08
  -9.72999954      -3.66108175E-08
  -9.72000027      -5.72570826E-08
  -9.71000004      -7.79217260E-08
  -9.69999981      -9.85075914E-08
  -9.68999958      -1.18918770E-07
  -9.68000031      -1.39062692E-07
  -9.67000008      -1.58854348E-07
  -9.65999985      -1.78221796E-07
  -9.64999962      -1.97112357E-07
  -9.64000034      -2.15498318E-07
  -9.63000011      -2.33379751E-07
  -9.61999989      -2.50785490E-07
  -9.60999966      -2.67770986E-07
  -9.60000038      -2.84412977E-07
  -9.59000015      -3.00803435E-07
  -9.57999992      -3.17042833E-07
  -9.56999969      -3.33234425E-07
  -9.56000042      -3.49480388E-07
  -9.55000019      -3.65877980E-07
  -9.53999996      -3.82518664E-07
  -9.52999973      -3.99486680E-07
  -9.52000046      -4.16857119E-07
  -9.51000023      -4.34694300E-07
  -9.50000000      -4.53048472E-07
  -9.48999977      -4.71953854E-07
  -9.47999954      -4.91425396E-07
  -9.47000027      -5.11457358E-07
  -9.46000004      -5.32023421E-07
  -9.44999981      -5.53076177E-07
  -9.43999958      -5.74549517E-07
  -9.43000031      -5.96359769E-07
  -9.42000008      -6.18406943E-07
  -9.40999985      -6.40577184E-07
  -9.39999962      -6.62743503E-07
  -9.39000034      -6.84766974E-07
  -9.38000011      -7.06498554E-07
  -9.36999989      -7.27780048E-07
  -9.35999966      -7.48445473E-07
  -9.35000038      -7.68321172E-07
  -9.34000015      -7.87225531E-07
  -9.32999992      -8.04967499E-07
  -9.31999969      -8.21345907E-07
  -9.31000042      -8.36146739E-07
  -9.30000019      -8.49143873E-07
  -9.28999996      -8.60099931E-07
  -9.27999973      -8.68768666E-07
  -9.27000046      -8.74900877E-07
  -9.26000023      -8.78249011E-07
  -9.25000000      -8.78573928E-07
  -9.23999977      -8.75650926E-07
  -9.22999954      -8.69274174E-07
  -9.22000027      -8.59262684E-07
  -9.21000004      -8.45462978E-07
  -9.19999981      -8.27754263E-07
  -9.18999958      -8.06050707E-07
  -9.18000031      -7.80306209E-07
  -9.17000008      -7.50515881E-07
  -9.15999985      -7.16717977E-07
  -9.14999962      -6.78994240E-07
  -9.14000034      -6.37468190E-07
  -9.13000011      -5.92302285E-07
  -9.11999989      -5.43695535E-07
  -9.10999966      -4.91880087E-07
  -9.10000038      -4.37118388E-07
  -9.09000015      -3.79702016E-07
  -9.07999992      -3.19949947E-07
  -9.06999969      -2.58205432E-07
  -9.06000042      -1.94833348E-07
  -9.05000019      -1.30215398E-07
  -9.03999996      -6.47450520E-08
  -9.02999973       1.17764909E-09
  -9.02000046       6.71492160E-08
  -9.01000023       1.32763915E-07
  -9.00000000       1.97613076E-07
  -8.98999977       2.61279837E-07
  -8.97999954       3.23337389E-07
  -8.97000027       3.83345366E-07
  -8.96000004       4.40848709E-07
  -8.94999981       4.95380959E-07
  -8.93999958       5.46469153E-07
  -8.93000031       5.93640948E-07
  -8.92000008       6.36431366E-07
  -8.90999985       6.74387877E-07
  -8.89999962       7.07073355E-07
  -8.89000034       7.34067157E-07
  -8.88000011       7.54963253E-07
  -8.86999989       7.69371923E-07
  -8.85999966       7.76917943E-07
  -8.85000038       7.77247521E-07
  -8.84000015       7.70027896E-07
  -8.82999992       7.54955749E-07
  -8.81999969       7.31762498E-07
  -8.81000042       7.00213207E-07
  -8.80000019       6.60108526E-07
  -8.78999996       6.11286112E-07
  -8.77999973       5.53619259E-07
  -8.77000046       4.87013722E-07
  -8.76000023       4.11413311E-07
  -8.75000000       3.26801342E-07
  -8.73999977       2.33204489E-07
  -8.72999954       1.30698467E-07
  -8.72000027       1.93974099E-08
  -8.71000004      -1.00543517E-07
  -8.69999981      -2.28934823E-07
  -8.68999958      -3.65573499E-07
  -8.68000031      -5.10240852E-07
  -8.67000008      -6.62718719E-07
  -8.65999985      -8.22784727E-07
  -8.64999962      -9.90216677E-07
  -8.64000034      -1.16477599E-06
  -8.63000011      -1.34621689E-06
  -8.61999989      -1.53426902E-06
  -8.60999966      -1.72864191E-06
  -8.60000038      -1.92902326E-06
  -8.59000015      -2.13508042E-06
  -8.57999992      -2.34647064E-06
  -8.56999969      -2.56283897E-06
  -8.56000042      -2.78382390E-06
  -8.55000019      -3.00904185E-06
  -8.53999996      -3.23809854E-06
  -8.52999973      -3.47057835E-06
  -8.52000046      -3.70603630E-06
  -8.51000023      -3.94400740E-06
  -8.50000000      -4.18400623E-06
  -8.48999977      -4.42553983E-06
  -8.47999954      -4.66810980E-06
  -8.47000027      -4.91122819E-06
  -8.46000004      -5.15440979E-06
  -8.44999981      -5.39718394E-06
  -8.43999958      -5.63909225E-06
  -8.43000031      -5.87969453E-06
  -8.42000008      -6.11856331E-06
  -8.40999985      -6.35529295E-06
  -8.39999962      -6.58949875E-06
  -8.39000034      -6.82083737E-06
  -8.38000011      -7.04899048E-06
  -8.36999989      -7.27368570E-06
  -8.35999966      -7.49468609E-06
  -8.35000038      -7.71178384E-06
  -8.34000015      -7.92479932E-06
  -8.32999992      -8.13356837E-06
  -8.31999969      -8.33793729E-06
  -8.31000042      -8.53775055E-06
  -8.30000019      -8.73285717E-06
  -8.28999996      -8.92309799E-06
  -8.27999973      -9.10830659E-06
  -8.27000046      -9.28830468E-06
  -8.26000023      -9.46290038E-06
  -8.25000000      -9.63187995E-06
  -8.23999977      -9.79499782E-06
  -8.22999954      -9.95199571E-06
  -8.22000027      -1.01025826E-05
  -8.21000004      -1.02464373E-05
  -8.19999981      -1.03832281E-05
  -8.18999958      -1.05126073E-05
  -8.18000031      -1.06342159E-05
  -8.17000008      -1.07476999E-05
  -8.15999985      -1.08527056E-05
  -8.14999962      -1.09488965E-05
  -8.14000034      -1.10359306E-05
  -8.13000011      -1.11134923E-05
  -8.11999989      -1.11812678E-05
  -8.10999966      -1.12389571E-05
  -8.10000038      -1.12862608E-05
  -8.09000015      -1.13228934E-05
  -8.07999992      -1.13485739E-05
  -8.06999969      -1.13630222E-05
  -8.06000042      -1.13659798E-05
  -8.05000019      -1.13571950E-05
  -8.03999996      -1.13364449E-05
  -8.02999973      -1.13035339E-05
  -8.02000046      -1.12582975E-05
  -8.01000023      -1.12006119E-05
  -8.00000000      -1.11303798E-05
  -7.98999977      -1.10475412E-05
  -7.98000002      -1.09520661E-05
  -7.96999979      -1.08439635E-05
  -7.96000004      -1.07232536E-05
  -7.94999981      -1.05899990E-05
  -7.94000006      -1.04442788E-05
  -7.92999983      -1.02862105E-05
  -7.92000008      -1.01159640E-05
  -7.90999985      -9.93372123E-06
  -7.90000010      -9.73973511E-06
  -7.88999987      -9.53430299E-06
  -7.88000011      -9.31778141E-06
  -7.86999989      -9.09058326E-06
  -7.86000013      -8.85319150E-06
  -7.84999990      -8.60617183E-06
  -7.84000015      -8.35014362E-06
  -7.82999992      -8.08581626E-06
  -7.82000017      -7.81395283E-06
  -7.80999994      -7.53536278E-06
  -7.80000019      -7.25092650E-06
  -7.78999996      -6.96154621E-06
  -7.78000021      -6.66813548E-06
  -7.76999998      -6.37163203E-06
  -7.76000023      -6.07297306E-06
  -7.75000000      -5.77310493E-06
  -7.73999977      -5.47295076E-06
  -7.73000002      -5.17343278E-06
  -7.71999979      -4.87543639E-06
  -7.71000004      -4.57983288E-06
  -7.69999981      -4.28744033E-06
  -7.69000006      -3.99905321E-06
  -7.67999983      -3.71540250E-06
  -7.67000008      -3.43718625E-06
  -7.65999985      -3.16505475E-06
  -7.65000010      -2.89962327E-06
  -7.63999987      -2.64146797E-06
  -7.63000011      -2.39114433E-06
  -7.61999989      -2.14918396E-06
  -7.61000013      -1.91608729E-06
  -7.59999990      -1.69234590E-06
  -7.59000015      -1.47840842E-06
  -7.57999992      -1.27470537E-06
  -7.57000017      -1.08165148E-06
  -7.55999994      -8.99621512E-07
  -7.55000019      -7.28957389E-07
  -7.53999996      -5.69984650E-07
  -7.53000021      -4.22984783E-07
  -7.51999998      -2.88199857E-07
  -7.51000023      -1.65842451E-07
  -7.50000000      -5.60784770E-08
  -7.48999977       4.09735179E-08
  -7.48000002       1.25237733E-07
  -7.46999979       1.96682379E-07
  -7.46000004       2.55318128E-07
  -7.44999981       3.01199123E-07
  -7.44000006       3.34415688E-07