  -16.0000000       0.00000000    
  -15.9899998       0.00000000    
  -15.9799995       0.00000000    
  -15.9700003       0.00000000    
  -15.9600000       0.00000000    
  -15.9499998       0.00000000    
  -15.9399996       0.00000000    
  -15.9300003       0.00000000    
  -15.9200001       0.00000000    
  -15.9099998       0.00000000    
  -15.8999996       0.00000000    
  -15.8900003       0.00000000    
  -15.8800001       0.00000000    
  -15.8699999       0.00000000    
  -15.8599997       0.00000000    
  -15.8500004       5.60519386E-45
  -15.8400002       7.00649232E-44
  -15.8299999       7.13260918E-43
  -15.8199997       5.82519772E-42
  -15.8100004       3.92041271E-41
  -15.8000002       2.22321607E-40
  -15.7900000       1.08224382E-39
  -15.7799997       4.59564940E-39
  -15.7700005       1.72525471E-38
  -15.7600002       5.78783630E-38
  -15.7500000       1.74961395E-37
  -15.7399998       4.79416222E-37
  -15.7299995       1.19495576E-36
  -15.7200003       2.71125935E-36
  -15.7100000       5.58328356E-36
  -15.6999998       1.03457831E-35
  -15.6899996       1.69210819E-35
  -15.6800003       2.33611465E-35
  -15.6700001       2.38368644E-35
  -15.6599998       6.38932837E-36
  -15.6499996      -4.78542803E-35
  -15.6400003      -1.60729705E-34
  -15.6300001      -3.44082464E-34
  -15.6199999      -5.74989296E-34
  -15.6099997      -7.62426417E-34
  -15.6000004      -7.20222312E-34
  -15.5900002      -1.74996142E-34
  -15.5799999       1.15495176E-33
  -15.5699997       3.38580062E-33
  -15.5600004       6.21544034E-33
  -15.5500002       8.66994454E-33
  -15.5400000       8.98592110E-33
  -15.5299997       4.78654247E-33
  -15.5200005      -6.31772084E-33
  -15.5100002      -2.56089114E-32
  -15.5000000      -5.15163985E-32
  -15.4899998      -7.71345228E-32
  -15.4799995      -8.72212753E-32
  -15.4700003      -5.61839515E-32
  -15.4600000       4.87781490E-32
  -15.4499998       2.52096283E-31
  -15.4399996       5.34598092E-31
  -15.4300003       7.80865616E-31
  -15.4200001       7.35654128E-31
  -15.4099998       3.10098554E-32
  -15.3999996      -1.63110148E-30
  -15.3900003      -4.08955801E-30
  -15.3800001      -6.21662162E-30
  -15.3699999      -5.63110507E-30
  -15.3599997       7.72067840E-31
  -15.3500004       1.48702962E-29
  -15.3400002       3.39113171E-29
  -15.3299999       4.69940990E-29
  -15.3199997       3.45940893E-29
  -15.3100004      -2.45703838E-29
  -15.3000002      -1.36504438E-28
  -15.2900000      -2.67753590E-28
  -15.2799997      -3.27133284E-28
  -15.2700005      -1.76506039E-28
  -15.2600002       3.05055579E-28
  -15.2500000       1.09803602E-27
  -15.2399998       1.89874140E-27
  -15.2299995       2.05345790E-27
  -15.2200003       7.10448305E-28
  -15.2100000      -2.70083595E-27
  -15.1999998      -7.70627818E-27
  -15.1899996      -1.20568584E-26
  -15.1800003      -1.16478887E-26
  -15.1700001      -1.81309895E-27
  -15.1599998       1.96340084E-26
  -15.1499996       4.82264845E-26
  -15.1400003       6.96197729E-26
  -15.1300001       6.06775476E-26
  -15.1199999      -1.82453975E-27
  -15.1099997      -1.24141993E-25
  -15.1000004      -2.74896480E-25
  -15.0900002      -3.72531748E-25
  -15.0799999      -2.97362104E-25
  -15.0699997       5.82009312E-26
  -15.0600004       7.02759498E-25
  -15.0500002       1.45103755E-24
  -15.0400000       1.88006123E-24
  -15.0299997       1.41082685E-24
  -15.0200005      -4.33026853E-25
  -15.0100002      -3.61498626E-24
  -15.0000000      -7.17251978E-24
  -14.9899998      -9.07380393E-24
  -14.9799995      -6.66050961E-24
  -14.9700003       2.13677748E-24
  -14.9600000       1.69772664E-23
  -14.9499998       3.33715237E-23
  -14.9399996       4.21994073E-23
  -14.9300003       3.17693472E-23
  -14.9200001      -6.90773940E-24
  -14.9099998      -7.24462277E-23
  -14.8999996      -1.45922834E-22
  -14.8900003      -1.88974015E-22
  -14.8800001      -1.52205183E-22
  -14.8699999       3.56546512E-24
  -14.8599997       2.76533840E-22
  -14.8500004       5.94895230E-22
  -14.8400002       8.07786398E-22
  -14.8299999       7.15471850E-22
  -14.8199997       1.48761395E-22
  -14.8100004      -9.13644917E-22
  -14.8000002      -2.23027179E-21
  -14.7900000      -3.25041046E-21
  -14.7799997      -3.20750269E-21
  -14.7700005      -1.39323499E-21
  -14.7600002       2.41933184E-21
  -14.7500000       7.53643206E-21
  -14.7399998       1.21135649E-20
  -14.7299995       1.33894595E-20
  -14.7200003       8.55021703E-21
  -14.7100000      -3.83984995E-21
  -14.6999998      -2.22381595E-20
  -14.6899996      -4.10775695E-20
  -14.6800003      -5.11397499E-20
  -14.6700001      -4.19978305E-20
  -14.6599998      -6.50626019E-21
  -14.6499996       5.37232256E-20
  -14.6400003       1.24012701E-19
  -14.6300001       1.76256834E-19
  -14.6199999       1.74890784E-19
  -14.6099997       8.97870951E-20
  -14.6000004      -8.63441173E-20
  -14.5900002      -3.21936084E-19
  -14.5799999      -5.40265211E-19
  -14.5699997      -6.30966082E-19
  -14.5600004      -4.83267193E-19
  -14.5500002      -3.67179302E-20
  -14.5400000       6.65065620E-19
  -14.5299997       1.44072632E-18
  -14.5200005       1.98287249E-18
  -14.5100002       1.93223084E-18
  -14.5000000       1.01138505E-18
  -14.4899998      -8.12793408E-19
  -14.4799995      -3.19624119E-18
  -14.4700003      -5.38661297E-18
  -14.4600000      -6.35490646E-18
  -14.4499998      -5.10741428E-18
  -14.4399996      -1.12549255E-18
  -14.4300003       5.19773000E-18
  -14.4200001       1.23107694E-17
  -14.4099998       1.76347578E-17
  -14.3999996       1.81804422E-17
  -14.3900003       1.16017797E-17
  -14.3800001      -2.56592936E-18
  -14.3699999      -2.19160742E-17
  -14.3599997      -4.09363347E-17
  -14.3500004      -5.19330789E-17
  -14.3400002      -4.72074854E-17
  -14.3299999      -2.21078478E-17
  -14.3199997       2.19159104E-17
  -14.3100004       7.54654608E-17
  -14.3000002       1.21745515E-16
  -14.2900000       1.40204930E-16
  -14.2799997       1.13004717E-16
  -14.2700005       3.28540654E-17
  -14.2600002      -9.02997274E-17
  -14.2500000      -2.26695425E-16
  -14.2399998      -3.30735052E-16
  -14.2299995      -3.52307340E-16
  -14.2200003      -2.53751669E-16
  -14.2100000      -2.80592038E-17
  -14.1999998       2.88014972E-16
  -14.1899996       6.12452837E-16
  -14.1800003       8.32439681E-16
  -14.1700001       8.34694324E-16
  -14.1599998       5.45744440E-16
  -14.1499996      -2.92035817E-17
  -14.1400003      -7.83134052E-16
  -14.1300001      -1.51286734E-15
  -14.1199999      -1.96015325E-15
  -14.1099997      -1.88431839E-15
  -14.1000004      -1.15034232E-15
  -14.0900002       1.93743421E-16
  -14.0799999       1.87987930E-15
  -14.0699997       3.44742134E-15
  -14.0600004       4.34343037E-15
  -14.0500002       4.08158623E-15
  -14.0400000       2.42185058E-15
  -14.0299997      -4.83870536E-16
  -14.0200005      -4.03741515E-15
  -14.0100002      -7.27272399E-15
  -14.0000000      -9.07435798E-15
  -13.9899998      -8.49919212E-15
  -13.9799995      -5.12150764E-15
  -13.9700003       7.04721036E-16
  -13.9600000       7.77039989E-15
  -13.9499998       1.41901058E-14
  -13.9399996       1.78357305E-14
  -13.9300003       1.69443012E-14
  -13.9200001       1.07462384E-14
  -13.9099998      -7.89319696E-17
  -13.8999996      -1.32983199E-14
  -13.8900003      -2.54783258E-14
  -13.8800001      -3.27780914E-14
  -13.8699999      -3.20272915E-14
  -13.8599997      -2.18133464E-14
  -13.8500004      -3.24746185E-15
  -13.8400002       1.98841865E-14
  -13.8299999       4.17438911E-14
  -13.8199997       5.57927084E-14
  -13.8100004       5.65903559E-14
  -13.8000002       4.15831479E-14
  -13.7900000       1.23430818E-14
  -13.7799997      -2.52030452E-14
  -13.7700005      -6.17880855E-14
  -13.7600002      -8.69607595E-14
  -13.7500000      -9.19241219E-14
  -13.7399998      -7.23223971E-14
  -13.7299995      -3.01452080E-14
  -13.7200003       2.59413361E-14
  -13.7100000       8.21607932E-14
  -13.6999998       1.22895983E-13
  -13.6899996       1.34934720E-13
  -13.6800003       1.11572765E-13
  -13.6700001       5.53466913E-14
  -13.6599998      -2.15873292E-14
  -13.6499996      -9.98407018E-14
  -13.6400003      -1.57585384E-13
  -13.6300001      -1.76627200E-13
  -13.6199999      -1.48109349E-13
  -13.6099997      -7.61011534E-14
  -13.6000004       2.22521976E-14
  -13.5900002       1.20467370E-13
  -13.5799999       1.89674800E-13
  -13.5699997       2.07053965E-13
  -13.5600004       1.63361241E-13
  -13.5500002       6.71473646E-14
  -13.5400000      -5.60150071E-14
  -13.5299997      -1.69641753E-13
  -13.5200005      -2.36531985E-13
  -13.5100002      -2.30376102E-13
  -13.5000000      -1.45336610E-13
  -13.4899998      -3.64042823E-16
  -13.4799995       1.63761881E-13
  -13.4700003       2.94663789E-13
  -13.4600000       3.43598603E-13
  -13.4499998       2.81567494E-13
  -13.4399996       1.11363325E-13
  -13.4300003      -1.28761287E-13
  -13.4200001      -3.72088645E-13
  -13.4099998      -5.40364411E-13
  -13.3999996      -5.66740719E-13
  -13.3900003      -4.18438206E-13
  -13.3800001      -1.12059281E-13
  -13.3699999       2.84180421E-13
  -13.3599997       6.63795245E-13
  -13.3500004       9.08991957E-13
  -13.3400002       9.24875194E-13
  -13.3299999       6.71479961E-13
  -13.3199997       1.83627094E-13
  -13.3100004      -4.29009936E-13
  -13.3000002      -1.00426666E-12
  -13.2900000      -1.36851890E-12
  -13.2799997      -1.38654940E-12
  -13.2700005      -1.00656159E-12
  -13.2600002      -2.86376852E-13
  -13.2500000       6.09271477E-13
  -13.2399998       1.44313424E-12
  -13.2299995       1.96532525E-12
  -13.2200003       1.98425065E-12
  -13.2100000       1.42926231E-12
  -13.1999998       3.85868014E-13
  -13.1899996      -9.09861271E-13
  -13.1800003      -2.12073198E-12
  -13.1700001      -2.89243846E-12
  -13.1599998      -2.95191150E-12
  -13.1499996      -2.19349799E-12
  -13.1400003      -7.27171199E-13
  -13.1300001       1.12884908E-12
  -13.1199999       2.91463837E-12
  -13.1099997       4.14140900E-12
  -13.1000004       4.42338484E-12
  -13.0900002       3.59350136E-12
  -13.0799999       1.76898763E-12
  -13.0699997      -6.56083586E-13
  -13.0600004      -3.09560906E-12
  -13.0500002      -4.91661052E-12
  -13.0400000      -5.60915507E-12
  -13.0299997      -4.93552551E-12
  -13.0200005      -3.01506823E-12
  -13.0100002      -3.15663945E-13
  -13.0000000       2.45324572E-12
  -12.9899998       4.52383964E-12
  -12.9799995       5.28369622E-12
  -12.9700003       4.46221012E-12
  -12.9600000       2.23470439E-12
  -12.9499998      -7.91940894E-13
  -12.9399996      -3.71781859E-12
  -12.9300003      -5.58385586E-12
  -12.9200001      -5.64303205E-12
  -12.9099998      -3.59595188E-12
  -12.8999996       2.77988407E-13
  -12.8900003       5.13869503E-12
  -12.8800001       9.75938427E-12
  -12.8699999       1.28203620E-11
  -12.8599997       1.32507911E-11
  -12.8500004       1.05286569E-11
  -12.8400002       4.85507728E-12
  -12.8299999      -2.85101196E-12
  -12.8199997      -1.11451143E-11
  -12.8100004      -1.83921836E-11
  -12.8000002      -2.31582826E-11
  -12.7900000      -2.45531651E-11
  -12.7799997      -2.24274922E-11
  -12.7700005      -1.73662768E-11
  -12.7600002      -1.04768251E-11
  -12.7500000      -3.03030301E-12
  -12.7399998       3.93751611E-12
  -12.7299995       9.94202550E-12
  -12.7200003       1.51758120E-11
  -12.7100000       2.03893499E-11
  -12.6999998       2.65430820E-11
  -12.6899996       3.43203486E-11
  -12.6800003       4.36442063E-11
  -12.6700001       5.33561285E-11
  -12.6599998       6.11852999E-11
  -12.6499996       6.40662939E-11
  -12.6400003       5.87691007E-11
  -12.6300001       4.27125106E-11
  -12.6199999       1.47670348E-11
  -12.6099997      -2.41631697E-11
  -12.6000004      -7.09499057E-11
  -12.5900002      -1.20521482E-10
  -12.5799999      -1.66577960E-10
  -12.5699997      -2.02588474E-10
  -12.5600004      -2.22839108E-10
  -12.5500002      -2.23282864E-10
  -12.5400000      -2.01988912E-10
  -12.5299997      -1.59101357E-10
  -12.5200005      -9.63554098E-11
  -12.5100002      -1.63336011E-11
  -12.5000000       7.82648113E-11
  -12.4899998       1.85052695E-10
  -12.4799995       3.01865671E-10
  -12.4700003       4.26071040E-10
  -12.4600000       5.53374568E-10
  -12.4499998       6.76395884E-10
  -12.4399996       7.83395182E-10
  -12.4300003       8.57556470E-10
  -12.4200001       8.77169670E-10
  -12.4099998       8.16856249E-10
  -12.3999996       6.49794774E-10
  -12.3900003       3.50639517E-10
  -12.3800001      -1.01322332E-10
  -12.3699999      -7.19291626E-10
  -12.3599997      -1.50687274E-09
  -12.3500004      -2.45707410E-09
  -12.3400002      -3.55250473E-09
  -12.3299999      -4.76662576E-09
  -12.3199997      -6.06567241E-09
  -12.3100004      -7.41077288E-09
  -12.3000002      -8.75986839E-09
  -12.2900000      -1.00689856E-08
  -12.2799997      -1.12928840E-08
  -12.2700005      -1.23851516E-08
  -12.2600002      -1.32980178E-08
  -12.2500000      -1.39825360E-08
  -12.2399998      -1.43892702E-08
  -12.2299995      -1.44699754E-08
  -12.2200003      -1.41802730E-08
  -12.2100000      -1.34828424E-08
  -12.1999998      -1.23509922E-08
  -12.1899996      -1.07715756E-08
  -12.1800003      -8.74692763E-09
  -12.1700001      -6.29533936E-09
  -12.1599998      -3.44968099E-09
  -12.1499996      -2.54654797E-10
  -12.1400003       3.23702132E-09
  -12.1300001       6.96874469E-09
  -12.1199999       1.08836780E-08
  -12.1099997       1.49273180E-08
  -12.1000004       1.90487288E-08
  -12.0900002       2.32003163E-08
  -12.0799999       2.73364744E-08
  -12.0699997       3.14118225E-08
  -12.0600004       3.53795997E-08
  -12.0500002       3.91906241E-08
  -12.0400000       4.27934772E-08
  -12.0299997       4.61355221E-08
  -12.0200005       4.91645658E-08
  -12.0100002       5.18305789E-08
  -12.0000000       5.40868861E-08
  -11.9899998       5.58906024E-08
  -11.9799995       5.72015963E-08
  -11.9700003       5.79811470E-08
  -11.9600000       5.81899364E-08
  -11.9499998       5.77864228E-08
  -11.9399996       5.67271030E-08
  -11.9300003       5.49676074E-08
  -11.9200001       5.24655732E-08
  -11.9099998       4.91854024E-08
  -11.8999996       4.51028512E-08
  -11.8900003       4.02091977E-08
  -11.8800001       3.45144784E-08
  -11.8699999       2.80476797E-08
  -11.8599997       2.08553370E-08
  -11.8500004       1.29981395E-08
  -11.8400002       4.54598137E-09
  -11.8299999      -4.42669768E-09
  -11.8199997      -1.38446641E-08
  -11.8100004      -2.36341506E-08
  -11.8000002      -3.37229977E-08
  -11.7900000      -4.40391581E-08
  -11.7799997      -5.45082912E-08
  -11.7700005      -6.50514878E-08
  -11.7600002      -7.55838272E-08
  -11.7500000      -8.60148006E-08
  -11.7399998      -9.62495150E-08
  -11.7299995      -1.06192417E-07
  -11.7200003      -1.15750581E-07
  -11.7100000      -1.24837186E-07
  -11.6999998      -1.33373248E-07
  -11.6899996      -1.41287813E-07
  -11.6800003      -1.48516278E-07
  -11.6700001      -1.54997196E-07
  -11.6599998      -1.60668904E-07
  -11.6499996      -1.65466318E-07
  -11.6400003      -1.69318866E-07
  -11.6300001      -1.72150706E-07
  -11.6199999      -1.73881702E-07
  -11.6099997      -1.74430767E-07
  -11.6000004      -1.73718774E-07
  -11.5900002      -1.71673108E-07
  -11.5799999      -1.68228908E-07
  -11.5699997      -1.63331364E-07
  -11.5600004      -1.56936281E-07
  -11.5500002      -1.49010091E-07
  -11.5400000      -1.39529320E-07
  -11.5299997      -1.28482128E-07
  -11.5200005      -1.15869788E-07
  -11.5100002      -1.01707329E-07
  -11.5000000      -8.60267590E-08
  -11.4899998      -6.88789612E-08
  -11.4799995      -5.03332949E-08
  -11.4700003      -3.04765564E-08
  -11.4600000      -9.40945011E-09
  -11.4499998       1.27592585E-08
  -11.4399996       3.59185499E-08
  -11.4300003       5.99607333E-08
  -11.4200001       8.47878354E-08
  -11.4099998       1.10313906E-07
  -11.3999996       1.36465289E-07
  -11.3900003       1.63177518E-07
  -11.3800001       1.90392541E-07
  -11.3699999       2.18052506E-07
  -11.3599997       2.46094174E-07
  -11.3500004       2.74445995E-07
  -11.3400002       3.03024848E-07
  -11.3299999       3.31737311E-07
  -11.3199997       3.60482062E-07
  -11.3100004       3.89153712E-07
  -11.3000002       4.17648124E-07
  -11.2900000       4.45866505E-07
  -11.2799997       4.73717819E-07
  -11.2700005       5.01120553E-07
  -11.2600002       5.28000669E-07
  -11.2500000       5.54291205E-07
  -11.2399998       5.79926166E-07
  -11.2299995       6.04840977E-07
  -11.2200003       6.28967996E-07
  -11.2100000       6.52236622E-07
  -11.1999998       6.74574608E-07
  -11.1899996       6.95912718E-07
  -11.1800003       7.16183251E-07
  -11.1700001       7.35325557E-07
  -11.1599998       7.53291260E-07
  -11.1499996       7.70036308E-07
  -11.1400003       7.85532563E-07
  -11.1300001       7.99753821E-07
  -11.1199999       8.12681151E-07
  -11.1099997       8.24301253E-07
  -11.1000004       8.34603327E-07
  -11.0900002       8.43582484E-07
  -11.0799999       8.51241339E-07
  -11.0699997       8.57588930E-07
  -11.0600004       8.62644413E-07
  -11.0500002       8.66438597E-07
  -11.0400000       8.69012013E-07
  -11.0299997       8.70412919E-07
  -11.0200005       8.70695601E-07
  -11.0100002       8.69906387E-07
  -11.0000000       8.68093537E-07
  -10.9899998       8.65299398E-07
  -10.9799995       8.61555066E-07
  -10.9700003       8.56889130E-07
  -10.9600000       8.51331208E-07
  -10.9499998       8.44909664E-07
  -10.9399996       8.37657637E-07
  -10.9300003       8.29605256E-07
  -10.9200001       8.20791797E-07
  -10.9099998       8.11249777E-07
  -10.8999996       8.01001306E-07
  -10.8900003       7.90048205E-07
  -10.8800001       7.78377341E-07
  -10.8699999       7.65943241E-07
  -10.8599997       7.52695712E-07
  -10.8500004       7.38556366E-07
  -10.8400002       7.23449205E-07
  -10.8299999       7.07291633E-07
  -10.8199997       6.90032778E-07
  -10.8100004       6.71631767E-07
  -10.8000002       6.52075187E-07
  -10.7900000       6.31374519E-07
  -10.7799997       6.09556707E-07
  -10.7700005       5.86663532E-07
  -10.7600002       5.62737227E-07
  -10.7500000       5.37805931E-07
  -10.7399998       5.11883400E-07
  -10.7299995       4.84967018E-07
  -10.7200003       4.57048998E-07
  -10.7100000       4.28098701E-07
  -10.6999998       3.98088588E-07
  -10.6899996       3.66989951E-07
  -10.6800003       3.34800575E-07
  -10.6700001       3.01526995E-07
  -10.6599998       2.67189165E-07
  -10.6499996       2.31831891E-07
  -10.6400003       1.95514076E-07
  -10.6300001       1.58290334E-07
  -10.6199999       1.20232116E-07
  -10.6099997       8.13888050E-08
  -10.6000004       4.17989874E-08
  -10.5900002       1.48848300E-09
  -10.5799999      -3.95395077E-08
  -10.5699997      -8.12885617E-08
  -10.5600004      -1.23773603E-07
  -10.5500002      -1.67015756E-07
  -10.5400000      -2.11043925E-07
  -10.5299997      -2.55864364E-07
  -10.5200005      -3.01482231E-07
  -10.5100002      -3.47881127E-07
  -10.5000000      -3.95028962E-07
  -10.4899998      -4.42868640E-07
  -10.4799995      -4.91313017E-07
  -10.4700003      -5.40254462E-07
  -10.4600000      -5.89580338E-07
  -10.4499998      -6.39154109E-07
  -10.4399996      -6.88828379E-07
  -10.4300003      -7.38456492E-07
  -10.4200001      -7.87881788E-07
  -10.4099998      -8.36950051E-07
  -10.3999996      -8.85509905E-07
  -10.3900003      -9.33413048E-07
  -10.3800001      -9.80506570E-07
  -10.3699999      -1.02664399E-06
  -10.3599997      -1.07167364E-06
  -10.3500004      -1.11545035E-06
  -10.3400002      -1.15782382E-06
  -10.3299999      -1.19865001E-06
  -10.3199997      -1.23778693E-06
  -10.3100004      -1.27510634E-06
  -10.3000002      -1.31049467E-06
  -10.2900000      -1.34386073E-06
  -10.2799997      -1.37514326E-06
  -10.2700005      -1.40431609E-06
  -10.2600002      -1.43139766E-06
  -10.2500000      -1.45644731E-06
  -10.2399998      -1.47957155E-06
  -10.2299995      -1.50091182E-06
  -10.2200003      -1.52065388E-06
  -10.2100000      -1.53900817E-06
  -10.1999998      -1.55620648E-06
  -10.1899996      -1.57248053E-06
  -10.1800003      -1.58805392E-06
  -10.1700001      -1.60312447E-06
  -10.1599998      -1.61785374E-06
  -10.1499996      -1.63235734E-06
  -10.1400003      -1.64670121E-06
  -10.1300001      -1.66090865E-06
  -10.1199999      -1.67496296E-06
  -10.1099997      -1.68882593E-06
  -10.1000004      -1.70244846E-06
  -10.0900002      -1.71578984E-06
  -10.0799999      -1.72882505E-06
  -10.0699997      -1.74156048E-06
  -10.0600004      -1.75403341E-06
  -10.0500002      -1.76631363E-06
  -10.0400000      -1.77849631E-06
  -10.0299997      -1.79069821E-06
  -10.0200005      -1.80304357E-06
  -10.0100002      -1.81565690E-06
  -10.0000000      -1.82865972E-06
  -9.98999977      -1.84215344E-06
  -9.97999954      -1.85622605E-06
  -9.97000027      -1.87094406E-06
  -9.96000004      -1.88635329E-06
  -9.94999981      -1.90248215E-06
  -9.93999958      -1.91934714E-06
  -9.93000031      -1.93695178E-06
  -9.92000008      -1.95529810E-06
  -9.90999985      -1.97438612E-06
  -9.89999962      -1.99422152E-06
  -9.89000034      -2.01481703E-06
  -9.88000011      -2.03618515E-06
  -9.86999989      -2.05835272E-06
  -9.85999966      -2.08133883E-06
  -9.85000038      -2.10517237E-06
  -9.84000015      -2.12988562E-06
  -9.82999992      -2.15551154E-06
  -9.81999969      -2.18210289E-06
  -9.81000042      -2.20973220E-06
  -9.80000019      -2.23850225E-06
  -9.78999996      -2.26854854E-06
  -9.77999973      -2.30004844E-06
  -9.77000046      -2.33319543E-06
  -9.76000023      -2.36821711E-06
  -9.75000000      -2.40534746E-06
  -9.73999977      -2.44480862E-06
  -9.72999954      -2.48679976E-06
  -9.72000027      -2.53148414E-06
  -9.71000004      -2.57899114E-06
  -9.69999981      -2.62939488E-06
  -9.68999958      -2.68271992E-06
  -9.68000031      -2.73895830E-06
  -9.67000008      -2.79805431E-06
  -9.65999985      -2.85989927E-06
  -9.64999962      -2.92435698E-06
  -9.64000034      -2.99124554E-06
  -9.63000011      -3.06033894E-06
  -9.61999989      -3.13137753E-06
  -9.60999966      -3.20405957E-06
  -9.60000038      -3.27804923E-06
  -9.59000015      -3.35296932E-06
  -9.57999992      -3.42840485E-06
  -9.56999969      -3.50388768E-06
  -9.56000042      -3.57894373E-06
  -9.55000019      -3.65303640E-06
  -9.53999996      -3.72560112E-06
  -9.52999973      -3.79604057E-06
  -9.52000046      -3.86373722E-06
  -9.51000023      -3.92805487E-06
  -9.50000000      -3.98837983E-06
  -9.48999977      -4.04413368E-06
  -9.47999954      -4.09475524E-06
  -9.47000027      -4.13977114E-06
  -9.46000004      -4.17877982E-06
  -9.44999981      -4.21144978E-06
  -9.43999958      -4.23758729E-06
  -9.43000031      -4.25706821E-06
  -9.42000008      -4.26990391E-06
  -9.40999985      -4.27619989E-06
  -9.39999962      -4.27619716E-06
  -9.39000034      -4.27021951E-06
  -9.38000011      -4.25873804E-06
  -9.36999989      -4.24230302E-06
  -9.35999966      -4.22156199E-06
  -9.35000038      -4.19725393E-06
  -9.34000015      -4.17020874E-06
  -9.32999992      -4.14133956E-06
  -9.31999969      -4.11165365E-06
  -9.31000042      -4.08217966E-06
  -9.30000019      -4.05405626E-06
  -9.28999996      -4.02845353E-06
  -9.27999973      -4.00658246E-06
  -9.27000046      -3.98968177E-06
  -9.26000023      -3.97898839E-06
  -9.25000000      -3.97575604E-06
  -9.23999977      -3.98117436E-06
  -9.22999954      -3.99639794E-06
  -9.22000027      -4.02257410E-06
  -9.21000004      -4.06074741E-06
  -9.19999981      -4.11188512E-06
  -9.18999958      -4.17687625E-06
  -9.18000031      -4.25648477E-06
  -9.17000008      -4.35132915E-06
  -9.15999985      -4.46191962E-06
  -9.14999962      -4.58858813E-06
  -9.14000034      -4.73152295E-06
  -9.13000011      -4.89075182E-06
  -9.11999989      -5.06610331E-06
  -9.10999966      -5.25729320E-06
  -9.10000038      -5.46385809E-06
  -9.09000015      -5.68519999E-06
  -9.07999992      -5.92056358E-06
  -9.06999969      -6.16908801E-06
  -9.06000042      -6.42972645E-06
  -9.05000019      -6.70139161E-06
  -9.03999996      -6.98283748E-06
  -9.02999973      -7.27275437E-06
  -9.02000046      -7.56972167E-06
  -9.01000023      -7.87223962E-06
  -9.00000000      -8.17878026E-06
  -8.98999977      -8.48775926E-06
  -8.97999954      -8.79749587E-06
  -8.97000027      -9.10625477E-06
  -8.96000004      -9.41227700E-06
  -8.94999981      -9.71371082E-06
  -8.93999958      -1.00087900E-05
  -8.93000031      -1.02956446E-05
  -8.92000008      -1.05724566E-05
  -8.90999985      -1.08374534E-05
  -8.89999962      -1.10889387E-05
  -8.89000034      -1.13252490E-05
  -8.88000011      -1.15448620E-05
  -8.86999989      -1.17462996E-05
  -8.85999966      -1.19282486E-05
  -8.85000038      -1.20895174E-05
  -8.84000015      -1.22290321E-05
  -8.82999992      -1.23458749E-05
  -8.81999969      -1.24392891E-05
  -8.81000042      -1.25086908E-05
  -8.80000019      -1.25536390E-05
  -8.78999996      -1.25738652E-05
  -8.77999973      -1.25692050E-05
  -8.77000046      -1.25395864E-05
  -8.76000023      -1.24851649E-05
  -8.75000000      -1.24061371E-05
  -8.73999977      -1.23028231E-05
  -8.72999954      -1.21756848E-05
  -8.72000027      -1.20252307E-05
  -8.71000004      -1.18521175E-05
  -8.69999981      -1.16570591E-05
  -8.68999958      -1.14408613E-05
  -8.68000031      -1.12043426E-05
  -8.67000008      -1.09484645E-05
  -8.65999985      -1.06741754E-05
  -8.64999962      -1.03824650E-05
  -8.64000034      -1.00743073E-05
  -8.63000011      -9.75089552E-06
  -8.61999989      -9.41321741E-06
  -8.60999966      -9.06244804E-06
  -8.60000038      -8.69973064E-06
  -8.59000015      -8.32610476E-06
  -8.57999992      -7.94262178E-06
  -8.56999969      -7.55042311E-06
  -8.56000042      -7.15047099E-06
  -8.55000019      -6.74375815E-06
  -8.53999996      -6.33120681E-06
  -8.52999973      -5.91370463E-06
  -8.52000046      -5.49212064E-06
  -8.51000023      -5.06734114E-06
  -8.50000000      -4.64013283E-06
  -8.48999977      -4.21133473E-06
  -8.47999954      -3.78149912E-06
  -8.47000027      -3.35138611E-06
  -8.46000004      -2.92159325E-06
  -8.44999981      -2.49260802E-06
  -8.43999958      -2.06495201E-06
  -8.43000031      -1.63912966E-06
  -8.42000008      -1.21556104E-06
  -8.40999985      -7.94794403E-07
  -8.39999962      -3.77295237E-07
  -8.39000034       3.64051829E-08
  -8.38000011       4.45953333E-07
  -8.36999989       8.50837523E-07
  -8.35999966       1.25058625E-06
  -8.35000038       1.64477842E-06
  -8.34000015       2.03293416E-06
  -8.32999992       2.41450834E-06
  -8.31999969       2.78905418E-06
  -8.31000042       3.15595253E-06
  -8.30000019       3.51461699E-06
  -8.28999996       3.86438069E-06
  -8.27999973       4.20451761E-06
  -8.27000046       4.53431267E-06
  -8.26000023       4.85298278E-06
  -8.25000000       5.15971806E-06
  -8.23999977       5.45364537E-06
  -8.22999954       5.73382795E-06
  -8.22000027       5.99934037E-06
  -8.21000004       6.24924360E-06
  -8.19999981       6.48248579E-06
  -8.18999958       6.69818837E-06
  -8.18000031       6.89536955E-06
  -8.17000008       7.07315530E-06
  -8.15999985       7.23068160E-06
  -8.14999962       7.36715265E-06
  -8.14000034       7.48176308E-06
  -8.13000011       7.57384078E-06
  -8.11999989       7.64268862E-06
  -8.10999966       7.68763493E-06
  -8.10000038       7.70814586E-06
  -8.09000015       7.70371844E-06
  -8.07999992       7.67391430E-06
  -8.06999969       7.61839010E-06
  -8.06000042       7.53681752E-06
  -8.05000019       7.42904604E-06
  -8.03999996       7.29493877E-06
  -8.02999973       7.13445388E-06
  -8.02000046       6.94763366E-06
  -8.01000023       6.73459090E-06
  -8.00000000       6.49555932E-06
  -7.98999977       6.23079723E-06
  -7.98000002       5.94069479E-06
  -7.96999979       5.62568812E-06
  -7.96000004       5.28628652E-06
  -7.94999981       4.92309300E-06
  -7.94000006       4.53668645E-06
  -7.92999983       4.12778263E-06
  -7.92000008       3.69712234E-06
  -7.90999985       3.24553548E-06
  -7.90000010       2.77391314E-06
  -7.88999987       2.28331578E-06
  -7.88000011       1.77484526E-06
  -7.86999989       1.24973133E-06
  -7.86000013       7.09309575E-07
  -7.84999990       1.54954449E-07
  -7.84000015      -4.11871412E-07
  -7.82999992      -9.89702926E-07
  -7.82000017      -1.57710701E-06
  -7.80999994      -2.17258321E-06
  -7.80000019      -2.77468712E-06
  -7.78999996      -3.38201448E-06
  -7.78000021      -3.99317651E-06
  -7.76999998      -4.60676802E-06
  -7.76000023      -5.22149685E-06
  -7.75000000      -5.83603969E-06
  -7.73999977      -6.44924785E-06
  -7.73000002      -7.05994762E-06
  -7.71999979      -7.66707763E-06
  -7.71000004      -8.26963424E-06
  -7.69999981      -8.86666749E-06
  -7.69000006      -9.45731063E-06
  -7.67999983      -1.00407588E-05
  -7.67000008      -1.06162261E-05
  -7.65999985      -1.11830313E-05
  -7.65000010      -1.17404452E-05
  -7.63999987      -1.22879665E-05
  -7.63000011      -1.28250804E-05
  -7.61999989      -1.33513804E-05
  -7.61000013      -1.38665300E-05
  -7.59999990      -1.43703528E-05
  -7.59000015      -1.48627423E-05
  -7.57999992      -1.53436013E-05
  -7.57000017      -1.58130133E-05
  -7.55999994      -1.62711149E-05
  -7.55000019      -1.67180806E-05
  -7.53999996      -1.71542306E-05
  -7.53000021      -1.75799396E-05
  -7.51999998      -1.79955896E-05
  -7.51000023      -1.84016608E-05
  -7.50000000      -1.87987080E-05
  -7.48999977      -1.91873423E-05
  -7.48000002      -1.95681387E-05
  -7.46999979      -1.99417882E-05
  -7.46000004      -2.03090531E-05
  -7.44999981      -2.06706409E-05
  -7.44000006      -2.10272319E-05