  -16.0000000       0.00000000    
  -15.9899998       0.00000000    
  -15.9799995       0.00000000    
  -15.9700003       0.00000000    
  -15.9600000       0.00000000    
  -15.9499998       0.00000000    
  -15.9399996       0.00000000    
  -15.9300003       0.00000000    
  -15.9200001       0.00000000    
  -15.9099998       0.00000000    
  -15.8999996       0.00000000    
  -15.8900003       0.00000000    
  -15.8800001       0.00000000    
  -15.8699999       0.00000000    
  -15.8599997      -0.00000000    
  -15.8500004       0.00000000    
  -15.8400002       4.20389539E-45
  -15.8299999       4.20389539E-44
  -15.8199997       4.16185644E-43
  -15.8100004       3.28884750E-42
  -15.8000002       2.14748990E-41
  -15.7900000       1.19410247E-40
  -15.7799997       5.77810007E-40
  -15.7700005       2.47358886E-39
  -15.7600002       9.48777712E-39
  -15.7500000       3.29265230E-38
  -15.7399998       1.04170902E-37
  -15.7299995       3.02163759E-37
  -15.7200003       8.06893036E-37
  -15.7100000       1.98882825E-36
  -15.6999998       4.52942030E-36
  -15.6899996       9.52415671E-36
  -15.6800003       1.84329424E-35
  -15.6700001       3.26162116E-35
  -15.6599998       5.20833250E-35
  -15.6499996       7.31208340E-35
  -15.6400003       8.48958493E-35
  -15.6300001       6.61910480E-35
  -15.6199999      -1.48352897E-35
  -15.6099997      -1.93095633E-34
  -15.6000004      -4.85914743E-34
  -15.5900002      -8.57147063E-34
  -15.5799999      -1.17328846E-33
  -15.5699997      -1.17451750E-33
  -15.5600004      -5.00720278E-34
  -15.5500002       1.18143730E-33
  -15.5400000       3.92756172E-33
  -15.5299997       7.18535836E-33
  -15.5200005       9.53663947E-33
  -15.5100002       8.76594496E-33
  -15.5000000       2.52381613E-33
  -15.4899998      -1.03244521E-32
  -15.4799995      -2.79881502E-32
  -15.4700003      -4.45498312E-32
  -15.4600000      -5.05088822E-32
  -15.4499998      -3.60227746E-32
  -15.4399996       3.48354702E-33
  -15.4300003       6.17662449E-32
  -15.4200001       1.20521555E-31
  -15.4099998       1.56377142E-31
  -15.3999996       1.55799398E-31
  -15.3900003       1.29630555E-31
  -15.3800001       1.11201154E-31
  -15.3699999       1.22310152E-31
  -15.3599997       1.08433888E-31
  -15.3500004      -1.19869626E-31
  -15.3400002      -8.62288489E-31
  -15.3299999      -2.33316144E-30
  -15.3199997      -4.27041638E-30
  -15.3100004      -5.48619576E-30
  -15.3000002      -3.71925322E-30
  -15.2900000       3.69923859E-30
  -15.2799997       1.79864147E-29
  -15.2700005       3.60807026E-29
  -15.2600002       4.81412430E-29
  -15.2500000       3.77912684E-29
  -15.2399998      -1.21578684E-29
  -15.2299995      -1.07307701E-28
  -15.2200003      -2.25409180E-28
  -15.2100000      -3.04764884E-28
  -15.1999998      -2.50497402E-28
  -15.1899996       2.89857903E-29
  -15.1800003       5.53784400E-28
  -15.1700001       1.19259553E-27
  -15.1599998       1.61728966E-27
  -15.1499996       1.35397748E-27
  -15.1400003      -2.18992709E-29
  -15.1300001      -2.55871561E-27
  -15.1199999      -5.58276709E-27
  -15.1099997      -7.55051975E-27
  -15.1000004      -6.35627948E-27
  -15.0900002      -2.50702658E-28
  -15.0799999       1.07587886E-26
  -15.0699997       2.35697325E-26
  -15.0600004       3.16205372E-26
  -15.0500002       2.64558402E-26
  -15.0400000       1.63019185E-27
  -15.0299997      -4.18449357E-26
  -15.0200005      -9.08539794E-26
  -15.0100002      -1.19809865E-25
  -15.0000000      -9.77560132E-26
  -14.9899998      -3.61823881E-27
  -14.9799995       1.54354293E-25
  -14.9700003       3.24188453E-25
  -14.9600000       4.13048285E-25
  -14.9499998       3.16910078E-25
  -14.9399996      -2.37540116E-26
  -14.9300003      -5.59673590E-25
  -14.9200001      -1.09374036E-24
  -14.9099998      -1.30722634E-24
  -14.8999996      -8.76597621E-25
  -14.8900003       3.33289911E-25
  -14.8800001       2.06959394E-24
  -14.8699999       3.60339434E-24
  -14.8599997       3.87685455E-24
  -14.8500004       1.94336653E-24
  -14.8400002      -2.38389190E-24
  -14.8299999      -7.93901016E-24
  -14.8199997      -1.20610301E-23
  -14.8100004      -1.12712998E-23
  -14.8000002      -2.87575890E-24
  -14.7900000       1.28918315E-23
  -14.7799997       3.11312975E-23
  -14.7700005       4.22333883E-23
  -14.7600002       3.46208521E-23
  -14.7500000       3.96868772E-25
  -14.7399998      -5.75974231E-23
  -14.7299995      -1.20548511E-22
  -14.7200003      -1.54413590E-22
  -14.7100000      -1.19899108E-22
  -14.6999998       8.33669940E-24
  -14.6899996       2.18465953E-22
  -14.6800003       4.44805267E-22
  -14.6700001       5.70834847E-22
  -14.6599998       4.62016672E-22
  -14.6499996       2.81832202E-23
  -14.6400003      -7.00795352E-22
  -14.6300001      -1.51876399E-21
  -14.6199999      -2.04739500E-21
  -14.6099997      -1.83290279E-21
  -14.6000004      -5.37373563E-22
  -14.5900002       1.82090281E-21
  -14.5799999       4.67355229E-21
  -14.5699997       6.87795186E-21
  -14.5600004       6.96657813E-21
  -14.5500002       3.69226405E-21
  -14.5400000      -3.24227113E-21
  -14.5299997      -1.25296642E-20
  -14.5200005      -2.10323579E-20
  -14.5100002      -2.43126057E-20
  -14.5000000      -1.80470049E-20
  -14.4899998      -1.00614595E-22
  -14.4799995       2.73811517E-20
  -14.4700003       5.68192689E-20
  -14.4600000       7.59625612E-20
  -14.4499998       7.11221264E-20
  -14.4399996       3.25770576E-20
  -14.4300003      -3.92584862E-20
  -14.4200001      -1.29283961E-19
  -14.4099998      -2.07490437E-19
  -14.3999996      -2.35071909E-19
  -14.3900003      -1.76994744E-19
  -14.3800001      -1.84340867E-20
  -14.3699999       2.20231875E-19
  -14.3599997       4.76747149E-19
  -14.3500004       6.54798654E-19
  -14.3400002       6.48960982E-19
  -14.3299999       3.83401135E-19
  -14.3199997      -1.45911015E-19
  -14.3100004      -8.41031287E-19
  -14.3000002      -1.50041764E-18
  -14.2900000      -1.85710898E-18
  -14.2799997      -1.65639319E-18
  -14.2700005      -7.57206613E-19
  -14.2600002       7.73079382E-19
  -14.2500000       2.60860195E-18
  -14.2399998       4.19362124E-18
  -14.2299995       4.86539819E-18
  -14.2200003       4.05705952E-18
  -14.2100000       1.53240037E-18
  -14.1999998      -2.42170814E-18
  -14.1899996      -6.92666611E-18
  -14.1800003      -1.06285115E-17
  -14.1700001      -1.20131101E-17
  -14.1599998      -9.86892480E-18
  -14.1499996      -3.78161168E-18
  -14.1400003       5.49657381E-18
  -14.1300001       1.59580246E-17
  -14.1199999       2.46333063E-17
  -14.1099997       2.82687916E-17
  -14.1000004       2.42675502E-17
  -14.0900002       1.16621192E-17
  -14.0799999      -8.17265281E-18
  -14.0699997      -3.13406790E-17
  -14.0600004      -5.19492189E-17
  -14.0500002      -6.33325344E-17
  -14.0400000      -5.97679021E-17
  -14.0299997      -3.83009737E-17
  -14.0200005      -2.00418301E-19
  -14.0100002       4.84186598E-17
  -14.0000000       9.71212543E-17
  -13.9899998       1.32905385E-16
  -13.9799995       1.42967978E-16
  -13.9700003       1.17996216E-16
  -13.9600000       5.52991018E-17
  -13.9499998      -3.89792088E-17
  -13.9399996      -1.49251110E-16
  -13.9300003      -2.51952941E-16
  -13.9200001      -3.19218183E-16
  -13.9099998      -3.24457744E-16
  -13.8999996      -2.49081711E-16
  -13.8900003      -8.91533808E-17
  -13.8800001       1.39558604E-16
  -13.8699999       3.99772949E-16
  -13.8599997       6.35547984E-16
  -13.8500004       7.80563731E-16
  -13.8400002       7.71525942E-16
  -13.8299999       5.64984793E-16
  -13.8199997       1.54384685E-16
  -13.8100004      -4.16987491E-16
  -13.8000002      -1.05187823E-15
  -13.7900000      -1.60769712E-15
  -13.7799997      -1.91966825E-15
  -13.7700005      -1.83689471E-15
  -13.7600002      -1.26568068E-15
  -13.7500000      -2.10706751E-16
  -13.7399998       1.19763132E-15
  -13.7299995       2.70112539E-15
  -13.7200003       3.94475102E-15
  -13.7100000       4.54187155E-15
  -13.6999998       4.16575250E-15
  -13.6899996       2.65022125E-15
  -13.6800003       7.51775953E-17
  -13.6700001      -3.18970987E-15
  -13.6599998      -6.50550272E-15
  -13.6499996      -9.05960521E-15
  -13.6400003      -1.00301093E-14
  -13.6300001      -8.79262890E-15
  -13.6199999      -5.12571824E-15
  -13.6099997       6.39065924E-16
  -13.6000004       7.57431685E-15
  -13.5900002       1.42565911E-14
  -13.5799999       1.90146039E-14
  -13.5699997       2.02936694E-14
  -13.5600004       1.70668381E-14
  -13.5500002       9.19621130E-15
  -13.5400000      -2.35876208E-15
  -13.5299997      -1.55695006E-14
  -13.5200005      -2.76407315E-14
  -13.5100002      -3.55597374E-14
  -13.5000000      -3.67951858E-14
  -13.4899998      -2.99916172E-14
  -13.4799995      -1.54804368E-14
  -13.4700003       4.55283682E-15
  -13.4600000       2.63398634E-14
  -13.4499998       4.52323048E-14
  -13.4399996       5.67133688E-14
  -13.4300003       5.74958104E-14
  -13.4200001       4.64315306E-14
  -13.4099998       2.49742040E-14
  -13.3999996      -2.97284911E-15
  -13.3900003      -3.18421674E-14
  -13.3800001      -5.56662294E-14
  -13.3699999      -6.95158856E-14
  -13.3599997      -7.07303546E-14
  -13.3500004      -5.95804534E-14
  -13.3400002      -3.91407962E-14
  -13.3299999      -1.43631970E-14
  -13.3199997       9.41306359E-15
  -13.3100004       2.80803416E-14
  -13.3000002       3.99926098E-14
  -13.2900000       4.63587468E-14
  -13.2799997       5.05778010E-14
  -13.2700005       5.66261752E-14
  -13.2600002       6.69520117E-14
  -13.2500000       8.05818289E-14
  -13.2399998       9.22007764E-14
  -13.2299995       9.27806009E-14
  -13.2200003       7.19157942E-14
  -13.2100000       2.14805929E-14
  -13.1999998      -6.03118155E-14
  -13.1899996      -1.65709907E-13
  -13.1800003      -2.76361155E-13
  -13.1700001      -3.65281834E-13
  -13.1599998      -4.02023494E-13
  -13.1499996      -3.60273606E-13
  -13.1400003      -2.26247203E-13
  -13.1300001      -5.66099224E-15
  -13.1199999       2.72958576E-13
  -13.1099997       5.60285108E-13
  -13.1000004       7.94015190E-13
  -13.0900002       9.11516739E-13
  -13.0799999       8.64861405E-13
  -13.0699997       6.34777604E-13
  -13.0600004       2.39825331E-13
  -13.0500002      -2.62215298E-13
  -13.0400000      -7.82166866E-13
  -13.0299997      -1.21576414E-12
  -13.0200005      -1.46549851E-12
  -13.0100002      -1.46331515E-12
  -13.0000000      -1.18874713E-12
  -12.9899998      -6.77641482E-13
  -12.9799995      -1.84656926E-14
  -12.9700003       6.64026668E-13
  -12.9600000       1.23490346E-12
  -12.9499998       1.57940360E-12
  -12.9399996       1.63049869E-12
  -12.9300003       1.38673524E-12
  -12.9200001       9.15281414E-13
  -12.9099998       3.38331793E-13
  -12.8999996      -1.95018643E-13
  -12.8900003      -5.45609619E-13
  -12.8800001      -6.21346399E-13
  -12.8699999      -4.05532351E-13
  -12.8599997       3.12644774E-14
  -12.8500004       5.40047553E-13
  -12.8400002       9.22564759E-13
  -12.8299999       9.75610218E-13
  -12.8199997       5.41396734E-13
  -12.8100004      -4.46951639E-13
  -12.8000002      -1.93519354E-12
  -12.7900000      -3.74039428E-12
  -12.7799997      -5.56855733E-12
  -12.7700005      -7.05453231E-12
  -12.7600002      -7.81653388E-12
  -12.7500000      -7.51473710E-12
  -12.7399998      -5.90324447E-12
  -12.7299995      -2.86744174E-12
  -12.7200003       1.55677728E-12
  -12.7100000       7.17980146E-12
  -12.6999998       1.36646675E-11
  -12.6899996       2.05347961E-11
  -12.6800003       2.71762682E-11
  -12.6700001       3.28332327E-11
  -12.6599998       3.66022872E-11
  -12.6499996       3.74399366E-11
  -12.6400003       3.42021828E-11
  -12.6300001       2.57365986E-11
  -12.6199999       1.10405530E-11
  -12.6099997      -1.05128276E-11
  -12.6000004      -3.88972847E-11
  -12.5900002      -7.31406949E-11
  -12.5799999      -1.11069647E-10
  -12.5699997      -1.49153134E-10
  -12.5600004      -1.82506760E-10
  -12.5500002      -2.05104114E-10
  -12.5400000      -2.10217579E-10
  -12.5299997      -1.91077890E-10
  -12.5200005      -1.41706841E-10
  -12.5100002      -5.78481776E-11
  -12.5000000       6.20986734E-11
  -12.4899998       2.16244758E-10
  -12.4799995       3.98568539E-10
  -12.4700003       5.98538885E-10
  -12.4600000       8.01045563E-10
  -12.4499998       9.86656423E-10
  -12.4399996       1.13218868E-09
  -12.4300003       1.21156574E-09
  -12.4200001       1.19692523E-09
  -12.4099998       1.05993236E-09
  -12.3999996       7.73259623E-10
  -12.3900003       3.12181309E-10
  -12.3800001      -3.43765350E-10
  -12.3699999      -1.20912513E-09
  -12.3599997      -2.29095765E-09
  -12.3500004      -3.58746344E-09
  -12.3400002      -5.08690823E-09
  -12.3299999      -6.76695322E-09
  -12.3199997      -8.59448601E-09
  -12.3100004      -1.05259943E-08
  -12.3000002      -1.25085355E-08
  -12.2900000      -1.44811949E-08
  -12.2799997      -1.63770704E-08
  -12.2700005      -1.81255668E-08
  -12.2600002      -1.96549177E-08
  -12.2500000      -2.08948006E-08
  -12.2399998      -2.17789111E-08
  -12.2299995      -2.22472973E-08
  -12.2200003      -2.22484804E-08
  -12.2100000      -2.17411298E-08
  -12.1999998      -2.06952908E-08
  -12.1899996      -1.90931519E-08
  -12.1800003      -1.69292580E-08
  -12.1700001      -1.42101975E-08
  -12.1599998      -1.09538867E-08
  -12.1499996      -7.18849114E-09
  -12.1400003      -2.95101943E-09
  -12.1300001       1.71414594E-09
  -12.1199999       6.75671696E-09
  -12.1099997       1.21218484E-08
  -12.1000004       1.77512955E-08
  -12.0900002       2.35843576E-08
  -12.0799999       2.95585352E-08
  -12.0699997       3.56100784E-08
  -12.0600004       4.16742871E-08
  -12.0500002       4.76856776E-08
  -12.0400000       5.35782121E-08
  -12.0299997       5.92852594E-08
  -12.0200005       6.47395311E-08
  -12.0100002       6.98730247E-08
  -12.0000000       7.46167927E-08
  -11.9899998       7.89006265E-08
  -11.9799995       8.26530737E-08
  -11.9700003       8.58012612E-08
  -11.9600000       8.82713920E-08
  -11.9499998       8.99894346E-08
  -11.9399996       9.08822173E-08
  -11.9300003       9.08793751E-08
  -11.9200001       8.99151189E-08
  -11.9099998       8.79307649E-08
  -11.8999996       8.48769304E-08
  -11.8900003       8.07157718E-08
  -11.8800001       7.54228182E-08
  -11.8699999       6.89882569E-08
  -11.8599997       6.14175732E-08
  -11.8500004       5.27320125E-08
  -11.8400002       4.29680149E-08
  -11.8299999       3.21767502E-08
  -11.8199997       2.04231387E-08
  -11.8100004       7.78457832E-09
  -11.8000002      -5.64990499E-09
  -11.7900000      -1.97811580E-08
  -11.7799997      -3.45009248E-08
  -11.7700005      -4.96930532E-08
  -11.7600002      -6.52349570E-08
  -11.7500000      -8.09988094E-08
  -11.7399998      -9.68533058E-08
  -11.7299995      -1.12665177E-07
  -11.7200003      -1.28301082E-07
  -11.7100000      -1.43629407E-07
  -11.6999998      -1.58521914E-07
  -11.6899996      -1.72855209E-07
  -11.6800003      -1.86511997E-07
  -11.6700001      -1.99381546E-07
  -11.6599998      -2.11359875E-07
  -11.6499996      -2.22349044E-07
  -11.6400003      -2.32256156E-07
  -11.6300001      -2.40992250E-07
  -11.6199999      -2.48470684E-07
  -11.6099997      -2.54605908E-07
  -11.6000004      -2.59312941E-07
  -11.5900002      -2.62506660E-07
  -11.5799999      -2.64102965E-07
  -11.5699997      -2.64018837E-07
  -11.5600004      -2.62173899E-07
  -11.5500002      -2.58491980E-07
  -11.5400000      -2.52902282E-07
  -11.5299997      -2.45340317E-07
  -11.5200005      -2.35748530E-07
  -11.5100002      -2.24077198E-07
  -11.5000000      -2.10284441E-07
  -11.4899998      -1.94336778E-07
  -11.4799995      -1.76210179E-07
  -11.4700003      -1.55890490E-07
  -11.4600000      -1.33375082E-07
  -11.4499998      -1.08674044E-07
  -11.4399996      -8.18110024E-08
  -11.4300003      -5.28243937E-08
  -11.4200001      -2.17665495E-08
  -11.4099998       1.12969385E-08
  -11.3999996       4.62885410E-08
  -11.3900003       8.31208027E-08
  -11.3800001       1.21698932E-07
  -11.3699999       1.61922699E-07
  -11.3599997       2.03688074E-07
  -11.3500004       2.46888618E-07
  -11.3400002       2.91416001E-07
  -11.3299999       3.37160571E-07
  -11.3199997       3.84011969E-07
  -11.3100004       4.31859263E-07
  -11.3000002       4.80591552E-07
  -11.2900000       5.30099953E-07
  -11.2799997       5.80278822E-07
  -11.2700005       6.31027206E-07
  -11.2600002       6.82250914E-07
  -11.2500000       7.33863885E-07
  -11.2399998       7.85788359E-07
  -11.2299995       8.37955440E-07
  -11.2200003       8.90303511E-07
  -11.2100000       9.42776978E-07
  -11.1999998       9.95324285E-07
  -11.1899996       1.04789490E-06
  -11.1800003       1.10043732E-06
  -11.1700001       1.15289572E-06
  -11.1599998       1.20520986E-06
  -11.1499996       1.25731356E-06
  -11.1400003       1.30913554E-06
  -11.1300001       1.36060191E-06
  -11.1199999       1.41163798E-06
  -11.1099997       1.46217383E-06
  -11.1000004       1.51214817E-06
  -11.0900002       1.56151043E-06
  -11.0799999       1.61022660E-06
  -11.0699997       1.65827760E-06
  -11.0600004       1.70566034E-06
  -11.0500002       1.75238415E-06
  -11.0400000       1.79846745E-06
  -11.0299997       1.84393070E-06
  -11.0200005       1.88878835E-06
  -11.0100002       1.93304891E-06
  -11.0000000       1.97670761E-06
  -10.9899998       2.01974285E-06
  -10.9799995       2.06212280E-06
  -10.9700003       2.10379812E-06
  -10.9600000       2.14471515E-06
  -10.9499998       2.18481364E-06
  -10.9399996       2.22403696E-06
  -10.9300003       2.26232942E-06
  -10.9200001       2.29964712E-06
  -10.9099998       2.33595620E-06
  -10.8999996       2.37123163E-06
  -10.8900003       2.40545319E-06
  -10.8800001       2.43861450E-06
  -10.8699999       2.47070784E-06
  -10.8599997       2.50172388E-06
  -10.8500004       2.53165672E-06
  -10.8400002       2.56049248E-06
  -10.8299999       2.58821547E-06
  -10.8199997       2.61480000E-06
  -10.8100004       2.64022674E-06
  -10.8000002       2.66447296E-06
  -10.7900000       2.68751910E-06
  -10.7799997       2.70935379E-06
  -10.7700005       2.72997931E-06
  -10.7600002       2.74940066E-06
  -10.7500000       2.76763740E-06
  -10.7399998       2.78472157E-06
  -10.7299995       2.80068821E-06
  -10.7200003       2.81558710E-06
  -10.7100000       2.82947849E-06
  -10.6999998       2.84243083E-06
  -10.6899996       2.85452575E-06
  -10.6800003       2.86585396E-06
  -10.6700001       2.87652415E-06
  -10.6599998       2.88665501E-06
  -10.6499996       2.89637592E-06
  -10.6400003       2.90583057E-06
  -10.6300001       2.91516676E-06
  -10.6199999       2.92453228E-06
  -10.6099997       2.93407970E-06
  -10.6000004       2.94395704E-06
  -10.5900002       2.95431005E-06
  -10.5799999       2.96527469E-06
  -10.5699997       2.97698693E-06
  -10.5600004       2.98957775E-06
  -10.5500002       3.00316810E-06
  -10.5400000       3.01787554E-06
  -10.5299997       3.03380421E-06
  -10.5200005       3.05105686E-06
  -10.5100002       3.06972174E-06
  -10.5000000       3.08987183E-06
  -10.4899998       3.11156236E-06
  -10.4799995       3.13484247E-06
  -10.4700003       3.15974171E-06
  -10.4600000       3.18626462E-06
  -10.4499998       3.21441485E-06
  -10.4399996       3.24417397E-06
  -10.4300003       3.27550924E-06
  -10.4200001       3.30837725E-06
  -10.4099998       3.34272977E-06
  -10.3999996       3.37849997E-06
  -10.3900003       3.41561599E-06
  -10.3800001       3.45399735E-06
  -10.3699999       3.49355059E-06
  -10.3599997       3.53416317E-06
  -10.3500004       3.57571957E-06
  -10.3400002       3.61808861E-06
  -10.3299999       3.66112158E-06
  -10.3199997       3.70468069E-06
  -10.3100004       3.74861793E-06
  -10.3000002       3.79279481E-06
  -10.2900000       3.83709494E-06
  -10.2799997       3.88140734E-06
  -10.2700005       3.92564834E-06
  -10.2600002       3.96975292E-06
  -10.2500000       4.01367470E-06
  -10.2399998       4.05739365E-06
  -10.2299995       4.10089206E-06
  -10.2200003       4.14416218E-06
  -10.2100000       4.18720492E-06
  -10.1999998       4.23003257E-06
  -10.1899996       4.27267150E-06
  -10.1800003       4.31513627E-06
  -10.1700001       4.35746915E-06
  -10.1599998       4.39971518E-06
  -10.1499996       4.44194166E-06
  -10.1400003       4.48421679E-06
  -10.1300001       4.52664563E-06
  -10.1199999       4.56931230E-06
  -10.1099997       4.61235186E-06
  -10.1000004       4.65589665E-06
  -10.0900002       4.70011219E-06
  -10.0799999       4.74516128E-06
  -10.0699997       4.79124492E-06
  -10.0600004       4.83855956E-06
  -10.0500002       4.88731757E-06
  -10.0400000       4.93773769E-06
  -10.0299997       4.99004864E-06
  -10.0200005       5.04443142E-06
  -10.0100002       5.10109567E-06
  -10.0000000       5.16021282E-06
  -9.98999977       5.22192568E-06
  -9.97999954       5.28635292E-06
  -9.97000027       5.35361414E-06
  -9.96000004       5.42379803E-06
  -9.94999981       5.49700053E-06
  -9.93999958       5.57330304E-06
  -9.93000031       5.65276969E-06
  -9.92000008       5.73549687E-06
  -9.90999985       5.82157691E-06
  -9.89999962       5.91107755E-06
  -9.89000034       6.00409021E-06
  -9.88000011       6.10068082E-06
  -9.86999989       6.20092987E-06
  -9.85999966       6.30491240E-06
  -9.85000038       6.41268934E-06
  -9.84000015       6.52433300E-06
  -9.82999992       6.63990159E-06
  -9.81999969       6.75948286E-06
  -9.81000042       6.88315504E-06
  -9.80000019       7.01105500E-06
  -9.78999996       7.14331327E-06
  -9.77999973       7.28009309E-06
  -9.77000046       7.42161319E-06
  -9.76000023       7.56807503E-06
  -9.75000000       7.71973737E-06
  -9.73999977       7.87685804E-06
  -9.72999954       8.03970124E-06
  -9.72000027       8.20854075E-06
  -9.71000004       8.38362394E-06
  -9.69999981       8.56519546E-06
  -9.68999958       8.75341993E-06
  -9.68000031       8.94845562E-06
  -9.67000008       9.15037617E-06
  -9.65999985       9.35919434E-06
  -9.64999962       9.57484463E-06
  -9.64000034       9.79713332E-06
  -9.63000011       1.00258021E-05
  -9.61999989       1.02604790E-05
  -9.60999966       1.05007321E-05
  -9.60000038       1.07459691E-05
  -9.59000015       1.09955427E-05
  -9.57999992       1.12486960E-05
  -9.56999969       1.15046305E-05
  -9.56000042       1.17624468E-05
  -9.55000019       1.20211871E-05
  -9.53999996       1.22798656E-05
  -9.52999973       1.25374727E-05
  -9.52000046       1.27928670E-05
  -9.51000023       1.30449662E-05
  -9.50000000       1.32926689E-05
  -9.48999977       1.35348964E-05
  -9.47999954       1.37705583E-05
  -9.47000027       1.39986723E-05
  -9.46000004       1.42183235E-05
  -9.44999981       1.44287196E-05
  -9.43999958       1.46292195E-05
  -9.43000031       1.48192921E-05
  -9.42000008       1.49986381E-05
  -9.40999985       1.51671320E-05
  -9.39999962       1.53248438E-05
  -9.39000034       1.54720437E-05
  -9.38000011       1.56092519E-05
  -9.36999989       1.57371778E-05
  -9.35999966       1.58567691E-05
  -9.35000038       1.59692227E-05
  -9.34000015       1.60758973E-05
  -9.32999992       1.61783719E-05
  -9.31999969       1.62783981E-05
  -9.31000042       1.63778950E-05
  -9.30000019       1.64789217E-05
  -9.28999996       1.65835700E-05
  -9.27999973       1.66940317E-05
  -9.27000046       1.68125716E-05
  -9.26000023       1.69414088E-05
  -9.25000000       1.70827716E-05
  -9.23999977       1.72388536E-05
  -9.22999954       1.74117413E-05
  -9.22000027       1.76034391E-05
  -9.21000004       1.78158116E-05
  -9.19999981       1.80505594E-05
  -9.18999958       1.83092325E-05
  -9.18000031       1.85930985E-05
  -9.17000008       1.89032780E-05
  -9.15999985       1.92406187E-05
  -9.14999962       1.96056917E-05
  -9.14000034       1.99988372E-05
  -9.13000011       2.04201369E-05
  -9.11999989       2.08694164E-05
  -9.10999966       2.13461644E-05
  -9.10000038       2.18496207E-05
  -9.09000015       2.23787574E-05
  -9.07999992       2.29322959E-05
  -9.06999969       2.35086536E-05
  -9.06000042       2.41060079E-05
  -9.05000019       2.47223870E-05
  -9.03999996       2.53554899E-05
  -9.02999973       2.60029647E-05
  -9.02000046       2.66621919E-05
  -9.01000023       2.73304940E-05
  -9.00000000       2.80050444E-05
  -8.98999977       2.86829600E-05
  -8.97999954       2.93613393E-05
  -8.97000027       3.00371885E-05
  -8.96000004       3.07075097E-05
  -8.94999981       3.13693527E-05
  -8.93999958       3.20198415E-05
  -8.93000031       3.26560548E-05
  -8.92000008       3.32751806E-05
  -8.90999985       3.38745849E-05
  -8.89999962       3.44516229E-05
  -8.89000034       3.50038972E-05
  -8.88000011       3.55290285E-05
  -8.86999989       3.60249214E-05
  -8.85999966       3.64895423E-05
  -8.85000038       3.69211848E-05
  -8.84000015       3.73182338E-05
  -8.82999992       3.76792996E-05
  -8.81999969       3.80032434E-05
  -8.81000042       3.82889921E-05
  -8.80000019       3.85358653E-05
  -8.78999996       3.87432992E-05
  -8.77999973       3.89110355E-05
  -8.77000046       3.90390123E-05
  -8.76000023       3.91274662E-05
  -8.75000000       3.91768590E-05
  -8.73999977       3.91879294E-05
  -8.72999954       3.91616704E-05
  -8.72000027       3.90991845E-05
  -8.71000004       3.90019231E-05
  -8.69999981       3.88714907E-05
  -8.68999958       3.87096261E-05
  -8.68000031       3.85182830E-05
  -8.67000008       3.82995095E-05
  -8.65999985       3.80554920E-05
  -8.64999962       3.77884062E-05
  -8.64000034       3.75005584E-05
  -8.63000011       3.71942770E-05
  -8.61999989       3.68718356E-05
  -8.60999966       3.65355409E-05
  -8.60000038       3.61875027E-05
  -8.59000015       3.58298494E-05
  -8.57999992       3.54645526E-05
  -8.56999969       3.50935115E-05
  -8.56000042       3.47183013E-05
  -8.55000019       3.43406100E-05
  -8.53999996       3.39617873E-05
  -8.52999973       3.35830664E-05
  -8.52000046       3.32054842E-05
  -8.51000023       3.28300302E-05
  -8.50000000       3.24574758E-05
  -8.48999977       3.20885301E-05
  -8.47999954       3.17237973E-05
  -8.47000027       3.13638011E-05
  -8.46000004       3.10089345E-05
  -8.44999981       3.06596121E-05
  -8.43999958       3.03162305E-05
  -8.43000031       2.99793701E-05
  -8.42000008       2.96494145E-05
  -8.40999985       2.93269568E-05
  -8.39999962       2.90125608E-05
  -8.39000034       2.87068997E-05
  -8.38000011       2.84107973E-05
  -8.36999989       2.81251359E-05
  -8.35999966       2.78508633E-05
  -8.35000038       2.75890707E-05
  -8.34000015       2.73407641E-05
  -8.32999992       2.71072622E-05
  -8.31999969       2.68897966E-05
  -8.31000042       2.66896859E-05
  -8.30000019       2.65081853E-05
  -8.28999996       2.63465845E-05
  -8.27999973       2.62063040E-05
  -8.27000046       2.60884372E-05
  -8.26000023       2.59942753E-05
  -8.25000000       2.59249082E-05
  -8.23999977       2.58815671E-05
  -8.22999954       2.58651635E-05
  -8.22000027       2.58766177E-05
  -8.21000004       2.59169046E-05
  -8.19999981       2.59869030E-05
  -8.18999958       2.60873621E-05
  -8.18000031       2.62190224E-05
  -8.17000008       2.63827587E-05
  -8.15999985       2.65793515E-05
  -8.14999962       2.68095373E-05
  -8.14000034       2.70741202E-05
  -8.13000011       2.73739279E-05
  -8.11999989       2.77097297E-05
  -8.10999966       2.80823479E-05
  -8.10000038       2.84926737E-05
  -8.09000015       2.89414202E-05
  -8.07999992       2.94293677E-05
  -8.06999969       2.99573712E-05
  -8.06000042       3.05259273E-05
  -8.05000019       3.11357908E-05
  -8.03999996       3.17873964E-05
  -8.02999973       3.24812790E-05
  -8.02000046       3.32176314E-05
  -8.01000023       3.39965227E-05
  -8.00000000       3.48180001E-05
  -7.98999977       3.56817181E-05
  -7.98000002       3.65872729E-05
  -7.96999979       3.75340060E-05
  -7.96000004       3.85210806E-05
  -7.94999981       3.95474526E-05
  -7.94000006       4.06119943E-05
  -7.92999983       4.17131596E-05
  -7.92000008       4.28494313E-05
  -7.90999985       4.40189106E-05
  -7.90000010       4.52198110E-05
  -7.88999987       4.64499353E-05
  -7.88000011       4.77069989E-05
  -7.86999989       4.89888480E-05
  -7.86000013       5.02930161E-05
  -7.84999990       5.16168948E-05
  -7.84000015       5.29582212E-05
  -7.82999992       5.43142742E-05
  -7.82000017       5.56827326E-05
  -7.80999994       5.70610355E-05
  -7.80000019       5.84466179E-05
  -7.78999996       5.98371153E-05
  -7.78000021       6.12302756E-05
  -7.76999998       6.26236942E-05
  -7.76000023       6.40151775E-05
  -7.75000000       6.54028918E-05
  -7.73999977       6.67847926E-05
  -7.73000002       6.81592428E-05
  -7.71999979       6.95245326E-05
  -7.71000004       7.08791413E-05
  -7.69999981       7.22218319E-05
  -7.69000006       7.35514841E-05
  -7.67999983       7.48668826E-05
  -7.67000008       7.61673218E-05
  -7.65999985       7.74521541E-05
  -7.65000010       7.87207609E-05
  -7.63999987       7.99729678E-05
  -7.63000011       8.12085855E-05
  -7.61999989       8.24274030E-05
  -7.61000013       8.36297913E-05
  -7.59999990       8.48159616E-05
  -7.59000015       8.59863285E-05
  -7.57999992       8.71415759E-05
  -7.57000017       8.82825116E-05
  -7.55999994       8.94099649E-05
  -7.55000019       9.05250854E-05
  -7.53999996       9.16291101E-05
  -7.53000021       9.27234287E-05
  -7.51999998       9.38093581E-05
  -7.51000023       9.48886009E-05
  -7.50000000       9.59628669E-05
  -7.48999977       9.70336987E-05
  -7.48000002       9.81030171E-05
  -7.46999979       9.91726411E-05
  -7.46000004       1.00244382E-04
  -7.44999981       1.01320104E-04
  -7.44000006       1.02401704E-04