  -16.0000000       0.00000000    
  -15.9899998       0.00000000    
  -15.9799995       0.00000000    
  -15.9700003       0.00000000    
  -15.9600000       0.00000000    
  -15.9499998       0.00000000    
  -15.9399996       0.00000000    
  -15.9300003       0.00000000    
  -15.9200001       0.00000000    
  -15.9099998       0.00000000    
  -15.8999996       0.00000000    
  -15.8900003       0.00000000    
  -15.8800001       0.00000000    
  -15.8699999       0.00000000    
  -15.8599997       0.00000000    
  -15.8500004      -0.00000000    
  -15.8400002      -7.00649232E-45
  -15.8299999      -5.32493416E-44
  -15.8199997      -3.57331108E-43
  -15.8100004      -1.90296331E-42
  -15.8000002      -8.49186869E-42
  -15.7900000      -3.23475738E-41
  -15.7799997      -1.06563143E-40
  -15.7700005      -3.05219621E-40
  -15.7600002      -7.57614817E-40
  -15.7500000      -1.60095547E-39
  -15.7399998      -2.73130026E-39
  -15.7299995      -3.09627826E-39
  -15.7200003       7.83953623E-40
  -15.7100000       1.71395772E-38
  -15.6999998       6.12367821E-38
  -15.6899996       1.54649126E-37
  -15.6800003       3.15385873E-37
  -15.6700001       5.30192552E-37
  -15.6599998       7.02864270E-37
  -15.6499996       5.87585611E-37
  -15.6400003      -2.48599450E-37
  -15.6300001      -2.33822644E-36
  -15.6199999      -5.96684742E-36
  -15.6099997      -1.04825857E-35
  -15.6000004      -1.34155962E-35
  -15.5900002      -1.00444758E-35
  -15.5799999       5.37972229E-36
  -15.5699997       3.54263060E-35
  -15.5600004       7.22613054E-35
  -15.5500002       9.09091859E-35
  -15.5400000       5.17249255E-35
  -15.5299997      -7.59447698E-35
  -15.5200005      -2.63102957E-34
  -15.5100002      -3.61530979E-34
  -15.5000000      -9.51829631E-35
  -15.4899998       7.99540309E-34
  -15.4799995       2.20538628E-33
  -15.4700003       3.09493263E-33
  -15.4600000       1.21579516E-33
  -15.4499998      -6.26555019E-33
  -15.4399996      -2.03183817E-32
  -15.4300003      -3.56642782E-32
  -15.4200001      -3.62868641E-32
  -15.4099998       4.34316730E-33
  -15.3999996       1.11175869E-31
  -15.3900003       2.78229521E-31
  -15.3800001       4.26507625E-31
  -15.3699999       3.73302752E-31
  -15.3599997      -1.39823725E-31
  -15.3500004      -1.30410114E-30
  -15.3400002      -2.96227811E-30
  -15.3299999      -4.26469125E-30
  -15.3199997      -3.49736728E-30
  -15.3100004       1.53282094E-30
  -15.3000002       1.21753326E-29
  -15.2900000       2.66408473E-29
  -15.2799997       3.75003236E-29
  -15.2700005       3.08575926E-29
  -15.2600002      -1.00723495E-29
  -15.2500000      -9.46649517E-29
  -15.2399998      -2.08342551E-28
  -15.2299995      -2.95826884E-28
  -15.2200003      -2.57203201E-28
  -15.2100000       2.57453801E-29
  -15.1999998       6.19715193E-28
  -15.1899996       1.43216927E-27
  -15.1800003       2.10568931E-27
  -15.1700001       1.99457548E-27
  -15.1599998       3.26359037E-28
  -15.1499996      -3.37825638E-27
  -15.1400003      -8.66400077E-27
  -15.1300001      -1.35073710E-26
  -15.1199999      -1.41372795E-26
  -15.1099997      -5.87281907E-27
  -15.1000004       1.46168761E-26
  -15.0900002       4.58014306E-26
  -15.0799999       7.76837186E-26
  -15.0699997       9.03680350E-26
  -15.0600004       5.76918016E-26
  -15.0500002      -4.18814790E-26
  -15.0400000      -2.07596044E-25
  -15.0299997      -3.97117510E-25
  -15.0200005      -5.16155142E-25
  -15.0100002      -4.30874988E-25
  -15.0000000      -1.46239404E-26
  -14.9899998       7.70734114E-25
  -14.9799995       1.77891033E-24
  -14.9700003       2.61327195E-24
  -14.9600000       2.65298656E-24
  -14.9499998       1.22827753E-24
  -14.9399996      -2.03968921E-24
  -14.9300003      -6.80026263E-24
  -14.9200001      -1.16066312E-23
  -14.9099998      -1.38773713E-23
  -14.8999996      -1.04486733E-23
  -14.8900003       1.15349638E-24
  -14.8800001       2.08890920E-23
  -14.8699999       4.44084577E-23
  -14.8599997       6.22539239E-23
  -14.8500004       6.11656177E-23
  -14.8400002       2.82510875E-23
  -14.8299999      -4.21927903E-23
  -14.8199997      -1.40914665E-22
  -14.8100004      -2.38301071E-22
  -14.8000002      -2.85566587E-22
  -14.7900000      -2.26188863E-22
  -14.7799997      -1.84587977E-23
  -14.7700005       3.34890311E-22
  -14.7600002       7.59930839E-22
  -14.7500000       1.10225936E-21
  -14.7399998       1.15015405E-21
  -14.7299995       6.98598708E-22
  -14.7200003      -3.51708977E-22
  -14.7100000      -1.88595806E-21
  -14.6999998      -3.50194061E-21
  -14.6899996      -4.52528743E-21
  -14.6800003      -4.15596542E-21
  -14.6700001      -1.75288357E-21
  -14.6599998       2.79471674E-21
  -14.6499996       8.72649858E-21
  -14.6400003       1.42667249E-20
  -14.6300001       1.68427027E-20
  -14.6199999       1.37601689E-20
  -14.6099997       3.28074068E-21
  -14.6000004      -1.41531346E-20
  -14.5900002      -3.49887576E-20
  -14.5799999      -5.24644441E-20
  -14.5699997      -5.77872706E-20
  -14.5600004      -4.27153160E-20
  -14.5500002      -3.15426283E-21
  -14.5400000       5.72175435E-20
  -14.5299997       1.24743593E-19
  -14.5200005       1.76532208E-19
  -14.5100002       1.85178546E-19
  -14.5000000       1.27368534E-19
  -14.4899998      -5.30339943E-21
  -14.4799995      -1.96548376E-19
  -14.4700003      -4.00837663E-19
  -14.4600000      -5.48032385E-19
  -14.4499998      -5.59217624E-19
  -14.4399996      -3.72331985E-19
  -14.4300003       2.80682415E-20
  -14.4200001       5.86332295E-19
  -14.4099998       1.16760276E-18
  -14.3999996       1.57530447E-18
  -14.3900003       1.59753381E-18
  -14.3800001       1.07633817E-18
  -14.3699999      -1.65513590E-20
  -14.3599997      -1.52213620E-18
  -14.3500004      -3.08144879E-18
  -14.3400002      -4.18777639E-18
  -14.3299999      -4.30782469E-18
  -14.3199997      -3.05313646E-18
  -14.3100004      -3.59569751E-19
  -14.3000002       3.38361704E-18
  -14.2900000       7.31473996E-18
  -14.2799997       1.02314524E-17
  -14.2700005       1.08755738E-17
  -14.2600002       8.32278279E-18
  -14.2500000       2.38005401E-18
  -14.2399998      -6.13648239E-18
  -14.2299995      -1.53670339E-17
  -14.2200003      -2.26953363E-17
  -14.2100000      -2.53528806E-17
  -14.1999998      -2.12325435E-17
  -14.1899996      -9.70954943E-18
  -14.1800003       7.78497725E-18
  -14.1700001       2.76768379E-17
  -14.1599998       4.47915754E-17
  -14.1499996       5.35083187E-17
  -14.1400003       4.93126502E-17
  -14.1300001       3.03676466E-17
  -14.1199999      -1.36466014E-18
  -14.1099997      -3.98793931E-17
  -14.1000004      -7.60119955E-17
  -14.0900002      -9.94083889E-17
  -14.0799999      -1.01210571E-16
  -14.0699997      -7.68067705E-17
  -14.0600004      -2.78617691E-17
  -14.0500002       3.70770872E-17
  -14.0400000       1.03801161E-16
  -14.0299997       1.55422446E-16
  -14.0200005       1.76529620E-16
  -14.0100002       1.57509257E-16
  -14.0000000       9.78396177E-17
  -13.9899998       7.30680482E-18
  -13.9799995      -9.54378822E-17
  -13.9700003      -1.86865765E-16
  -13.9600000      -2.44247297E-16
  -13.9499998      -2.51591152E-16
  -13.9399996      -2.04208090E-16
  -13.9300003      -1.10516300E-16
  -13.9200001       9.61007186E-18
  -13.9099998       1.29689770E-16
  -13.8999996       2.23461426E-16
  -13.8900003       2.71797891E-16
  -13.8800001       2.67668579E-16
  -13.8699999       2.17579219E-16
  -13.8599997       1.38917069E-16
  -13.8500004       5.38890236E-17
  -13.8400002      -1.81080242E-17
  -13.8299999      -6.71863688E-17
  -13.8199997      -9.63302248E-17
  -13.8100004      -1.19915209E-16
  -13.8000002      -1.57380985E-16
  -13.7900000      -2.23744997E-16
  -13.7799997      -3.19997798E-16
  -13.7700005      -4.26949763E-16
  -13.7600002      -5.05518898E-16
  -13.7500000      -5.04797543E-16
  -13.7399998      -3.76874975E-16
  -13.7299995      -9.49774801E-17
  -13.7200003       3.30246261E-16
  -13.7100000       8.41871023E-16
  -13.6999998       1.33961871E-15
  -13.6899996       1.69616505E-15
  -13.6800003       1.78479646E-15
  -13.6700001       1.51278422E-15
  -13.6599998       8.52334897E-16
  -13.6499996      -1.39568200E-16
  -13.6400003      -1.31934191E-15
  -13.6300001      -2.47598721E-15
  -13.6199999      -3.36912416E-15
  -13.6099997      -3.77859450E-15
  -13.6000004      -3.55469319E-15
  -13.5900002      -2.65701276E-15
  -13.5799999      -1.17189041E-15
  -13.5699997       6.96773643E-16
  -13.5600004       2.66216653E-15
  -13.5500002       4.40712089E-15
  -13.5400000       5.64246932E-15
  -13.5299997       6.15765170E-15
  -13.5200005       5.85232936E-15
  -13.5100002       4.74318545E-15
  -13.5000000       2.94722361E-15
  -13.4899998       6.49538322E-16
  -13.4799995      -1.93233414E-15
  -13.4700003      -4.57525905E-15
  -13.4600000      -7.06050031E-15
  -13.4499998      -9.16625598E-15
  -13.4399996      -1.06504974E-14
  -13.4300003      -1.12384221E-14
  -13.4200001      -1.06307598E-14
  -13.4099998      -8.54516992E-15
  -13.3999996      -4.79312397E-15
  -13.3900003       6.18855983E-16
  -13.3800001       7.38802381E-15
  -13.3699999       1.48477049E-14
  -13.3599997       2.19670219E-14
  -13.3500004       2.74424445E-14
  -13.3400002       2.98863920E-14
  -13.3299999       2.80930081E-14
  -13.3199997       2.13361552E-14
  -13.3100004       9.63643126E-15
  -13.3000002      -6.07151311E-15
  -13.2900000      -2.39290433E-14
  -13.2799997      -4.13319789E-14
  -13.2700005      -5.52900248E-14
  -13.2600002      -6.29184001E-14
  -13.2500000      -6.19778480E-14
  -13.2399998      -5.13594667E-14
  -13.2299995      -3.14126031E-14
  -13.2200003      -4.03888052E-15
  -13.2100000       2.74821364E-14
  -13.1999998       5.89174570E-14
  -13.1899996       8.56875877E-14
  -13.1800003       1.03551499E-13
  -13.1700001       1.09251319E-13
  -13.1599998       1.01009201E-13
  -13.1499996       7.88014673E-14
  -13.1400003       4.43812908E-14
  -13.1300001       1.06892466E-15
  -13.1199999      -4.66344323E-14
  -13.1099997      -9.35336064E-14
  -13.1000004      -1.34254126E-13
  -13.0900002      -1.63731699E-13
  -13.0799999      -1.77651649E-13
  -13.0699997      -1.72839743E-13
  -13.0600004      -1.47617934E-13
  -13.0500002      -1.02131851E-13
  -13.0400000      -3.86323121E-14
  -13.0299997       3.83424541E-14
  -13.0200005       1.21967025E-13
  -13.0100002       2.03408891E-13
  -13.0000000       2.72467704E-13
  -12.9899998       3.18600886E-13
  -12.9799995       3.32283083E-13
  -12.9700003       3.06552581E-13
  -12.9600000       2.38514043E-13
  -12.9499998       1.30516894E-13
  -12.9399996      -9.27068243E-15
  -12.9300003      -1.67106427E-13
  -12.9200001      -3.24833015E-13
  -12.9099998      -4.61888991E-13
  -12.8999996      -5.57944695E-13
  -12.8900003      -5.95800319E-13
  -12.8800001      -5.64105078E-13
  -12.8699999      -4.59454306E-13
  -12.8599997      -2.87505751E-13
  -12.8500004      -6.29001517E-14
  -12.8400002       1.92037074E-13
  -12.8299999       4.49651167E-13
  -12.8199997       6.80050417E-13
  -12.8100004       8.54523266E-13
  -12.8000002       9.48849289E-13
  -12.7900000       9.46119702E-13
  -12.7799997       8.38785367E-13
  -12.7700005       6.29769565E-13
  -12.7600002       3.32602706E-13
  -12.7500000      -2.93798460E-14
  -12.7399998      -4.24681096E-13
  -12.7299995      -8.16009098E-13
  -12.7200003      -1.16324485E-12
  -12.7100000      -1.42687403E-12
  -12.6999998      -1.57171032E-12
  -12.6899996      -1.57067978E-12
  -12.6800003      -1.40834425E-12
  -12.6700001      -1.08377174E-12
  -12.6599998      -6.12315537E-13
  -12.6499996      -2.58914441E-14
  -12.6400003       6.28549079E-13
  -12.6300001       1.29244011E-12
  -12.6199999       1.90075386E-12
  -12.6099997       2.38841499E-12
  -12.6000004       2.69726537E-12
  -12.5900002       2.78270050E-12
  -12.5799999       2.61906772E-12
  -12.5699997       2.20306347E-12
  -12.5600004       1.55461115E-12
  -12.5500002       7.15103270E-13
  -12.5400000      -2.56742896E-13
  -12.5299997      -1.29078638E-12
  -12.5200005      -2.31226258E-12
  -12.5100002      -3.24853794E-12
  -12.5000000      -4.03494209E-12
  -12.4899998      -4.61903259E-12
  -12.4799995      -4.96293328E-12
  -12.4700003      -5.04373323E-12
  -12.4600000      -4.85217162E-12
  -12.4499998      -4.39005820E-12
  -12.4399996      -3.66691356E-12
  -12.4300003      -2.69630672E-12
  -12.4200001      -1.49223147E-12
  -12.4099998      -6.58018087E-14
  -12.3999996       1.57758290E-12
  -12.3900003       3.44042199E-12
  -12.3800001       5.53448173E-12
  -12.3699999       7.88106039E-12
  -12.3599997       1.05098725E-11
  -12.3500004       1.34561485E-11
  -12.3400002       1.67558814E-11
  -12.3299999       2.04391382E-11
  -12.3199997       2.45218602E-11
  -12.3100004       2.89969368E-11
  -12.3000002       3.38254633E-11
  -12.2900000       3.89296165E-11
  -12.2799997       4.41882676E-11
  -12.2700005       4.94363474E-11
  -12.2600002       5.44687108E-11
  -12.2500000       5.90481761E-11
  -12.2399998       6.29174213E-11
  -12.2299995       6.58135352E-11
  -12.2200003       6.74834355E-11
  -12.2100000       6.76988535E-11
  -12.1999998       6.62692609E-11
  -12.1899996       6.30515640E-11
  -12.1800003       5.79563446E-11
  -12.1700001       5.09502822E-11
  -12.1599998       4.20553661E-11
  -12.1499996       3.13456691E-11
  -12.1400003       1.89423251E-11
  -12.1300001       5.00783269E-12
  -12.1199999      -1.02604383E-11
  -12.1099997      -2.66369080E-11
  -12.1000004      -4.38747233E-11
  -12.0900002      -6.17132179E-11
  -12.0799999      -7.98860630E-11
  -12.0699997      -9.81296780E-11
  -12.0600004      -1.16191987E-10
  -12.0500002      -1.33840425E-10
  -12.0400000      -1.50868762E-10
  -12.0299997      -1.67101985E-10
  -12.0200005      -1.82398069E-10
  -12.0100002      -1.96647032E-10
  -12.0000000      -2.09766912E-10
  -11.9899998      -2.21697508E-10
  -11.9799995      -2.32392189E-10
  -11.9700003      -2.41809267E-10
  -11.9600000      -2.49904014E-10
  -11.9499998      -2.56621752E-10
  -11.9399996      -2.61892341E-10
  -11.9300003      -2.65627992E-10
  -11.9200001      -2.67721678E-10
  -11.9099998      -2.68048334E-10
  -11.8999996      -2.66466904E-10
  -11.8900003      -2.62823735E-10
  -11.8800001      -2.56956900E-10
  -11.8699999      -2.48701282E-10
  -11.8599997      -2.37894482E-10
  -11.8500004      -2.24383304E-10
  -11.8400002      -2.08031051E-10
  -11.8299999      -1.88725813E-10
  -11.8199997      -1.66388084E-10
  -11.8100004      -1.40977896E-10
  -11.8000002      -1.12501182E-10
  -11.7900000      -8.10140011E-11
  -11.7799997      -4.66240900E-11
  -11.7700005      -9.48997304E-12
  -11.7600002       3.01826654E-11
  -11.7500000       7.21477322E-11
  -11.7399998       1.16126019E-10
  -11.7299995       1.61814701E-10
  -11.7200003       2.08896678E-10
  -11.7100000       2.57049326E-10
  -11.6999998       3.05952375E-10
  -11.6899996       3.55293489E-10
  -11.6800003       4.04772854E-10
  -11.6700001       4.54105087E-10
  -11.6599998       5.03019515E-10
  -11.6499996       5.51258705E-10
  -11.6400003       5.98575522E-10
  -11.6300001       6.44727882E-10
  -11.6199999       6.89474033E-10
  -11.6099997       7.32565897E-10
  -11.6000004       7.73741959E-10
  -11.5900002       8.12720002E-10
  -11.5799999       8.49191439E-10
  -11.5699997       8.82815210E-10
  -11.5600004       9.13215004E-10
  -11.5500002       9.39977318E-10
  -11.5400000       9.62650848E-10
  -11.5299997       9.80750703E-10
  -11.5200005       9.93763072E-10
  -11.5100002       1.00115150E-09
  -11.5000000       1.00236686E-09
  -11.4899998       9.96854599E-10
  -11.4799995       9.84066384E-10
  -11.4700003       9.63466862E-10
  -11.4600000       9.34544331E-10
  -11.4499998       8.96819397E-10
  -11.4399996       8.49851856E-10
  -11.4300003       7.93248744E-10
  -11.4200001       7.26670335E-10
  -11.4099998       6.49836573E-10
  -11.3999996       5.62531355E-10
  -11.3900003       4.64606215E-10
  -11.3800001       3.55980190E-10
  -11.3699999       2.36641012E-10
  -11.3599997       1.06639919E-10
  -11.3500004      -3.39147703E-11
  -11.3400002      -1.84865803E-10
  -11.3299999      -3.46016216E-10
  -11.3199997      -5.17141940E-10
  -11.3100004      -6.98001046E-10
  -11.3000002      -8.88343066E-10
  -11.2900000      -1.08791620E-09
  -11.2799997      -1.29647293E-09
  -11.2700005      -1.51377078E-09
  -11.2600002      -1.73957049E-09
  -11.2500000      -1.97363259E-09
  -11.2399998      -2.21571361E-09
  -11.2299995      -2.46555554E-09
  -11.2200003      -2.72288236E-09
  -11.2100000      -2.98738723E-09
  -11.1999998      -3.25873084E-09
  -11.1899996      -3.53652929E-09
  -11.1800003      -3.82035026E-09
  -11.1700001      -4.10970946E-09
  -11.1599998      -4.40406689E-09
  -11.1499996      -4.70282213E-09
  -11.1400003      -5.00532460E-09
  -11.1300001      -5.31086597E-09
  -11.1199999      -5.61869662E-09
  -11.1099997      -5.92803140E-09
  -11.1000004      -6.23805940E-09
  -11.0900002      -6.54795818E-09
  -11.0799999      -6.85690527E-09
  -11.0699997      -7.16409598E-09
  -11.0600004      -7.46875806E-09
  -11.0500002      -7.77015075E-09
  -11.0400000      -8.06758127E-09
  -11.0299997      -8.36041902E-09
  -11.0200005      -8.64808758E-09
  -11.0100002      -8.93006913E-09
  -11.0000000      -9.20590981E-09
  -10.9899998      -9.47520729E-09
  -10.9799995      -9.73761694E-09
  -10.9700003      -9.99284033E-09
  -10.9600000      -1.02406235E-08
  -10.9499998      -1.04807416E-08
  -10.9399996      -1.07130012E-08
  -10.9300003      -1.09372422E-08
  -10.9200001      -1.11533129E-08
  -10.9099998      -1.13610747E-08
  -10.8999996      -1.15604033E-08
  -10.8900003      -1.17511769E-08
  -10.8800001      -1.19332766E-08
  -10.8699999      -1.21065780E-08
  -10.8599997      -1.22709558E-08
  -10.8500004      -1.24262645E-08
  -10.8400002      -1.25723858E-08
  -10.8299999      -1.27091662E-08
  -10.8199997      -1.28364581E-08
  -10.8100004      -1.29541258E-08
  -10.8000002      -1.30620430E-08
  -10.7900000      -1.31600881E-08
  -10.7799997      -1.32481741E-08
  -10.7700005      -1.33262414E-08
  -10.7600002      -1.33942679E-08
  -10.7500000      -1.34522615E-08
  -10.7399998      -1.35002836E-08
  -10.7299995      -1.35384246E-08
  -10.7200003      -1.35668383E-08
  -10.7100000      -1.35857086E-08
  -10.6999998      -1.35952689E-08
  -10.6899996      -1.35957920E-08
  -10.6800003      -1.35875986E-08
  -10.6700001      -1.35710279E-08
  -10.6599998      -1.35464600E-08
  -10.6499996      -1.35142999E-08
  -10.6400003      -1.34749669E-08
  -10.6300001      -1.34288864E-08
  -10.6199999      -1.33764795E-08
  -10.6099997      -1.33181697E-08
  -10.6000004      -1.32543700E-08
  -10.5900002      -1.31854705E-08
  -10.5799999      -1.31118547E-08
  -10.5699997      -1.30338762E-08
  -10.5600004      -1.29518938E-08
  -10.5500002      -1.28662343E-08
  -10.5400000      -1.27772246E-08
  -10.5299997      -1.26851925E-08
  -10.5200005      -1.25904389E-08
  -10.5100002      -1.24932855E-08
  -10.5000000      -1.23940405E-08
  -10.4899998      -1.22930048E-08
  -10.4799995      -1.21904904E-08
  -10.4700003      -1.20867973E-08
  -10.4600000      -1.19822294E-08
  -10.4499998      -1.18770966E-08
  -10.4399996      -1.17717009E-08
  -10.4300003      -1.16663266E-08
  -10.4200001      -1.15612950E-08
  -10.4099998      -1.14569039E-08
  -10.3999996      -1.13534622E-08
  -10.3900003      -1.12512772E-08
  -10.3800001      -1.11506750E-08
  -10.3699999      -1.10519682E-08
  -10.3599997      -1.09554819E-08
  -10.3500004      -1.08615446E-08
  -10.3400002      -1.07704778E-08
  -10.3299999      -1.06826095E-08
  -10.3199997      -1.05982680E-08
  -10.3100004      -1.05177671E-08
  -10.3000002      -1.04414264E-08
  -10.2900000      -1.03695381E-08
  -10.2799997      -1.03024060E-08
  -10.2700005      -1.02403144E-08
  -10.2600002      -1.01835198E-08
  -10.2500000      -1.01322728E-08
  -10.2399998      -1.00868016E-08
  -10.2299995      -1.00473070E-08
  -10.2200003      -1.00139594E-08
  -10.2100000      -9.98690552E-09
  -10.1999998      -9.96626959E-09
  -10.1899996      -9.95212091E-09
  -10.1800003      -9.94454119E-09
  -10.1700001      -9.94355887E-09
  -10.1599998      -9.94919791E-09
  -10.1499996      -9.96146809E-09
  -10.1400003      -9.98036676E-09
  -10.1300001      -1.00058726E-08
  -10.1199999      -1.00379491E-08
  -10.1099997      -1.00765600E-08
  -10.1000004      -1.01216262E-08
  -10.0900002      -1.01730810E-08
  -10.0799999      -1.02308313E-08
  -10.0699997      -1.02947615E-08
  -10.0600004      -1.03647348E-08
  -10.0500002      -1.04406128E-08
  -10.0400000      -1.05222320E-08
  -10.0299997      -1.06093996E-08
  -10.0200005      -1.07019318E-08
  -10.0100002      -1.07996483E-08
  -10.0000000      -1.09023315E-08
  -9.98999977      -1.10097940E-08
  -9.97999954      -1.11218306E-08
  -9.97000027      -1.12382637E-08
  -9.96000004      -1.13589333E-08
  -9.94999981      -1.14837064E-08
  -9.93999958      -1.16125003E-08
  -9.93000031      -1.17452688E-08
  -9.92000008      -1.18820296E-08
  -9.90999985      -1.20228574E-08
  -9.89999962      -1.21678738E-08
  -9.89000034      -1.23172512E-08
  -9.88000011      -1.24712232E-08
  -9.86999989      -1.26300375E-08
  -9.85999966      -1.27939686E-08
  -9.85000038      -1.29633211E-08
  -9.84000015      -1.31383837E-08
  -9.82999992      -1.33194478E-08
  -9.81999969      -1.35068250E-08
  -9.81000042      -1.37007836E-08
  -9.80000019      -1.39016034E-08
  -9.78999996      -1.41095464E-08
  -9.77999973      -1.43248702E-08
  -9.77000046      -1.45478136E-08
  -9.76000023      -1.47786272E-08
  -9.75000000      -1.50175463E-08
  -9.73999977      -1.52648028E-08
  -9.72999954      -1.55206248E-08
  -9.72000027      -1.57852504E-08
  -9.71000004      -1.60589018E-08
  -9.69999981      -1.63417937E-08
  -9.68999958      -1.66341714E-08
  -9.68000031      -1.69362551E-08
  -9.67000008      -1.72482792E-08
  -9.65999985      -1.75704464E-08
  -9.64999962      -1.79029733E-08
  -9.64000034      -1.82460678E-08
  -9.63000011      -1.85999038E-08
  -9.61999989      -1.89646627E-08
  -9.60999966      -1.93404457E-08
  -9.60000038      -1.97273451E-08
  -9.59000015      -2.01254089E-08
  -9.57999992      -2.05346069E-08
  -9.56999969      -2.09548805E-08
  -9.56000042      -2.13860822E-08
  -9.55000019      -2.18279954E-08
  -9.53999996      -2.22803163E-08
  -9.52999973      -2.27426611E-08
  -9.52000046      -2.32145787E-08
  -9.51000023      -2.36955255E-08
  -9.50000000      -2.41849172E-08
  -9.48999977      -2.46820839E-08
  -9.47999954      -2.51863082E-08
  -9.47000027      -2.56968331E-08
  -9.46000004      -2.62128914E-08
  -9.44999981      -2.67336873E-08
  -9.43999958      -2.72584675E-08
  -9.43000031      -2.77864807E-08
  -9.42000008      -2.83169914E-08
  -9.40999985      -2.88493283E-08
  -9.39999962      -2.93828268E-08
  -9.39000034      -2.99169116E-08
  -9.38000011      -3.04510230E-08
  -9.36999989      -3.09846513E-08
  -9.35999966      -3.15173558E-08
  -9.35000038      -3.20487175E-08
  -9.34000015      -3.25783915E-08
  -9.32999992      -3.31060690E-08
  -9.31999969      -3.36315367E-08
  -9.31000042      -3.41546063E-08
  -9.30000019      -3.46751463E-08
  -9.28999996      -3.51930964E-08
  -9.27999973      -3.57084637E-08
  -9.27000046      -3.62212838E-08
  -9.26000023      -3.67316559E-08
  -9.25000000      -3.72397224E-08
  -9.23999977      -3.77456715E-08
  -9.22999954      -3.82497447E-08
  -9.22000027      -3.87522014E-08
  -9.21000004      -3.92534290E-08
  -9.19999981      -3.97537754E-08
  -9.18999958      -4.02536529E-08
  -9.18000031      -4.07535339E-08
  -9.17000008      -4.12538661E-08
  -9.15999985      -4.17552251E-08
  -9.14999962      -4.22581259E-08
  -9.14000034      -4.27630944E-08
  -9.13000011      -4.32706173E-08
  -9.11999989      -4.37812737E-08
  -9.10999966      -4.42955255E-08
  -9.10000038      -4.48138415E-08
  -9.09000015      -4.53366731E-08
  -9.07999992      -4.58644074E-08
  -9.06999969      -4.63974068E-08
  -9.06000042      -4.69359414E-08
  -9.05000019      -4.74802846E-08
  -9.03999996      -4.80306035E-08
  -9.02999973      -4.85870046E-08
  -9.02000046      -4.91495733E-08
  -9.01000023      -4.97182704E-08
  -9.00000000      -5.02930142E-08
  -8.98999977      -5.08737443E-08
  -8.97999954      -5.14602760E-08
  -8.97000027      -5.20524068E-08
  -8.96000004      -5.26500017E-08
  -8.94999981      -5.32528581E-08
  -8.93999958      -5.38607487E-08
  -8.93000031      -5.44734853E-08
  -8.92000008      -5.50909398E-08
  -8.90999985      -5.57129880E-08
  -8.89999962      -5.63394451E-08
  -8.89000034      -5.69703396E-08
  -8.88000011      -5.76055861E-08
  -8.86999989      -5.82452166E-08
  -8.85999966      -5.88893236E-08
  -8.85000038      -5.95380598E-08
  -8.84000015      -6.01915886E-08
  -8.82999992      -6.08502049E-08
  -8.81999969      -6.15141644E-08
  -8.81000042      -6.21838794E-08
  -8.80000019      -6.28597547E-08
  -8.78999996      -6.35423447E-08
  -8.77999973      -6.42321538E-08
  -8.77000046      -6.49298855E-08
  -8.76000023      -6.56361578E-08
  -8.75000000      -6.63517525E-08
  -8.73999977      -6.70773943E-08
  -8.72999954      -6.78138221E-08
  -8.72000027      -6.85618815E-08
  -8.71000004      -6.93223541E-08
  -8.69999981      -7.00960072E-08
  -8.68999958      -7.08835728E-08
  -8.68000031      -7.16858111E-08
  -8.67000008      -7.25033757E-08
  -8.65999985      -7.33369134E-08
  -8.64999962      -7.41870920E-08
  -8.64000034      -7.50545226E-08
  -8.63000011      -7.59396315E-08
  -8.61999989      -7.68428521E-08
  -8.60999966      -7.77646889E-08
  -8.60000038      -7.87054262E-08
  -8.59000015      -7.96653410E-08
  -8.57999992      -8.06446678E-08
  -8.56999969      -8.16435133E-08
  -8.56000042      -8.26620905E-08
  -8.55000019      -8.37004919E-08
  -8.53999996      -8.47587245E-08
  -8.52999973      -8.58369091E-08
  -8.52000046      -8.69350885E-08
  -8.51000023      -8.80532696E-08
  -8.50000000      -8.91914880E-08
  -8.48999977      -9.03496584E-08
  -8.47999954      -9.15278591E-08
  -8.47000027      -9.27260260E-08
  -8.46000004      -9.39440667E-08
  -8.44999981      -9.51818464E-08
  -8.43999958      -9.64392370E-08
  -8.43000031      -9.77160965E-08
  -8.42000008      -9.90122544E-08
  -8.40999985      -1.00327497E-07
  -8.39999962      -1.01661620E-07
  -8.39000034      -1.03014379E-07
  -8.38000011      -1.04385414E-07
  -8.36999989      -1.05774483E-07
  -8.35999966      -1.07181314E-07
  -8.35000038      -1.08605491E-07
  -8.34000015      -1.10046763E-07
  -8.32999992      -1.11504711E-07
  -8.31999969      -1.12979080E-07
  -8.31000042      -1.14469543E-07
  -8.30000019      -1.15975759E-07
  -8.28999996      -1.17497407E-07
  -8.27999973      -1.19034191E-07
  -8.27000046      -1.20585952E-07
  -8.26000023      -1.22152230E-07
  -8.25000000      -1.23732846E-07
  -8.23999977      -1.25327617E-07
  -8.22999954      -1.26936285E-07
  -8.22000027      -1.28558639E-07
  -8.21000004      -1.30194579E-07
  -8.19999981      -1.31843848E-07
  -8.18999958      -1.33506276E-07
  -8.18000031      -1.35181736E-07
  -8.17000008      -1.36869986E-07
  -8.15999985      -1.38570854E-07
  -8.14999962      -1.40284016E-07
  -8.14000034      -1.42009355E-07
  -8.13000011      -1.43746533E-07
  -8.11999989      -1.45495264E-07
  -8.10999966      -1.47255122E-07
  -8.10000038      -1.49025723E-07
  -8.09000015      -1.50806557E-07
  -8.07999992      -1.52596954E-07
  -8.06999969      -1.54396375E-07
  -8.06000042      -1.56204109E-07
  -8.05000019      -1.58019319E-07
  -8.03999996      -1.59841193E-07
  -8.02999973      -1.61668666E-07
  -8.02000046      -1.63500843E-07
  -8.01000023      -1.65336701E-07
  -8.00000000      -1.67175145E-07
  -7.98999977      -1.69015010E-07
  -7.98000002      -1.70855216E-07
  -7.96999979      -1.72694413E-07
  -7.96000004      -1.74531593E-07
  -7.94999981      -1.76365489E-07
  -7.94000006      -1.78194824E-07
  -7.92999983      -1.80018432E-07
  -7.92000008      -1.81835233E-07
  -7.90999985      -1.83643991E-07
  -7.90000010      -1.85443824E-07
  -7.88999987      -1.87233638E-07
  -7.88000011      -1.89012553E-07
  -7.86999989      -1.90779687E-07
  -7.86000013      -1.92534202E-07
  -7.84999990      -1.94275387E-07
  -7.84000015      -1.96002716E-07
  -7.82999992      -1.97715480E-07
  -7.82000017      -1.99413549E-07
  -7.80999994      -2.01096469E-07
  -7.80000019      -2.02764284E-07
  -7.78999996      -2.04416750E-07
  -7.78000021      -2.06054352E-07
  -7.76999998      -2.07677118E-07
  -7.76000023      -2.09285531E-07
  -7.75000000      -2.10880145E-07
  -7.73999977      -2.12461487E-07
  -7.73000002      -2.14030408E-07
  -7.71999979      -2.15587960E-07
  -7.71000004      -2.17135124E-07
  -7.69999981      -2.18673122E-07
  -7.69000006      -2.20203347E-07
  -7.67999983      -2.21727092E-07
  -7.67000008      -2.23246076E-07
  -7.65999985      -2.24761905E-07
  -7.65000010      -2.26276143E-07
  -7.63999987      -2.27790849E-07
  -7.63000011      -2.29307688E-07
  -7.61999989      -2.30828704E-07
  -7.61000013      -2.32355944E-07
  -7.59999990      -2.33891512E-07
  -7.59000015      -2.35437568E-07
  -7.57999992      -2.36996257E-07
  -7.57000017      -2.38570124E-07
  -7.55999994      -2.40161143E-07
  -7.55000019      -2.41771829E-07
  -7.53999996      -2.43404259E-07
  -7.53000021      -2.45060846E-07
  -7.51999998      -2.46743809E-07
  -7.51000023      -2.48455223E-07
  -7.50000000      -2.50197559E-07
  -7.48999977      -2.51972693E-07
  -7.48000002      -2.53782758E-07
  -7.46999979      -2.55629686E-07
  -7.46000004      -2.57515524E-07
  -7.44999981      -2.59442203E-07
  -7.44000006      -2.61411401E-07