  -16.0000000       0.00000000    
  -15.9899998       0.00000000    
  -15.9799995       0.00000000    
  -15.9700003       0.00000000    
  -15.9600000       0.00000000    
  -15.9499998       0.00000000    
  -15.9399996       0.00000000    
  -15.9300003       0.00000000    
  -15.9200001       0.00000000    
  -15.9099998       0.00000000    
  -15.8999996       0.00000000    
  -15.8900003       0.00000000    
  -15.8800001       0.00000000    
  -15.8699999      -1.10842709E-42
  -15.8599997      -4.40666328E-41
  -15.8500004      -8.86881798E-40
  -15.8400002      -1.11733990E-38
  -15.8299999      -1.01936156E-37
  -15.8199997      -7.22620112E-37
  -15.8100004      -4.17173683E-36
  -15.8000002      -2.02310943E-35
  -15.7900000      -8.42743756E-35
  -15.7799997      -3.06334746E-34
  -15.7700005      -9.82397731E-34
  -15.7600002      -2.79847901E-33
  -15.7500000      -7.09953258E-33
  -15.7399998      -1.59983297E-32
  -15.7299995      -3.16764136E-32
  -15.7200003      -5.36024777E-32
  -15.7100000      -7.19163271E-32
  -15.6999998      -5.58818201E-32
  -15.6899996       6.02329418E-32
  -15.6800003       3.83558658E-31
  -15.6700001       1.03883627E-30
  -15.6599998       2.08113470E-30
  -15.6499996       3.31660032E-30
  -15.6400003       4.04563440E-30
  -15.6300001       2.84325282E-30
  -15.6199999      -2.35892000E-30
  -15.6099997      -1.34999594E-29
  -15.6000004      -3.05971016E-29
  -15.5900002      -4.90658369E-29
  -15.5799999      -5.72698982E-29
  -15.5699997      -3.67050169E-29
  -15.5600004       3.20148027E-29
  -15.5500002       1.55369668E-28
  -15.5400000       3.07779614E-28
  -15.5299997       4.17022863E-28
  -15.5200005       3.71314406E-28
  -15.5100002       6.46302126E-29
  -15.5000000      -5.19673003E-28
  -15.4899998      -1.22155997E-27
  -15.4799995      -1.68714121E-27
  -15.4700003      -1.50432058E-27
  -15.4600000      -5.08667661E-28
  -15.4499998       8.80622608E-28
  -15.4399996       1.62537086E-27
  -15.4300003       7.19855269E-28
  -15.4200001      -1.39331999E-27
  -15.4099998      -1.35650266E-27
  -15.3999996       6.89206511E-27
  -15.3900003       2.80957249E-26
  -15.3800001       5.71536012E-26
  -15.3699999       6.95333063E-26
  -15.3599997       1.99610867E-26
  -15.3500004      -1.37547994E-25
  -15.3400002      -4.00326350E-25
  -15.3299999      -6.50206374E-25
  -15.3199997      -6.14183386E-25
  -15.3100004       7.21724466E-26
  -15.3000002       1.62879641E-24
  -15.2900000       3.73193962E-24
  -15.2799997       5.12611756E-24
  -15.2700005       3.62121195E-24
  -15.2600002      -3.05976288E-24
  -15.2500000      -1.53379961E-23
  -15.2399998      -2.91869005E-23
  -15.2299995      -3.44100464E-23
  -15.2200003      -1.62620836E-23
  -15.2100000       3.72238155E-23
  -15.1999998       1.22045807E-22
  -15.1899996       2.03714544E-22
  -15.1800003       2.11845933E-22
  -15.1700001       5.79097679E-23
  -15.1599998      -3.13721551E-22
  -15.1499996      -8.47120391E-22
  -15.1400003      -1.30145490E-21
  -15.1300001      -1.24460137E-21
  -15.1199999      -1.85311656E-22
  -15.1099997       2.11877386E-21
  -15.1000004       5.23443163E-21
  -15.0900002       7.70584737E-21
  -15.0799999       7.11382839E-21
  -15.0699997       8.78921608E-22
  -15.0600004      -1.20714183E-20
  -15.0500002      -2.91489142E-20
  -15.0400000      -4.25134743E-20
  -15.0299997      -3.96353413E-20
  -15.0200005      -7.52393226E-21
  -15.0100002       5.90197051E-20
  -15.0000000       1.47138939E-19
  -14.9899998       2.18668142E-19
  -14.9799995       2.13121547E-19
  -14.9700003       6.74882380E-20
  -14.9600000      -2.45995527E-19
  -14.9499998      -6.73345802E-19
  -14.9399996      -1.04562702E-18
  -14.9300003      -1.09005851E-18
  -14.9200001      -5.13261382E-19
  -14.9099998       8.38112321E-19
  -14.8999996       2.77678473E-18
  -14.8900003       4.62349419E-18
  -14.8800001       5.23087471E-18
  -14.8699999       3.29791720E-18
  -14.8599997      -1.99524918E-18
  -14.8500004      -1.01657089E-17
  -14.8400002      -1.87537545E-17
  -14.8299999      -2.32809553E-17
  -14.8199997      -1.83046616E-17
  -14.8100004       2.59921810E-19
  -14.8000002       3.19631092E-17
  -14.7900000       6.89462915E-17
  -14.7799997       9.51272660E-17
  -14.7700005       8.92409627E-17
  -14.7600002       3.26348494E-17
  -14.7500000      -7.92298141E-17
  -14.7399998      -2.25230428E-16
  -14.7299995      -3.52960270E-16
  -14.7200003      -3.85636816E-16
  -14.7100000      -2.45744931E-16
  -14.6999998       1.06351571E-16
  -14.6899996       6.29236954E-16
  -14.6800003       1.17156727E-15
  -14.6700001       1.48027732E-15
  -14.6599998       1.26353599E-15
  -14.6499996       3.09390351E-16
  -14.6400003      -1.36558959E-15
  -14.6300001      -3.39220517E-15
  -14.6199999      -5.02217523E-15
  -14.6099997      -5.26597546E-15
  -14.6000004      -3.22018125E-15
  -14.5900002       1.46603700E-15
  -14.5799999       8.12711765E-15
  -14.5699997       1.48352332E-14
  -14.5600004       1.85991224E-14
  -14.5500002       1.61481495E-14
  -14.5400000       5.24818861E-15
  -14.5299997      -1.37700130E-14
  -14.5200005      -3.68430296E-14
  -14.5100002      -5.60623325E-14
  -14.5000000      -6.11840494E-14
  -14.4899998      -4.28911091E-14
  -14.4799995       2.76214352E-15
  -14.4700003       7.00711868E-14
  -14.4600000       1.41470345E-13
  -14.4499998       1.89283932E-13
  -14.4399996       1.82521519E-13
  -14.4300003       9.81581759E-14
  -14.4200001      -6.57660775E-14
  -14.4099998      -2.79827268E-13
  -14.3999996      -4.81112925E-13
  -14.3900003      -5.83740846E-13
  -14.3800001      -5.03142829E-13
  -14.3699999      -1.90177708E-13
  -14.3599997       3.34414544E-13
  -14.3500004       9.58717372E-13
  -14.3400002       1.48522232E-12
  -14.3299999       1.67190177E-12
  -14.3199997       1.30694435E-12
  -14.3100004       3.01490278E-13
  -14.3000002      -1.22810648E-12
  -14.2900000      -2.92380551E-12
  -14.2799997      -4.22623828E-12
  -14.2700005      -4.50532146E-12
  -14.2600002      -3.26560263E-12
  -14.2500000      -3.77314093E-13
  -14.2399998       3.74259434E-12
  -14.2299995       8.08337945E-12
  -14.2200003       1.11910611E-11
  -14.2100000       1.15300269E-11
  -14.1999998       7.99765636E-12
  -14.1899996       4.59566684E-13
  -14.1800003      -9.87709827E-12
  -14.1700001      -2.04361909E-11
  -14.1599998      -2.77108666E-11
  -14.1499996      -2.81623717E-11
  -14.1400003      -1.94119391E-11
  -14.1300001      -1.40686182E-12
  -14.1199999       2.28440392E-11
  -14.1099997       4.73425708E-11
  -14.1000004       6.41914785E-11
  -14.0900002       6.56311880E-11
  -14.0799999       4.66137476E-11
  -14.0699997       7.21253092E-12
  -14.0600004      -4.59660400E-11
  -14.0500002      -1.00099339E-10
  -14.0400000      -1.38545272E-10
  -14.0299997      -1.45087969E-10
  -14.0200005      -1.09143132E-10
  -14.0100002      -3.05063023E-11
  -14.0000000       7.79711573E-11
  -13.9899998       1.91118260E-10
  -13.9799995       2.76171058E-10
  -13.9700003       3.00944714E-10
  -13.9600000       2.43706694E-10
  -13.9499998       1.02092314E-10
  -13.9399996      -1.01868708E-10
  -13.9300003      -3.22980420E-10
  -13.9200001      -5.01295006E-10
  -13.9099998      -5.76650228E-10
  -13.8999996      -5.06200803E-10
  -13.8900003      -2.80297202E-10
  -13.8800001       6.83070892E-11
  -13.8699999       4.65889716E-10
  -13.8599997       8.11338496E-10
  -13.8500004       1.00004927E-09
  -13.8400002       9.52949941E-10
  -13.8299999       6.43078923E-10
  -13.8199997       1.11597995E-10
  -13.8100004      -5.33020683E-10
  -13.8000002      -1.13504550E-09
  -13.7900000      -1.52784529E-09
  -13.7799997      -1.57852842E-09
  -13.7700005      -1.22922450E-09
  -13.7600002      -5.22750732E-10
  -13.7500000       3.96739253E-10
  -13.7399998       1.31153910E-09
  -13.7299995       1.98214845E-09
  -13.7200003       2.21108731E-09
  -13.7100000       1.90179983E-09
  -13.6999998       1.09517151E-09
  -13.6899996      -2.94349892E-11
  -13.6800003      -1.19271248E-09
  -13.6700001      -2.08645279E-09
  -13.6599998      -2.45958742E-09
  -13.6499996      -2.19530394E-09
  -13.6400003      -1.35527212E-09
  -13.6300001      -1.74261688E-10
  -13.6199999       9.98412353E-10
  -13.6099997       1.79840731E-09
  -13.6000004       1.96058236E-09
  -13.5900002       1.41399359E-09
  -13.5799999       3.25458688E-10
  -13.5699997      -9.28537858E-10
  -13.5600004      -1.86216831E-09
  -13.5500002      -2.03077888E-09
  -13.5400000      -1.19076282E-09
  -13.5299997       5.80800796E-10
  -13.5200005       2.85121016E-09
  -13.5100002       4.90654450E-09
  -13.5000000       5.93006000E-09
  -13.4899998       5.24636867E-09
  -13.4799995       2.56703347E-09
  -13.4700003      -1.83708326E-09
  -13.4600000      -7.10122050E-09
  -13.4499998      -1.19031442E-08
  -13.4399996      -1.47585197E-08
  -13.4300003      -1.44148435E-08
  -13.4200001      -1.02463984E-08
  -13.4099998      -2.53809307E-09
  -13.3999996       7.43756434E-09
  -13.3900003       1.76008417E-08
  -13.3800001       2.54880561E-08
  -13.3699999       2.88332664E-08
  -13.3599997       2.61717421E-08
  -13.3500004       1.73061725E-08
  -13.3400002       3.49776075E-09
  -13.3299999      -1.26957511E-08
  -13.3199997      -2.79241412E-08
  -13.3100004      -3.87894623E-08
  -13.3000002      -4.26553619E-08
  -13.2900000      -3.83155552E-08
  -13.2799997      -2.63403752E-08
  -13.2700005      -8.99473473E-09
  -13.2600002       1.02688720E-08
  -13.2500000       2.76243934E-08
  -13.2399998       3.97857569E-08
  -13.2299995       4.47761046E-08
  -13.2200003       4.23414583E-08
  -13.2100000       3.38900747E-08
  -13.1999998       2.19708483E-08
  -13.1899996       9.44140321E-09
  -13.1800003      -1.42687717E-09
  -13.1700001      -9.62476410E-09
  -13.1599998      -1.56364379E-08
  -13.1499996      -2.11211848E-08
  -13.1400003      -2.81111312E-08
  -13.1300001      -3.79537930E-08
  -13.1199999      -5.03368085E-08
  -13.1099997      -6.27511696E-08
  -13.1000004      -7.06587358E-08
  -13.0900002      -6.84490686E-08
  -13.0799999      -5.10379330E-08
  -13.0699997      -1.57389977E-08
  -13.0600004       3.60985233E-08
  -13.0500002       9.82190613E-08
  -13.0400000       1.59751892E-07
  -13.0299997       2.06809716E-07
  -13.0200005       2.25210826E-07
  -13.0100002       2.03816015E-07
  -13.0000000       1.37748160E-07
  -12.9899998       3.06915418E-08
  -12.9799995      -1.04400826E-07
  -12.9700003      -2.46562024E-07
  -12.9600000      -3.69974288E-07
  -12.9499998      -4.48536184E-07
  -12.9399996      -4.60978271E-07
  -12.9300003      -3.95482516E-07
  -12.9200001      -2.52821764E-07
  -12.9099998      -4.72968971E-08
  -12.8999996       1.94796982E-07
  -12.8900003       4.38922399E-07
  -12.8800001       6.47574666E-07
  -12.8699999       7.86085423E-07
  -12.8599997       8.27883071E-07
  -12.8500004       7.58333385E-07
  -12.8400002       5.76641696E-07
  -12.8299999       2.95736811E-07
  -12.8199997      -5.95009197E-08
  -12.8100004      -4.55073604E-07
  -12.8000002      -8.51076038E-07
  -12.7900000      -1.20478978E-06
  -12.7799997      -1.47343974E-06
  -12.7700005      -1.61674018E-06
  -12.7600002      -1.59962553E-06
  -12.7500000      -1.39554709E-06
  -12.7399998      -9.90591616E-07
  -12.7299995      -3.88172623E-07
  -12.7200003       3.86338456E-07
  -12.7100000       1.28222086E-06
  -12.6999998       2.22259700E-06
  -12.6899996       3.10738187E-06
  -12.6800003       3.82072312E-06
  -12.6700001       4.24272184E-06
  -12.6599998       4.26439738E-06
  -12.6499996       3.80384381E-06
  -12.6400003       2.82114547E-06
  -12.6300001       1.32940431E-06
  -12.6199999      -6.00019348E-07
  -12.6099997      -2.83924646E-06
  -12.6000004      -5.21235415E-06
  -12.5900002      -7.50925756E-06
  -12.5799999      -9.50290359E-06
  -12.5699997      -1.09671992E-05
  -12.5600004      -1.16935253E-05
  -12.5500002      -1.15046332E-05
  -12.5400000      -1.02654321E-05
  -12.5299997      -7.89176738E-06
  -12.5200005      -4.35832044E-06
  -12.5100002       2.92603517E-07
  -12.5000000       5.94081575E-06
  -12.4899998       1.23761847E-05
  -12.4799995       1.92874613E-05
  -12.4700003       2.62530812E-05
  -12.4600000       3.27395501E-05
  -12.4499998       3.81081081E-05
  -12.4399996       4.16342700E-05
  -12.4300003       4.25388716E-05
  -12.4200001       4.00301942E-05
  -12.4099998       3.33529824E-05
  -12.3999996       2.18401092E-05
  -12.3900003       4.96058829E-06
  -12.3800001      -1.76372760E-05
  -12.3699999      -4.60976153E-05
  -12.3599997      -8.03360963E-05
  -12.3500004      -1.20031415E-04
  -12.3400002      -1.64627243E-04
  -12.3299999      -2.13335385E-04
  -12.3199997      -2.65148410E-04
  -12.3100004      -3.18844221E-04
  -12.3000002      -3.73003597E-04
  -12.2900000      -4.26021666E-04
  -12.2799997      -4.76129819E-04
  -12.2700005      -5.21430571E-04
  -12.2600002      -5.59937267E-04
  -12.2500000      -5.89634583E-04
  -12.2399998      -6.08544738E-04
  -12.2299995      -6.14814460E-04
  -12.2200003      -6.06783782E-04
  -12.2100000      -5.83072833E-04
  -12.1999998      -5.42648893E-04
  -12.1899996      -4.84865363E-04
  -12.1800003      -4.09507600E-04
  -12.1700001      -3.16789869E-04
  -12.1599998      -2.07352234E-04
  -12.1499996      -8.22290895E-05
  -12.1400003       5.71867349E-05
  -12.1300001       2.09185891E-04
  -12.1199999       3.71796428E-04
  -12.1099997       5.42819500E-04
  -12.1000004       7.19884702E-04
  -12.0900002       9.00486135E-04
  -12.0799999       1.08202803E-03
  -12.0699997       1.26186921E-03
  -12.0600004       1.43736450E-03
  -12.0500002       1.60592294E-03
  -12.0400000       1.76503602E-03
  -12.0299997       1.91233063E-03
  -12.0200005       2.04560184E-03
  -12.0100002       2.16282532E-03
  -12.0000000       2.26217625E-03
  -11.9899998       2.34202319E-03
  -11.9799995       2.40090024E-03
  -11.9700003       2.43750727E-03
  -11.9600000       2.45065824E-03
  -11.9499998       2.43928912E-03
  -11.9399996       2.40242761E-03
  -11.9300003       2.33920617E-03
  -11.9200001       2.24886369E-03
  -11.9099998       2.13077688E-03
  -11.8999996       1.98449451E-03
  -11.8900003       1.80975848E-03
  -11.8800001       1.60655368E-03
  -11.8699999       1.37511489E-03
  -11.8599997       1.11595972E-03
  -11.8500004       8.29908822E-04
  -11.8400002       5.18087472E-04
  -11.8299999       1.81928146E-04
  -11.8199997      -1.76811242E-04
  -11.8100004      -5.56054350E-04
  -11.8000002      -9.53412440E-04
  -11.7900000      -1.36617629E-03
  -11.7799997      -1.79134251E-03
  -11.7700005      -2.22563348E-03
  -11.7600002      -2.66552810E-03
  -11.7500000      -3.10729723E-03
  -11.7399998      -3.54705914E-03
  -11.7299995      -3.98082612E-03
  -11.7200003      -4.40454483E-03
  -11.7100000      -4.81415866E-03
  -11.6999998      -5.20562287E-03
  -11.6899996      -5.57496492E-03
  -11.6800003      -5.91830630E-03
  -11.6700001      -6.23190496E-03
  -11.6599998      -6.51217438E-03
  -11.6499996      -6.75572641E-03
  -11.6400003      -6.95940154E-03
  -11.6300001      -7.12029729E-03
  -11.6199999      -7.23575987E-03
  -11.6099997      -7.30340369E-03
  -11.6000004      -7.32108671E-03
  -11.5900002      -7.28688249E-03
  -11.5799999      -7.19905505E-03
  -11.5699997      -7.05604302E-03
  -11.5600004      -6.85642334E-03
  -11.5500002      -6.59893826E-03
  -11.5400000      -6.28251396E-03
  -11.5299997      -5.90629689E-03
  -11.5200005      -5.46973106E-03
  -11.5100002      -4.97259852E-03
  -11.5000000      -4.41508042E-03
  -11.4899998      -3.79777513E-03
  -11.4799995      -3.12170666E-03
  -11.4700003      -2.38830922E-03
  -11.4600000      -1.59936957E-03
  -11.4499998      -7.56987894E-04
  -11.4399996       1.36480128E-04
  -11.4300003       1.07847434E-03
  -11.4200001       2.06624996E-03
  -11.4099998       3.09690158E-03
  -11.3999996       4.16735886E-03
  -11.3900003       5.27437543E-03
  -11.3800001       6.41451776E-03
  -11.3699999       7.58420490E-03
  -11.3599997       8.77968408E-03
  -11.3500004       9.99712292E-03
  -11.3400002       1.12326313E-02
  -11.3299999       1.24823377E-02
  -11.3199997       1.37424571E-02
  -11.3100004       1.50093324E-02
  -11.3000002       1.62794683E-02
  -11.2900000       1.75495408E-02
  -11.2799997       1.88163836E-02
  -11.2700005       2.00769734E-02
  -11.2600002       2.13283673E-02
  -11.2500000       2.25676913E-02
  -11.2399998       2.37921160E-02
  -11.2299995       2.49988548E-02
  -11.2200003       2.61851829E-02
  -11.2100000       2.73484699E-02
  -11.1999998       2.84862462E-02
  -11.1899996       2.95962580E-02
  -11.1800003       3.06764822E-02
  -11.1700001       3.17252018E-02
  -11.1599998       3.27409878E-02
  -11.1499996       3.37227024E-02
  -11.1400003       3.46694291E-02
  -11.1300001       3.55804674E-02
  -11.1199999       3.64552699E-02
  -11.1099997       3.72933969E-02
  -11.1000004       3.80944647E-02
  -11.0900002       3.88582237E-02
  -11.0799999       3.95844989E-02
  -11.0699997       4.02732529E-02
  -11.0600004       4.09245901E-02
  -11.0500002       4.15388457E-02
  -11.0400000       4.21165712E-02
  -11.0299997       4.26584482E-02
  -11.0200005       4.31654043E-02
  -11.0100002       4.36384305E-02
  -11.0000000       4.40786146E-02
  -10.9899998       4.44869772E-02
  -10.9799995       4.48645093E-02
  -10.9700003       4.52120453E-02
  -10.9600000       4.55302931E-02
  -10.9499998       4.58196960E-02
  -10.9399996       4.60805520E-02
  -10.9300003       4.63129357E-02
  -10.9200001       4.65166718E-02
  -10.9099998       4.66914698E-02
  -10.8999996       4.68367971E-02
  -10.8900003       4.69520539E-02
  -10.8800001       4.70365025E-02
  -10.8699999       4.70894277E-02
  -10.8599997       4.71101068E-02
  -10.8500004       4.70979698E-02
  -10.8400002       4.70525883E-02
  -10.8299999       4.69737239E-02
  -10.8199997       4.68613990E-02
  -10.8100004       4.67157997E-02
  -10.8000002       4.65373099E-02
  -10.7900000       4.63264100E-02
  -10.7799997       4.60835434E-02
  -10.7700005       4.58091609E-02
  -10.7600002       4.55035158E-02
  -10.7500000       4.51667011E-02
  -10.7399998       4.47986126E-02
  -10.7299995       4.43989597E-02
  -10.7200003       4.39673848E-02
  -10.7100000       4.35033999E-02
  -10.6999998       4.30066586E-02
  -10.6899996       4.24769185E-02
  -10.6800003       4.19142395E-02
  -10.6700001       4.13190052E-02
  -10.6599998       4.06920053E-02
  -10.6499996       4.00344729E-02
  -10.6400003       3.93480510E-02
  -10.6300001       3.86348702E-02
  -10.6199999       3.78973745E-02
  -10.6099997       3.71384136E-02
  -10.6000004       3.63610946E-02
  -10.5900002       3.55687141E-02
  -10.5799999       3.47647704E-02
  -10.5699997       3.39527838E-02
  -10.5600004       3.31363454E-02
  -10.5500002       3.23189236E-02
  -10.5400000       3.15039568E-02
  -10.5299997       3.06946635E-02
  -10.5200005       2.98940614E-02
  -10.5100002       2.91048139E-02
  -10.5000000       2.83293780E-02
  -10.4899998       2.75698733E-02
  -10.4799995       2.68280059E-02
  -10.4700003       2.61052679E-02
  -10.4600000       2.54027452E-02
  -10.4499998       2.47213636E-02
  -10.4399996       2.40617264E-02
  -10.4300003       2.34242622E-02
  -10.4200001       2.28092633E-02
  -10.4099998       2.22167727E-02
  -10.3999996       2.16468051E-02
  -10.3900003       2.10991818E-02
  -10.3800001       2.05736067E-02
  -10.3699999       2.00695954E-02
  -10.3599997       1.95865221E-02
  -10.3500004       1.91236492E-02
  -10.3400002       1.86802372E-02
  -10.3299999       1.82552859E-02
  -10.3199997       1.78480111E-02
  -10.3100004       1.74575504E-02
  -10.3000002       1.70832239E-02
  -10.2900000       1.67244151E-02
  -10.2799997       1.63808111E-02
  -10.2700005       1.60522573E-02
  -10.2600002       1.57387108E-02
  -10.2500000       1.54403541E-02
  -10.2399998       1.51574584E-02
  -10.2299995       1.48903430E-02
  -10.2200003       1.46393375E-02
  -10.2100000       1.44047542E-02
  -10.1999998       1.41868489E-02
  -10.1899996       1.39858928E-02
  -10.1800003       1.38021512E-02
  -10.1700001       1.36358337E-02
  -10.1599998       1.34872561E-02
  -10.1499996       1.33567518E-02
  -10.1400003       1.32447593E-02
  -10.1300001       1.31518114E-02
  -10.1199999       1.30783757E-02
  -10.1099997       1.30250845E-02
  -10.1000004       1.29925394E-02
  -10.0900002       1.29816206E-02
  -10.0799999       1.29931327E-02
  -10.0699997       1.30283199E-02
  -10.0600004       1.30884377E-02
  -10.0500002       1.31751392E-02
  -10.0400000       1.32902563E-02
  -10.0299997       1.34357326E-02
  -10.0200005       1.36135640E-02
  -10.0100002       1.38257081E-02
  -10.0000000       1.40740573E-02
  -9.98999977       1.43600674E-02
  -9.97999954       1.46850003E-02
  -9.97000027       1.50496690E-02
  -9.96000004       1.54546779E-02
  -9.94999981       1.59002822E-02
  -9.93999958       1.63867138E-02
  -9.93000031       1.69140715E-02
  -9.92000008       1.74825508E-02
  -9.90999985       1.80925094E-02
  -9.89999962       1.87443644E-02
  -9.89000034       1.94389299E-02
  -9.88000011       2.01769210E-02
  -9.86999989       2.09594686E-02
  -9.85999966       2.17875876E-02
  -9.85000038       2.26624105E-02
  -9.84000015       2.35849880E-02
  -9.82999992       2.45560855E-02
  -9.81999969       2.55763903E-02
  -9.81000042       2.66462676E-02
  -9.80000019       2.77658943E-02
  -9.78999996       2.89352033E-02
  -9.77999973       3.01539544E-02
  -9.77000046       3.14217992E-02
  -9.76000023       3.27384360E-02
  -9.75000000       3.41034494E-02
  -9.73999977       3.55164483E-02
  -9.72999954       3.69769894E-02
  -9.72000027       3.84845845E-02
  -9.71000004       4.00385372E-02
  -9.69999981       4.16379385E-02
  -9.68999958       4.32817452E-02
  -9.68000031       4.49682288E-02
  -9.67000008       4.66958247E-02
  -9.65999985       4.84623909E-02
  -9.64999962       5.02653979E-02
  -9.64000034       5.21020517E-02
  -9.63000011       5.39693125E-02
  -9.61999989       5.58637157E-02
  -9.60999966       5.77816106E-02
  -9.60000038       5.97190298E-02
  -9.59000015       6.16720058E-02
  -9.57999992       6.36363402E-02
  -9.56999969       6.56079352E-02
  -9.56000042       6.75829276E-02
  -9.55000019       6.95579126E-02
  -9.53999996       7.15292692E-02
  -9.52999973       7.34940246E-02
  -9.52000046       7.54491836E-02
  -9.51000023       7.73919448E-02
  -9.50000000       7.93195814E-02
  -9.48999977       8.12291652E-02
  -9.47999954       8.31180438E-02
  -9.47000027       8.49835575E-02
  -9.46000004       8.68233070E-02
  -9.44999981       8.86347741E-02
  -9.43999958       9.04163346E-02
  -9.43000031       9.21664685E-02
  -9.42000008       9.38843042E-02
  -9.40999985       9.55692306E-02
  -9.39999962       9.72212330E-02
  -9.39000034       9.88408476E-02
  -9.38000011      0.100428768    
  -9.36999989      0.101986229    
  -9.35999966      0.103514627    
  -9.35000038      0.105015941    
  -9.34000015      0.106492504    
  -9.32999992      0.107946701    
  -9.31999969      0.109381728    
  -9.31000042      0.110800825    
  -9.30000019      0.112207666    
  -9.28999996      0.113605961    
  -9.27999973      0.114999741    
  -9.27000046      0.116393082    
  -9.26000023      0.117789946    
  -9.25000000      0.119194664    
  -9.23999977      0.120611019    
  -9.22999954      0.122043081    
  -9.22000027      0.123494886    
  -9.21000004      0.124969937    
  -9.19999981      0.126471579    
  -9.18999958      0.128002897    
  -9.18000031      0.129566580    
  -9.17000008      0.131164923    
  -9.15999985      0.132799715    
  -9.14999962      0.134472042    
  -9.14000034      0.136182845    
  -9.13000011      0.137932867    
  -9.11999989      0.139722094    
  -9.10999966      0.141550228    
  -9.10000038      0.143416986    
  -9.09000015      0.145321295    
  -9.07999992      0.147262096    
  -9.06999969      0.149237379    
  -9.06000042      0.151245207    
  -9.05000019      0.153282613    
  -9.03999996      0.155346587    
  -9.02999973      0.157433495    
  -9.02000046      0.159539789    
  -9.01000023      0.161661655    
  -9.00000000      0.163795412    
  -8.98999977      0.165937155    
  -8.97999954      0.168083325    
  -8.97000027      0.170230344    
  -8.96000004      0.172374517    
  -8.94999981      0.174512267    
  -8.93999958      0.176639751    
  -8.93000031      0.178753480    
  -8.92000008      0.180849627    
  -8.90999985      0.182925388    
  -8.89999962      0.184977069    
  -8.89000034      0.187002376    
  -8.88000011      0.188998759    
  -8.86999989      0.190963969    
  -8.85999966      0.192896411    
  -8.85000038      0.194794238    
  -8.84000015      0.196656957    
  -8.82999992      0.198483527    
  -8.81999969      0.200273931    
  -8.81000042      0.202028722    
  -8.80000019      0.203748912    
  -8.78999996      0.205436334    
  -8.77999973      0.207093149    
  -8.77000046      0.208722457    
  -8.76000023      0.210327253    
  -8.75000000      0.211911336    
  -8.73999977      0.213478938    
  -8.72999954      0.215034544    
  -8.72000027      0.216582492    
  -8.71000004      0.218127802    
  -8.69999981      0.219675601    
  -8.68999958      0.221231639    
  -8.68000031      0.222800598    
  -8.67000008      0.224388108    
  -8.65999985      0.225999117    
  -8.64999962      0.227638543    
  -8.64000034      0.229310662    
  -8.63000011      0.231020674    
  -8.61999989      0.232771754    
  -8.60999966      0.234568521    
  -8.60000038      0.236414313    
  -8.59000015      0.238312095    
  -8.57999992      0.240264982    
  -8.56999969      0.242274672    
  -8.56000042      0.244343072    
  -8.55000019      0.246471018    
  -8.53999996      0.248658761    
  -8.52999973      0.250905961    
  -8.52000046      0.253212065    
  -8.51000023      0.255577087    
  -8.50000000      0.257999539    
  -8.48999977      0.260478646    
  -8.47999954      0.263013959    
  -8.47000027      0.265604794    
  -8.46000004      0.268249452    
  -8.44999981      0.270947635    
  -8.43999958      0.273697853    
  -8.43000031      0.276499510    
  -8.42000008      0.279351622    
  -8.40999985      0.282253623    
  -8.39999962      0.285205007    
  -8.39000034      0.288204968    
  -8.38000011      0.291255027    
  -8.36999989      0.294354260    
  -8.35999966      0.297503740    
  -8.35000038      0.300703347    
  -8.34000015      0.303954870    
  -8.32999992      0.307258338    
  -8.31999969      0.310615629    
  -8.31000042      0.314027309    
  -8.30000019      0.317495376    
  -8.28999996      0.321021199    
  -8.27999973      0.324606001    
  -8.27000046      0.328251719    
  -8.26000023      0.331959397    
  -8.25000000      0.335730344    
  -8.23999977      0.339565247    
  -8.22999954      0.343464226    
  -8.22000027      0.347426951    
  -8.21000004      0.351454020    
  -8.19999981      0.355544865    
  -8.18999958      0.359698027    
  -8.18000031      0.363914013    
  -8.17000008      0.368191272    
  -8.15999985      0.372530222    
  -8.14999962      0.376929909    
  -8.14000034      0.381388545    
  -8.13000011      0.385905683    
  -8.11999989      0.390478849    
  -8.10999966      0.395107418    
  -8.10000038      0.399786979    
  -8.09000015      0.404515058    
  -8.07999992      0.409287989    
  -8.06999969      0.414102107    
  -8.06000042      0.418951511    
  -8.05000019      0.423832536    
  -8.03999996      0.428739965    
  -8.02999973      0.433668077    
  -8.02000046      0.438610345    
  -8.01000023      0.443560779    
  -8.00000000      0.448512524    
  -7.98999977      0.453458577    
  -7.98000002      0.458390653    
  -7.96999979      0.463300914    
  -7.96000004      0.468183368    
  -7.94999981      0.473028451    
  -7.94000006      0.477830470    
  -7.92999983      0.482582510    
  -7.92000008      0.487277657    
  -7.90999985      0.491909832    
  -7.90000010      0.496473879    
  -7.88999987      0.500964224    
  -7.88000011      0.505375922    
  -7.86999989      0.509705484    
  -7.86000013      0.513949215    
  -7.84999990      0.518104315    
  -7.84000015      0.522167504    
  -7.82999992      0.526138783    
  -7.82000017      0.530015886    
  -7.80999994      0.533799648    
  -7.80000019      0.537488699    
  -7.78999996      0.541084290    
  -7.78000021      0.544587553    
  -7.76999998      0.548000872    
  -7.76000023      0.551327169    
  -7.75000000      0.554570019    
  -7.73999977      0.557735026    
  -7.73000002      0.560826123    
  -7.71999979      0.563850582    
  -7.71000004      0.566814899    
  -7.69999981      0.569725871    
  -7.69000006      0.572589815    
  -7.67999983      0.575415194    
  -7.67000008      0.578209817    
  -7.65999985      0.580981970    
  -7.65000010      0.583740294    
  -7.63999987      0.586493552    
  -7.63000011      0.589251339    
  -7.61999989      0.592022955    
  -7.61000013      0.594817877    
  -7.59999990      0.597645044    
  -7.59000015      0.600514054    
  -7.57999992      0.603432357    
  -7.57000017      0.606409967    
  -7.55999994      0.609455585    
  -7.55000019      0.612579465    
  -7.53999996      0.615791202    
  -7.53000021      0.619099915    
  -7.51999998      0.622517049    
  -7.51000023      0.626051605    
  -7.50000000      0.629714787    
  -7.48999977      0.633515358    
  -7.48000002      0.637461662    
  -7.46999979      0.641561925    
  -7.46000004      0.645825207    
  -7.44999981      0.650258601    
  -7.44000006      0.654870450    