  -16.0000000       0.00000000    
  -15.9899998       0.00000000    
  -15.9799995       0.00000000    
  -15.9700003       0.00000000    
  -15.9600000       0.00000000    
  -15.9499998       0.00000000    
  -15.9399996       0.00000000    
  -15.9300003       0.00000000    
  -15.9200001       0.00000000    
  -15.9099998       0.00000000    
  -15.8999996       0.00000000    
  -15.8900003       0.00000000    
  -15.8800001      -3.50324616E-44
  -15.8699999      -1.69697244E-42
  -15.8599997      -2.81562900E-41
  -15.8500004      -2.74012704E-40
  -15.8400002      -1.87039714E-39
  -15.8299999      -9.71219927E-39
  -15.8199997      -3.96364361E-38
  -15.8100004      -1.25673962E-37
  -15.8000002      -2.77797802E-37
  -15.7900000      -1.64555488E-37
  -15.7799997       2.20382035E-36
  -15.7700005       1.45786870E-35
  -15.7600002       6.07091691E-35
  -15.7500000       2.00837848E-34
  -15.7399998       5.62776737E-34
  -15.7299995       1.36870246E-33
  -15.7200003       2.90959794E-33
  -15.7100000       5.37165507E-33
  -15.6999998       8.38773627E-33
  -15.6899996       1.02448153E-32
  -15.6800003       6.93100636E-33
  -15.6700001      -8.26882326E-33
  -15.6599998      -4.32022621E-32
  -15.6499996      -1.01381980E-31
  -15.6400003      -1.71312938E-31
  -15.6300001      -2.12284758E-31
  -15.6199999      -1.44691682E-31
  -15.6099997       1.37815757E-31
  -15.6000004       7.09419445E-31
  -15.5900002       1.48634462E-30
  -15.5799999       2.04852761E-30
  -15.5699997       1.50348314E-30
  -15.5600004      -1.39159018E-30
  -15.5500002      -7.53185009E-30
  -15.5400000      -1.59392490E-29
  -15.5299997      -2.16123600E-29
  -15.5200005      -1.39687082E-29
  -15.5100002       2.14879976E-29
  -15.5000000       9.46899286E-29
  -15.4899998       1.93404834E-28
  -15.4799995       2.59910963E-28
  -15.4700003       1.76490090E-28
  -15.4600000      -2.12216680E-28
  -15.4499998      -1.00611274E-27
  -15.4399996      -2.07079050E-27
  -15.4300003      -2.81849524E-27
  -15.4200001      -2.09761870E-27
  -15.4099998       1.55363440E-27
  -15.3999996       9.01739274E-27
  -15.3900003       1.90084001E-26
  -15.3800001       2.62712899E-26
  -15.3699999       2.08703398E-26
  -15.3599997      -9.38776062E-27
  -15.3500004      -7.14700338E-26
  -15.3400002      -1.54554270E-25
  -15.3299999      -2.16646990E-25
  -15.3199997      -1.80538559E-25
  -15.3100004       4.62188427E-26
  -15.3000002       5.14818022E-25
  -15.2900000       1.14462376E-24
  -15.2799997       1.63119692E-24
  -15.2700005       1.42429477E-24
  -15.2600002      -1.26808688E-25
  -15.2500000      -3.38466648E-24
  -15.2399998      -7.81953797E-24
  -15.2299995      -1.14136151E-23
  -15.2200003      -1.05340793E-23
  -15.2100000      -8.77252277E-25
  -15.1999998       2.00739478E-23
  -15.1899996       4.92918853E-23
  -15.1800003       7.45327963E-23
  -15.1700001       7.35017362E-23
  -15.1599998       1.93537052E-23
  -15.1499996      -1.04978050E-22
  -15.1400003      -2.84908513E-22
  -15.1300001      -4.52617388E-22
  -15.1199999      -4.81001033E-22
  -15.1099997      -2.12337702E-22
  -15.1000004       4.64668204E-22
  -15.0900002       1.49573278E-21
  -15.0799999       2.54011737E-21
  -15.0699997       2.92662519E-21
  -15.0600004       1.78569776E-21
  -15.0500002      -1.56936922E-21
  -15.0400000      -7.03584723E-21
  -15.0299997      -1.30791941E-20
  -15.0200005      -1.64317361E-20
  -15.0100002      -1.26168292E-20
  -15.0000000       2.32373936E-21
  -14.9899998       2.89523619E-20
  -14.9799995       6.12143897E-20
  -14.9700003       8.45500531E-20
  -14.9600000       7.75669297E-20
  -14.9499998       1.91462020E-20
  -14.9399996      -9.88989871E-20
  -14.9300003      -2.56681511E-19
  -14.9200001      -3.95513618E-19
  -14.9099998      -4.21208149E-19
  -14.8999996      -2.30207208E-19
  -14.8900003       2.39127265E-19
  -14.8800001       9.40267369E-19
  -14.8699999       1.66338752E-18
  -14.8599997       2.03006356E-18
  -14.8500004       1.57659560E-18
  -14.8400002      -5.64929268E-20
  -14.8299999      -2.85679460E-18
  -14.8199997      -6.18373218E-18
  -14.8100004      -8.66821424E-18
  -14.8000002      -8.42730615E-18
  -14.7900000      -3.69287340E-18
  -14.7799997       6.19839396E-18
  -14.7700005       1.97280839E-17
  -14.7600002       3.25283680E-17
  -14.7500000       3.77258582E-17
  -14.7399998       2.77646680E-17
  -14.7299995      -2.27830563E-18
  -14.7200003      -5.06110458E-17
  -14.7100000      -1.05423686E-16
  -14.6999998      -1.44455765E-16
  -14.6899996      -1.39360544E-16
  -14.6800003      -6.55936822E-17
  -14.6700001       8.36885095E-17
  -14.6599998       2.84021503E-16
  -14.6499996       4.72912365E-16
  -14.6400003       5.57042324E-16
  -14.6300001       4.37791917E-16
  -14.6199999       5.33691737E-17
  -14.6099997      -5.72779243E-16
  -14.6000004      -1.29597629E-15
  -14.5900002      -1.84963599E-15
  -14.5799999      -1.89873023E-15
  -14.5699997      -1.15157613E-15
  -14.5600004       4.89783090E-16
  -14.5500002       2.78735334E-15
  -14.5400000       5.09943607E-15
  -14.5299997       6.45354403E-15
  -14.5200005       5.79707486E-15
  -14.5100002       2.40377595E-15
  -14.5000000      -3.66310875E-15
  -14.4899998      -1.12004657E-14
  -14.4799995      -1.78273178E-14
  -14.4700003      -2.04180663E-14
  -14.4600000      -1.60400834E-14
  -14.4499998      -3.23404612E-15
  -14.4399996       1.67367324E-14
  -14.4300003       3.91900393E-14
  -14.4200001       5.64005290E-14
  -14.4099998       5.93504060E-14
  -14.3999996       4.07301993E-14
  -14.3900003      -1.48618897E-15
  -14.3800001      -6.10687445E-14
  -14.3699999      -1.22567985E-13
  -14.3599997      -1.63531650E-13
  -14.3500004      -1.60284546E-13
  -14.3400002      -9.64189124E-14
  -14.3299999       2.82224856E-14
  -14.3199997       1.91301714E-13
  -14.3100004       3.47848649E-13
  -14.3000002       4.38504539E-13
  -14.2900000       4.06072718E-13
  -14.2799997       2.17168609E-13
  -14.2700005      -1.17242004E-13
  -14.2600002      -5.30328656E-13
  -14.2500000      -9.04150832E-13
  -14.2399998      -1.09436841E-12
  -14.2299995      -9.72542793E-13
  -14.2200003      -4.76547133E-13
  -14.2100000       3.46287289E-13
  -14.1999998       1.32083624E-12
  -14.1899996       2.16474083E-12
  -14.1800003       2.55242680E-12
  -14.1700001       2.21324543E-12
  -14.1599998       1.03975942E-12
  -14.1499996      -8.28159318E-13
  -14.1400003      -2.97904409E-12
  -14.1300001      -4.79027018E-12
  -14.1199999      -5.57594075E-12
  -14.1099997      -4.79598045E-12
  -14.1000004      -2.27264626E-12
  -14.0900002       1.65568167E-12
  -14.0799999       6.11030627E-12
  -14.0699997       9.81807084E-12
  -14.0600004       1.14213474E-11
  -14.0500002       9.89087198E-12
  -14.0400000       4.93213977E-12
  -14.0299997      -2.74708511E-12
  -14.0200005      -1.14256131E-11
  -14.0100002      -1.86751465E-11
  -14.0000000      -2.19568946E-11
  -13.9899998      -1.93831166E-11
  -13.9799995      -1.04396162E-11
  -13.9700003       3.56438902E-12
  -13.9600000       1.95145566E-11
  -13.9499998       3.30661297E-11
  -13.9399996       3.97080806E-11
  -13.9300003       3.60859433E-11
  -13.9200001       2.12299726E-11
  -13.9099998      -2.70074371E-12
  -13.8999996      -3.04709695E-11
  -13.8900003      -5.47461694E-11
  -13.8800001      -6.78653592E-11
  -13.8699999      -6.40217601E-11
  -13.8599997      -4.12767008E-11
  -13.8500004      -2.78687490E-12
  -13.8400002       4.32435927E-11
  -13.8299999       8.50782778E-11
  -13.8199997       1.10224781E-10
  -13.8100004       1.08867679E-10
  -13.8000002       7.70722514E-11
  -13.7900000       1.88072995E-11
  -13.7799997      -5.39647424E-11
  -13.7700005      -1.23437843E-10
  -13.7600002      -1.70064560E-10
  -13.7500000      -1.77727971E-10
  -13.7399998      -1.38676473E-10
  -13.7299995      -5.68063097E-11
  -13.7200003       5.18454238E-11
  -13.7100000       1.61896052E-10
  -13.6999998       2.44338716E-10
  -13.6899996       2.73960965E-10
  -13.6800003       2.36603487E-10
  -13.6700001       1.34225978E-10
  -13.6599998      -1.38747945E-11
  -13.6499996      -1.74453355E-10
  -13.6400003      -3.07852799E-10
  -13.6300001      -3.78009263E-10
  -13.6199999      -3.62364583E-10
  -13.6099997      -2.58895572E-10
  -13.6000004      -8.80240880E-11
  -13.5900002       1.11555785E-10
  -13.5799999       2.92408903E-10
  -13.5699997       4.10876139E-10
  -13.5600004       4.39108305E-10
  -13.5500002       3.72998799E-10
  -13.5400000       2.33354391E-10
  -13.5299997       5.95333643E-11
  -13.5200005      -1.02884597E-10
  -13.5100002      -2.16751506E-10
  -13.5000000      -2.65562045E-10
  -13.4899998      -2.58792876E-10
  -13.4799995      -2.27815100E-10
  -13.4700003      -2.12825424E-10
  -13.4600000      -2.44516185E-10
  -13.4499998      -3.26685401E-10
  -13.4399996      -4.26693320E-10
  -13.4300003      -4.79077056E-10
  -13.4200001      -4.03882372E-10
  -13.4099998      -1.36275921E-10
  -13.3999996       3.40768691E-10
  -13.3900003       9.71802194E-10
  -13.3800001       1.62301983E-09
  -13.3699999       2.10193507E-09
  -13.3599997       2.20230989E-09
  -13.3500004       1.76567672E-09
  -13.3400002       7.43586581E-10
  -13.3299999      -7.58820229E-10
  -13.3199997      -2.47538789E-09
  -13.3100004      -4.01742994E-09
  -13.3000002      -4.95579133E-09
  -13.2900000      -4.93066876E-09
  -13.2799997      -3.76239839E-09
  -13.2700005      -1.53164803E-09
  -13.2600002       1.39874834E-09
  -13.2500000       4.43553194E-09
  -13.2399998       6.87676405E-09
  -13.2299995       8.07961253E-09
  -13.2200003       7.63393349E-09
  -13.2100000       5.49455192E-09
  -13.1999998       2.03084283E-09
  -13.1899996      -2.02954453E-09
  -13.1800003      -5.75903281E-09
  -13.1700001      -8.25768076E-09
  -13.1599998      -8.89410323E-09
  -13.1499996      -7.49410134E-09
  -13.1400003      -4.41914327E-09
  -13.1300001      -5.01858777E-10
  -13.1199999       3.15722049E-09
  -13.1099997       5.48756818E-09
  -13.1000004       5.76548365E-09
  -13.0900002       3.86053234E-09
  -13.0799999       3.32738503E-10
  -13.0699997      -3.66435970E-09
  -13.0600004      -6.66906885E-09
  -13.0500002      -7.32488115E-09
  -13.0400000      -4.81751705E-09
  -13.0299997       7.88028587E-10
  -13.0200005       8.42089865E-09
  -13.0100002       1.61528320E-08
  -13.0000000       2.16168186E-08
  -12.9899998       2.26148504E-08
  -12.9799995       1.77708177E-08
  -12.9700003       7.05410175E-09
  -12.9600000      -7.98667532E-09
  -12.9499998      -2.43813751E-08
  -12.9399996      -3.82957133E-08
  -12.9300003      -4.58909710E-08
  -12.9200001      -4.42978916E-08
  -12.9099998      -3.24664455E-08
  -12.8999996      -1.16606458E-08
  -12.8900003       1.45632502E-08
  -12.8800001       4.09403285E-08
  -12.8699999       6.15492155E-08
  -12.8599997       7.11150747E-08
  -12.8500004       6.62678872E-08
  -12.8400002       4.64534438E-08
  -12.8299999       1.42631764E-08
  -12.8199997      -2.49194390E-08
  -12.8100004      -6.38963016E-08
  -12.8000002      -9.50447188E-08
  -12.7900000      -1.11807665E-07
  -12.7799997      -1.09949660E-07
  -12.7700005      -8.83064857E-08
  -12.7600002      -4.88901364E-08
  -12.7500000       3.62254693E-09
  -12.7399998       6.28352339E-08
  -12.7299995       1.21730295E-07
  -12.7200003       1.73625651E-07
  -12.7100000       2.12771269E-07
  -12.6999998       2.34508789E-07
  -12.6899996       2.35084258E-07
  -12.6800003       2.11341515E-07
  -12.6700001       1.60585316E-07
  -12.6599998       8.08656324E-08
  -12.6499996      -2.82043011E-08
  -12.6400003      -1.64184002E-07
  -12.6300001      -3.20393610E-07
  -12.6199999      -4.84802229E-07
  -12.6099997      -6.39707139E-07
  -12.6000004      -7.62593288E-07
  -12.5900002      -8.28336340E-07
  -12.5799999      -8.12599694E-07
  -12.5699997      -6.95956373E-07
  -12.5600004      -4.68021909E-07
  -12.5500002      -1.30785992E-07
  -12.5400000       2.99588720E-07
  -12.5299997       7.92967512E-07
  -12.5200005       1.30752869E-06
  -12.5100002       1.79379470E-06
  -12.5000000       2.19971139E-06
  -12.4899998       2.47587468E-06
  -12.4799995       2.58000409E-06
  -12.4700003       2.47996968E-06
  -12.4600000       2.15506270E-06
  -12.4499998       1.59561773E-06
  -12.4399996       8.01504029E-07
  -12.4300003      -2.19775472E-07
  -12.4200001      -1.45460069E-06
  -12.4099998      -2.88379852E-06
  -12.3999996      -4.48206811E-06
  -12.3900003      -6.21651361E-06
  -12.3800001      -8.04493811E-06
  -12.3699999      -9.91474280E-06
  -12.3599997      -1.17632680E-05
  -12.3500004      -1.35200826E-05
  -12.3400002      -1.51112645E-05
  -12.3299999      -1.64651101E-05
  -12.3199997      -1.75182649E-05
  -12.3100004      -1.82209697E-05
  -12.3000002      -1.85402259E-05
  -12.2900000      -1.84600467E-05
  -12.2799997      -1.79786784E-05
  -12.2700005      -1.71033535E-05
  -12.2600002      -1.58439343E-05
  -12.2500000      -1.42070912E-05
  -12.2399998      -1.21927451E-05
  -12.2299995      -9.79394190E-06
  -12.2200003      -7.00066948E-06
  -12.2100000      -3.80701294E-06
  -12.1999998      -2.20254179E-07
  -12.1899996       3.73020180E-06
  -12.1800003       7.98623751E-06
  -12.1700001       1.24586077E-05
  -12.1599998       1.70297481E-05
  -12.1499996       2.15616146E-05
  -12.1400003       2.59074131E-05
  -12.1300001       2.99251806E-05
  -12.1199999       3.34907454E-05
  -12.1099997       3.65077867E-05
  -12.1000004       3.89135239E-05
  -12.0900002       4.06792860E-05
  -12.0799999       4.18066447E-05
  -12.0699997       4.23203201E-05
  -12.0600004       4.22599260E-05
  -12.0500002       4.16723233E-05
  -12.0400000       4.06060281E-05
  -12.0299997       3.91083195E-05
  -12.0200005       3.72248542E-05
  -12.0100002       3.50008049E-05
  -12.0000000       3.24822540E-05
  -11.9899998       2.97166280E-05
  -11.9799995       2.67514442E-05
  -11.9700003       2.36311407E-05
  -11.9600000       2.03928048E-05
  -11.9499998       1.70618787E-05
  -11.9399996       1.36491653E-05
  -11.9300003       1.01503992E-05
  -11.9200001       6.54886207E-06
  -11.9099998       2.82097517E-06
  -11.8999996      -1.05609661E-06
  -11.8900003      -5.09630672E-06
  -11.8800001      -9.29769794E-06
  -11.8699999      -1.36379704E-05
  -11.8599997      -1.80736315E-05
  -11.8500004      -2.25427921E-05
  -11.8400002      -2.69710763E-05
  -11.8299999      -3.12793272E-05
  -11.8199997      -3.53915202E-05
  -11.8100004      -3.92413967E-05
  -11.8000002      -4.27765481E-05
  -11.7900000      -4.59595612E-05
  -11.7799997      -4.87662546E-05
  -11.7700005      -5.11819453E-05
  -11.7600002      -5.31967780E-05
  -11.7500000      -5.48014286E-05
  -11.7399998      -5.59841683E-05
  -11.7299995      -5.67297502E-05
  -11.7200003      -5.70201519E-05
  -11.7100000      -5.68365867E-05
  -11.6999998      -5.61620327E-05
  -11.6899996      -5.49834294E-05
  -11.6800003      -5.32929007E-05
  -11.6700001      -5.10879763E-05
  -11.6599998      -4.83709300E-05
  -11.6499996      -4.51481865E-05
  -11.6400003      -4.14303140E-05
  -11.6300001      -3.72333634E-05
  -11.6199999      -3.25816945E-05
  -11.6099997      -2.75118309E-05
  -11.6000004      -2.20763231E-05
  -11.5900002      -1.63463828E-05
  -11.5799999      -1.04118199E-05
  -11.5699997      -4.37761992E-06
  -11.5600004       1.64318476E-06
  -11.5500002       7.53938230E-06
  -11.5400000       1.32126279E-05
  -11.5299997       1.85875142E-05
  -11.5200005       2.36185497E-05
  -11.5100002       2.82923647E-05
  -11.5000000       3.26245790E-05
  -11.4899998       3.66517779E-05
  -11.4799995       4.04203165E-05
  -11.4700003       4.39742653E-05
  -11.4600000       4.73449982E-05
  -11.4499998       5.05446878E-05
  -11.4399996       5.35646468E-05
  -11.4300003       5.63786598E-05
  -11.4200001       5.89499723E-05
  -11.4099998       6.12399817E-05
  -11.3999996       6.32162846E-05
  -11.3900003       6.48581918E-05
  -11.3800001       6.61583617E-05
  -11.3699999       6.71207526E-05
  -11.3599997       6.77554417E-05
  -11.3500004       6.80724916E-05
  -11.3400002       6.80763769E-05
  -11.3299999       6.77628268E-05
  -11.3199997       6.71190792E-05
  -11.3100004       6.61273516E-05
  -11.3000002       6.47708730E-05
  -11.2900000       6.30407449E-05
  -11.2799997       6.09418603E-05
  -11.2700005       5.84965601E-05
  -11.2600002       5.57449821E-05
  -11.2500000       5.27420634E-05
  -11.2399998       4.95520835E-05
  -11.2299995       4.62421449E-05
  -11.2200003       4.28759304E-05
  -11.2100000       3.95093521E-05
  -11.1999998       3.61889215E-05
  -11.1899996       3.29526229E-05
  -11.1800003       2.98331324E-05
  -11.1700001       2.68617023E-05
  -11.1599998       2.40717000E-05
  -11.1499996       2.15004329E-05
  -11.1400003       1.91885701E-05
  -11.1300001       1.71771317E-05
  -11.1199999       1.55025973E-05
  -11.1099997       1.41913151E-05
  -11.1000004       1.32545483E-05
  -11.0900002       1.26850937E-05
  -11.0799999       1.24564840E-05
  -11.0699997       1.25246906E-05
  -11.0600004       1.28320007E-05
  -11.0500002       1.33122358E-05
  -11.0400000       1.38963696E-05
  -11.0299997       1.45176791E-05
  -11.0200005       1.51160175E-05
  -11.0100002       1.56410715E-05
  -11.0000000       1.60548316E-05
  -10.9899998       1.63336226E-05
  -10.9799995       1.64699377E-05
  -10.9700003       1.64739395E-05
  -10.9600000       1.63742316E-05
  -10.9499998       1.62172710E-05
  -10.9399996       1.60644831E-05
  -10.9300003       1.59868305E-05
  -10.9200001       1.60567179E-05
  -10.9099998       1.63380391E-05
  -10.8999996       1.68756796E-05
  -10.8900003       1.76862141E-05
  -10.8800001       1.87515052E-05
  -10.8699999       2.00166196E-05
  -10.8599997       2.13925669E-05
  -10.8500004       2.27635719E-05
  -10.8400002       2.39976889E-05
  -10.8299999       2.49588866E-05
  -10.8199997       2.55186969E-05
  -10.8100004       2.55656687E-05
  -10.8000002       2.50115972E-05
  -10.7900000       2.37942804E-05
  -10.7799997       2.18773566E-05
  -10.7700005       1.92483494E-05
  -10.7600002       1.59162155E-05
  -10.7500000       1.19094775E-05
  -10.7399998       7.27552560E-06
  -10.7299995       2.08106826E-06
  -10.7200003      -3.58697162E-06
  -10.7100000      -9.62104150E-06
  -10.6999998      -1.58940784E-05
  -10.6899996      -2.22627732E-05
  -10.6800003      -2.85732785E-05
  -10.6700001      -3.46687993E-05
  -10.6599998      -4.03981940E-05
  -10.6499996      -4.56243069E-05
  -10.6400003      -5.02306648E-05
  -10.6300001      -5.41258269E-05
  -10.6199999      -5.72446952E-05
  -10.6099997      -5.95470774E-05
  -10.6000004      -6.10140669E-05
  -10.5900002      -6.16434772E-05
  -10.5799999      -6.14452438E-05
  -10.5699997      -6.04380184E-05
  -10.5600004      -5.86475071E-05
  -10.5500002      -5.61068409E-05
  -10.5400000      -5.28584860E-05
  -10.5299997      -4.89569902E-05
  -10.5200005      -4.44715806E-05
  -10.5100002      -3.94874514E-05
  -10.5000000      -3.41049163E-05
  -10.4899998      -2.84360958E-05
  -10.4799995      -2.25992608E-05
  -10.4700003      -1.67115722E-05
  -10.4600000      -1.08814966E-05
  -10.4499998      -5.20228923E-06
  -10.4399996       2.52158230E-07
  -10.4300003       5.42817861E-06
  -10.4200001       1.02897402E-05
  -10.4099998       1.48129639E-05
  -10.3999996       1.89790662E-05
  -10.3900003       2.27674536E-05
  -10.3800001       2.61506084E-05
  -10.3699999       2.90922089E-05
  -10.3599997       3.15488869E-05
  -10.3500004       3.34754586E-05
  -10.3400002       3.48322501E-05
  -10.3299999       3.55929988E-05
  -10.3199997       3.57513054E-05
  -10.3100004       3.53243777E-05
  -10.3000002       3.43531829E-05
  -10.2900000       3.28991518E-05
  -10.2799997       3.10383912E-05
  -10.2700005       2.88547089E-05
  -10.2600002       2.64328410E-05
  -10.2500000       2.38531393E-05
  -10.2399998       2.11881597E-05
  -10.2299995       1.85011195E-05
  -10.2200003       1.58456842E-05
  -10.2100000       1.32663845E-05
  -10.1999998       1.07989872E-05
  -10.1899996       8.47066076E-06
  -10.1800003       6.30004115E-06
  -10.1700001       4.29784177E-06
  -10.1599998       2.46851982E-06
  -10.1499996       8.13352017E-07
  -10.1400003      -6.65185041E-07
  -10.1300001      -1.95860321E-06
  -10.1199999      -3.04838977E-06
  -10.1099997      -3.90431978E-06
  -10.1000004      -4.48625360E-06
  -10.0900002      -4.74992294E-06
  -10.0799999      -4.65620678E-06
  -10.0699997      -4.18220543E-06
  -10.0600004      -3.33172557E-06
  -10.0500002      -2.14246802E-06
  -10.0400000      -6.87381146E-07
  -10.0299997       9.30973044E-07
  -10.0200005       2.59283411E-06
  -10.0100002       4.17866113E-06
  -10.0000000       5.58815464E-06
  -9.98999977       6.75712954E-06
  -9.97999954       7.66849553E-06
  -9.97000027       8.35497849E-06
  -9.96000004       8.89281273E-06
  -9.94999981       9.38789344E-06
  -9.93999958       9.95733808E-06
  -9.93000031       1.07103151E-05
  -9.92000008       1.17320924E-05
  -9.90999985       1.30737826E-05
  -9.89999962       1.47490273E-05
  -9.89000034       1.67366943E-05
  -9.88000011       1.89878829E-05
  -9.86999989       2.14344818E-05
  -9.85999966       2.39974270E-05
  -9.85000038       2.65935232E-05
  -9.84000015       2.91408705E-05
  -9.82999992       3.15637226E-05
  -9.81999969       3.37978345E-05
  -9.81000042       3.57965218E-05
  -9.80000019       3.75366108E-05
  -9.78999996       3.90224923E-05
  -9.77999973       4.02859441E-05
  -9.77000046       4.13801208E-05
  -9.76000023       4.23673046E-05
  -9.75000000       4.33022215E-05
  -9.73999977       4.42143210E-05
  -9.72999954       4.50937223E-05
  -9.72000027       4.58847389E-05
  -9.71000004       4.64893383E-05
  -9.69999981       4.67804093E-05
  -9.68999958       4.66217680E-05
  -9.68000031       4.58903378E-05
  -9.67000008       4.44952238E-05
  -9.65999985       4.23900092E-05
  -9.64999962       3.95764146E-05
  -9.64000034       3.61008606E-05
  -9.63000011       3.20466206E-05
  -9.61999989       2.75256443E-05
  -9.60999966       2.26726461E-05
  -9.60000038       1.76425001E-05
  -9.59000015       1.26094174E-05
  -9.57999992       7.76501656E-06
  -9.56999969       3.31246292E-06
  -9.56000042      -5.45121225E-07
  -9.55000019      -3.62087167E-06
  -9.53999996      -5.76184766E-06
  -9.52999973      -6.86324529E-06
  -9.52000046      -6.87473539E-06
  -9.51000023      -5.79637162E-06
  -9.50000000      -3.66501763E-06
  -9.48999977      -5.35184483E-07
  -9.47999954       3.53945620E-06
  -9.47000027       8.51817913E-06
  -9.46000004       1.43746638E-05
  -9.44999981       2.10875496E-05
  -9.43999958       2.86236809E-05
  -9.43000031       3.69197041E-05
  -9.42000008       4.58689501E-05
  -9.40999985       5.53181599E-05
  -9.39999962       6.50755173E-05
  -9.39000034       7.49273531E-05
  -9.38000011       8.46582261E-05
  -9.36999989       9.40680620E-05
  -9.35999966       1.02981467E-04
  -9.35000038       1.11247435E-04
  -9.34000015       1.18731514E-04
  -9.32999992       1.25304912E-04
  -9.31999969       1.30836546E-04
  -9.31000042       1.35192196E-04
  -9.30000019       1.38242292E-04
  -9.28999996       1.39876356E-04
  -9.27999973       1.40019431E-04
  -9.27000046       1.38644347E-04
  -9.26000023       1.35775466E-04
  -9.25000000       1.31482244E-04
  -9.23999977       1.25863371E-04
  -9.22999954       1.19027653E-04
  -9.22000027       1.11075802E-04
  -9.21000004       1.02089529E-04
  -9.19999981       9.21301180E-05
  -9.18999958       8.12460494E-05
  -9.18000031       6.94863920E-05
  -9.17000008       5.69146250E-05
  -9.15999985       4.36185037E-05
  -9.14999962       2.97124116E-05
  -9.14000034       1.53317924E-05
  -9.13000011       6.22284119E-07
  -9.11999989      -1.42726667E-05
  -9.10999966      -2.92215209E-05
  -9.10000038      -4.41079465E-05
  -9.09000015      -5.88273979E-05
  -9.07999992      -7.32778935E-05
  -9.06999969      -8.73486715E-05
  -9.06000042      -1.00910751E-04
  -9.05000019      -1.13813250E-04
  -9.03999996      -1.25887411E-04
  -9.02999973      -1.36957868E-04
  -9.02000046      -1.46858569E-04
  -9.01000023      -1.55449467E-04
  -9.00000000      -1.62629236E-04
  -8.98999977      -1.68340586E-04
  -8.97999954      -1.72567059E-04
  -8.97000027      -1.75322624E-04
  -8.96000004      -1.76637506E-04
  -8.94999981      -1.76544912E-04
  -8.93999958      -1.75073903E-04
  -8.93000031      -1.72250060E-04
  -8.92000008      -1.68104394E-04
  -8.90999985      -1.62686250E-04
  -8.89999962      -1.56075679E-04
  -8.89000034      -1.48387873E-04
  -8.88000011      -1.39767464E-04
  -8.86999989      -1.30370681E-04
  -8.85999966      -1.20340468E-04
  -8.85000038      -1.09781053E-04
  -8.84000015      -9.87413659E-05
  -8.82999992      -8.72131277E-05
  -8.81999969      -7.51460975E-05
  -8.81000042      -6.24772656E-05
  -8.80000019      -4.91649735E-05
  -8.78999996      -3.52166098E-05
  -8.77999973      -2.07005651E-05
  -8.77000046      -5.73680791E-06
  -8.76000023       9.53079416E-06
  -8.75000000       2.49722852E-05
  -8.73999977       4.05055107E-05
  -8.72999954       5.61132838E-05
  -8.72000027       7.18368246E-05
  -8.71000004       8.77449129E-05
  -8.69999981       1.03888829E-04
  -8.68999958       1.20257413E-04
  -8.68000031       1.36748276E-04
  -8.67000008       1.53165616E-04
  -8.65999985       1.69246880E-04
  -8.64999962       1.84710079E-04
  -8.64000034       1.99305869E-04
  -8.63000011       2.12857223E-04
  -8.61999989       2.25273863E-04
  -8.60999966       2.36536696E-04
  -8.60000038       2.46659038E-04
  -8.59000015       2.55640945E-04
  -8.57999992       2.63432856E-04
  -8.56999969       2.69925193E-04
  -8.56000042       2.74967373E-04
  -8.55000019       2.78411288E-04
  -8.53999996       2.80163367E-04
  -8.52999973       2.80226697E-04
  -8.52000046       2.78717489E-04
  -8.51000023       2.75849045E-04
  -8.50000000       2.71889730E-04
  -8.48999977       2.67109863E-04
  -8.47999954       2.61736568E-04
  -8.47000027       2.55933439E-04
  -8.46000004       2.49811390E-04
  -8.44999981       2.43466857E-04
  -8.43999958       2.37029541E-04
  -8.43000031       2.30701204E-04
  -8.42000008       2.24768330E-04
  -8.40999985       2.19579015E-04
  -8.39999962       2.15492910E-04
  -8.39000034       2.12817074E-04
  -8.38000011       2.11752136E-04
  -8.36999989       2.12366038E-04
  -8.35999966       2.14606087E-04
  -8.35000038       2.18343834E-04
  -8.34000015       2.23437426E-04
  -8.32999992       2.29787649E-04
  -8.31999969       2.37367189E-04
  -8.31000042       2.46212032E-04
  -8.30000019       2.56377127E-04
  -8.28999996       2.67872994E-04
  -8.27999973       2.80606182E-04
  -8.27000046       2.94347032E-04
  -8.26000023       3.08737857E-04
  -8.25000000       3.23342043E-04
  -8.23999977       3.37718520E-04
  -8.22999954       3.51497496E-04
  -8.22000027       3.64432839E-04
  -8.21000004       3.76413780E-04
  -8.19999981       3.87432752E-04
  -8.18999958       3.97522206E-04
  -8.18000031       4.06682317E-04
  -8.17000008       4.14826325E-04
  -8.15999985       4.21762175E-04
  -8.14999962       4.27216815E-04
  -8.14000034       4.30894317E-04
  -8.13000011       4.32544359E-04
  -8.11999989       4.32018627E-04
  -8.10999966       4.29290958E-04
  -8.10000038       4.24436032E-04
  -8.09000015       4.17573232E-04
  -8.07999992       4.08798049E-04
  -8.06999969       3.98125703E-04
  -8.06000042       3.85472755E-04
  -8.05000019       3.70684313E-04
  -8.03999996       3.53600859E-04
  -8.02999973       3.34143348E-04
  -8.02000046       3.12385353E-04
  -8.01000023       2.88586511E-04
  -8.00000000       2.63171096E-04
  -7.98999977       2.36656037E-04
  -7.98000002       2.09549762E-04
  -7.96999979       1.82253192E-04
  -7.96000004       1.54995840E-04
  -7.94999981       1.27827880E-04
  -7.94000006       1.00670281E-04
  -7.92999983       7.34050918E-05
  -7.92000008       4.59746771E-05
  -7.90999985       1.84539149E-05
  -7.90000010      -8.92958269E-06
  -7.88999987      -3.58352336E-05
  -7.88000011      -6.18952108E-05
  -7.86999989      -8.68154966E-05
  -7.86000013      -1.10455578E-04
  -7.84999990      -1.32856629E-04
  -7.84000015      -1.54206864E-04
  -7.82999992      -1.74753135E-04
  -7.82000017      -1.94689695E-04
  -7.80999994      -2.14060943E-04
  -7.80000019      -2.32712191E-04
  -7.78999996      -2.50306271E-04
  -7.78000021      -2.66399031E-04
  -7.76999998      -2.80548848E-04
  -7.76000023      -2.92420213E-04
  -7.75000000      -3.01847263E-04
  -7.73999977      -3.08835472E-04
  -7.73000002      -3.13502795E-04
  -7.71999979      -3.15984449E-04
  -7.71000004      -3.16336984E-04
  -7.69999981      -3.14479345E-04
  -7.69000006      -3.10194388E-04
  -7.67999983      -3.03191337E-04
  -7.67000008      -2.93209538E-04
  -7.65999985      -2.80126522E-04
  -7.65000010      -2.64031929E-04
  -7.63999987      -2.45240779E-04
  -7.63000011      -2.24239397E-04
  -7.61999989      -2.01582123E-04
  -7.61000013      -1.77772861E-04
  -7.59999990      -1.53171582E-04
  -7.59000015      -1.27954365E-04
  -7.57999992      -1.02139536E-04
  -7.57000017      -7.56680165E-05
  -7.55999994      -4.85072487E-05
  -7.55000019      -2.07416579E-05
  -7.53999996       7.38223571E-06
  -7.53000021       3.54713520E-05
  -7.51999998       6.30561626E-05
  -7.51000023       8.96912679E-05
  -7.50000000       1.15051080E-04
  -7.48999977       1.38989722E-04
  -7.48000002       1.61545773E-04
  -7.46999979       1.82892618E-04
  -7.46000004       2.03252697E-04
  -7.44999981       2.22805174E-04
  -7.44000006       2.41619069E-04