  -16.0000000       0.00000000    
  -15.9899998       0.00000000    
  -15.9799995       0.00000000    
  -15.9700003       0.00000000    
  -15.9600000       0.00000000    
  -15.9499998       0.00000000    
  -15.9399996       0.00000000    
  -15.9300003       0.00000000    
  -15.9200001       0.00000000    
  -15.9099998       0.00000000    
  -15.8999996       0.00000000    
  -15.8900003       0.00000000    
  -15.8800001       0.00000000    
  -15.8699999      -7.83283803E-41
  -15.8599997      -1.54364797E-39
  -15.8500004      -1.51255343E-38
  -15.8400002      -9.77586839E-38
  -15.8299999      -4.67260350E-37
  -15.8199997      -1.76079138E-36
  -15.8100004      -5.48897101E-36
  -15.8000002      -1.49251938E-35
  -15.7900000      -3.79122441E-35
  -15.7799997      -9.59965912E-35
  -15.7700005      -2.43810799E-34
  -15.7600002      -5.73426761E-34
  -15.7500000      -1.06151236E-33
  -15.7399998      -8.45770389E-34
  -15.7299995       3.83856101E-33
  -15.7200003       2.37572610E-32
  -15.7100000       8.17422197E-32
  -15.6999998       2.12534057E-31
  -15.6899996       4.42613637E-31
  -15.6800003       7.28795730E-31
  -15.6700001       8.45801005E-31
  -15.6599998       2.66845117E-31
  -15.6499996      -1.80813751E-30
  -15.6400003      -5.99103617E-30
  -15.6300001      -1.15170257E-29
  -15.6199999      -1.44137364E-29
  -15.6099997      -6.15520026E-30
  -15.6000004       2.44104037E-29
  -15.5900002       8.17126997E-29
  -15.5799999       1.43785404E-28
  -15.5699997       1.36656875E-28
  -15.5600004      -7.68062968E-29
  -15.5500002      -6.51365541E-28
  -15.5400000      -1.60215791E-27
  -15.5299997      -2.50917472E-27
  -15.5200005      -2.16956913E-27
  -15.5100002       1.49421522E-27
  -15.5000000       1.06875592E-26
  -15.4899998       2.54635287E-26
  -15.4799995       3.96850900E-26
  -15.4700003       3.65591085E-26
  -15.4600000      -1.21229024E-26
  -15.4499998      -1.35749144E-25
  -15.4399996      -3.35710137E-25
  -15.4300003      -5.35960974E-25
  -15.4200001      -5.30925527E-25
  -15.4099998       2.03565218E-26
  -15.3999996       1.47361377E-24
  -15.3900003       3.87207366E-24
  -15.3800001       6.41130056E-24
  -15.3699999       6.89345944E-24
  -15.3599997       1.67126198E-24
  -15.3500004      -1.31464380E-23
  -15.3400002      -3.85098638E-23
  -15.3299999      -6.73296064E-23
  -15.3199997      -7.93196674E-23
  -15.3100004      -4.02036933E-23
  -15.3000002       8.81839270E-23
  -15.2900000       3.21084084E-22
  -15.2799997       6.07975731E-22
  -15.2700005       7.88440045E-22
  -15.2600002       5.80699369E-22
  -15.2500000      -3.47997974E-22
  -15.2399998      -2.18566462E-21
  -15.2299995      -4.65707007E-21
  -15.2200003      -6.68160956E-21
  -15.2100000      -6.23678026E-21
  -15.1999998      -7.59160355E-22
  -15.1899996       1.16149107E-20
  -15.1800003       2.99475829E-20
  -15.1700001       4.81051215E-20
  -15.1599998       5.34372796E-20
  -15.1499996       2.85528304E-20
  -15.1400003      -4.18658145E-20
  -15.1300001      -1.58744748E-19
  -15.1199999      -2.93549132E-19
  -15.1099997      -3.77678751E-19
  -15.1000004      -3.07469108E-19
  -15.0900002       2.37166673E-20
  -15.0799999       6.61509364E-19
  -15.0699997       1.50557325E-18
  -15.0600004       2.23734902E-18
  -15.0500002       2.31592229E-18
  -15.0400000       1.10397334E-18
  -15.0299997      -1.83961597E-18
  -15.0200005      -6.33246588E-18
  -15.0100002      -1.11441982E-17
  -15.0000000      -1.38229945E-17
  -14.9899998      -1.10762363E-17
  -14.9799995       6.76038236E-20
  -14.9700003       2.03519865E-17
  -14.9600000       4.61218936E-17
  -14.9499998       6.78813924E-17
  -14.9399996       7.09171519E-17
  -14.9300003       3.91888098E-17
  -14.9200001      -3.71917245E-17
  -14.9099998      -1.52253881E-16
  -14.8999996      -2.75734450E-16
  -14.8900003      -3.51196695E-16
  -14.8800001      -3.06226339E-16
  -14.8699999      -7.77779931E-17
  -14.8599997       3.49908913E-16
  -14.8500004       9.05443492E-16
  -14.8400002       1.40700516E-15
  -14.8299999       1.57787510E-15
  -14.8199997       1.11800959E-15
  -14.8100004      -1.67609834E-16
  -14.8000002      -2.21016603E-15
  -14.7900000      -4.54464389E-15
  -14.7799997      -6.28242601E-15
  -14.7700005      -6.26435964E-15
  -14.7600002      -3.42943417E-15
  -14.7500000       2.64547088E-15
  -14.7399998       1.11836183E-14
  -14.7299995       1.98664598E-14
  -14.7200003       2.49881902E-14
  -14.7100000       2.23103464E-14
  -14.6999998       8.61730832E-15
  -14.6899996      -1.63373038E-14
  -14.6800003      -4.81359202E-14
  -14.6700001      -7.71200120E-14
  -14.6599998      -8.97484262E-14
  -14.6499996      -7.22909756E-14
  -14.6400003      -1.64501235E-14
  -14.6300001       7.45047876E-14
  -14.6199999       1.81407515E-13
  -14.6099997       2.69317744E-13
  -14.6000004       2.94141068E-13
  -14.5900002       2.16034398E-13
  -14.5799999       1.72474441E-14
  -14.5699997      -2.80802427E-13
  -14.5600004      -6.08399507E-13
  -14.5500002      -8.53430716E-13
  -14.5400000      -8.86413718E-13
  -14.5299997      -6.02900163E-13
  -14.5200005       2.60751029E-14
  -14.5100002       9.11755372E-13
  -14.5000000       1.83319224E-12
  -14.4899998       2.46706041E-12
  -14.4799995       2.46766236E-12
  -14.4700003       1.58607773E-12
  -14.4600000      -2.01508474E-13
  -14.4499998      -2.60084272E-12
  -14.4399996      -4.98935615E-12
  -14.4300003      -6.52194358E-12
  -14.4200001      -6.35488667E-12
  -14.4099998      -3.94692352E-12
  -14.3999996       6.45493045E-13
  -14.3900003       6.58706293E-12
  -14.3800001       1.22992762E-11
  -14.3699999       1.57694673E-11
  -14.3599997       1.51099792E-11
  -14.3500004       9.24744482E-12
  -14.3400002      -1.46088664E-12
  -14.3299999      -1.49206741E-11
  -14.3199997      -2.75015809E-11
  -14.3100004      -3.48218433E-11
  -14.3000002      -3.30092308E-11
  -14.2900000      -2.01372564E-11
  -14.2799997       2.60787203E-12
  -14.2700005       3.04985273E-11
  -14.2600002       5.59119695E-11
  -14.2500000       7.01072395E-11
  -14.2399998       6.58153254E-11
  -14.2299995       3.99722720E-11
  -14.2200003      -4.28569940E-12
  -14.2100000      -5.72029021E-11
  -14.1999998      -1.04062314E-10
  -14.1899996      -1.28839023E-10
  -14.1800003      -1.19081647E-10
  -14.1700001      -7.06770129E-11
  -14.1599998       9.09005423E-12
  -14.1499996       1.01543676E-10
  -14.1400003       1.80306423E-10
  -14.1300001       2.18208562E-10
  -14.1199999       1.95794450E-10
  -14.1099997       1.08976127E-10
  -14.1000004      -2.68088537E-11
  -14.0900002      -1.77920886E-10
  -14.0799999      -2.99893138E-10
  -14.0699997      -3.49568707E-10
  -14.0600004      -2.98945146E-10
  -14.0500002      -1.46601023E-10
  -14.0400000       7.73362208E-11
  -14.0299997       3.15331067E-10
  -14.0200005       4.95850194E-10
  -14.0100002       5.53308899E-10
  -14.0000000       4.49319665E-10
  -13.9899998       1.88815533E-10
  -13.9799995      -1.74713355E-10
  -13.9700003      -5.48075474E-10
  -13.9600000      -8.20611745E-10
  -13.9499998      -8.94872509E-10
  -13.9399996      -7.17554183E-10
  -13.9300003      -3.01412312E-10
  -13.9200001       2.69563649E-10
  -13.9099998       8.55281457E-10
  -13.8999996       1.29289068E-09
  -13.8900003       1.44055534E-09
  -13.8800001       1.21999488E-09
  -13.8699999       6.45314413E-10
  -13.8599997      -1.71529221E-10
  -13.8500004      -1.04228404E-09
  -13.8400002      -1.74713366E-09
  -13.8299999      -2.09169904E-09
  -13.8199997      -1.96104466E-09
  -13.8100004      -1.35525213E-09
  -13.8000002      -3.95427857E-10
  -13.7900000       7.03153091E-10
  -13.7799997       1.68478698E-09
  -13.7700005       2.31982944E-09
  -13.7600002       2.46556642E-09
  -13.7500000       2.10378648E-09
  -13.7399998       1.34357769E-09
  -13.7299995       3.87613358E-10
  -13.7200003      -5.28821209E-10
  -13.7100000      -1.20826815E-09
  -13.6999998      -1.54929114E-09
  -13.6899996      -1.57350277E-09
  -13.6800003      -1.41112644E-09
  -13.6700001      -1.24743671E-09
  -13.6599998      -1.24533273E-09
  -13.6499996      -1.46861134E-09
  -13.6400003      -1.83313476E-09
  -13.6300001      -2.10724571E-09
  -13.6199999      -1.96945660E-09
  -13.6099997      -1.11413290E-09
  -13.6000004       6.21570517E-10
  -13.5900002       3.14746496E-09
  -13.5799999       6.06614980E-09
  -13.5699997       8.70428885E-09
  -13.5600004       1.02376463E-08
  -13.5500002       9.89204452E-09
  -13.5400000       7.17638793E-09
  -13.5299997       2.08709494E-09
  -13.5200005      -4.77874851E-09
  -13.5100002      -1.22499308E-08
  -13.5000000      -1.87638243E-08
  -13.4899998      -2.26824302E-08
  -13.4799995      -2.26789165E-08
  -13.4700003      -1.81045170E-08
  -13.4600000      -9.23881505E-09
  -13.4499998       2.65564126E-09
  -13.4399996       1.55099560E-08
  -13.4300003       2.68379097E-08
  -13.4200001       3.42600082E-08
  -13.4099998       3.60437902E-08
  -13.3999996       3.15280602E-08
  -13.3900003       2.13171010E-08
  -13.3800001       7.18497617E-09
  -13.3699999      -8.29975555E-09
  -13.3599997      -2.23440466E-08
  -13.3500004      -3.25544427E-08
  -13.3400002      -3.74568891E-08
  -13.3299999      -3.67735460E-08
  -13.3199997      -3.13839728E-08
  -13.3100004      -2.29817214E-08
  -13.3000002      -1.35257912E-08
  -13.2900000      -4.64858907E-09
  -13.2799997       2.79974266E-09
  -13.2700005       8.92517438E-09
  -13.2600002       1.46165098E-08
  -13.2500000       2.10643094E-08
  -13.2399998       2.91140836E-08
  -13.2299995       3.86597883E-08
  -13.2200003       4.82949112E-08
  -13.2100000       5.53784751E-08
  -13.1999998       5.65663392E-08
  -13.1899996       4.87161813E-08
  -13.1800003       2.99519023E-08
  -13.1700001       5.93319893E-10
  -13.1599998      -3.63444848E-08
  -13.1499996      -7.52939258E-08
  -13.1400003      -1.08982711E-07
  -13.1300001      -1.29863452E-07
  -13.1199999      -1.31833119E-07
  -13.1099997      -1.11841338E-07
  -13.1000004      -7.09725967E-08
  -13.0900002      -1.46827821E-08
  -13.0799999       4.79495803E-08
  -13.0699997       1.05861986E-07
  -13.0600004       1.48220522E-07
  -13.0500002       1.66730800E-07
  -13.0400000       1.57521200E-07
  -13.0299997       1.22147881E-07
  -13.0200005       6.74563196E-08
  -13.0100002       4.29089031E-09
  -13.0000000      -5.46920766E-08
  -12.9899998      -9.76489503E-08
  -12.9799995      -1.16039409E-07
  -12.9700003      -1.06448617E-07
  -12.9600000      -7.13518915E-08
  -12.9499998      -1.86668689E-08
  -12.9399996       3.97945179E-08
  -12.9300003       9.06284896E-08
  -12.9200001       1.21419575E-07
  -12.9099998       1.23073235E-07
  -12.8999996       9.14720388E-08
  -12.8900003       2.81936128E-08
  -12.8800001      -5.97624208E-08
  -12.8699999      -1.61096523E-07
  -12.8599997      -2.61884566E-07
  -12.8500004      -3.47463299E-07
  -12.8400002      -4.04204229E-07
  -12.8299999      -4.20929439E-07
  -12.8199997      -3.89877584E-07
  -12.8100004      -3.07218016E-07
  -12.8000002      -1.73230490E-07
  -12.7900000       7.72152209E-09
  -12.7799997       2.27283564E-07
  -12.7700005       4.73211202E-07
  -12.7600002       7.29476540E-07
  -12.7500000       9.76473075E-07
  -12.7399998       1.19144829E-06
  -12.7299995       1.34931906E-06
  -12.7200003       1.42399438E-06
  -12.7100000       1.39026440E-06
  -12.6999998       1.22623180E-06
  -12.6899996       9.16142653E-07
  -12.6800003       4.53362873E-07
  -12.6700001      -1.56811112E-07
  -12.6599998      -8.94923005E-07
  -12.6499996      -1.72609180E-06
  -12.6400003      -2.60005481E-06
  -12.6300001      -3.45275384E-06
  -12.6199999      -4.20954575E-06
  -12.6099997      -4.78991842E-06
  -12.6000004      -5.11338612E-06
  -12.5900002      -5.10608470E-06
  -12.5799999      -4.70747000E-06
  -12.5699997      -3.87650334E-06
  -12.5600004      -2.59672765E-06
  -12.5500002      -8.79830054E-07
  -12.5400000       1.23253744E-06
  -12.5299997       3.66867948E-06
  -12.5200005       6.32834417E-06
  -12.5100002       9.08540005E-06
  -12.5000000       1.17913251E-05
  -12.4899998       1.42790295E-05
  -12.4799995       1.63667701E-05
  -12.4700003       1.78619484E-05
  -12.4600000       1.85646823E-05
  -12.4499998       1.82713866E-05
  -12.4399996       1.67783837E-05
  -12.4300003       1.38861997E-05
  -12.4200001       9.40449354E-06
  -12.4099998       3.15827901E-06
  -12.3999996      -5.00450824E-06
  -12.3900003      -1.52033590E-05
  -12.3800001      -2.75141865E-05
  -12.3699999      -4.19558855E-05
  -12.3599997      -5.84761292E-05
  -12.3500004      -7.69356411E-05
  -12.3400002      -9.70932742E-05
  -12.3299999      -1.18593118E-04
  -12.3199997      -1.40954915E-04
  -12.3100004      -1.63570730E-04
  -12.3000002      -1.85709912E-04
  -12.2900000      -2.06533121E-04
  -12.2799997      -2.25116950E-04
  -12.2700005      -2.40489608E-04
  -12.2600002      -2.51673191E-04
  -12.2500000      -2.57734122E-04
  -12.2399998      -2.57833366E-04
  -12.2299995      -2.51273857E-04
  -12.2200003      -2.37542088E-04
  -12.2100000      -2.16336455E-04
  -12.1999998      -1.87579615E-04
  -12.1899996      -1.51420958E-04
  -12.1800003      -1.08216758E-04
  -12.1700001      -5.85060297E-05
  -12.1599998      -2.97547331E-06
  -12.1499996       5.75793420E-05
  -12.1400003       1.22286277E-04
  -12.1300001       1.90230101E-04
  -12.1199999       2.60473258E-04
  -12.1099997       3.32067342E-04
  -12.1000004       4.04063932E-04
  -12.0900002       4.75515553E-04
  -12.0799999       5.45479706E-04
  -12.0699997       6.13017299E-04
  -12.0600004       6.77199860E-04
  -12.0500002       7.37118360E-04
  -12.0400000       7.91889324E-04
  -12.0299997       8.40661523E-04
  -12.0200005       8.82624066E-04
  -12.0100002       9.17004480E-04
  -12.0000000       9.43064224E-04
  -11.9899998       9.60091013E-04
  -11.9799995       9.67393047E-04
  -11.9700003       9.64295818E-04
  -11.9600000       9.50149843E-04
  -11.9499998       9.24349995E-04
  -11.9399996       8.86367867E-04
  -11.9300003       8.35791754E-04
  -11.9200001       7.72375322E-04
  -11.9099998       6.96078758E-04
  -11.8999996       6.07102818E-04
  -11.8900003       5.05903794E-04
  -11.8800001       3.93181224E-04
  -11.8699999       2.69857934E-04
  -11.8599997       1.37025840E-04
  -11.8500004      -4.09637778E-06
  -11.8400002      -1.52229593E-04
  -11.8299999      -3.06067173E-04
  -11.8199997      -4.64304816E-04
  -11.8100004      -6.25648070E-04
  -11.8000002      -7.88802281E-04
  -11.7900000      -9.52452945E-04
  -11.7799997      -1.11524272E-03
  -11.7700005      -1.27575442E-03
  -11.7600002      -1.43251289E-03
  -11.7500000      -1.58399623E-03
  -11.7399998      -1.72866276E-03
  -11.7299995      -1.86499592E-03
  -11.7200003      -1.99153670E-03
  -11.7100000      -2.10692571E-03
  -11.6999998      -2.20991345E-03
  -11.6899996      -2.29937350E-03
  -11.6800003      -2.37429654E-03
  -11.6700001      -2.43376428E-03
  -11.6599998      -2.47694249E-03
  -11.6499996      -2.50305654E-03
  -11.6400003      -2.51139794E-03
  -11.6300001      -2.50132103E-03
  -11.6199999      -2.47227168E-03
  -11.6099997      -2.42379773E-03
  -11.6000004      -2.35557789E-03
  -11.5900002      -2.26742658E-03
  -11.5799999      -2.15930562E-03
  -11.5699997      -2.03129835E-03
  -11.5600004      -1.88360712E-03
  -11.5500002      -1.71652786E-03
  -11.5400000      -1.53042690E-03
  -11.5299997      -1.32573163E-03
  -11.5200005      -1.10294251E-03
  -11.5100002      -8.62631132E-04
  -11.5000000      -6.05470443E-04
  -11.4899998      -3.32248281E-04
  -11.4799995      -4.38872521E-05
  -11.4700003       2.58550164E-04
  -11.4600000       5.73869213E-04
  -11.4499998       9.00750922E-04
  -11.4399996       1.23778940E-03
  -11.4300003       1.58351276E-03
  -11.4200001       1.93641626E-03
  -11.4099998       2.29499326E-03
  -11.3999996       2.65773549E-03
  -11.3900003       3.02317855E-03
  -11.3800001       3.38988588E-03
  -11.3699999       3.75647866E-03
  -11.3599997       4.12165746E-03
  -11.3500004       4.48420178E-03
  -11.3400002       4.84303571E-03
  -11.3299999       5.19723166E-03
  -11.3199997       5.54604130E-03
  -11.3100004       5.88893192E-03
  -11.3000002       6.22556778E-03
  -11.2900000       6.55581104E-03
  -11.2799997       6.87967893E-03
  -11.2700005       7.19730044E-03
  -11.2600002       7.50885392E-03
  -11.2500000       7.81449676E-03
  -11.2399998       8.11432675E-03
  -11.2299995       8.40831921E-03
  -11.2200003       8.69631954E-03
  -11.2100000       8.97803530E-03
  -11.1999998       9.25307628E-03
  -11.1899996       9.52097494E-03
  -11.1800003       9.78125911E-03
  -11.1700001       1.00334929E-02
  -11.1599998       1.02773262E-02
  -11.1499996       1.05125150E-02
  -11.1400003       1.07389390E-02
  -11.1300001       1.09565984E-02
  -11.1199999       1.11655835E-02
  -11.1099997       1.13660563E-02
  -11.1000004       1.15582459E-02
  -11.0900002       1.17424093E-02
  -11.0799999       1.19188530E-02
  -11.0699997       1.20879551E-02
  -11.0600004       1.22501487E-02
  -11.0500002       1.24059636E-02
  -11.0400000       1.25560081E-02
  -11.0299997       1.27009340E-02
  -11.0200005       1.28414128E-02
  -11.0100002       1.29780527E-02
  -11.0000000       1.31113231E-02
  -10.9899998       1.32415053E-02
  -10.9799995       1.33686364E-02
  -10.9700003       1.34924743E-02
  -10.9600000       1.36125423E-02
  -10.9499998       1.37281660E-02
  -10.9399996       1.38385203E-02
  -10.9300003       1.39427418E-02
  -10.9200001       1.40399775E-02
  -10.9099998       1.41294394E-02
  -10.8999996       1.42104356E-02
  -10.8900003       1.42823784E-02
  -10.8800001       1.43447313E-02
  -10.8699999       1.43970270E-02
  -10.8599997       1.44388191E-02
  -10.8500004       1.44696720E-02
  -10.8400002       1.44891981E-02
  -10.8299999       1.44970464E-02
  -10.8199997       1.44929849E-02
  -10.8100004       1.44769009E-02
  -10.8000002       1.44488551E-02
  -10.7900000       1.44090857E-02
  -10.7799997       1.43579636E-02
  -10.7700005       1.42960018E-02
  -10.7600002       1.42238010E-02
  -10.7500000       1.41419955E-02
  -10.7399998       1.40512018E-02
  -10.7299995       1.39520830E-02
  -10.7200003       1.38452929E-02
  -10.7100000       1.37315160E-02
  -10.6999998       1.36115663E-02
  -10.6899996       1.34863807E-02
  -10.6800003       1.33570703E-02
  -10.6700001       1.32249501E-02
  -10.6599998       1.30915083E-02
  -10.6499996       1.29583711E-02
  -10.6400003       1.28272669E-02
  -10.6300001       1.26999365E-02
  -10.6199999       1.25780897E-02
  -10.6099997       1.24633731E-02
  -10.6000004       1.23573197E-02
  -10.5900002       1.22613842E-02
  -10.5799999       1.21768946E-02
  -10.5699997       1.21051138E-02
  -10.5600004       1.20472368E-02
  -10.5500002       1.20043326E-02
  -10.5400000       1.19773773E-02
  -10.5299997       1.19671607E-02
  -10.5200005       1.19742248E-02
  -10.5100002       1.19988173E-02
  -10.5000000       1.20407986E-02
  -10.4899998       1.20996041E-02
  -10.4799995       1.21742832E-02
  -10.4700003       1.22635067E-02
  -10.4600000       1.23655638E-02
  -10.4499998       1.24785686E-02
  -10.4399996       1.26005039E-02
  -10.4300003       1.27293104E-02
  -10.4200001       1.28630130E-02
  -10.4099998       1.29997768E-02
  -10.3999996       1.31379617E-02
  -10.3900003       1.32760629E-02
  -10.3800001       1.34128584E-02
  -10.3699999       1.35472203E-02
  -10.3599997       1.36781922E-02
  -10.3500004       1.38049247E-02
  -10.3400002       1.39266662E-02
  -10.3299999       1.40427481E-02
  -10.3199997       1.41526153E-02
  -10.3100004       1.42558198E-02
  -10.3000002       1.43520329E-02
  -10.2900000       1.44410562E-02
  -10.2799997       1.45228254E-02
  -10.2700005       1.45974020E-02
  -10.2600002       1.46649247E-02
  -10.2500000       1.47255994E-02
  -10.2399998       1.47796581E-02
  -10.2299995       1.48273688E-02
  -10.2200003       1.48690054E-02
  -10.2100000       1.49048418E-02
  -10.1999998       1.49352457E-02
  -10.1899996       1.49607165E-02
  -10.1800003       1.49818463E-02
  -10.1700001       1.49995014E-02
  -10.1599998       1.50147397E-02
  -10.1499996       1.50288744E-02
  -10.1400003       1.50433900E-02
  -10.1300001       1.50599955E-02
  -10.1199999       1.50804715E-02
  -10.1099997       1.51067572E-02
  -10.1000004       1.51408082E-02
  -10.0900002       1.51846446E-02
  -10.0799999       1.52402762E-02
  -10.0699997       1.53097576E-02
  -10.0600004       1.53951095E-02
  -10.0500002       1.54982898E-02
  -10.0400000       1.56211918E-02
  -10.0299997       1.57654751E-02
  -10.0200005       1.59325879E-02
  -10.0100002       1.61237009E-02
  -10.0000000       1.63396280E-02
  -9.98999977       1.65808685E-02
  -9.97999954       1.68476887E-02
  -9.97000027       1.71400495E-02
  -9.96000004       1.74579136E-02
  -9.94999981       1.78012457E-02
  -9.93999958       1.81700289E-02
  -9.93000031       1.85644906E-02
  -9.92000008       1.89849809E-02
  -9.90999985       1.94319338E-02
  -9.89999962       1.99060105E-02
  -9.89000034       2.04077139E-02
  -9.88000011       2.09376607E-02
  -9.86999989       2.14962997E-02
  -9.85999966       2.20839120E-02
  -9.85000038       2.27006339E-02
  -9.84000015       2.33463161E-02
  -9.82999992       2.40206793E-02
  -9.81999969       2.47231219E-02
  -9.81000042       2.54529193E-02
  -9.80000019       2.62089968E-02
  -9.78999996       2.69900616E-02
  -9.77999973       2.77947038E-02
  -9.77000046       2.86211241E-02
  -9.76000023       2.94674877E-02
  -9.75000000       3.03318072E-02
  -9.73999977       3.12120318E-02
  -9.72999954       3.21059972E-02
  -9.72000027       3.30115594E-02
  -9.71000004       3.39264870E-02
  -9.69999981       3.48486044E-02
  -9.68999958       3.57755348E-02
  -9.68000031       3.67048755E-02
  -9.67000008       3.76341343E-02
  -9.65999985       3.85607854E-02
  -9.64999962       3.94822285E-02
  -9.64000034       4.03959006E-02
  -9.63000011       4.12993431E-02
  -9.61999989       4.21902984E-02
  -9.60999966       4.30665836E-02
  -9.60000038       4.39261496E-02
  -9.59000015       4.47670780E-02
  -9.57999992       4.55876216E-02
  -9.56999969       4.63860929E-02
  -9.56000042       4.71607298E-02
  -9.55000019       4.79099452E-02
  -9.53999996       4.86320145E-02
  -9.52999973       4.93253358E-02
  -9.52000046       4.99884598E-02
  -9.51000023       5.06200120E-02
  -9.50000000       5.12188673E-02
  -9.48999977       5.17840870E-02
  -9.47999954       5.23152426E-02
  -9.47000027       5.28121553E-02
  -9.46000004       5.32750227E-02
  -9.44999981       5.37046716E-02
  -9.43999958       5.41023761E-02
  -9.43000031       5.44698276E-02
  -9.42000008       5.48095033E-02
  -9.40999985       5.51242344E-02
  -9.39999962       5.54175638E-02
  -9.39000034       5.56934550E-02
  -9.38000011       5.59564829E-02
  -9.36999989       5.62116690E-02
  -9.35999966       5.64644895E-02
  -9.35000038       5.67208864E-02
  -9.34000015       5.69872186E-02
  -9.32999992       5.72699904E-02
  -9.31999969       5.75761087E-02
  -9.31000042       5.79126701E-02
  -9.30000019       5.82865737E-02
  -9.28999996       5.87050393E-02
  -9.27999973       5.91749735E-02
  -9.27000046       5.97030558E-02
  -9.26000023       6.02955446E-02
  -9.25000000       6.09583408E-02
  -9.23999977       6.16967864E-02
  -9.22999954       6.25157431E-02
  -9.22000027       6.34191781E-02
  -9.21000004       6.44103959E-02
  -9.19999981       6.54918179E-02
  -9.18999958       6.66649267E-02
  -9.18000031       6.79305494E-02
  -9.17000008       6.92881346E-02
  -9.15999985       7.07364231E-02
  -9.14999962       7.22732991E-02
  -9.14000034       7.38953650E-02
  -9.13000011       7.55987763E-02
  -9.11999989       7.73783997E-02
  -9.10999966       7.92284459E-02
  -9.10000038       8.11422244E-02
  -9.09000015       8.31124485E-02
  -9.07999992       8.51309076E-02
  -9.06999969       8.71887431E-02
  -9.06000042       8.92766118E-02
  -9.05000019       9.13845226E-02
  -9.03999996       9.35020372E-02
  -9.02999973       9.56181735E-02
  -9.02000046       9.77218747E-02
  -9.01000023       9.98018086E-02
  -9.00000000      0.101846300    
  -8.98999977      0.103843801    
  -8.97999954      0.105782762    
  -8.97000027      0.107652023    
  -8.96000004      0.109440878    
  -8.94999981      0.111139096    
  -8.93999958      0.112737462    
  -8.93000031      0.114227742    
  -8.92000008      0.115602523    
  -8.90999985      0.116855815    
  -8.89999962      0.117982484    
  -8.89000034      0.118978694    
  -8.88000011      0.119841635    
  -8.86999989      0.120569639    
  -8.85999966      0.121162243    
  -8.85000038      0.121619932    
  -8.84000015      0.121944211    
  -8.82999992      0.122138098    
  -8.81999969      0.122205518    
  -8.81000042      0.122151338    
  -8.80000019      0.121981621    
  -8.78999996      0.121703289    
  -8.77999973      0.121324137    
  -8.77000046      0.120852448    
  -8.76000023      0.120297126    
  -8.75000000      0.119667426    
  -8.73999977      0.118973061    
  -8.72999954      0.118223548    
  -8.72000027      0.117428891    
  -8.71000004      0.116598934    
  -8.69999981      0.115743525    
  -8.68999958      0.114872396    
  -8.68000031      0.113994829    
  -8.67000008      0.113120072    
  -8.65999985      0.112256616    
  -8.64999962      0.111413062    
  -8.64000034      0.110596687    
  -8.63000011      0.109814651    
  -8.61999989      0.109073460    
  -8.60999966      0.108379029    
  -8.60000038      0.107735768    
  -8.59000015      0.107148550    
  -8.57999992      0.106620632    
  -8.56999969      0.106155053    
  -8.56000042      0.105754152    
  -8.55000019      0.105419800    
  -8.53999996      0.105153531    
  -8.52999973      0.104956582    
  -8.52000046      0.104829669    
  -8.51000023      0.104773618    
  -8.50000000      0.104788795    
  -8.48999977      0.104875416    
  -8.47999954      0.105033465    
  -8.47000027      0.105262578    
  -8.46000004      0.105562314    
  -8.44999981      0.105931729    
  -8.43999958      0.106369980    
  -8.43000031      0.106875800    
  -8.42000008      0.107447959    
  -8.40999985      0.108084984    
  -8.39999962      0.108785406    
  -8.39000034      0.109547675    
  -8.38000011      0.110370100    
  -8.36999989      0.111251108    
  -8.35999966      0.112189002    
  -8.35000038      0.113182187    
  -8.34000015      0.114229389    
  -8.32999992      0.115329407    
  -8.31999969      0.116481625    
  -8.31000042      0.117685199    
  -8.30000019      0.118940338    
  -8.28999996      0.120247088    
  -8.27999973      0.121606126    
  -8.27000046      0.123018295    
  -8.26000023      0.124484852    
  -8.25000000      0.126006782    
  -8.23999977      0.127586588    
  -8.22999954      0.129225791    
  -8.22000027      0.130927458    
  -8.21000004      0.132694483    
  -8.19999981      0.134529695    
  -8.18999958      0.136436880    
  -8.18000031      0.138419747    
  -8.17000008      0.140482187    
  -8.15999985      0.142627925    
  -8.14999962      0.144860893    
  -8.14000034      0.147184402    
  -8.13000011      0.149602443    
  -8.11999989      0.152117565    
  -8.10999966      0.154732823    
  -8.10000038      0.157449827    
  -8.09000015      0.160269842    
  -8.07999992      0.163193569    
  -8.06999969      0.166220456    
  -8.06000042      0.169349074    
  -8.05000019      0.172576472    
  -8.03999996      0.175899729    
  -8.02999973      0.179315045    
  -8.02000046      0.182817250    
  -8.01000023      0.186401159    
  -8.00000000      0.190060019    
  -7.98999977      0.193787739    
  -7.98000002      0.197575971    
  -7.96999979      0.201417387    
  -7.96000004      0.205303252    
  -7.94999981      0.209224999    
  -7.94000006      0.213173166    
  -7.92999983      0.217138618    
  -7.92000008      0.221112460    
  -7.90999985      0.225085139    
  -7.90000010      0.229047775    
  -7.88999987      0.232991844    
  -7.88000011      0.236908853    
  -7.86999989      0.240790904    
  -7.86000013      0.244630709    
  -7.84999990      0.248420402    
  -7.84000015      0.252153933    
  -7.82999992      0.255826145    
  -7.82000017      0.259431928    
  -7.80999994      0.262967259    
  -7.80000019      0.266429007    
  -7.78999996      0.269814640    
  -7.78000021      0.273123175    
  -7.76999998      0.276353359    
  -7.76000023      0.279505342    
  -7.75000000      0.282580256    
  -7.73999977      0.285579592    
  -7.73000002      0.288506657    
  -7.71999979      0.291364193    
  -7.71000004      0.294156492    
  -7.69999981      0.296888411    
  -7.69000006      0.299565196    
  -7.67999983      0.302192867    
  -7.67000008      0.304776967    
  -7.65999985      0.307324558    
  -7.65000010      0.309841633    
  -7.63999987      0.312335730    
  -7.63000011      0.314814270    
  -7.61999989      0.317285120    
  -7.61000013      0.319755584    
  -7.59999990      0.322234541    
  -7.59000015      0.324729741    
  -7.57999992      0.327249318    
  -7.57000017      0.329801232    
  -7.55999994      0.332392693    
  -7.55000019      0.335031211    
  -7.53999996      0.337722987    
  -7.53000021      0.340474248    
  -7.51999998      0.343291044    
  -7.51000023      0.346179605    
  -7.50000000      0.349145740    
  -7.48999977      0.352193862    
  -7.48000002      0.355330080    
  -7.46999979      0.358557910    
  -7.46000004      0.361882418    
  -7.44999981      0.365307242    
  -7.44000006      0.368834496    