  -16.0000000       0.00000000    
  -15.9899998       0.00000000    
  -15.9799995       0.00000000    
  -15.9700003       0.00000000    
  -15.9600000       0.00000000    
  -15.9499998       0.00000000    
  -15.9399996       0.00000000    
  -15.9300003       0.00000000    
  -15.9200001       0.00000000    
  -15.9099998       0.00000000    
  -15.8999996       0.00000000    
  -15.8900003       0.00000000    
  -15.8800001       1.40052775E-40
  -15.8699999       2.88320382E-39
  -15.8599997       3.05429452E-38
  -15.8500004       2.21615218E-37
  -15.8400002       1.23157221E-36
  -15.8299999       5.52682374E-36
  -15.8199997       2.04728843E-35
  -15.8100004       6.24279852E-35
  -15.8000002       1.50674430E-34
  -15.7900000       2.46488033E-34
  -15.7799997       1.96115592E-35
  -15.7700005      -1.77203496E-33
  -15.7600002      -8.49346537E-33
  -15.7500000      -2.71761393E-32
  -15.7399998      -6.86808141E-32
  -15.7299995      -1.42032008E-31
  -15.7200003      -2.35599114E-31
  -15.7100000      -2.79038731E-31
  -15.6999998      -9.33508436E-32
  -15.6899996       6.29711995E-31
  -15.6800003       2.22677769E-30
  -15.6700001       4.71576736E-30
  -15.6599998       7.14604795E-30
  -15.6499996       6.86934298E-30
  -15.6400003      -5.10252099E-31
  -15.6300001      -1.91734361E-29
  -15.6199999      -4.78329257E-29
  -15.6099997      -7.16998501E-29
  -15.6000004      -5.65652907E-29
  -15.5900002       4.39955284E-29
  -15.5799999       2.54045447E-28
  -15.5699997       5.07696944E-28
  -15.5600004       5.73134122E-28
  -15.5500002       4.47842749E-29
  -15.5400000      -1.47203949E-27
  -15.5299997      -3.87880596E-27
  -15.5200005      -5.86984004E-27
  -15.5100002      -4.42190742E-27
  -15.5000000       4.61708077E-27
  -15.4899998       2.37602270E-26
  -15.4799995       4.85597074E-26
  -15.4700003       6.15080826E-26
  -15.4600000       3.03778871E-26
  -15.4499998      -8.07792827E-26
  -15.4399996      -2.80824178E-25
  -15.4300003      -5.03429435E-25
  -15.4200001      -5.64567585E-25
  -15.4099998      -1.74040453E-25
  -15.3999996       9.37180462E-25
  -15.3900003       2.73903333E-24
  -15.3800001       4.53218142E-24
  -15.3699999       4.70046162E-24
  -15.3599997       9.58630970E-25
  -15.3500004      -8.50946704E-24
  -15.3400002      -2.29178908E-23
  -15.3299999      -3.63636762E-23
  -15.3199997      -3.65705818E-23
  -15.3100004      -7.36924039E-24
  -15.3000002       6.28490027E-23
  -15.2900000       1.66753205E-22
  -15.2799997       2.62513850E-22
  -15.2700005       2.67780210E-22
  -15.2600002       7.78916083E-23
  -15.2500000      -3.80001795E-22
  -15.2399998      -1.05996057E-21
  -15.2299995      -1.70751707E-21
  -15.2200003      -1.82889189E-21
  -15.2100000      -7.98755013E-22
  -15.1999998       1.83511978E-21
  -15.1899996       5.87349570E-21
  -15.1800003       9.97689032E-21
  -15.1700001       1.14853551E-20
  -15.1599998       6.94625808E-21
  -15.1499996      -6.36350368E-21
  -15.1400003      -2.80313124E-20
  -15.1300001      -5.19906958E-20
  -15.1199999      -6.53855449E-20
  -15.1099997      -5.06865228E-20
  -15.1000004       7.55235529E-21
  -15.0900002       1.11627080E-19
  -15.0799999       2.38502589E-19
  -15.0699997       3.32878572E-19
  -15.0600004       3.13664226E-19
  -15.0500002       1.00397431E-19
  -15.0400000      -3.40479172E-19
  -15.0299997      -9.40957238E-19
  -15.0200005      -1.49294355E-18
  -15.0100002      -1.65891785E-18
  -15.0000000      -1.06094930E-18
  -14.9899998       5.45272290E-19
  -14.9799995       3.04603015E-18
  -14.9700003       5.77960110E-18
  -14.9600000       7.50349182E-18
  -14.9499998       6.63968572E-18
  -14.9399996       1.85274623E-18
  -14.9300003      -7.11975281E-18
  -14.9200001      -1.86425533E-17
  -14.9099998      -2.87771933E-17
  -14.8999996      -3.17513576E-17
  -14.8900003      -2.16013237E-17
  -14.8800001       5.10726208E-18
  -14.8699999       4.61462656E-17
  -14.8599997       9.13173647E-17
  -14.8500004       1.22511722E-16
  -14.8400002       1.17426255E-16
  -14.8299999       5.72460798E-17
  -14.8199997      -6.30320097E-17
  -14.8100004      -2.24836611E-16
  -14.8000002      -3.81416422E-16
  -14.7900000      -4.63049989E-16
  -14.7799997      -3.94784137E-16
  -14.7700005      -1.25365826E-16
  -14.7600002       3.39351548E-16
  -14.7500000       9.10302497E-16
  -14.7399998       1.41062368E-15
  -14.7299995       1.60448528E-15
  -14.7200003       1.26306917E-15
  -14.7100000       2.58220773E-16
  -14.6999998      -1.34075913E-15
  -14.6899996      -3.20342715E-15
  -14.6800003      -4.74638681E-15
  -14.6700001      -5.24082663E-15
  -14.6599998      -4.02080865E-15
  -14.6499996      -7.56871478E-16
  -14.6400003       4.27855823E-15
  -14.6300001       1.00533502E-14
  -14.6199999       1.48250298E-14
  -14.6099997       1.64622564E-14
  -14.6000004       1.30329029E-14
  -14.5900002       3.55946623E-15
  -14.5799999      -1.12523762E-14
  -14.5699997      -2.85706110E-14
  -14.5600004      -4.35388318E-14
  -14.5500002      -5.01010603E-14
  -14.5400000      -4.25541492E-14
  -14.5299997      -1.75966995E-14
  -14.5200005       2.36089021E-14
  -14.5100002       7.40353078E-14
  -14.5000000       1.20768914E-13
  -14.4899998       1.46919965E-13
  -14.4799995       1.35599295E-13
  -14.4700003       7.54739221E-14
  -14.4600000      -3.33032111E-14
  -14.4499998      -1.74597126E-13
  -14.4399996      -3.15287130E-13
  -14.4300003      -4.09478658E-13
  -14.4200001      -4.08591780E-13
  -14.4099998      -2.76279000E-13
  -14.3999996      -5.07682834E-15
  -14.3900003       3.70114204E-13
  -14.3800001       7.67476631E-13
  -14.3699999       1.06758699E-12
  -14.3599997       1.13870252E-12
  -14.3500004       8.75476883E-13
  -14.3400002       2.43000851E-13
  -14.3299999      -6.86722597E-13
  -14.3199997      -1.72086878E-12
  -14.3100004      -2.56707242E-12
  -14.3000002      -2.89493798E-12
  -14.2900000      -2.43083093E-12
  -14.2799997      -1.06529716E-12
  -14.2700005       1.05869838E-12
  -14.2600002       3.51233387E-12
  -14.2500000       5.63079488E-12
  -14.2399998       6.65558927E-12
  -14.2299995       5.95012928E-12
  -14.2200003       3.23899718E-12
  -14.2100000      -1.20138209E-12
  -14.1999998      -6.47717427E-12
  -14.1899996      -1.11932208E-11
  -14.1800003      -1.37621095E-11
  -14.1700001      -1.28564962E-11
  -14.1599998      -7.89434750E-12
  -14.1499996       5.92703187E-13
  -14.1400003       1.08566741E-11
  -14.1300001       2.01943809E-11
  -14.1199999       2.55744939E-11
  -14.1099997       2.45131051E-11
  -14.1000004       1.59719668E-11
  -14.0900002       9.94978947E-13
  -14.0799999      -1.71784739E-11
  -14.0699997      -3.36720131E-11
  -14.0600004      -4.31638440E-11
  -14.0500002      -4.14599986E-11
  -14.0400000      -2.70235466E-11
  -14.0299997      -1.96292570E-12
  -14.0200005       2.79399195E-11
  -14.0100002       5.43533829E-11
  -14.0000000       6.85306950E-11
  -13.9899998       6.39653677E-11
  -13.9799995       3.88227644E-11
  -13.9700003      -2.65791555E-12
  -13.9600000      -5.04126914E-11
  -13.9499998      -9.06596742E-11
  -13.9399996      -1.09523488E-10
  -13.9300003      -9.73053998E-11
  -13.9200001      -5.21850375E-11
  -13.9099998       1.78773836E-11
  -13.8999996       9.59081911E-11
  -13.8900003       1.59543309E-10
  -13.8800001       1.86851312E-10
  -13.8699999       1.62941563E-10
  -13.8599997       8.55028826E-11
  -13.8500004      -3.25203163E-11
  -13.8400002      -1.64302821E-10
  -13.8299999      -2.74721607E-10
  -13.8199997      -3.29092920E-10
  -13.8100004      -3.02970482E-10
  -13.8000002      -1.90353441E-10
  -13.7900000      -7.80280614E-12
  -13.7799997       2.07153614E-10
  -13.7700005       4.03515971E-10
  -13.7600002       5.28764366E-10
  -13.7500000       5.42451362E-10
  -13.7399998       4.27907904E-10
  -13.7299995       1.98740788E-10
  -13.7200003      -1.02037857E-10
  -13.7100000      -4.10582041E-10
  -13.6999998      -6.56733778E-10
  -13.6899996      -7.81017973E-10
  -13.6800003      -7.49739715E-10
  -13.6700001      -5.64075009E-10
  -13.6599998      -2.60475863E-10
  -13.6499996       9.80316522E-11
  -13.6400003       4.37558073E-10
  -13.6300001       6.91902979E-10
  -13.6199999       8.18795531E-10
  -13.6099997       8.09119105E-10
  -13.6000004       6.86301793E-10
  -13.5900002       4.95904262E-10
  -13.5799999       2.88504415E-10
  -13.5699997       1.01323970E-10
  -13.5600004      -5.51230624E-11
  -13.5500002      -2.00161498E-10
  -13.5400000      -3.73598541E-10
  -13.5299997      -6.15628049E-10
  -13.5200005      -9.41775435E-10
  -13.5100002      -1.32139077E-09
  -13.5000000      -1.66854863E-09
  -13.4899998      -1.85173499E-09
  -13.4799995      -1.72369674E-09
  -13.4700003      -1.16645482E-09
  -13.4600000      -1.40520498E-10
  -13.4499998       1.27627509E-09
  -13.4399996       2.87478152E-09
  -13.4300003       4.33521308E-09
  -13.4200001       5.28403499E-09
  -13.4099998       5.37839107E-09
  -13.3999996       4.39998971E-09
  -13.3900003       2.33467889E-09
  -13.3800001      -5.85998361E-10
  -13.3699999      -3.89822707E-09
  -13.3599997      -6.97897296E-09
  -13.3500004      -9.16813025E-09
  -13.3400002      -9.91501281E-09
  -13.3299999      -8.91526142E-09
  -13.3199997      -6.20308027E-09
  -13.3100004      -2.17176677E-09
  -13.3000002       2.48853982E-09
  -13.2900000       6.92672497E-09
  -13.2799997       1.03115383E-08
  -13.2700005       1.20153363E-08
  -13.2600002       1.17553878E-08
  -13.2500000       9.65583347E-09
  -13.2399998       6.21215213E-09
  -13.2299995       2.16459317E-09
  -13.2200003      -1.68871239E-09
  -13.2100000      -4.69089612E-09
  -13.1999998      -6.48458975E-09
  -13.1899996      -7.08504500E-09
  -13.1800003      -6.84569557E-09
  -13.1700001      -6.32283159E-09
  -13.1599998      -6.07513018E-09
  -13.1499996      -6.45452447E-09
  -13.1400003      -7.45130091E-09
  -13.1300001      -8.64513883E-09
  -13.1199999      -9.28726340E-09
  -13.1099997      -8.50310045E-09
  -13.1000004      -5.56868773E-09
  -13.0900002      -1.88374150E-10
  -13.0799999       7.30688088E-09
  -13.0699997       1.59076059E-08
  -13.0600004       2.40540885E-08
  -13.0500002       2.99330090E-08
  -13.0400000       3.18843298E-08
  -13.0299997       2.88252622E-08
  -13.0200005       2.05849595E-08
  -13.0100002       8.05682543E-09
  -13.0000000      -6.88608770E-09
  -12.9899998      -2.17123191E-08
  -12.9799995      -3.37309949E-08
  -12.9700003      -4.06626768E-08
  -12.9600000      -4.11529726E-08
  -12.9499998      -3.51067904E-08
  -12.9399996      -2.37585702E-08
  -12.9300003      -9.45219725E-09
  -12.9200001       4.82942975E-09
  -12.9099998       1.60873075E-08
  -12.8999996       2.19482370E-08
  -12.8900003       2.11873026E-08
  -12.8800001       1.40188519E-08
  -12.8699999       2.09506035E-09
  -12.8599997      -1.17855912E-08
  -12.8500004      -2.41974352E-08
  -12.8400002      -3.17273852E-08
  -12.8299999      -3.16098863E-08
  -12.8199997      -2.22401031E-08
  -12.8100004      -3.48086981E-09
  -12.8000002       2.32747173E-08
  -12.7900000       5.52737802E-08
  -12.7799997       8.87552929E-08
  -12.7700005       1.19406295E-07
  -12.7600002       1.42841628E-07
  -12.7500000       1.55038890E-07
  -12.7399998       1.52686269E-07
  -12.7299995       1.33431485E-07
  -12.7200003       9.60457953E-08
  -12.7100000       4.05346938E-08
  -12.6999998      -3.17712221E-08
  -12.6899996      -1.18123012E-07
  -12.6800003      -2.14257881E-07
  -12.6700001      -3.14327792E-07
  -12.6599998      -4.10904335E-07
  -12.6499996      -4.95124993E-07
  -12.6400003      -5.57044075E-07
  -12.6300001      -5.86232318E-07
  -12.6199999      -5.72628551E-07
  -12.6099997      -5.07601271E-07
  -12.6000004      -3.85120927E-07
  -12.5900002      -2.02906605E-07
  -12.5799999       3.66178305E-08
  -12.5699997       3.25712762E-07
  -12.5600004       6.51178482E-07
  -12.5500002       9.94735274E-07
  -12.5400000       1.33390540E-06
  -12.5299997       1.64329617E-06
  -12.5200005       1.89611535E-06
  -12.5100002       2.06572190E-06
  -12.5000000       2.12701593E-06
  -12.4899998       2.05752622E-06
  -12.4799995       1.83812563E-06
  -12.4700003       1.45340243E-06
  -12.4600000       8.91806053E-07
  -12.4499998       1.45738255E-07
  -12.4399996      -7.88230295E-07
  -12.4300003      -1.90885498E-06
  -12.4200001      -3.20938079E-06
  -12.4099998      -4.67640166E-06
  -12.3999996      -6.28860471E-06
  -12.3900003      -8.01563510E-06
  -12.3800001      -9.81738413E-06
  -12.3699999      -1.16439869E-05
  -12.3599997      -1.34366774E-05
  -12.3500004      -1.51295935E-05
  -12.3400002      -1.66523932E-05
  -12.3299999      -1.79334438E-05
  -12.3199997      -1.89032962E-05
  -12.3100004      -1.94980275E-05
  -12.3000002      -1.96622314E-05
  -12.2900000      -1.93514479E-05
  -12.2799997      -1.85339668E-05
  -12.2700005      -1.71921438E-05
  -12.2600002      -1.53233104E-05
  -12.2500000      -1.29404743E-05
  -12.2399998      -1.00728212E-05
  -12.2299995      -6.76600757E-06
  -12.2200003      -3.08197468E-06
  -12.2100000       9.01979604E-07
  -12.1999998       5.09523534E-06
  -12.1899996       9.39718666E-06
  -12.1800003       1.37019324E-05
  -12.1700001       1.79040417E-05
  -12.1599998       2.19048816E-05
  -12.1499996       2.56186941E-05
  -12.1400003       2.89775635E-05
  -12.1300001       3.19344217E-05
  -12.1199999       3.44635628E-05
  -12.1099997       3.65584092E-05
  -12.1000004       3.82269427E-05
  -12.0900002       3.94853851E-05
  -12.0799999       4.03513914E-05
  -12.0699997       4.08378983E-05
  -12.0600004       4.09487839E-05
  -12.0500002       4.06771724E-05
  -12.0400000       4.00066529E-05
  -12.0299997       3.89151210E-05
  -12.0200005       3.73803778E-05
  -12.0100002       3.53862924E-05
  -12.0000000       3.29281429E-05
  -11.9899998       3.00160973E-05
  -11.9799995       2.66759798E-05
  -11.9700003       2.29474135E-05
  -11.9600000       1.88797603E-05
  -11.9499998       1.45270087E-05
  -11.9399996       9.94289985E-06
  -11.9300003       5.17747640E-06
  -11.9200001       2.75917529E-07
  -11.9099998      -4.72020520E-06
  -11.8999996      -9.76970387E-06
  -11.8900003      -1.48277322E-05
  -11.8800001      -1.98422276E-05
  -11.8699999      -2.47521548E-05
  -11.8599997      -2.94883812E-05
  -11.8500004      -3.39773178E-05
  -11.8400002      -3.81466525E-05
  -11.8299999      -4.19319585E-05
  -11.8199997      -4.52825152E-05
  -11.8100004      -4.81649404E-05
  -11.8000002      -5.05636744E-05
  -11.7900000      -5.24781426E-05
  -11.7799997      -5.39173780E-05
  -11.7700005      -5.48934513E-05
  -11.7600002      -5.54155195E-05
  -11.7500000      -5.54859980E-05
  -11.7399998      -5.50999066E-05
  -11.7299995      -5.42474190E-05
  -11.7200003      -5.29189892E-05
  -11.7100000      -5.11112994E-05
  -11.6999998      -4.88325895E-05
  -11.6899996      -4.61054588E-05
  -11.6800003      -4.29666143E-05
  -11.6700001      -3.94632407E-05
  -11.6599998      -3.56471282E-05
  -11.6499996      -3.15680918E-05
  -11.6400003      -2.72683646E-05
  -11.6300001      -2.27795372E-05
  -11.6199999      -1.81227369E-05
  -11.6099997      -1.33119447E-05
  -11.6000004      -8.35932224E-06
  -11.5900002      -3.28106830E-06
  -11.5799999       1.89795958E-06
  -11.5699997       7.14207317E-06
  -11.5600004       1.24056378E-05
  -11.5500002       1.76366302E-05
  -11.5400000       2.27817363E-05
  -11.5299997       2.77914551E-05
  -11.5200005       3.26236914E-05
  -11.5100002       3.72448048E-05
  -11.5000000       4.16278708E-05
  -11.4899998       4.57488059E-05
  -11.4799995       4.95815148E-05
  -11.4700003       5.30937286E-05
  -11.4600000       5.62449532E-05
  -11.4499998       5.89872325E-05
  -11.4399996       6.12689691E-05
  -11.4300003       6.30409777E-05
  -11.4200001       6.42634186E-05
  -11.4099998       6.49121503E-05
  -11.3999996       6.49830617E-05
  -11.3900003       6.44936226E-05
  -11.3800001       6.34814060E-05
  -11.3699999       6.20002174E-05
  -11.3599997       6.01148749E-05
  -11.3500004       5.78956460E-05
  -11.3400002       5.54137514E-05
  -11.3299999       5.27381962E-05
  -11.3199997       4.99343732E-05
  -11.3100004       4.70638915E-05
  -11.3000002       4.41849406E-05
  -11.2900000       4.13524431E-05
  -11.2799997       3.86172578E-05
  -11.2700005       3.60242157E-05
  -11.2600002       3.36089361E-05
  -11.2500000       3.13941418E-05
  -11.2399998       2.93862286E-05
  -11.2299995       2.75730235E-05
  -11.2200003       2.59237568E-05
  -11.2100000       2.43916875E-05
  -11.1999998       2.29195193E-05
  -11.1899996       2.14471693E-05
  -11.1800003       1.99208898E-05
  -11.1700001       1.83023276E-05
  -11.1599998       1.65760248E-05
  -11.1499996       1.47538312E-05
  -11.1400003       1.28753800E-05
  -11.1300001       1.10042129E-05
  -11.1199999       9.22017625E-06
  -11.1099997       7.60933654E-06
  -11.1000004       6.25325538E-06
  -11.0900002       5.21959373E-06
  -11.0799999       4.55573581E-06
  -11.0699997       4.28637350E-06
  -11.0600004       4.41509292E-06
  -11.0500002       4.92897107E-06
  -11.0400000       5.80465303E-06
  -11.0299997       7.01390582E-06
  -11.0200005       8.52700305E-06
  -11.0100002       1.03130415E-05
  -11.0000000       1.23372829E-05
  -10.9899998       1.45564527E-05
  -10.9799995       1.69138366E-05
  -10.9700003       1.93360320E-05
  -10.9600000       2.17329507E-05
  -10.9499998       2.40017744E-05
  -10.9399996       2.60345787E-05
  -10.9300003       2.77283034E-05
  -10.9200001       2.89951440E-05
  -10.9099998       2.97712795E-05
  -10.8999996       3.00222218E-05
  -10.8900003       2.97438310E-05
  -10.8800001       2.89592208E-05
  -10.8699999       2.77123527E-05
  -10.8599997       2.60599390E-05
  -10.8500004       2.40632962E-05
  -10.8400002       2.17816450E-05
  -10.8299999       1.92677107E-05
  -10.8199997       1.65657802E-05
  -10.8100004       1.37119896E-05
  -10.8000002       1.07360984E-05
  -10.7900000       7.66393077E-06
  -10.7799997       4.51986352E-06
  -10.7700005       1.32895786E-06
  -10.7600002      -1.88127012E-06
  -10.7500000      -5.07946106E-06
  -10.7399998      -8.22922084E-06
  -10.7299995      -1.12879152E-05
  -10.7200003      -1.42056351E-05
  -10.7100000      -1.69244431E-05
  -10.6999998      -1.93781925E-05
  -10.6899996      -2.14934516E-05
  -10.6800003      -2.31915001E-05
  -10.6700001      -2.43917639E-05
  -10.6599998      -2.50163630E-05
  -10.6499996      -2.49954828E-05
  -10.6400003      -2.42729366E-05
  -10.6300001      -2.28111367E-05
  -10.6199999      -2.05946599E-05
  -10.6099997      -1.76317262E-05
  -10.6000004      -1.39534059E-05
  -10.5900002      -9.61032492E-06
  -10.5799999      -4.66764959E-06
  -10.5699997       8.00861187E-07
  -10.5600004       6.71832368E-06
  -10.5500002       1.30088447E-05
  -10.5400000       1.95990906E-05
  -10.5299997       2.64172704E-05
  -10.5200005       3.33899116E-05
  -10.5100002       4.04374769E-05
  -10.5000000       4.74703993E-05
  -10.4899998       5.43869501E-05
  -10.4799995       6.10740099E-05
  -10.4700003       6.74110124E-05
  -10.4600000       7.32767658E-05
  -10.4499998       7.85576776E-05
  -10.4399996       8.31557845E-05
  -10.4300003       8.69951909E-05
  -10.4200001       9.00257583E-05
  -10.4099998       9.22236286E-05
  -10.3999996       9.35892604E-05
  -10.3900003       9.41439284E-05
  -10.3800001       9.39258171E-05
  -10.3699999       9.29868620E-05
  -10.3599997       9.13905387E-05
  -10.3500004       8.92106764E-05
  -10.3400002       8.65301627E-05
  -10.3299999       8.34388557E-05
  -10.3199997       8.00298294E-05
  -10.3100004       7.63938879E-05
  -10.3000002       7.26126455E-05
  -10.2900000       6.87515203E-05
  -10.2799997       6.48539572E-05
  -10.2700005       6.09383678E-05
  -10.2600002       5.69986551E-05
  -10.2500000       5.30086654E-05
  -10.2399998       4.89298836E-05
  -10.2299995       4.47213497E-05
  -10.2200003       4.03498052E-05
  -10.2100000       3.57988283E-05
  -10.1999998       3.10753348E-05
  -10.1899996       2.62127724E-05
  -10.1800003       2.12706509E-05
  -10.1700001       1.63307523E-05
  -10.1599998       1.14910026E-05
  -10.1499996       6.85773375E-06
  -10.1400003       2.53798362E-06
  -10.1300001      -1.36755216E-06
  -10.1199999      -4.76963214E-06
  -10.1099997      -7.59337991E-06
  -10.1000004      -9.77891159E-06
  -10.0900002      -1.12802381E-05
  -10.0799999      -1.20632258E-05
  -10.0699997      -1.21036855E-05
  -10.0600004      -1.13869964E-05
  -10.0500002      -9.90967237E-06
  -10.0400000      -7.68314112E-06
  -10.0299997      -4.73880391E-06
  -10.0200005      -1.13297767E-06
  -10.0100002       3.04996956E-06
  -10.0000000       7.69876988E-06
  -9.98999977       1.26815012E-05
  -9.97999954       1.78575483E-05
  -9.97000027       2.30939604E-05
  -9.96000004       2.82838628E-05
  -9.94999981       3.33637290E-05
  -9.93999958       3.83256156E-05
  -9.93000031       4.32216984E-05
  -9.92000008       4.81589232E-05
  -9.90999985       5.32845297E-05
  -9.89999962       5.87637987E-05
  -9.89000034       6.47543056E-05
  -9.88000011       7.13806803E-05
  -9.86999989       7.87145182E-05
  -9.85999966       8.67628405E-05
  -9.85000038       9.54662173E-05
  -9.84000015       1.04706764E-04
  -9.82999992       1.14323055E-04
  -9.81999969       1.24128783E-04
  -9.81000042       1.33931710E-04
  -9.80000019       1.43549172E-04
  -9.78999996       1.52819237E-04
  -9.77999973       1.61606891E-04
  -9.77000046       1.69806575E-04
  -9.76000023       1.77342561E-04
  -9.75000000       1.84169156E-04
  -9.73999977       1.90271297E-04
  -9.72999954       1.95664426E-04
  -9.72000027       2.00393304E-04
  -9.71000004       2.04526834E-04
  -9.69999981       2.08147801E-04
  -9.68999958       2.11338353E-04
  -9.68000031       2.14161555E-04
  -9.67000008       2.16643399E-04
  -9.65999985       2.18759495E-04
  -9.64999962       2.20429501E-04
  -9.64000034       2.21522088E-04
  -9.63000011       2.21870287E-04
  -9.61999989       2.21295122E-04
  -9.60999966       2.19631518E-04
  -9.60000038       2.16752509E-04
  -9.59000015       2.12586092E-04
  -9.57999992       2.07121397E-04
  -9.56999969       2.00403985E-04
  -9.56000042       1.92521955E-04
  -9.55000019       1.83586759E-04
  -9.53999996       1.73712877E-04
  -9.52999973       1.63000659E-04
  -9.52000046       1.51524335E-04
  -9.51000023       1.39327458E-04
  -9.50000000       1.26423969E-04
  -9.48999977       1.12805385E-04
  -9.47999954       9.84522558E-05
  -9.47000027       8.33487429E-05
  -9.46000004       6.74991024E-05
  -9.44999981       5.09463243E-05
  -9.43999958       3.37888596E-05
  -9.43000031       1.61949374E-05
  -9.42000008      -1.58952162E-06
  -9.40999985      -1.92419357E-05
  -9.39999962      -3.63747495E-05
  -9.39000034      -5.25570285E-05
  -9.38000011      -6.73439790E-05
  -9.36999989      -8.03085422E-05
  -9.35999966      -9.10708259E-05
  -9.35000038      -9.93196518E-05
  -9.34000015      -1.04823062E-04
  -9.32999992      -1.07427586E-04
  -9.31999969      -1.07048843E-04
  -9.31000042      -1.03656588E-04
  -9.30000019      -9.72600392E-05
  -9.28999996      -8.78962237E-05
  -9.27999973      -7.56238442E-05
  -9.27000046      -6.05211753E-05
  -9.26000023      -4.26875122E-05
  -9.25000000      -2.22441631E-05
  -9.23999977       6.65773086E-07
  -9.22999954       2.58796663E-05
  -9.22000027       5.32187260E-05
  -9.21000004       8.24899762E-05
  -9.19999981       1.13485650E-04
  -9.18999958       1.45978280E-04
  -9.18000031       1.79713548E-04
  -9.17000008       2.14401734E-04
  -9.15999985       2.49712350E-04
  -9.14999962       2.85273301E-04
  -9.14000034       3.20676860E-04
  -9.13000011       3.55490862E-04
  -9.11999989       3.89273919E-04
  -9.10999966       4.21591772E-04
  -9.10000038       4.52030974E-04
  -9.09000015       4.80209041E-04
  -9.07999992       5.05781441E-04
  -9.06999969       5.28445060E-04
  -9.06000042       5.47940261E-04
  -9.05000019       5.64053305E-04
  -9.03999996       5.76618128E-04
  -9.02999973       5.85516682E-04
  -9.02000046       5.90677839E-04
  -9.01000023       5.92072960E-04
  -9.00000000       5.89708739E-04
  -8.98999977       5.83619403E-04
  -8.97999954       5.73860307E-04
  -8.97000027       5.60506363E-04
  -8.96000004       5.43656584E-04
  -8.94999981       5.23442402E-04
  -8.93999958       5.00040886E-04
  -8.93000031       4.73685883E-04
  -8.92000008       4.44673060E-04
  -8.90999985       4.13358066E-04
  -8.89999962       3.80144775E-04
  -8.89000034       3.45467532E-04
  -8.88000011       3.09770607E-04
  -8.86999989       2.73490645E-04
  -8.85999966       2.37045286E-04
  -8.85000038       2.00830313E-04
  -8.84000015       1.65224017E-04
  -8.82999992       1.30595989E-04
  -8.81999969       9.73158021E-05
  -8.81000042       6.57575147E-05
  -8.80000019       3.62975697E-05
  -8.78999996       9.30627812E-06
  -8.77999973      -1.48655390E-05
  -8.77000046      -3.59025034E-05
  -8.76000023      -5.35392028E-05
  -8.75000000      -6.75717456E-05
  -8.73999977      -7.78648100E-05
  -8.72999954      -8.43559028E-05
  -8.72000027      -8.70559306E-05
  -8.71000004      -8.60485889E-05
  -8.69999981      -8.14889063E-05
  -8.68999958      -7.35992871E-05
  -8.68000031      -6.26634283E-05
  -8.67000008      -4.90177590E-05
  -8.65999985      -3.30374933E-05
  -8.64999962      -1.51198865E-05
  -8.64000034       4.33594096E-06
  -8.63000011       2.49484528E-05
  -8.61999989       4.63722317E-05
  -8.60999966       6.83123653E-05
  -8.60000038       9.05330016E-05
  -8.59000015       1.12858455E-04
  -8.57999992       1.35166425E-04
  -8.56999969       1.57375005E-04
  -8.56000042       1.79424009E-04
  -8.55000019       2.01255025E-04
  -8.53999996       2.22791656E-04
  -8.52999973       2.43926828E-04
  -8.52000046       2.64517235E-04
  -8.51000023       2.84387410E-04
  -8.50000000       3.03344656E-04
  -8.48999977       3.21197993E-04
  -8.47999954       3.37780162E-04
  -8.47000027       3.52964271E-04
  -8.46000004       3.66673019E-04
  -8.44999981       3.78877972E-04
  -8.43999958       3.89588473E-04
  -8.43000031       3.98836477E-04
  -8.42000008       4.06659790E-04
  -8.40999985       4.13090514E-04
  -8.39999962       4.18150827E-04
  -8.39000034       4.21857229E-04
  -8.38000011       4.24229424E-04
  -8.36999989       4.25301696E-04
  -8.35999966       4.25130711E-04
  -8.35000038       4.23798949E-04
  -8.34000015       4.21411241E-04
  -8.32999992       4.18089505E-04
  -8.31999969       4.13967122E-04
  -8.31000042       4.09186585E-04
  -8.30000019       4.03903570E-04
  -8.28999996       3.98294564E-04
  -8.27999973       3.92565737E-04
  -8.27000046       3.86959175E-04
  -8.26000023       3.81750899E-04
  -8.25000000       3.77240212E-04
  -8.23999977       3.73732182E-04
  -8.22999954       3.71516391E-04
  -8.22000027       3.70847178E-04
  -8.21000004       3.71932052E-04
  -8.19999981       3.74928728E-04
  -8.18999958       3.79951001E-04
  -8.18000031       3.87081847E-04
  -8.17000008       3.96385469E-04
  -8.15999985       4.07915475E-04
  -8.14999962       4.21712437E-04
  -8.14000034       4.37795941E-04
  -8.13000011       4.56148904E-04
  -8.11999989       4.76698217E-04
  -8.10999966       4.99304093E-04
  -8.10000038       5.23753639E-04
  -8.09000015       5.49765187E-04
  -8.07999992       5.77002822E-04
  -8.06999969       6.05094072E-04
  -8.06000042       6.33651449E-04
  -8.05000019       6.62288046E-04
  -8.03999996       6.90630171E-04
  -8.02999973       7.18322757E-04
  -8.02000046       7.45029072E-04
  -8.01000023       7.70428975E-04
  -8.00000000       7.94218271E-04
  -7.98999977       8.16108950E-04
  -7.98000002       8.35836225E-04
  -7.96999979       8.53165751E-04
  -7.96000004       8.67905503E-04
  -7.94999981       8.79912928E-04
  -7.94000006       8.89100193E-04
  -7.92999983       8.95433186E-04
  -7.92000008       8.98923783E-04
  -7.90999985       8.99619481E-04
  -7.90000010       8.97590071E-04
  -7.88999987       8.92919372E-04
  -7.88000011       8.85700108E-04
  -7.86999989       8.76036123E-04
  -7.86000013       8.64053436E-04
  -7.84999990       8.49910430E-04
  -7.84000015       8.33810773E-04
  -7.82999992       8.16010288E-04
  -7.82000017       7.96812470E-04
  -7.80999994       7.76560220E-04
  -7.80000019       7.55615358E-04
  -7.78999996       7.34336325E-04
  -7.78000021       7.13059970E-04
  -7.76999998       6.92086236E-04
  -7.76000023       6.71673217E-04
  -7.75000000       6.52040588E-04
  -7.73999977       6.33375719E-04
  -7.73000002       6.15843921E-04
  -7.71999979       5.99595543E-04
  -7.71000004       5.84766560E-04
  -7.69999981       5.71478158E-04
  -7.69000006       5.59834531E-04
  -7.67999983       5.49920660E-04
  -7.67000008       5.41807618E-04
  -7.65999985       5.35556697E-04
  -7.65000010       5.31229423E-04
  -7.63999987       5.28895005E-04
  -7.63000011       5.28628938E-04
  -7.61999989       5.30506193E-04
  -7.61000013       5.34587307E-04
  -7.59999990       5.40898705E-04
  -7.59000015       5.49418211E-04
  -7.57999992       5.60067827E-04
  -7.57000017       5.72716293E-04
  -7.55999994       5.87195100E-04
  -7.55000019       6.03320368E-04
  -7.53999996       6.20917359E-04
  -7.53000021       6.39839738E-04
  -7.51999998       6.59978483E-04
  -7.51000023       6.81263162E-04
  -7.50000000       7.03649130E-04
  -7.48999977       7.27106817E-04
  -7.48000002       7.51604384E-04
  -7.46999979       7.77101668E-04
  -7.46000004       8.03543313E-04
  -7.44999981       8.30859062E-04
  -7.44000006       8.58963409E-04