  -16.0000000       0.00000000    
  -15.9899998       0.00000000    
  -15.9799995       0.00000000    
  -15.9700003       0.00000000    
  -15.9600000       0.00000000    
  -15.9499998       0.00000000    
  -15.9399996       0.00000000    
  -15.9300003       0.00000000    
  -15.9200001       0.00000000    
  -15.9099998       0.00000000    
  -15.8999996       0.00000000    
  -15.8900003       0.00000000    
  -15.8800001       0.00000000    
  -15.8699999       1.68155816E-44
  -15.8599997       2.69049305E-43
  -15.8500004       1.91837760E-42
  -15.8400002       7.36242213E-42
  -15.8299999       1.00024684E-41
  -15.8199997      -5.00922162E-41
  -15.8100004      -3.29104753E-40
  -15.8000002      -7.02403658E-40
  -15.7900000       1.41711072E-39
  -15.7799997       1.71572322E-38
  -15.7700005       7.45736739E-38
  -15.7600002       2.12016637E-37
  -15.7500000       4.09551336E-37
  -15.7399998       3.96208733E-37
  -15.7299995      -6.55216087E-37
  -15.7200003      -4.31074061E-36
  -15.7100000      -1.24964276E-35
  -15.6999998      -2.65836383E-35
  -15.6899996      -4.79133908E-35
  -15.6800003      -8.42985053E-35
  -15.6700001      -1.64102983E-34
  -15.6599998      -3.37870734E-34
  -15.6499996      -5.96144384E-34
  -15.6400003      -5.73813113E-34
  -15.6300001       1.04718694E-33
  -15.6199999       7.17207013E-33
  -15.6099997       2.18366222E-32
  -15.6000004       4.63530542E-32
  -15.5900002       6.94459728E-32
  -15.5799999       5.18865969E-32
  -15.5699997      -8.43242107E-32
  -15.5600004      -4.36203807E-31
  -15.5500002      -1.03004178E-30
  -15.5400000      -1.63467141E-30
  -15.5299997      -1.52284202E-30
  -15.5200005       6.21892794E-31
  -15.5100002       6.26412025E-30
  -15.5000000       1.55823772E-29
  -15.4899998       2.49229072E-29
  -15.4799995       2.40731478E-29
  -15.4700003      -3.95737189E-30
  -15.4600000      -7.62761786E-29
  -15.4499998      -1.92471625E-28
  -15.4399996      -3.06829698E-28
  -15.4300003      -3.02714058E-28
  -15.4200001       2.40944481E-30
  -15.4099998       7.80987270E-28
  -15.3999996       2.01789888E-27
  -15.3900003       3.25265725E-27
  -15.3800001       3.36470284E-27
  -15.3699999       6.52268946E-28
  -15.3599997      -6.47302127E-27
  -15.3500004      -1.79692653E-26
  -15.3400002      -3.00542323E-26
  -15.3299999      -3.35112057E-26
  -15.3199997      -1.43116209E-26
  -15.3100004       4.11309549E-26
  -15.3000002       1.34705568E-25
  -15.2900000       2.41074709E-25
  -15.2799997       2.94849311E-25
  -15.2700005       1.93211991E-25
  -15.2600002      -1.70746724E-25
  -15.2500000      -8.34732970E-25
  -15.2399998      -1.66379857E-24
  -15.2299995      -2.25830032E-24
  -15.2200003      -1.94966223E-24
  -15.2100000       2.30054412E-26
  -15.1999998       4.09305569E-24
  -15.1899996       9.74347190E-24
  -15.1800003       1.48952716E-23
  -15.1700001       1.57180236E-23
  -15.1599998       7.38557217E-24
  -15.1499996      -1.38211665E-23
  -15.1400003      -4.71471839E-23
  -15.1300001      -8.36777137E-23
  -15.1199999      -1.04311336E-22
  -15.1099997      -8.20813117E-23
  -15.1000004       8.79217349E-24
  -15.0900002       1.76721806E-22
  -15.0799999       3.92903672E-22
  -15.0699997       5.76227222E-22
  -15.0600004       5.95469420E-22
  -15.0500002       3.01483933E-22
  -15.0400000      -4.04731158E-22
  -15.0299997      -1.47755874E-21
  -15.0200005      -2.63709582E-21
  -15.0100002      -3.33645582E-21
  -15.0000000      -2.84637413E-21
  -14.9899998      -4.99373136E-22
  -14.9799995       3.91768005E-21
  -14.9700003       9.71904504E-21
  -14.9600000       1.50146109E-20
  -14.9499998       1.67961738E-20
  -14.9399996       1.16431932E-20
  -14.9300003      -2.88016555E-21
  -14.9200001      -2.63595287E-20
  -14.9099998      -5.37950934E-20
  -14.8999996      -7.49199582E-20
  -14.8900003      -7.55786008E-20
  -14.8800001      -4.18248949E-20
  -14.8699999       3.34737602E-20
  -14.8599997       1.43041177E-19
  -14.8500004       2.59495631E-19
  -14.8400002       3.35291897E-19
  -14.8299999       3.11679251E-19
  -14.8199997       1.37951160E-19
  -14.8100004      -2.01596982E-19
  -14.8000002      -6.60447212E-19
  -14.7900000      -1.11406743E-18
  -14.7799997      -1.36868623E-18
  -14.7700005      -1.20429163E-18
  -14.7600002      -4.52070955E-19
  -14.7500000       9.07917990E-19
  -14.7399998       2.65886599E-18
  -14.7299995       4.31034346E-18
  -14.7200003       5.15337906E-18
  -14.7100000       4.43117469E-18
  -14.6999998       1.61394559E-18
  -14.6899996      -3.28076209E-18
  -14.6800003      -9.42666441E-18
  -14.6700001      -1.51159730E-17
  -14.6599998      -1.79906655E-17
  -14.6499996      -1.56277877E-17
  -14.6400003      -6.41520048E-18
  -14.6300001       9.48367453E-18
  -14.6199999       2.93973902E-17
  -14.6099997       4.80163059E-17
  -14.6000004       5.81650974E-17
  -14.5900002       5.25702859E-17
  -14.5799999       2.63900692E-17
  -14.5699997      -2.00916116E-17
  -14.5600004      -7.94945119E-17
  -14.5500002      -1.37062875E-16
  -14.5400000      -1.72813065E-16
  -14.5299997      -1.66267962E-16
  -14.5200005      -1.03105760E-16
  -14.5100002       1.78382177E-17
  -14.5000000       1.79432971E-16
  -14.4899998       3.45315401E-16
  -14.4799995       4.64868516E-16
  -14.4700003       4.84437995E-16
  -14.4600000       3.63178161E-16
  -14.4499998       8.99348680E-17
  -14.4399996      -3.03836806E-16
  -14.4300003      -7.40337554E-16
  -14.4200001      -1.10469518E-15
  -14.4099998      -1.26810859E-15
  -14.3999996      -1.12170540E-15
  -14.3900003      -6.13877123E-16
  -14.3800001       2.19035639E-16
  -14.3699999       1.23935627E-15
  -14.3599997       2.22010766E-15
  -14.3500004       2.88509057E-15
  -14.3400002       2.97216916E-15
  -14.3299999       2.30732791E-15
  -14.3199997       8.71480065E-16
  -14.3100004      -1.15953199E-15
  -14.3000002      -3.41768583E-15
  -14.2900000      -5.39563714E-15
  -14.2799997      -6.54502358E-15
  -14.2700005      -6.40304265E-15
  -14.2600002      -4.72030836E-15
  -14.2500000      -1.55891618E-15
  -14.2399998       2.66705666E-15
  -14.2299995       7.22582293E-15
  -14.2200003       1.11784742E-14
  -14.2100000       1.35500648E-14
  -14.1999998       1.35307355E-14
  -14.1899996       1.06677091E-14
  -14.1800003       5.00857400E-15
  -14.1700001      -2.83601962E-15
  -14.1599998      -1.17281918E-14
  -14.1499996      -2.01383100E-14
  -14.1400003      -2.63647086E-14
  -14.1300001      -2.88092880E-14
  -14.1199999      -2.62720838E-14
  -14.1099997      -1.82237258E-14
  -14.1000004      -5.01440752E-15
  -14.0900002       1.20198464E-14
  -14.0799999       3.05877421E-14
  -14.0699997       4.76348663E-14
  -14.0600004       5.97066342E-14
  -14.0500002       6.34667557E-14
  -14.0400000       5.63245468E-14
  -14.0299997       3.70872631E-14
  -14.0200005       6.52108474E-15
  -14.0100002      -3.23154284E-14
  -14.0000000      -7.40959689E-14
  -13.9899998      -1.11701867E-13
  -13.9799995      -1.37169139E-13
  -13.9700003      -1.43030417E-13
  -13.9600000      -1.23869610E-13
  -13.9499998      -7.78160563E-14
  -13.9399996      -7.65723714E-15
  -13.9300003       7.87377365E-14
  -13.9200001       1.68906189E-13
  -13.9099998       2.47262931E-13
  -13.8999996       2.97436175E-13
  -13.8900003       3.05151683E-13
  -13.8800001       2.61193438E-13
  -13.8699999       1.63887797E-13
  -13.8599997       2.05819299E-14
  -13.8500004      -1.52282362E-13
  -13.8400002      -3.30676838E-13
  -13.8299999      -4.85982511E-13
  -13.8199997      -5.89107756E-13
  -13.8100004      -6.15142757E-13
  -13.8000002      -5.47840094E-13
  -13.7900000      -3.83203370E-13
  -13.7799997      -1.31575008E-13
  -13.7700005       1.82183790E-13
  -13.7600002       5.20569102E-13
  -13.7500000       8.37243523E-13
  -13.7399998       1.08241833E-12
  -13.7299995       1.20924961E-12
  -13.7200003       1.18057257E-12
  -13.7100000       9.75224350E-13
  -13.6999998       5.93193572E-13
  -13.6899996       5.88630503E-14
  -13.6800003      -5.78310186E-13
  -13.6700001      -1.24619705E-12
  -13.6599998      -1.85577075E-12
  -13.6499996      -2.31020953E-12
  -13.6400003      -2.51684415E-12
  -13.6300001      -2.40094056E-12
  -13.6199999      -1.91975862E-12
  -13.6099997      -1.07488888E-12
  -13.6000004       7.93927979E-14
  -13.5900002       1.43391213E-12
  -13.5799999       2.83018856E-12
  -13.5699997       4.07459006E-12
  -13.5600004       4.96053372E-12
  -13.5500002       5.29677300E-12
  -13.5400000       4.93844332E-12
  -13.5299997       3.81647665E-12
  -13.5200005       1.96053178E-12
  -13.5100002      -4.89145345E-13
  -13.5000000      -3.28442178E-12
  -13.4899998      -6.08825924E-12
  -13.4799995      -8.50943968E-12
  -13.4700003      -1.01500032E-11
  -13.4600000      -1.06602461E-11
  -13.4499998      -9.79436324E-12
  -13.4399996      -7.45909411E-12
  -13.4300003      -3.74782714E-12
  -13.4200001       1.04616706E-12
  -13.4099998       6.44157080E-12
  -13.3999996       1.18074005E-11
  -13.3900003       1.64261209E-11
  -13.3800001       1.95764446E-11
  -13.3699999       2.06276593E-11
  -13.3599997       1.91349020E-11
  -13.3500004       1.49233056E-11
  -13.3400002       8.14862153E-12
  -13.3299999      -6.76825729E-13
  -13.3199997      -1.07011604E-11
  -13.3100004      -2.07969579E-11
  -13.3000002      -2.96704813E-11
  -13.2900000      -3.60081027E-11
  -13.2799997      -3.86455798E-11
  -13.2700005      -3.67404926E-11
  -13.2600002      -2.99248855E-11
  -13.2500000      -1.84148044E-11
  -13.2399998      -3.05619831E-12
  -13.2299995       1.47068295E-11
  -13.2200003       3.29464962E-11
  -13.2100000       4.94424397E-11
  -13.1999998       6.19320775E-11
  -13.1899996       6.83932563E-11
  -13.1800003       6.73249165E-11
  -13.1700001       5.79891447E-11
  -13.1599998       4.05801191E-11
  -13.1499996       1.62923754E-11
  -13.1400003      -1.27279428E-11
  -13.1300001      -4.35516449E-11
  -13.1199999      -7.27430408E-11
  -13.1099997      -9.67189662E-11
  -13.1000004      -1.12153710E-10
  -13.0900002      -1.16386442E-10
  -13.0799999      -1.07784788E-10
  -13.0699997      -8.60212318E-11
  -13.0600004      -5.22255295E-11
  -13.0500002      -8.98793193E-12
  -13.0400000       3.97986054E-11
  -13.0299997       8.92522445E-11
  -13.0200005       1.33951711E-10
  -13.0100002       1.68484199E-10
  -13.0000000       1.88041499E-10
  -12.9899998       1.89004548E-10
  -12.9799995       1.69451606E-10
  -12.9700003       1.29526903E-10
  -12.9600000       7.16162199E-11
  -12.9499998       2.90731631E-13
  -12.9399996      -7.79959708E-11
  -12.9300003      -1.55447322E-10
  -12.9200001      -2.23660229E-10
  -12.9099998      -2.74492457E-10
  -12.8999996      -3.00973635E-10
  -12.8900003      -2.98161024E-10
  -12.8800001      -2.63836869E-10
  -12.8699999      -1.98959640E-10
  -12.8599997      -1.07799006E-10
  -12.8500004       2.28040200E-12
  -12.8400002       1.21383292E-10
  -12.8299999       2.37955433E-10
  -12.8199997       3.39882983E-10
  -12.8100004       4.15713297E-10
  -12.8000002       4.55873173E-10
  -12.7900000       4.53755311E-10
  -12.7799997       4.06557121E-10
  -12.7700005       3.15773879E-10
  -12.7600002       1.87286978E-10
  -12.7500000       3.10221848E-11
  -12.7399998      -1.39802267E-10
  -12.7299995      -3.09777232E-10
  -12.7200003      -4.62661270E-10
  -12.7100000      -5.82875082E-10
  -12.6999998      -6.56995791E-10
  -12.6899996      -6.75114242E-10
  -12.6800003      -6.31923458E-10
  -12.6700001      -5.27432598E-10
  -12.6599998      -3.67228470E-10
  -12.6499996      -1.62246092E-10
  -12.6400003       7.19476909E-11
  -12.6300001       3.16309146E-10
  -12.6199999       5.49824575E-10
  -12.6099997       7.51247453E-10
  -12.6000004       9.00922836E-10
  -12.5900002       9.82545378E-10
  -12.5799999       9.84700987E-10
  -12.5699997       9.02058261E-10
  -12.5600004       7.36104122E-10
  -12.5500002       4.95354868E-10
  -12.5400000       1.95012367E-10
  -12.5299997      -1.43918363E-10
  -12.5200005      -4.95999852E-10
  -12.5100002      -8.33132008E-10
  -12.5000000      -1.12660914E-09
  -12.4899998      -1.34932399E-09
  -12.4799995      -1.47797463E-09
  -12.4700003      -1.49511303E-09
  -12.4600000      -1.39087863E-09
  -12.4499998      -1.16426757E-09
  -12.4399996      -8.23803525E-10
  -12.4300003      -3.87505195E-10
  -12.4200001       1.17910334E-10
  -12.4099998       6.58594512E-10
  -12.3999996       1.19585053E-09
  -12.3900003       1.68899161E-09
  -12.3800001       2.09857975E-09
  -12.3699999       2.38977282E-09
  -12.3599997       2.53549226E-09
  -12.3500004       2.51909049E-09
  -12.3400002       2.33622721E-09
  -12.3299999       1.99575134E-09
  -12.3199997       1.51942336E-09
  -12.3100004       9.40456268E-10
  -12.3000002       3.00978659E-10
  -12.2900000      -3.51410595E-10
  -12.2799997      -9.67679048E-10
  -12.2700005      -1.50165058E-09
  -12.2600002      -1.91415062E-09
  -12.2500000      -2.17665841E-09
  -12.2399998      -2.27410490E-09
  -12.2299995      -2.20657959E-09
  -12.2200003      -1.98979277E-09
  -12.2100000      -1.65417979E-09
  -12.1999998      -1.24276311E-09
  -12.1899996      -8.07868994E-10
  -12.1800003      -4.06943451E-10
  -12.1700001      -9.78065059E-11
  -12.1599998       6.63267011E-11
  -12.1499996       4.16636760E-11
  -12.1400003      -2.01910350E-10
  -12.1300001      -6.77494172E-10
  -12.1199999      -1.37903211E-09
  -12.1099997      -2.28063213E-09
  -12.1000004      -3.33743544E-09
  -12.0900002      -4.48802195E-09
  -12.0799999      -5.65825298E-09
  -12.0699997      -6.76626133E-09
  -12.0600004      -7.72822073E-09
  -12.0500002      -8.46449577E-09
  -12.0400000      -8.90559448E-09
  -12.0299997      -8.99750319E-09
  -12.0200005      -8.70593553E-09
  -12.0100002      -8.01906630E-09
  -12.0000000      -6.94864166E-09
  -11.9899998      -5.52930679E-09
  -11.9799995      -3.81616916E-09
  -11.9700003      -1.88097382E-09
  -11.9600000       1.92884889E-10
  -11.9499998       2.31602870E-09
  -11.9399996       4.39904202E-09
  -11.9300003       6.35816733E-09
  -11.9200001       8.12033729E-09
  -11.9099998       9.62740909E-09
  -11.8999996       1.08390648E-08
  -11.8900003       1.17346346E-08
  -11.8800001       1.23134480E-08
  -11.8699999       1.25941675E-08
  -11.8599997       1.26128423E-08
  -11.8500004       1.24201449E-08
  -11.8400002       1.20777095E-08
  -11.8299999       1.16539498E-08
  -11.8199997       1.12195089E-08
  -11.8100004       1.08424727E-08
  -11.8000002       1.05837099E-08
  -11.7900000       1.04925322E-08
  -11.7799997       1.06028981E-08
  -11.7700005       1.09304770E-08
  -11.7600002       1.14707426E-08
  -11.7500000       1.21983348E-08
  -11.7399998       1.30676749E-08
  -11.7299995       1.40149723E-08
  -11.7200003       1.49614277E-08
  -11.7100000       1.58176938E-08
  -11.6999998       1.64889702E-08
  -11.6899996       1.68808327E-08
  -11.6800003       1.69053109E-08
  -11.6700001       1.64867426E-08
  -11.6599998       1.55671955E-08
  -11.6499996       1.41110190E-08
  -11.6400003       1.21082442E-08
  -11.6300001       9.57648538E-09
  -11.6199999       6.56104326E-09
  -11.6099997       3.13324144E-09
  -11.6000004      -6.13284368E-10
  -11.5900002      -4.56768179E-09
  -11.5799999      -8.60853522E-09
  -11.5699997      -1.26115589E-08
  -11.5600004      -1.64574949E-08
  -11.5500002      -2.00394510E-08
  -11.5400000      -2.32695179E-08
  -11.5299997      -2.60835336E-08
  -11.5200005      -2.84440969E-08
  -11.5100002      -3.03413579E-08
  -11.5000000      -3.17914797E-08
  -11.4899998      -3.28335865E-08
  -11.4799995      -3.35250654E-08
  -11.4700003      -3.39359048E-08
  -11.4600000      -3.41430706E-08
  -11.4499998      -3.42244313E-08
  -11.4399996      -3.42535564E-08
  -11.4300003      -3.42952724E-08
  -11.4200001      -3.44019142E-08
  -11.4099998      -3.46106681E-08
  -11.3999996      -3.49419302E-08
  -11.3900003      -3.53985179E-08
  -11.3800001      -3.59658294E-08
  -11.3699999      -3.66128070E-08
  -11.3599997      -3.72939013E-08
  -11.3500004      -3.79516436E-08
  -11.3400002      -3.85199428E-08
  -11.3299999      -3.89280004E-08
  -11.3199997      -3.91043322E-08
  -11.3100004      -3.89808044E-08
  -11.3000002      -3.84963208E-08
  -11.2900000      -3.75998823E-08
  -11.2799997      -3.62528922E-08
  -11.2700005      -3.44304638E-08
  -11.2600002      -3.21219069E-08
  -11.2500000      -2.93299678E-08
  -11.2399998      -2.60700688E-08
  -11.2299995      -2.23683490E-08
  -11.2200003      -1.82596782E-08
  -11.2100000      -1.37861136E-08
  -11.1999998      -8.99440344E-09
  -11.1899996      -3.93425115E-09
  -11.1800003       1.34290246E-09
  -11.1700001       6.78703982E-09
  -11.1599998       1.23500463E-08
  -11.1499996       1.79880733E-08
  -11.1400003       2.36631070E-08
  -11.1300001       2.93447862E-08
  -11.1199999       3.50115101E-08
  -11.1099997       4.06510559E-08
  -11.1000004       4.62611283E-08
  -11.0900002       5.18486765E-08
  -11.0799999       5.74287711E-08
  -11.0699997       6.30231654E-08
  -11.0600004       6.86575063E-08
  -11.0500002       7.43594981E-08
  -11.0400000       8.01564894E-08
  -11.0299997       8.60733209E-08
  -11.0200005       9.21309393E-08
  -11.0100002       9.83449766E-08
  -11.0000000       1.04726034E-07
  -10.9899998       1.11278837E-07
  -10.9799995       1.18002959E-07
  -10.9700003       1.24893603E-07
  -10.9600000       1.31942585E-07
  -10.9499998       1.39139757E-07
  -10.9399996       1.46473241E-07
  -10.9300003       1.53931836E-07
  -10.9200001       1.61506037E-07
  -10.9099998       1.69187715E-07
  -10.8999996       1.76972975E-07
  -10.8900003       1.84862429E-07
  -10.8800001       1.92860526E-07
  -10.8699999       2.00975734E-07
  -10.8599997       2.09219479E-07
  -10.8500004       2.17604452E-07
  -10.8400002       2.26142134E-07
  -10.8299999       2.34841167E-07
  -10.8199997       2.43705244E-07
  -10.8100004       2.52731155E-07
  -10.8000002       2.61907786E-07
  -10.7900000       2.71216095E-07
  -10.7799997       2.80629621E-07
  -10.7700005       2.90116617E-07
  -10.7600002       2.99640760E-07
  -10.7500000       3.09164022E-07
  -10.7399998       3.18647977E-07
  -10.7299995       3.28056245E-07
  -10.7200003       3.37355488E-07
  -10.7100000       3.46516231E-07
  -10.6999998       3.55514942E-07
  -10.6899996       3.64333800E-07
  -10.6800003       3.72961466E-07
  -10.6700001       3.81395239E-07
  -10.6599998       3.89641031E-07
  -10.6499996       3.97714587E-07
  -10.6400003       4.05641714E-07
  -10.6300001       4.13457485E-07
  -10.6199999       4.21205556E-07
  -10.6099997       4.28936744E-07
  -10.6000004       4.36705761E-07
  -10.5900002       4.44568769E-07
  -10.5799999       4.52580650E-07
  -10.5699997       4.60792137E-07
  -10.5600004       4.69247396E-07
  -10.5500002       4.77981416E-07
  -10.5400000       4.87019520E-07
  -10.5299997       4.96375378E-07
  -10.5200005       5.06049730E-07
  -10.5100002       5.16030013E-07
  -10.5000000       5.26289114E-07
  -10.4899998       5.36785137E-07
  -10.4799995       5.47460957E-07
  -10.4700003       5.58246370E-07
  -10.4600000       5.69058500E-07
  -10.4499998       5.79805601E-07
  -10.4399996       5.90390073E-07
  -10.4300003       6.00713179E-07
  -10.4200001       6.10679308E-07
  -10.4099998       6.20200353E-07
  -10.3999996       6.29199917E-07
  -10.3900003       6.37615642E-07
  -10.3800001       6.45400860E-07
  -10.3699999       6.52526921E-07
  -10.3599997       6.58980468E-07
  -10.3500004       6.64764912E-07
  -10.3400002       6.69898043E-07
  -10.3299999       6.74411126E-07
  -10.3199997       6.78346623E-07
  -10.3100004       6.81757683E-07
  -10.3000002       6.84705412E-07
  -10.2900000       6.87258421E-07
  -10.2799997       6.89491003E-07
  -10.2700005       6.91479727E-07
  -10.2600002       6.93304401E-07
  -10.2500000       6.95042161E-07
  -10.2399998       6.96769064E-07
  -10.2299995       6.98553947E-07
  -10.2200003       7.00460362E-07
  -10.2100000       7.02544241E-07
  -10.1999998       7.04852710E-07
  -10.1899996       7.07426068E-07
  -10.1800003       7.10297797E-07
  -10.1700001       7.13496320E-07
  -10.1599998       7.17045964E-07
  -10.1499996       7.20970661E-07
  -10.1400003       7.25289510E-07
  -10.1300001       7.30022009E-07
  -10.1199999       7.35184301E-07
  -10.1099997       7.40789687E-07
  -10.1000004       7.46845274E-07
  -10.0900002       7.53349354E-07
  -10.0799999       7.60291300E-07
  -10.0699997       7.67648828E-07
  -10.0600004       7.75387377E-07
  -10.0500002       7.83462042E-07
  -10.0400000       7.91814330E-07
  -10.0299997       8.00382111E-07
  -10.0200005       8.09094331E-07
  -10.0100002       8.17880789E-07
  -10.0000000       8.26671737E-07
  -9.98999977       8.35406013E-07
  -9.97999954       8.44027170E-07
  -9.97000027       8.52494054E-07
  -9.96000004       8.60774719E-07
  -9.94999981       8.68853647E-07
  -9.93999958       8.76728791E-07
  -9.93000031       8.84412941E-07
  -9.92000008       8.91934633E-07
  -9.90999985       8.99337920E-07
  -9.89999962       9.06679759E-07
  -9.89000034       9.14032341E-07
  -9.88000011       9.21482751E-07
  -9.86999989       9.29127509E-07
  -9.85999966       9.37072627E-07
  -9.85000038       9.45432930E-07
  -9.84000015       9.54324150E-07
  -9.82999992       9.63863613E-07
  -9.81999969       9.74164664E-07
  -9.81000042       9.85330871E-07
  -9.80000019       9.97459210E-07
  -9.78999996       1.01062994E-06
  -9.77999973       1.02491583E-06
  -9.77000046       1.04037440E-06
  -9.76000023       1.05704873E-06
  -9.75000000       1.07496885E-06
  -9.73999977       1.09415316E-06
  -9.72999954       1.11459826E-06
  -9.72000027       1.13628482E-06
  -9.71000004       1.15917169E-06
  -9.69999981       1.18320077E-06
  -9.68999958       1.20828713E-06
  -9.68000031       1.23432551E-06
  -9.67000008       1.26118880E-06
  -9.65999985       1.28873035E-06
  -9.64999962       1.31678735E-06
  -9.64000034       1.34518382E-06
  -9.63000011       1.37373286E-06
  -9.61999989       1.40224438E-06
  -9.60999966       1.43052318E-06
  -9.60000038       1.45837021E-06
  -9.59000015       1.48559718E-06
  -9.57999992       1.51201471E-06
  -9.56999969       1.53744668E-06
  -9.56000042       1.56172950E-06
  -9.55000019       1.58471528E-06
  -9.53999996       1.60627508E-06
  -9.52999973       1.62630909E-06
  -9.52000046       1.64473522E-06
  -9.51000023       1.66150767E-06
  -9.50000000       1.67660426E-06
  -9.48999977       1.69002965E-06
  -9.47999954       1.70182011E-06
  -9.47000027       1.71203681E-06
  -9.46000004       1.72077307E-06
  -9.44999981       1.72813850E-06
  -9.43999958       1.73426952E-06
  -9.43000031       1.73932938E-06
  -9.42000008       1.74350134E-06
  -9.40999985       1.74699130E-06
  -9.39999962       1.75002720E-06
  -9.39000034       1.75286186E-06
  -9.38000011       1.75575838E-06
  -9.36999989       1.75899834E-06
  -9.35999966       1.76287574E-06
  -9.35000038       1.76769311E-06
  -9.34000015       1.77374784E-06
  -9.32999992       1.78133791E-06
  -9.31999969       1.79074789E-06
  -9.31000042       1.80224936E-06
  -9.30000019       1.81608971E-06
  -9.28999996       1.83249301E-06
  -9.27999973       1.85165754E-06
  -9.27000046       1.87375088E-06
  -9.26000023       1.89891296E-06
  -9.25000000       1.92725361E-06
  -9.23999977       1.95885855E-06
  -9.22999954       1.99376632E-06
  -9.22000027       2.03200761E-06
  -9.21000004       2.07357334E-06
  -9.19999981       2.11843667E-06
  -9.18999958       2.16653075E-06
  -9.18000031       2.21777395E-06
  -9.17000008       2.27206533E-06
  -9.15999985       2.32928096E-06
  -9.14999962       2.38926782E-06
  -9.14000034       2.45186857E-06
  -9.13000011       2.51689971E-06
  -9.11999989       2.58415616E-06
  -9.10999966       2.65341737E-06
  -9.10000038       2.72444299E-06
  -9.09000015       2.79697292E-06
  -9.07999992       2.87072749E-06
  -9.06999969       2.94541064E-06
  -9.06000042       3.02070998E-06
  -9.05000019       3.09628831E-06
  -9.03999996       3.17179729E-06
  -9.02999973       3.24687130E-06
  -9.02000046       3.32112973E-06
  -9.01000023       3.39418807E-06
  -9.00000000       3.46566367E-06
  -8.98999977       3.53516111E-06
  -8.97999954       3.60229387E-06
  -8.97000027       3.66669087E-06
  -8.96000004       3.72802128E-06
  -8.94999981       3.78596314E-06
  -8.93999958       3.84021951E-06
  -8.93000031       3.89057413E-06
  -8.92000008       3.93679693E-06
  -8.90999985       3.97871963E-06
  -8.89999962       4.01621173E-06
  -8.89000034       4.04918273E-06
  -8.88000011       4.07758171E-06
  -8.86999989       4.10137818E-06
  -8.85999966       4.12060263E-06
  -8.85000038       4.13530142E-06
  -8.84000015       4.14556143E-06
  -8.82999992       4.15151362E-06
  -8.81999969       4.15330578E-06
  -8.81000042       4.15111163E-06
  -8.80000019       4.14515398E-06
  -8.78999996       4.13565886E-06
  -8.77999973       4.12287955E-06
  -8.77000046       4.10707526E-06
  -8.76000023       4.08853293E-06
  -8.75000000       4.06753816E-06
  -8.73999977       4.04437651E-06
  -8.72999954       4.01934949E-06
  -8.72000027       3.99274859E-06
  -8.71000004       3.96485530E-06
  -8.69999981       3.93595201E-06
  -8.68999958       3.90631658E-06
  -8.68000031       3.87621822E-06
  -8.67000008       3.84590294E-06
  -8.65999985       3.81562268E-06
  -8.64999962       3.78562163E-06
  -8.64000034       3.75610216E-06
  -8.63000011       3.72731006E-06
  -8.61999989       3.69940153E-06
  -8.60999966       3.67256916E-06
  -8.60000038       3.64696871E-06
  -8.59000015       3.62274682E-06
  -8.57999992       3.60002286E-06
  -8.56999969       3.57890963E-06
  -8.56000042       3.55950056E-06
  -8.55000019       3.54187205E-06
  -8.53999996       3.52608163E-06
  -8.52999973       3.51217386E-06
  -8.52000046       3.50015011E-06
  -8.51000023       3.49002767E-06
  -8.50000000       3.48178060E-06
  -8.48999977       3.47537480E-06
  -8.47999954       3.47077480E-06
  -8.47000027       3.46794104E-06
  -8.46000004       3.46681645E-06
  -8.44999981       3.46735806E-06
  -8.43999958       3.46948241E-06
  -8.43000031       3.47312357E-06
  -8.42000008       3.47818900E-06
  -8.40999985       3.48458752E-06
  -8.39999962       3.49224320E-06
  -8.39000034       3.50108508E-06
  -8.38000011       3.51103540E-06
  -8.36999989       3.52204142E-06
  -8.35999966       3.53407790E-06
  -8.35000038       3.54713734E-06
  -8.34000015       3.56125975E-06
  -8.32999992       3.57650947E-06
  -8.31999969       3.59295836E-06
  -8.31000042       3.61070602E-06
  -8.30000019       3.62987021E-06
  -8.28999996       3.65061464E-06
  -8.27999973       3.67308712E-06
  -8.27000046       3.69750774E-06
  -8.26000023       3.72409659E-06
  -8.25000000       3.75310174E-06
  -8.23999977       3.78478171E-06
  -8.22999954       3.81938571E-06
  -8.22000027       3.85719886E-06
  -8.21000004       3.89847128E-06
  -8.19999981       3.94344534E-06
  -8.18999958       3.99233977E-06
  -8.18000031       4.04536559E-06
  -8.17000008       4.10271468E-06
  -8.15999985       4.16456260E-06
  -8.14999962       4.23105075E-06
  -8.14000034       4.30229147E-06
  -8.13000011       4.37835797E-06
  -8.11999989       4.45932164E-06
  -8.10999966       4.54520386E-06
  -8.10000038       4.63599918E-06
  -8.09000015       4.73167165E-06
  -8.07999992       4.83214762E-06
  -8.06999969       4.93735024E-06
  -8.06000042       5.04713762E-06
  -8.05000019       5.16136015E-06
  -8.03999996       5.27987504E-06
  -8.02999973       5.40247129E-06
  -8.02000046       5.52894244E-06
  -8.01000023       5.65903520E-06
  -8.00000000       5.79251082E-06
  -7.98999977       5.92910646E-06
  -7.98000002       6.06858111E-06
  -7.96999979       6.21065647E-06
  -7.96000004       6.35511969E-06
  -7.94999981       6.50170477E-06
  -7.94000006       6.65018752E-06
  -7.92999983       6.80034645E-06
  -7.92000008       6.95193648E-06
  -7.90999985       7.10473250E-06
  -7.90000010       7.25849350E-06
  -7.88999987       7.41296299E-06
  -7.88000011       7.56791724E-06
  -7.86999989       7.72309977E-06
  -7.86000013       7.87829958E-06
  -7.84999990       8.03330113E-06
  -7.84000015       8.18786157E-06
  -7.82999992       8.34179809E-06
  -7.82000017       8.49489061E-06
  -7.80999994       8.64689537E-06
  -7.80000019       8.79760410E-06
  -7.78999996       8.94682216E-06
  -7.78000021       9.09435403E-06
  -7.76999998       9.24002143E-06
  -7.76000023       9.38368885E-06
  -7.75000000       9.52518894E-06
  -7.73999977       9.66444895E-06
  -7.73000002       9.80138429E-06
  -7.71999979       9.93595677E-06
  -7.71000004       1.00681382E-05
  -7.69999981       1.01979804E-05
  -7.69000006       1.03254706E-05
  -7.67999983       1.04507144E-05
  -7.67000008       1.05738027E-05
  -7.65999985       1.06948992E-05
  -7.65000010       1.08141894E-05
  -7.63999987       1.09318753E-05
  -7.63000011       1.10481724E-05
  -7.61999989       1.11633371E-05
  -7.61000013       1.12776297E-05
  -7.59999990       1.13912984E-05
  -7.59000015       1.15045777E-05
  -7.57999992       1.16177580E-05
  -7.57000017       1.17310774E-05
  -7.55999994       1.18447888E-05
  -7.55000019       1.19591550E-05
  -7.53999996       1.20744207E-05
  -7.53000021       1.21907979E-05
  -7.51999998       1.23084865E-05
  -7.51000023       1.24277130E-05
  -7.50000000       1.25486331E-05
  -7.48999977       1.26714103E-05
  -7.48000002       1.27961666E-05
  -7.46999979       1.29230111E-05
  -7.46000004       1.30520039E-05
  -7.44999981       1.31832476E-05
  -7.44000006       1.33168160E-05