  -16.0000000       0.00000000    
  -15.9899998       0.00000000    
  -15.9799995       0.00000000    
  -15.9700003       0.00000000    
  -15.9600000       0.00000000    
  -15.9499998       0.00000000    
  -15.9399996       0.00000000    
  -15.9300003       0.00000000    
  -15.9200001       0.00000000    
  -15.9099998       0.00000000    
  -15.8999996       0.00000000    
  -15.8900003       0.00000000    
  -15.8800001       0.00000000    
  -15.8699999      -6.13768727E-43
  -15.8599997      -3.56644472E-41
  -15.8500004      -8.77155385E-40
  -15.8400002      -1.26660832E-38
  -15.8299999      -1.27302248E-37
  -15.8199997      -9.76369435E-37
  -15.8100004      -6.04516983E-36
  -15.8000002      -3.13454723E-35
  -15.7900000      -1.39641681E-34
  -15.7799997      -5.44261782E-34
  -15.7700005      -1.88019330E-33
  -15.7600002      -5.80979450E-33
  -15.7500000      -1.61526471E-32
  -15.7399998      -4.05204716E-32
  -15.7299995      -9.16571149E-32
  -15.7200003      -1.85930257E-31
  -15.7100000      -3.33666611E-31
  -15.6999998      -5.13499520E-31
  -15.6899996      -6.24254598E-31
  -15.6800003      -4.19595953E-31
  -15.6700001       5.40168007E-31
  -15.6599998       2.83736030E-30
  -15.6499996       6.91792080E-30
  -15.6400003       1.24562370E-29
  -15.6300001       1.73674344E-29
  -15.6199999       1.68108798E-29
  -15.6099997       3.07066339E-30
  -15.6000004      -3.22728141E-29
  -15.5900002      -9.24761323E-29
  -15.5799999      -1.65975403E-28
  -15.5699997      -2.16051014E-28
  -15.5600004      -1.77664498E-28
  -15.5500002       2.67346491E-29
  -15.5400000       4.42094282E-28
  -15.5299997       1.00849059E-27
  -15.5200005       1.48976940E-27
  -15.5100002       1.46344156E-27
  -15.5000000       4.48978952E-28
  -15.4899998      -1.78083886E-27
  -15.4799995      -4.77098261E-27
  -15.4700003      -7.07909756E-27
  -15.4600000      -6.48972370E-27
  -15.4499998      -1.10420998E-27
  -15.4399996       8.75383847E-27
  -15.4300003       1.87079612E-26
  -15.4200001       2.03807114E-26
  -15.4099998       5.34681178E-27
  -15.3999996      -2.65191555E-26
  -15.3900003      -5.76019947E-26
  -15.3800001      -5.02996695E-26
  -15.3699999       3.70791465E-26
  -15.3599997       2.10373623E-25
  -15.3500004       3.86633351E-25
  -15.3400002       3.65657589E-25
  -15.3299999      -1.15013356E-25
  -15.3199997      -1.19253582E-24
  -15.3100004      -2.57812957E-24
  -15.3000002      -3.29412912E-24
  -15.2900000      -1.74371767E-24
  -15.2799997       3.55196455E-24
  -15.2700005       1.24343640E-23
  -15.2600002       2.12636700E-23
  -15.2500000       2.20210175E-23
  -15.2399998       4.23126254E-24
  -15.2299995      -3.87702763E-23
  -15.2200003      -9.97383411E-23
  -15.2100000      -1.47888953E-22
  -15.1999998      -1.28289167E-22
  -15.1899996       1.95141721E-23
  -15.1800003       3.18298913E-22
  -15.1700001       6.94259746E-22
  -15.1599998       9.32818302E-22
  -15.1499996       6.98900924E-22
  -15.1400003      -3.28604945E-22
  -15.1300001      -2.19665264E-21
  -15.1199999      -4.36440524E-21
  -15.1099997      -5.51837349E-21
  -15.1000004      -3.77768539E-21
  -15.0900002       2.48750659E-21
  -15.0799999       1.32362445E-20
  -15.0699997       2.51885560E-20
  -15.0600004       3.10799124E-20
  -15.0500002       2.10101711E-20
  -15.0400000      -1.31569183E-20
  -15.0299997      -7.06323450E-20
  -15.0200005      -1.34191016E-19
  -15.0100002      -1.67032400E-19
  -15.0000000      -1.19853714E-19
  -14.9899998       4.78150461E-20
  -14.9799995       3.33860435E-19
  -14.9700003       6.58763435E-19
  -14.9600000       8.50946339E-19
  -14.9499998       6.77858744E-19
  -14.9399996      -5.98542398E-20
  -14.9300003      -1.37914138E-18
  -14.9200001      -2.95819081E-18
  -14.9099998      -4.06187826E-18
  -14.8999996      -3.65622103E-18
  -14.8900003      -7.86930262E-19
  -14.8800001       4.80258830E-18
  -14.8699999       1.19962563E-17
  -14.8599997       1.79203353E-17
  -14.8500004       1.82775350E-17
  -14.8400002       8.72430122E-18
  -14.8299999      -1.27444809E-17
  -14.8199997      -4.30252238E-17
  -14.8100004      -7.20075679E-17
  -14.8000002      -8.31779075E-17
  -14.7900000      -5.80819955E-17
  -14.7799997       1.51771016E-17
  -14.7700005       1.31264127E-16
  -14.7600002       2.58965474E-16
  -14.7500000       3.40389137E-16
  -14.7399998       3.03403178E-16
  -14.7299995       8.92446619E-17
  -14.7200003      -3.09346411E-16
  -14.7100000      -8.12255521E-16
  -14.6999998      -1.23771324E-15
  -14.6899996      -1.32962213E-15
  -14.6800003      -8.37677204E-16
  -14.6700001       3.57970179E-16
  -14.6599998       2.11214082E-15
  -14.6499996       3.92914190E-15
  -14.6400003       4.99488299E-15
  -14.6300001       4.37699151E-15
  -14.6199999       1.39174734E-15
  -14.6099997      -3.94212141E-15
  -14.6000004      -1.05256473E-14
  -14.5900002      -1.60913441E-14
  -14.5799999      -1.75970349E-14
  -14.5699997      -1.21742817E-14
  -14.5600004       1.50858124E-15
  -14.5500002       2.18639651E-14
  -14.5400000       4.35839922E-14
  -14.5299997       5.80580031E-14
  -14.5200005       5.54239712E-14
  -14.5100002       2.81577282E-14
  -14.5000000      -2.46021262E-14
  -14.4899998      -9.34838212E-14
  -14.4799995      -1.57921419E-13
  -14.4700003      -1.89404793E-13
  -14.4600000      -1.59497551E-13
  -14.4499998      -5.14565095E-14
  -14.4399996       1.27710640E-13
  -14.4300003       3.39451476E-13
  -14.4200001       5.15113614E-13
  -14.4099998       5.69978364E-13
  -14.3999996       4.29580525E-13
  -14.3900003       6.30395733E-14
  -14.3800001      -4.86782544E-13
  -14.3699999      -1.08927483E-12
  -14.3599997      -1.54002386E-12
  -14.3500004      -1.60833770E-12
  -14.3400002      -1.11325673E-12
  -14.3299999      -1.02738752E-14
  -14.3199997       1.53965241E-12
  -14.3100004       3.15094977E-12
  -14.3000002       4.26936915E-12
  -14.2900000       4.30953493E-12
  -14.2799997       2.85308149E-12
  -14.2700005      -1.42879699E-13
  -14.2600002      -4.19792196E-12
  -14.2500000      -8.29404601E-12
  -14.2399998      -1.10444301E-11
  -14.2299995      -1.10462845E-11
  -14.2200003      -7.35475916E-12
  -14.2100000       4.68335528E-14
  -14.1999998       9.94215474E-12
  -14.1899996       1.98965670E-11
  -14.1800003       2.66828087E-11
  -14.1700001       2.70979281E-11
  -14.1599998       1.90144966E-11
  -14.1499996       2.38807758E-12
  -14.1400003      -2.01202371E-11
  -14.1300001      -4.32144563E-11
  -14.1199999      -5.98929725E-11
  -14.1099997      -6.31699554E-11
  -14.1000004      -4.82505667E-11
  -14.0900002      -1.45953978E-11
  -14.0799999       3.27994090E-11
  -14.0699997       8.34940936E-11
  -14.0600004       1.23375157E-10
  -14.0500002       1.37961628E-10
  -14.0400000       1.16606988E-10
  -14.0299997       5.65383816E-11
  -14.0200005      -3.45035805E-11
  -14.0100002      -1.38111661E-10
  -14.0000000      -2.28120980E-10
  -13.9899998      -2.76368622E-10
  -13.9799995      -2.60222011E-10
  -13.9700003      -1.70066572E-10
  -13.9600000      -1.46064272E-11
  -13.9499998       1.77926049E-10
  -13.9399996       3.63751029E-10
  -13.9300003       4.92522800E-10
  -13.9200001       5.19688625E-10
  -13.9099998       4.19396018E-10
  -13.8999996       1.94498487E-10
  -13.8900003      -1.19509735E-10
  -13.8800001      -4.58611565E-10
  -13.8699999      -7.42506112E-10
  -13.8599997      -8.92830865E-10
  -13.8500004      -8.53329185E-10
  -13.8400002      -6.06881712E-10
  -13.8299999      -1.84560214E-10
  -13.8199997       3.36562583E-10
  -13.8100004       8.47455495E-10
  -13.8000002       1.23052457E-09
  -13.7900000       1.38715561E-09
  -13.7799997       1.26261290E-09
  -13.7700005       8.61760385E-10
  -13.7600002       2.50980486E-10
  -13.7500000      -4.54817239E-10
  -13.7399998      -1.11728504E-09
  -13.7299995      -1.60560898E-09
  -13.7200003      -1.82532445E-09
  -13.7100000      -1.73743286E-09
  -13.6999998      -1.36292999E-09
  -13.6899996      -7.72172160E-10
  -13.6800003      -6.30872507E-11
  -13.6700001       6.64315380E-10
  -13.6599998       1.32854472E-09
  -13.6499996       1.87557192E-09
  -13.6400003       2.27365660E-09
  -13.6300001       2.49726462E-09
  -13.6199999       2.50821142E-09
  -13.6099997       2.24470176E-09
  -13.6000004       1.62756764E-09
  -13.5900002       5.87623061E-10
  -13.5799999      -8.89986640E-10
  -13.5699997      -2.71707901E-09
  -13.5600004      -4.66783190E-09
  -13.5500002      -6.37732134E-09
  -13.5400000      -7.38627293E-09
  -13.5299997      -7.23316962E-09
  -13.5200005      -5.57940805E-09
  -13.5100002      -2.33927233E-09
  -13.5000000       2.22251284E-09
  -13.4899998       7.46162510E-09
  -13.4799995       1.24177859E-08
  -13.4700003       1.59740470E-08
  -13.4600000       1.70890573E-08
  -13.4499998       1.50549706E-08
  -13.4399996       9.71993241E-09
  -13.4300003       1.61292291E-09
  -13.4200001      -8.07371148E-09
  -13.4099998      -1.76586052E-08
  -13.3999996      -2.52784549E-08
  -13.3900003      -2.92679445E-08
  -13.3800001      -2.85285502E-08
  -13.3699999      -2.27977299E-08
  -13.3599997      -1.27489344E-08
  -13.3500004       1.10082866E-10
  -13.3400002       1.37239065E-08
  -13.3299999       2.58976041E-08
  -13.3199997       3.47303022E-08
  -13.3100004       3.89686576E-08
  -13.3000002       3.81953953E-08
  -13.2900000       3.28094458E-08
  -13.2799997       2.38132980E-08
  -13.2700005       1.24768587E-08
  -13.2600002      -1.51356792E-11
  -13.2500000      -1.28173623E-08
  -13.2399998      -2.54922625E-08
  -13.2299995      -3.78611276E-08
  -13.2200003      -4.96782597E-08
  -13.2100000      -6.02378734E-08
  -13.1999998      -6.80630592E-08
  -13.1899996      -7.08319661E-08
  -13.1800003      -6.56459633E-08
  -13.1700001      -4.96618817E-08
  -13.1599998      -2.09976871E-08
  -13.1499996       2.02808721E-08
  -13.1400003       7.13551955E-08
  -13.1300001       1.26304116E-07
  -13.1199999       1.76420897E-07
  -13.1099997       2.11284330E-07
  -13.1000004       2.20499132E-07
  -13.0900002       1.95844663E-07
  -13.0799999       1.33435009E-07
  -13.0699997       3.54182923E-08
  -13.0600004      -8.92194549E-08
  -13.0500002      -2.25049575E-07
  -13.0400000      -3.51893874E-07
  -13.0299997      -4.47643401E-07
  -13.0200005      -4.91809033E-07
  -13.0100002      -4.69218691E-07
  -13.0000000      -3.73199839E-07
  -12.9899998      -2.07651354E-07
  -12.9799995       1.24446924E-08
  -12.9700003       2.62243816E-07
  -12.9600000       5.09893255E-07
  -12.9499998       7.20623973E-07
  -12.9399996       8.61509022E-07
  -12.9300003       9.06169532E-07
  -12.9200001       8.38762048E-07
  -12.9099998       6.56684563E-07
  -12.8999996       3.71625475E-07
  -12.8900003       8.83704931E-09
  -12.8800001      -3.95262788E-07
  -12.8699999      -7.96846336E-07
  -12.8599997      -1.14934630E-06
  -12.8500004      -1.40849954E-06
  -12.8400002      -1.53726035E-06
  -12.8299999      -1.51004588E-06
  -12.8199997      -1.31598597E-06
  -12.8100004      -9.60785997E-07
  -12.8000002      -4.67106020E-07
  -12.7900000       1.26678685E-07
  -12.7799997       7.69251358E-07
  -12.7700005       1.40052282E-06
  -12.7600002       1.95691973E-06
  -12.7500000       2.37740574E-06
  -12.7399998       2.60975230E-06
  -12.7299995       2.61647278E-06
  -12.7200003       2.37972677E-06
  -12.7100000       1.90462265E-06
  -12.6999998       1.22021027E-06
  -12.6899996       3.77867707E-07
  -12.6800003      -5.53172811E-07
  -12.6700001      -1.49283301E-06
  -12.6599998      -2.35915786E-06
  -12.6499996      -3.07812957E-06
  -12.6400003      -3.59297292E-06
  -12.6300001      -3.87141199E-06
  -12.6199999      -3.90948662E-06
  -12.6099997      -3.73090461E-06
  -12.6000004      -3.38148584E-06
  -12.5900002      -2.91916990E-06
  -12.5799999      -2.40084637E-06
  -12.5699997      -1.86805846E-06
  -12.5600004      -1.33406786E-06
  -12.5500002      -7.74921432E-07
  -12.5400000      -1.26862034E-07
  -12.5299997       7.08427422E-07
  -12.5200005       1.85029069E-06
  -12.5100002       3.41805980E-06
  -12.5000000       5.50435016E-06
  -12.4899998       8.14603573E-06
  -12.4799995       1.12958769E-05
  -12.4700003       1.47993433E-05
  -12.4600000       1.83791035E-05
  -12.4499998       2.16310145E-05
  -12.4399996       2.40319841E-05
  -12.4300003       2.49615259E-05
  -12.4200001       2.37351232E-05
  -12.4099998       1.96482015E-05
  -12.3999996       1.20280283E-05
  -12.3900003       2.88954482E-07
  -12.3800001      -1.60117233E-05
  -12.3699999      -3.71215065E-05
  -12.3599997      -6.30500144E-05
  -12.3500004      -9.35362841E-05
  -12.3400002      -1.28032261E-04
  -12.3299999      -1.65702819E-04
  -12.3199997      -2.05445263E-04
  -12.3100004      -2.45923497E-04
  -12.3000002      -2.85624585E-04
  -12.2900000      -3.22922133E-04
  -12.2799997      -3.56156990E-04
  -12.2700005      -3.83716193E-04
  -12.2600002      -4.04110295E-04
  -12.2500000      -4.16046329E-04
  -12.2399998      -4.18485433E-04
  -12.2299995      -4.10676759E-04
  -12.2200003      -3.92179965E-04
  -12.2100000      -3.62855237E-04
  -12.1999998      -3.22839536E-04
  -12.1899996      -2.72505044E-04
  -12.1800003      -2.12407744E-04
  -12.1700001      -1.43234458E-04
  -12.1599998      -6.57575656E-05
  -12.1499996       1.92093812E-05
  -12.1400003       1.10826339E-04
  -12.1300001       2.08241574E-04
  -12.1199999       3.10580013E-04
  -12.1099997       4.16928728E-04
  -12.1000004       5.26314194E-04
  -12.0900002       6.37683261E-04
  -12.0799999       7.49889645E-04
  -12.0699997       8.61686887E-04
  -12.0600004       9.71733476E-04
  -12.0500002       1.07860588E-03
  -12.0400000       1.18081691E-03
  -12.0299997       1.27683568E-03
  -12.0200005       1.36511051E-03
  -12.0100002       1.44408888E-03
  -12.0000000       1.51223200E-03
  -11.9899998       1.56804384E-03
  -11.9799995       1.61008083E-03
  -11.9700003       1.63699454E-03
  -11.9600000       1.64754689E-03
  -11.9499998       1.64064777E-03
  -11.9399996       1.61539426E-03
  -11.9300003       1.57108717E-03
  -11.9200001       1.50724524E-03
  -11.9099998       1.42361328E-03
  -11.8999996       1.32014882E-03
  -11.8900003       1.19698932E-03
  -11.8800001       1.05443818E-03
  -11.8699999       8.92924378E-04
  -11.8599997       7.12998677E-04
  -11.8500004       5.15322317E-04
  -11.8400002       3.00688640E-04
  -11.8299999       7.00515884E-05
  -11.8199997      -1.75442590E-04
  -11.8100004      -4.34410642E-04
  -11.8000002      -7.05206417E-04
  -11.7900000      -9.85916937E-04
  -11.7799997      -1.27437257E-03
  -11.7700005      -1.56817981E-03
  -11.7600002      -1.86478067E-03
  -11.7500000      -2.16150749E-03
  -11.7399998      -2.45564990E-03
  -11.7299995      -2.74450751E-03
  -11.7200003      -3.02542257E-03
  -11.7100000      -3.29580903E-03
  -11.6999998      -3.55315092E-03
  -11.6899996      -3.79500492E-03
  -11.6800003      -4.01899312E-03
  -11.6700001      -4.22279490E-03
  -11.6599998      -4.40415880E-03
  -11.6499996      -4.56090411E-03
  -11.6400003      -4.69095353E-03
  -11.6300001      -4.79234383E-03
  -11.6199999      -4.86324448E-03
  -11.6099997      -4.90198098E-03
  -11.6000004      -4.90702968E-03
  -11.5900002      -4.87701641E-03
  -11.5799999      -4.81070904E-03
  -11.5699997      -4.70700767E-03
  -11.5600004      -4.56494093E-03
  -11.5500002      -4.38366365E-03
  -11.5400000      -4.16247640E-03
  -11.5299997      -3.90085578E-03
  -11.5200005      -3.59847443E-03
  -11.5100002      -3.25523480E-03
  -11.5000000      -2.87130964E-03
  -11.4899998      -2.44714762E-03
  -11.4799995      -1.98349799E-03
  -11.4700003      -1.48139277E-03
  -11.4600000      -9.42136336E-04
  -11.4499998      -3.67283967E-04
  -11.4399996       2.41397996E-04
  -11.4300003       8.81959335E-04
  -11.4200001       1.55229622E-03
  -11.4099998       2.25018850E-03
  -11.3999996       2.97331857E-03
  -11.3900003       3.71930655E-03
  -11.3800001       4.48569888E-03
  -11.3699999       5.27005084E-03
  -11.3599997       6.06989674E-03
  -11.3500004       6.88280165E-03
  -11.3400002       7.70640699E-03
  -11.3299999       8.53843428E-03
  -11.3199997       9.37670376E-03
  -11.3100004       1.02192136E-02
  -11.3000002       1.10640861E-02
  -11.2900000       1.19095910E-02
  -11.2799997       1.27541600E-02
  -11.2700005       1.35963159E-02
  -11.2600002       1.44347036E-02
  -11.2500000       1.52680017E-02
  -11.2399998       1.60949137E-02
  -11.2299995       1.69141553E-02
  -11.2200003       1.77243873E-02
  -11.2100000       1.85242500E-02
  -11.1999998       1.93123557E-02
  -11.1899996       2.00872682E-02
  -11.1800003       2.08475739E-02
  -11.1700001       2.15918906E-02
  -11.1599998       2.23188791E-02
  -11.1499996       2.30273530E-02
  -11.1400003       2.37162113E-02
  -11.1300001       2.43845619E-02
  -11.1199999       2.50316896E-02
  -11.1099997       2.56571248E-02
  -11.1000004       2.62606014E-02
  -11.0900002       2.68421024E-02
  -11.0799999       2.74018273E-02
  -11.0699997       2.79401746E-02
  -11.0600004       2.84576882E-02
  -11.0500002       2.89550703E-02
  -11.0400000       2.94330623E-02
  -11.0299997       2.98924409E-02
  -11.0200005       3.03339940E-02
  -11.0100002       3.07584554E-02
  -11.0000000       3.11665088E-02
  -10.9899998       3.15587148E-02
  -10.9799995       3.19355913E-02
  -10.9700003       3.22975256E-02
  -10.9600000       3.26447561E-02
  -10.9499998       3.29774208E-02
  -10.9399996       3.32954153E-02
  -10.9300003       3.35984528E-02
  -10.9200001       3.38860080E-02
  -10.9099998       3.41572948E-02
  -10.8999996       3.44113037E-02
  -10.8900003       3.46467905E-02
  -10.8800001       3.48623171E-02
  -10.8699999       3.50563787E-02
  -10.8599997       3.52273881E-02
  -10.8500004       3.53737772E-02
  -10.8400002       3.54940668E-02
  -10.8299999       3.55868787E-02
  -10.8199997       3.56509872E-02
  -10.8100004       3.56853120E-02
  -10.8000002       3.56889740E-02
  -10.7900000       3.56612541E-02
  -10.7799997       3.56016718E-02
  -10.7700005       3.55099142E-02
  -10.7600002       3.53859514E-02
  -10.7500000       3.52300107E-02
  -10.7399998       3.50426584E-02
  -10.7299995       3.48246470E-02
  -10.7200003       3.45771126E-02
  -10.7100000       3.43013741E-02
  -10.6999998       3.39990370E-02
  -10.6899996       3.36717926E-02
  -10.6800003       3.33214477E-02
  -10.6700001       3.29498574E-02
  -10.6599998       3.25588547E-02
  -10.6499996       3.21501903E-02
  -10.6400003       3.17255743E-02
  -10.6300001       3.12866569E-02
  -10.6199999       3.08349859E-02
  -10.6099997       3.03720739E-02
  -10.6000004       2.98994835E-02
  -10.5900002       2.94186603E-02
  -10.5799999       2.89311297E-02
  -10.5699997       2.84384042E-02
  -10.5600004       2.79419627E-02
  -10.5500002       2.74432935E-02
  -10.5400000       2.69437656E-02
  -10.5299997       2.64447927E-02
  -10.5200005       2.59475838E-02
  -10.5100002       2.54533608E-02
  -10.5000000       2.49632560E-02
  -10.4899998       2.44783107E-02
  -10.4799995       2.39995588E-02
  -10.4700003       2.35279631E-02
  -10.4600000       2.30644830E-02
  -10.4499998       2.26100720E-02
  -10.4399996       2.21656486E-02
  -10.4300003       2.17322093E-02
  -10.4200001       2.13106759E-02
  -10.4099998       2.09020339E-02
  -10.3999996       2.05072314E-02
  -10.3900003       2.01272443E-02
  -10.3800001       1.97629631E-02
  -10.3699999       1.94152147E-02
  -10.3599997       1.90847255E-02
  -10.3500004       1.87720209E-02
  -10.3400002       1.84775479E-02
  -10.3299999       1.82014890E-02
  -10.3199997       1.79438964E-02
  -10.3100004       1.77046787E-02
  -10.3000002       1.74835529E-02
  -10.2900000       1.72801334E-02
  -10.2799997       1.70940273E-02
  -10.2700005       1.69246271E-02
  -10.2600002       1.67713221E-02
  -10.2500000       1.66335069E-02
  -10.2399998       1.65103935E-02
  -10.2299995       1.64012220E-02
  -10.2200003       1.63052529E-02
  -10.2100000       1.62217263E-02
  -10.1999998       1.61499642E-02
  -10.1899996       1.60894152E-02
  -10.1800003       1.60395671E-02
  -10.1700001       1.60002206E-02
  -10.1599998       1.59710851E-02
  -10.1499996       1.59523115E-02
  -10.1400003       1.59441363E-02
  -10.1300001       1.59470569E-02
  -10.1199999       1.59618780E-02
  -10.1099997       1.59896351E-02
  -10.1000004       1.60319079E-02
  -10.0900002       1.60904638E-02
  -10.0799999       1.61675122E-02
  -10.0699997       1.62655264E-02
  -10.0600004       1.63871534E-02
  -10.0500002       1.65352188E-02
  -10.0400000       1.67124402E-02
  -10.0299997       1.69213973E-02
  -10.0200005       1.71644222E-02
  -10.0100002       1.74435712E-02
  -10.0000000       1.77606046E-02
  -9.98999977       1.81168243E-02
  -9.97999954       1.85134038E-02
  -9.97000027       1.89512633E-02
  -9.96000004       1.94311850E-02
  -9.94999981       1.99539382E-02
  -9.93999958       2.05203500E-02
  -9.93000031       2.11312119E-02
  -9.92000008       2.17874106E-02
  -9.90999985       2.24899035E-02
  -9.89999962       2.32395604E-02
  -9.89000034       2.40371153E-02
  -9.88000011       2.48831008E-02
  -9.86999989       2.57777404E-02
  -9.85999966       2.67208274E-02
  -9.85000038       2.77117528E-02
  -9.84000015       2.87494306E-02
  -9.82999992       2.98323296E-02
  -9.81999969       3.09586022E-02
  -9.81000042       3.21261510E-02
  -9.80000019       3.33327465E-02
  -9.78999996       3.45761254E-02
  -9.77999973       3.58542241E-02
  -9.77000046       3.71651575E-02
  -9.76000023       3.85075212E-02
  -9.75000000       3.98803204E-02
  -9.73999977       4.12825383E-02
  -9.72999954       4.27139290E-02
  -9.72000027       4.41741683E-02
  -9.71000004       4.56631705E-02
  -9.69999981       4.71805520E-02
  -9.68999958       4.87259813E-02
  -9.68000031       5.02986275E-02
  -9.67000008       5.18972911E-02
  -9.65999985       5.35203926E-02
  -9.64999962       5.51659055E-02
  -9.64000034       5.68313710E-02
  -9.63000011       5.85142300E-02
  -9.61999989       6.02113232E-02
  -9.60999966       6.19193204E-02
  -9.60000038       6.36350289E-02
  -9.59000015       6.53546378E-02
  -9.57999992       6.70744926E-02
  -9.56999969       6.87909126E-02
  -9.56000042       7.05000013E-02
  -9.55000019       7.21980929E-02
  -9.53999996       7.38813207E-02
  -9.52999973       7.55461752E-02
  -9.52000046       7.71891028E-02
  -9.51000023       7.88065493E-02
  -9.50000000       8.03951025E-02
  -9.48999977       8.19513649E-02
  -9.47999954       8.34721550E-02
  -9.47000027       8.49544108E-02
  -9.46000004       8.63953158E-02
  -9.44999981       8.77926871E-02
  -9.43999958       8.91446248E-02
  -9.43000031       9.04503092E-02
  -9.42000008       9.17093679E-02
  -9.40999985       9.29224342E-02
  -9.39999962       9.40911323E-02
  -9.39000034       9.52174217E-02
  -9.38000011       9.63045284E-02
  -9.36999989       9.73556489E-02
  -9.35999966       9.83749181E-02
  -9.35000038       9.93670672E-02
  -9.34000015      0.100337051    
  -9.32999992      0.101290628    
  -9.31999969      0.102233782    
  -9.31000042      0.103173204    
  -9.30000019      0.104115851    
  -9.28999996      0.105069116    
  -9.27999973      0.106041007    
  -9.27000046      0.107039258    
  -9.26000023      0.108072273    
  -9.25000000      0.109147966    
  -9.23999977      0.110274665    
  -9.22999954      0.111460015    
  -9.22000027      0.112711504    
  -9.21000004      0.114035688    
  -9.19999981      0.115438968    
  -9.18999958      0.116926558    
  -9.18000031      0.118502766    
  -9.17000008      0.120171249    
  -9.15999985      0.121934228    
  -9.14999962      0.123793155    
  -9.14000034      0.125748158    
  -9.13000011      0.127798602    
  -9.11999989      0.129942715    
  -9.10999966      0.132177353    
  -9.10000038      0.134499013    
  -9.09000015      0.136902705    
  -9.07999992      0.139382750    
  -9.06999969      0.141932741    
  -9.06000042      0.144545630    
  -9.05000019      0.147213101    
  -9.03999996      0.149927273    
  -9.02999973      0.152678505    
  -9.02000046      0.155457675    
  -9.01000023      0.158254966    
  -9.00000000      0.161060125    
  -8.98999977      0.163863331    
  -8.97999954      0.166653797    
  -8.97000027      0.169421747    
  -8.96000004      0.172157139    
  -8.94999981      0.174850270    
  -8.93999958      0.177491188    
  -8.93000031      0.180070400    
  -8.92000008      0.182578757    
  -8.90999985      0.185006857    
  -8.89999962      0.187346146    
  -8.89000034      0.189587861    
  -8.88000011      0.191724420    
  -8.86999989      0.193748206    
  -8.85999966      0.195652395    
  -8.85000038      0.197431564    
  -8.84000015      0.199080452    
  -8.82999992      0.200595677    
  -8.81999969      0.201973960    
  -8.81000042      0.203213990    
  -8.80000019      0.204315275    
  -8.78999996      0.205278471    
  -8.77999973      0.206105694    
  -8.77000046      0.206799671    
  -8.76000023      0.207364812    
  -8.75000000      0.207806230    
  -8.73999977      0.208129793    
  -8.72999954      0.208342329    
  -8.72000027      0.208452106    
  -8.71000004      0.208467603    
  -8.69999981      0.208397806    
  -8.68999958      0.208252832    
  -8.68000031      0.208042666    
  -8.67000008      0.207778320    
  -8.65999985      0.207470179    
  -8.64999962      0.207129106    
  -8.64000034      0.206765711    
  -8.63000011      0.206390470    
  -8.61999989      0.206013829    
  -8.60999966      0.205645859    
  -8.60000038      0.205296099    
  -8.59000015      0.204974040    
  -8.57999992      0.204688132    
  -8.56999969      0.204446539    
  -8.56000042      0.204255864    
  -8.55000019      0.204122558    
  -8.53999996      0.204051420    
  -8.52999973      0.204046473    
  -8.52000046      0.204111084    
  -8.51000023      0.204249263    
  -8.50000000      0.204462782    
  -8.48999977      0.204754591    
  -8.47999954      0.205126986    
  -8.47000027      0.205581203    
  -8.46000004      0.206118047    
  -8.44999981      0.206737950    
  -8.43999958      0.207440481    
  -8.43000031      0.208224639    
  -8.42000008      0.209089085    
  -8.40999985      0.210033104    
  -8.39999962      0.211055785    
  -8.39000034      0.212156579    
  -8.38000011      0.213335901    
  -8.36999989      0.214593485    
  -8.35999966      0.215930030    
  -8.35000038      0.217346221    
  -8.34000015      0.218842179    
  -8.32999992      0.220418438    
  -8.31999969      0.222075686    
  -8.31000042      0.223815784    
  -8.30000019      0.225639522    
  -8.28999996      0.227550328    
  -8.27999973      0.229550064    
  -8.27000046      0.231641531    
  -8.26000023      0.233827263    
  -8.25000000      0.236110032    
  -8.23999977      0.238491580    
  -8.22999954      0.240974650    
  -8.22000027      0.243560195    
  -8.21000004      0.246251643    
  -8.19999981      0.249051005    
  -8.18999958      0.251961201    
  -8.18000031      0.254985690    
  -8.17000008      0.258128017    
  -8.15999985      0.261389941    
  -8.14999962      0.264775008    
  -8.14000034      0.268285364    
  -8.13000011      0.271921515    
  -8.11999989      0.275685340    
  -8.10999966      0.279576868    
  -8.10000038      0.283596665    
  -8.09000015      0.287744224    
  -8.07999992      0.292019218    
  -8.06999969      0.296419770    
  -8.06000042      0.300943404    
  -8.05000019      0.305587888    
  -8.03999996      0.310348809    
  -8.02999973      0.315220863    
  -8.02000046      0.320198536    
  -8.01000023      0.325275362    
  -8.00000000      0.330444604    
  -7.98999977      0.335699707    
  -7.98000002      0.341033429    
  -7.96999979      0.346437335    
  -7.96000004      0.351903737    
  -7.94999981      0.357424825    
  -7.94000006      0.362990737    
  -7.92999983      0.368592799    
  -7.92000008      0.374223232    
  -7.90999985      0.379873753    
  -7.90000010      0.385536015    
  -7.88999987      0.391202897    
  -7.88000011      0.396867663    
  -7.86999989      0.402523905    
  -7.86000013      0.408165574    
  -7.84999990      0.413786501    
  -7.84000015      0.419380665    
  -7.82999992      0.424943626    
  -7.82000017      0.430469185    
  -7.80999994      0.435953766    
  -7.80000019      0.441392064    
  -7.78999996      0.446781874    
  -7.78000021      0.452120602    
  -7.76999998      0.457406014    
  -7.76000023      0.462637693    
  -7.75000000      0.467814267    
  -7.73999977      0.472936779    
  -7.73000002      0.478003830    
  -7.71999979      0.483016998    
  -7.71000004      0.487976909    
  -7.69999981      0.492885023    
  -7.69000006      0.497743160    
  -7.67999983      0.502554297    
  -7.67000008      0.507322073    
  -7.65999985      0.512049556    
  -7.65000010      0.516741753    
  -7.63999987      0.521403849    
  -7.63000011      0.526040852    
  -7.61999989      0.530658364    
  -7.61000013      0.535262048    
  -7.59999990      0.539858043    
  -7.59000015      0.544452071    
  -7.57999992      0.549050927    
  -7.57000017      0.553664267    
  -7.55999994      0.558297694    
  -7.55000019      0.562961042    
  -7.53999996      0.567662537    
  -7.53000021      0.572412133    
  -7.51999998      0.577218175    
  -7.51000023      0.582090497    
  -7.50000000      0.587038696    
  -7.48999977      0.592071772    
  -7.48000002      0.597199082    
  -7.46999979      0.602430344    
  -7.46000004      0.607773662    
  -7.44999981      0.613238871    
  -7.44000006      0.618834376    