  -16.0000000       0.00000000    
  -15.9899998       0.00000000    
  -15.9799995       0.00000000    
  -15.9700003       0.00000000    
  -15.9600000       0.00000000    
  -15.9499998       0.00000000    
  -15.9399996       0.00000000    
  -15.9300003       0.00000000    
  -15.9200001       0.00000000    
  -15.9099998       0.00000000    
  -15.8999996       0.00000000    
  -15.8900003       0.00000000    
  -15.8800001       0.00000000    
  -15.8699999      -6.47399891E-43
  -15.8599997      -4.20389539E-41
  -15.8500004      -1.01666025E-39
  -15.8400002      -1.43734687E-38
  -15.8299999      -1.41739423E-37
  -15.8199997      -1.06864707E-36
  -15.8100004      -6.51093579E-36
  -15.8000002      -3.32593241E-35
  -15.7900000      -1.46111112E-34
  -15.7799997      -5.62128378E-34
  -15.7700005      -1.91871939E-33
  -15.7600002      -5.86396202E-33
  -15.7500000      -1.61422587E-32
  -15.7399998      -4.01433231E-32
  -15.7299995      -9.01504015E-32
  -15.7200003      -1.81926700E-31
  -15.7100000      -3.25849338E-31
  -15.6999998      -5.03719219E-31
  -15.6899996      -6.25932404E-31
  -15.6800003      -4.74419317E-31
  -15.6700001       3.37669004E-31
  -15.6599998       2.31875044E-30
  -15.6499996       5.85609882E-30
  -15.6400003       1.06776693E-29
  -15.6300001       1.50370546E-29
  -15.6199999       1.49254861E-29
  -15.6099997       4.04545045E-30
  -15.6000004      -2.43372093E-29
  -15.5900002      -7.26362131E-29
  -15.5799999      -1.31387495E-28
  -15.5699997      -1.71542219E-28
  -15.5600004      -1.42793526E-28
  -15.5500002       1.32672860E-29
  -15.5400000       3.28129448E-28
  -15.5299997       7.52449177E-28
  -15.5200005       1.10555630E-27
  -15.5100002       1.07338740E-27
  -15.5000000       3.09665365E-28
  -15.4899998      -1.33160250E-27
  -15.4799995      -3.48561427E-27
  -15.4700003      -5.06669913E-27
  -15.4600000      -4.44227182E-27
  -15.4499998      -2.41562267E-28
  -15.4399996       7.24543781E-27
  -15.4300003       1.47032086E-26
  -15.4200001       1.57301792E-26
  -15.4099998       3.53771568E-27
  -15.3999996      -2.30986916E-26
  -15.3900003      -5.26380689E-26
  -15.3800001      -5.77326559E-26
  -15.3699999      -3.91711194E-27
  -15.3599997       1.24900766E-25
  -15.3500004       2.89099600E-25
  -15.3400002       3.65756665E-25
  -15.3299999       1.67721665E-25
  -15.3199997      -4.55247339E-25
  -15.3100004      -1.43320259E-24
  -15.3000002      -2.28470783E-24
  -15.2900000      -2.08049738E-24
  -15.2799997       2.34074087E-25
  -15.2700005       5.04818283E-24
  -15.2600002       1.10060146E-23
  -15.2500000       1.42587650E-23
  -15.2399998       9.03974407E-24
  -15.2299995      -9.52446045E-24
  -15.2200003      -4.03789688E-23
  -15.2100000      -7.11477500E-23
  -15.1999998      -7.64443073E-23
  -15.1899996      -2.50351098E-23
  -15.1800003       1.00967014E-22
  -15.1700001       2.78144959E-22
  -15.1599998       4.18450068E-22
  -15.1499996       3.73320989E-22
  -15.1400003      -1.11542597E-23
  -15.1300001      -7.81011575E-22
  -15.1199999      -1.73347309E-21
  -15.1099997      -2.32798392E-21
  -15.1000004      -1.76427891E-21
  -15.0900002       6.74393931E-22
  -15.0799999       5.01849024E-21
  -15.0699997       9.94740182E-21
  -15.0600004       1.24809559E-20
  -15.0500002       8.56383077E-21
  -15.0400000      -5.07521915E-21
  -15.0299997      -2.79563524E-20
  -15.0200005      -5.28435255E-20
  -15.0100002      -6.46998315E-20
  -15.0000000      -4.39666173E-20
  -14.9899998       2.43819063E-20
  -14.9799995       1.37152207E-19
  -14.9700003       2.59692707E-19
  -14.9600000       3.21967025E-19
  -14.9499998       2.33895684E-19
  -14.9399996      -7.44037329E-20
  -14.9300003      -5.93043625E-19
  -14.9200001      -1.17519804E-18
  -14.9099998      -1.51910892E-18
  -14.8999996      -1.22979061E-18
  -14.8900003       1.68384327E-20
  -14.8800001       2.22899884E-18
  -14.8699999       4.85805697E-18
  -14.8599997       6.70466034E-18
  -14.8500004       6.13134601E-18
  -14.8400002       1.67673874E-18
  -14.8299999      -6.99594455E-18
  -14.8199997      -1.81176278E-17
  -14.8100004      -2.73229171E-17
  -14.8000002      -2.82523340E-17
  -14.7900000      -1.46473040E-17
  -14.7799997       1.62123727E-17
  -14.7700005       5.97006821E-17
  -14.7600002       1.01457156E-16
  -14.7500000       1.18585949E-16
  -14.7399998       8.60754881E-17
  -14.7299995      -1.16435664E-17
  -14.7200003      -1.66796338E-16
  -14.7100000      -3.37696975E-16
  -14.6999998      -4.48888816E-16
  -14.6899996      -4.08298759E-16
  -14.6800003      -1.42854039E-16
  -14.6700001       3.54330055E-16
  -14.6599998       9.81742950E-16
  -14.6499996       1.51565587E-15
  -14.6400003       1.64735362E-15
  -14.6300001       1.08190767E-15
  -14.6199999      -3.14734494E-16
  -14.6099997      -2.36376445E-15
  -14.6000004      -4.48522750E-15
  -14.5900002      -5.74859154E-15
  -14.5799999      -5.11144827E-15
  -14.5699997      -1.83439321E-15
  -14.5600004       4.02666800E-15
  -14.5500002       1.12346020E-14
  -14.5400000       1.73176055E-14
  -14.5299997       1.90371688E-14
  -14.5200005       1.34245905E-14
  -14.5100002      -7.94818501E-16
  -14.5000000      -2.18263619E-14
  -14.4899998      -4.40979413E-14
  -14.4799995      -5.88356539E-14
  -14.4700003      -5.62659355E-14
  -14.4600000      -2.92508327E-14
  -14.4499998       2.25335243E-14
  -14.4399996       8.93798856E-14
  -14.4300003       1.51050830E-13
  -14.4200001       1.80378797E-13
  -14.4099998       1.51234250E-13
  -14.3999996       4.94657280E-14
  -14.3900003      -1.16377163E-13
  -14.3800001      -3.08918066E-13
  -14.3699999      -4.64727757E-13
  -14.3599997      -5.08449457E-13
  -14.3500004      -3.77190629E-13
  -14.3400002      -4.96601966E-14
  -14.3299999       4.29421716E-13
  -14.3199997       9.40798004E-13
  -14.3100004       1.30720760E-12
  -14.3000002       1.33788000E-12
  -14.2900000       8.94331375E-13
  -14.2799997      -3.95741891E-14
  -14.2700005      -1.30781377E-12
  -14.2600002      -2.57800530E-12
  -14.2500000      -3.39986936E-12
  -14.2399998      -3.32600050E-12
  -14.2299995      -2.07183663E-12
  -14.2200003       3.29903802E-13
  -14.2100000       3.43706183E-12
  -14.1999998       6.42029745E-12
  -14.1899996       8.22713859E-12
  -14.1800003       7.87336689E-12
  -14.1700001       4.79864802E-12
  -14.1599998      -8.17308515E-13
  -14.1499996      -7.89731822E-12
  -14.1400003      -1.45661608E-11
  -14.1300001      -1.85437447E-11
  -14.1199999      -1.77802911E-11
  -14.1099997      -1.11856305E-11
  -14.1000004       7.62664725E-13
  -14.0900002       1.57631564E-11
  -14.0799999       2.99563221E-11
  -14.0699997       3.87532124E-11
  -14.0600004       3.80943228E-11
  -14.0500002       2.58374520E-11
  -14.0400000       2.86453999E-12
  -14.0299997      -2.65014070E-11
  -14.0200005      -5.50470641E-11
  -14.0100002      -7.42178125E-11
  -14.0000000      -7.63925104E-11
  -13.9899998      -5.73303627E-11
  -13.9799995      -1.80847334E-11
  -13.9700003       3.42930059E-11
  -13.9600000       8.76811262E-11
  -13.9499998       1.27457711E-10
  -13.9399996       1.40224943E-10
  -13.9300003       1.17785393E-10
  -13.9200001       6.02573200E-11
  -13.9099998      -2.26965183E-11
  -13.8999996      -1.13139213E-10
  -13.8900003      -1.88600635E-10
  -13.8800001      -2.27541860E-10
  -13.8699999      -2.15221313E-10
  -13.8599997      -1.48366083E-10
  -13.8500004      -3.72433577E-11
  -13.8400002       9.56902821E-11
  -13.8299999       2.20489224E-10
  -13.8199997       3.06749071E-10
  -13.8100004       3.31227684E-10
  -13.8000002       2.84044926E-10
  -13.7900000       1.71711367E-10
  -13.7799997       1.60666168E-11
  -13.7700005      -1.50722337E-10
  -13.7600002      -2.93810726E-10
  -13.7500000      -3.83943072E-10
  -13.7399998      -4.04075162E-10
  -13.7299995      -3.52585322E-10
  -13.7200003      -2.42301235E-10
  -13.7100000      -9.58401761E-11
  -13.6999998       6.11068487E-11
  -13.6899996       2.06302225E-10
  -13.6800003       3.25159677E-10
  -13.6700001       4.11309653E-10
  -13.6599998       4.63589056E-10
  -13.6499996       4.80894269E-10
  -13.6400003       4.57355070E-10
  -13.6300001       3.80418447E-10
  -13.6199999       2.33664893E-10
  -13.6099997       4.48206533E-12
  -13.6000004      -3.05253045E-10
  -13.5900002      -6.69082567E-10
  -13.5799999      -1.03086928E-09
  -13.5699997      -1.30843558E-09
  -13.5600004      -1.40767609E-09
  -13.5500002      -1.24567512E-09
  -13.5400000      -7.78062226E-10
  -13.5299997      -2.32290836E-11
  -13.5200005       9.24688492E-10
  -13.5100002       1.90066562E-09
  -13.5000000       2.69403833E-09
  -13.4899998       3.09148240E-09
  -13.4799995       2.92926172E-09
  -13.4700003       2.14233742E-09
  -13.4600000       7.96612554E-10
  -13.4499998      -9.06797137E-10
  -13.4399996      -2.66045319E-09
  -13.4300003      -4.10931866E-09
  -13.4200001      -4.92780083E-09
  -13.4099998      -4.89714047E-09
  -13.3999996      -3.96341537E-09
  -13.3900003      -2.25964003E-09
  -13.3800001      -8.38863770E-11
  -13.3699999       2.16351848E-09
  -13.3599997       4.06936485E-09
  -13.3500004       5.30119637E-09
  -13.3400002       5.68058933E-09
  -13.3299999       5.21634691E-09
  -13.3199997       4.08789802E-09
  -13.3100004       2.58427169E-09
  -13.3000002       1.01543141E-09
  -13.2900000      -3.76985609E-10
  -13.2799997      -1.48273804E-09
  -13.2700005      -2.33977215E-09
  -13.2600002      -3.09848636E-09
  -13.2500000      -3.94332922E-09
  -13.2399998      -4.99583663E-09
  -13.2299995      -6.23085006E-09
  -13.2200003      -7.43496953E-09
  -13.2100000      -8.22618418E-09
  -13.1999998      -8.13534040E-09
  -13.1899996      -6.73209710E-09
  -13.1800003      -3.76254450E-09
  -13.1700001       7.39081907E-10
  -13.1599998       6.39783204E-09
  -13.1499996       1.25229063E-08
  -13.1400003       1.82078246E-08
  -13.1300001       2.24852972E-08
  -13.1199999       2.44994940E-08
  -13.1099997       2.36572824E-08
  -13.1000004       1.97251318E-08
  -13.0900002       1.28558497E-08
  -13.0799999       3.54670671E-09
  -13.0699997      -7.44862527E-09
  -13.0600004      -1.92248599E-08
  -13.0500002      -3.08144870E-08
  -13.0400000      -4.12406500E-08
  -13.0299997      -4.95314296E-08
  -13.0200005      -5.47064012E-08
  -13.0100002      -5.57689290E-08
  -13.0000000      -5.17322043E-08
  -12.9899998      -4.17148520E-08
  -12.9799995      -2.51050629E-08
  -12.9700003      -1.79128423E-09
  -12.9600000       2.75854326E-08
  -12.9499998       6.14118960E-08
  -12.9399996       9.69847704E-08
  -12.9300003       1.30550646E-07
  -12.9200001       1.57545799E-07
  -12.9099998       1.73036938E-07
  -12.8999996       1.72334609E-07
  -12.8900003       1.51699041E-07
  -12.8800001       1.09042205E-07
  -12.8699999       4.45139072E-08
  -12.8599997      -3.91318444E-08
  -12.8500004      -1.36466355E-07
  -12.8400002      -2.39628491E-07
  -12.8299999      -3.38865846E-07
  -12.8199997      -4.23300094E-07
  -12.8100004      -4.81822212E-07
  -12.8000002      -5.04026957E-07
  -12.7900000      -4.81094844E-07
  -12.7799997      -4.06607057E-07
  -12.7700005      -2.77260767E-07
  -12.7600002      -9.35432212E-08
  -12.7500000       1.39634238E-07
  -12.7399998       4.12350147E-07
  -12.7299995       7.09210269E-07
  -12.7200003       1.00914770E-06
  -12.7100000       1.28566182E-06
  -12.6999998       1.50774815E-06
  -12.6899996       1.64161395E-06
  -12.6800003       1.65324639E-06
  -12.6700001       1.51181189E-06
  -12.6599998       1.19346146E-06
  -12.6499996       6.85353882E-07
  -12.6400003      -1.07170193E-08
  -12.6300001      -8.75433443E-07
  -12.6199999      -1.87021567E-06
  -12.6099997      -2.93683729E-06
  -12.6000004      -3.99848977E-06
  -12.5900002      -4.96224038E-06
  -12.5799999      -5.72287036E-06
  -12.5699997      -6.16795478E-06
  -12.5600004      -6.18436343E-06
  -12.5500002      -5.66594008E-06
  -12.5400000      -4.52289942E-06
  -12.5299997      -2.69238672E-06
  -12.5200005      -1.50307301E-07
  -12.5100002       3.07635378E-06
  -12.5000000       6.89766830E-06
  -12.4899998       1.11505633E-05
  -12.4799995       1.55920552E-05
  -12.4700003       1.98966663E-05
  -12.4600000       2.36604646E-05
  -12.4499998       2.64110822E-05
  -12.4399996       2.76245319E-05
  -12.4300003       2.67485902E-05
  -12.4200001       2.32311704E-05
  -12.4099998       1.65517049E-05
  -12.3999996       6.25542452E-06
  -12.3900003      -8.01444185E-06
  -12.3800001      -2.64841256E-05
  -12.3699999      -4.92237377E-05
  -12.3599997      -7.61238334E-05
  -12.3500004      -1.06880121E-04
  -12.3400002      -1.40987351E-04
  -12.3299999      -1.77737034E-04
  -12.3199997      -2.16228480E-04
  -12.3100004      -2.55387800E-04
  -12.3000002      -2.93990131E-04
  -12.2900000      -3.30696668E-04
  -12.2799997      -3.64093430E-04
  -12.2700005      -3.92733753E-04
  -12.2600002      -4.15186281E-04
  -12.2500000      -4.30083281E-04
  -12.2399998      -4.36164875E-04
  -12.2299995      -4.32324625E-04
  -12.2200003      -4.17648087E-04
  -12.2100000      -3.91448411E-04
  -12.1999998      -3.53293522E-04
  -12.1899996      -3.03025212E-04
  -12.1800003      -2.40766793E-04
  -12.1700001      -1.66928687E-04
  -12.1599998      -8.21915091E-05
  -12.1499996       1.25090573E-05
  -12.1400003       1.16020230E-04
  -12.1300001       2.27000957E-04
  -12.1199999       3.43967753E-04
  -12.1099997       4.65338351E-04
  -12.1000004       5.89471252E-04
  -12.0900002       7.14696595E-04
  -12.0799999       8.39352782E-04
  -12.0699997       9.61798243E-04
  -12.0600004       1.08043337E-03
  -12.0500002       1.19370327E-03
  -12.0400000       1.30009803E-03
  -12.0299997       1.39815931E-03
  -12.0200005       1.48647744E-03
  -12.0100002       1.56368618E-03
  -12.0000000       1.62847701E-03
  -11.9899998       1.67958566E-03
  -11.9799995       1.71580666E-03
  -11.9700003       1.73599750E-03
  -11.9600000       1.73909101E-03
  -11.9499998       1.72409811E-03
  -11.9399996       1.69014104E-03
  -11.9300003       1.63646089E-03
  -11.9200001       1.56245020E-03
  -11.9099998       1.46768300E-03
  -11.8999996       1.35193684E-03
  -11.8900003       1.21522020E-03
  -11.8800001       1.05778873E-03
  -11.8699999       8.80160718E-04
  -11.8599997       6.83099788E-04
  -11.8500004       4.67617501E-04
  -11.8400002       2.34944964E-04
  -11.8299999      -1.34887005E-05
  -11.8199997      -2.76086765E-04
  -11.8100004      -5.51109493E-04
  -11.8000002      -8.36690306E-04
  -11.7900000      -1.13084866E-03
  -11.7799997      -1.43150473E-03
  -11.7700005      -1.73647469E-03
  -11.7600002      -2.04347353E-03
  -11.7500000      -2.35011801E-03
  -11.7399998      -2.65392498E-03
  -11.7299995      -2.95233331E-03
  -11.7200003      -3.24270432E-03
  -11.7100000      -3.52235558E-03
  -11.6999998      -3.78857716E-03
  -11.6899996      -4.03866824E-03
  -11.6800003      -4.26996499E-03
  -11.6700001      -4.47987346E-03
  -11.6599998      -4.66589490E-03
  -11.6499996      -4.82565491E-03
  -11.6400003      -4.95692296E-03
  -11.6300001      -5.05762594E-03
  -11.6199999      -5.12584858E-03
  -11.6099997      -5.15985815E-03
  -11.6000004      -5.15807932E-03
  -11.5900002      -5.11910813E-03
  -11.5799999      -5.04170917E-03
  -11.5699997      -4.92482120E-03
  -11.5600004      -4.76753991E-03
  -11.5500002      -4.56915051E-03
  -11.5400000      -4.32911655E-03
  -11.5299997      -4.04709065E-03
  -11.5200005      -3.72291915E-03
  -11.5100002      -3.35665187E-03
  -11.5000000      -2.94852117E-03
  -11.4899998      -2.49895640E-03
  -11.4799995      -2.00857501E-03
  -11.4700003      -1.47818215E-03
  -11.4600000      -9.08765069E-04
  -11.4499998      -3.01524415E-04
  -11.4399996       3.42143438E-04
  -11.4300003       1.02062221E-03
  -11.4200001       1.73204509E-03
  -11.4099998       2.47433782E-03
  -11.3999996       3.24518140E-03
  -11.3900003       4.04206943E-03
  -11.3800001       4.86231642E-03
  -11.3699999       5.70313307E-03
  -11.3599997       6.56165089E-03
  -11.3500004       7.43500842E-03
  -11.3400002       8.32038838E-03
  -11.3299999       9.21506993E-03
  -11.3199997       1.01164840E-02
  -11.3100004       1.10222064E-02
  -11.3000002       1.19300019E-02
  -11.2900000       1.28378086E-02
  -11.2799997       1.37437237E-02
  -11.2700005       1.46460002E-02
  -11.2600002       1.55429970E-02
  -11.2500000       1.64331663E-02
  -11.2399998       1.73150059E-02
  -11.2299995       1.81870386E-02
  -11.2200003       1.90477930E-02
  -11.2100000       1.98958032E-02
  -11.1999998       2.07295734E-02
  -11.1899996       2.15476248E-02
  -11.1800003       2.23484840E-02
  -11.1700001       2.31307279E-02
  -11.1599998       2.38930304E-02
  -11.1499996       2.46341415E-02
  -11.1400003       2.53529511E-02
  -11.1300001       2.60484889E-02
  -11.1199999       2.67199725E-02
  -11.1099997       2.73667760E-02
  -11.1000004       2.79884599E-02
  -11.0900002       2.85847895E-02
  -11.0799999       2.91557033E-02
  -11.0699997       2.97013316E-02
  -11.0600004       3.02220043E-02
  -11.0500002       3.07181943E-02
  -11.0400000       3.11905053E-02
  -11.0299997       3.16396505E-02
  -11.0200005       3.20664048E-02
  -11.0100002       3.24715190E-02
  -11.0000000       3.28557380E-02
  -10.9899998       3.32197249E-02
  -10.9799995       3.35640721E-02
  -10.9700003       3.38892303E-02
  -10.9600000       3.41955572E-02
  -10.9499998       3.44832838E-02
  -10.9399996       3.47525403E-02
  -10.9300003       3.50032933E-02
  -10.9200001       3.52354422E-02
  -10.9099998       3.54486369E-02
  -10.8999996       3.56424749E-02
  -10.8900003       3.58163603E-02
  -10.8800001       3.59695330E-02
  -10.8699999       3.61011513E-02
  -10.8599997       3.62102762E-02
  -10.8500004       3.62959690E-02
  -10.8400002       3.63572910E-02
  -10.8299999       3.63933928E-02
  -10.8199997       3.64035740E-02
  -10.8100004       3.63872722E-02
  -10.8000002       3.63441221E-02
  -10.7900000       3.62738743E-02
  -10.7799997       3.61765176E-02
  -10.7700005       3.60521711E-02
  -10.7600002       3.59010883E-02
  -10.7500000       3.57236564E-02
  -10.7399998       3.55204493E-02
  -10.7299995       3.52921002E-02
  -10.7200003       3.50394808E-02
  -10.7100000       3.47635522E-02
  -10.6999998       3.44655067E-02
  -10.6899996       3.41467112E-02
  -10.6800003       3.38087119E-02
  -10.6700001       3.34532708E-02
  -10.6599998       3.30822468E-02
  -10.6499996       3.26976478E-02
  -10.6400003       3.23014706E-02
  -10.6300001       3.18957716E-02
  -10.6199999       3.14824991E-02
  -10.6099997       3.10634691E-02
  -10.6000004       3.06404158E-02
  -10.5900002       3.02148033E-02
  -10.5799999       2.97880899E-02
  -10.5699997       2.93614659E-02
  -10.5600004       2.89360974E-02
  -10.5500002       2.85130870E-02
  -10.5400000       2.80934721E-02
  -10.5299997       2.76783444E-02
  -10.5200005       2.72687897E-02
  -10.5100002       2.68658865E-02
  -10.5000000       2.64707804E-02
  -10.4899998       2.60845553E-02
  -10.4799995       2.57083643E-02
  -10.4700003       2.53431704E-02
  -10.4600000       2.49899700E-02
  -10.4499998       2.46495809E-02
  -10.4399996       2.43227649E-02
  -10.4300003       2.40100641E-02
  -10.4200001       2.37118881E-02
  -10.4099998       2.34284811E-02
  -10.3999996       2.31599174E-02
  -10.3900003       2.29060985E-02
  -10.3800001       2.26668604E-02
  -10.3699999       2.24419218E-02
  -10.3599997       2.22308598E-02
  -10.3500004       2.20333003E-02
  -10.3400002       2.18487717E-02
  -10.3299999       2.16766559E-02
  -10.3199997       2.15164088E-02
  -10.3100004       2.13673338E-02
  -10.3000002       2.12286636E-02
  -10.2900000       2.10995469E-02
  -10.2799997       2.09790487E-02
  -10.2700005       2.08662897E-02
  -10.2600002       2.07601879E-02
  -10.2500000       2.06597745E-02
  -10.2399998       2.05642302E-02
  -10.2299995       2.04727612E-02
  -10.2200003       2.03847140E-02
  -10.2100000       2.02997811E-02
  -10.1999998       2.02176888E-02
  -10.1899996       2.01386642E-02
  -10.1800003       2.00630613E-02
  -10.1700001       1.99915785E-02
  -10.1599998       1.99251752E-02
  -10.1499996       1.98649969E-02
  -10.1400003       1.98123530E-02
  -10.1300001       1.97686907E-02
  -10.1199999       1.97355766E-02
  -10.1099997       1.97145659E-02
  -10.1000004       1.97073631E-02
  -10.0900002       1.97157487E-02
  -10.0799999       1.97415762E-02
  -10.0699997       1.97867639E-02
  -10.0600004       1.98533107E-02
  -10.0500002       1.99433528E-02
  -10.0400000       2.00589430E-02
  -10.0299997       2.02021971E-02
  -10.0200005       2.03751549E-02
  -10.0100002       2.05796789E-02
  -10.0000000       2.08176076E-02
  -9.98999977       2.10904796E-02
  -9.97999954       2.13996693E-02
  -9.97000027       2.17464473E-02
  -9.96000004       2.21317597E-02
  -9.94999981       2.25565601E-02
  -9.93999958       2.30215210E-02
  -9.93000031       2.35272944E-02
  -9.92000008       2.40743198E-02
  -9.90999985       2.46631727E-02
  -9.89999962       2.52943803E-02
  -9.89000034       2.59684641E-02
  -9.88000011       2.66860519E-02
  -9.86999989       2.74478514E-02
  -9.85999966       2.82546878E-02
  -9.85000038       2.91073285E-02
  -9.84000015       3.00064590E-02
  -9.82999992       3.09526157E-02
  -9.81999969       3.19461115E-02
  -9.81000042       3.29869911E-02
  -9.80000019       3.40748914E-02
  -9.78999996       3.52090560E-02
  -9.77999973       3.63886915E-02
  -9.77000046       3.76125947E-02
  -9.76000023       3.88793908E-02
  -9.75000000       4.01877835E-02
  -9.73999977       4.15364765E-02
  -9.72999954       4.29242998E-02
  -9.72000027       4.43501174E-02
  -9.71000004       4.58129756E-02
  -9.69999981       4.73119467E-02
  -9.68999958       4.88460772E-02
  -9.68000031       5.04143126E-02
  -9.67000008       5.20154536E-02
  -9.65999985       5.36478385E-02
  -9.64999962       5.53097017E-02
  -9.64000034       5.69988191E-02
  -9.63000011       5.87124005E-02
  -9.61999989       6.04473874E-02
  -9.60999966       6.22002371E-02
  -9.60000038       6.39670938E-02
  -9.59000015       6.57437518E-02
  -9.57999992       6.75259382E-02
  -9.56999969       6.93089664E-02
  -9.56000042       7.10882843E-02
  -9.55000019       7.28592649E-02
  -9.53999996       7.46173412E-02
  -9.52999973       7.63578936E-02
  -9.52000046       7.80767277E-02
  -9.51000023       7.97695667E-02
  -9.50000000       8.14325437E-02
  -9.48999977       8.30618218E-02
  -9.47999954       8.46542791E-02
  -9.47000027       8.62068683E-02
  -9.46000004       8.77173394E-02
  -9.44999981       8.91838968E-02
  -9.43999958       9.06054154E-02
  -9.43000031       9.19816867E-02
  -9.42000008       9.33130607E-02
  -9.40999985       9.46007296E-02
  -9.39999962       9.58462209E-02
  -9.39000034       9.70522910E-02
  -9.38000011       9.82216820E-02
  -9.36999989       9.93583426E-02
  -9.35999966      0.100466222    
  -9.35000038      0.101550460    
  -9.34000015      0.102616474    
  -9.32999992      0.103670374    
  -9.31999969      0.104718842    
  -9.31000042      0.105768926    
  -9.30000019      0.106828183    
  -9.28999996      0.107903957    
  -9.27999973      0.109004170    
  -9.27000046      0.110136405    
  -9.26000023      0.111307912    
  -9.25000000      0.112526454    
  -9.23999977      0.113799192    
  -9.22999954      0.115132987    
  -9.22000027      0.116534732    
  -9.21000004      0.118010670    
  -9.19999981      0.119566292    
  -9.18999958      0.121206440    
  -9.18000031      0.122934856    
  -9.17000008      0.124754563    
  -9.15999985      0.126667231    
  -9.14999962      0.128673345    
  -9.14000034      0.130772367    
  -9.13000011      0.132962823    
  -9.11999989      0.135242090    
  -9.10999966      0.137606949    
  -9.10000038      0.140052840    
  -9.09000015      0.142574951    
  -9.07999992      0.145167366    
  -9.06999969      0.147823647    
  -9.06000042      0.150536343    
  -9.05000019      0.153297871    
  -9.03999996      0.156099692    
  -9.02999973      0.158933312    
  -9.02000046      0.161789685    
  -9.01000023      0.164659709    
  -9.00000000      0.167533845    
  -8.98999977      0.170402601    
  -8.97999954      0.173256680    
  -8.97000027      0.176086426    
  -8.96000004      0.178882524    
  -8.94999981      0.181635588    
  -8.93999958      0.184336409    
  -8.93000031      0.186976120    
  -8.92000008      0.189546034    
  -8.90999985      0.192037821    
  -8.89999962      0.194443345    
  -8.89000034      0.196755156    
  -8.88000011      0.198966682    
  -8.86999989      0.201071799    
  -8.85999966      0.203065172    
  -8.85000038      0.204942554    
  -8.84000015      0.206700251    
  -8.82999992      0.208335862    
  -8.81999969      0.209847763    
  -8.81000042      0.211235419    
  -8.80000019      0.212499201    
  -8.78999996      0.213640422    
  -8.77999973      0.214661390    
  -8.77000046      0.215565547    
  -8.76000023      0.216356680    
  -8.75000000      0.217040271    
  -8.73999977      0.217622265    
  -8.72999954      0.218108952    
  -8.72000027      0.218508229    
  -8.71000004      0.218827784    
  -8.69999981      0.219076604    
  -8.68999958      0.219263569    
  -8.68000031      0.219398096    
  -8.67000008      0.219489813    
  -8.65999985      0.219548494    
  -8.64999962      0.219583169    
  -8.64000034      0.219603285    
  -8.63000011      0.219617575    
  -8.61999989      0.219634593    
  -8.60999966      0.219662160    
  -8.60000038      0.219707355    
  -8.59000015      0.219777524    
  -8.57999992      0.219879180    
  -8.56999969      0.220017582    
  -8.56000042      0.220198631    
  -8.55000019      0.220426366    
  -8.53999996      0.220704779    
  -8.52999973      0.221037373    
  -8.52000046      0.221426159    
  -8.51000023      0.221873507    
  -8.50000000      0.222380310    
  -8.48999977      0.222947434    
  -8.47999954      0.223575398    
  -8.47000027      0.224264562    
  -8.46000004      0.225015059    
  -8.44999981      0.225826666    
  -8.43999958      0.226698518    
  -8.43000031      0.227630630    
  -8.42000008      0.228622511    
  -8.40999985      0.229673997    
  -8.39999962      0.230784759    
  -8.39000034      0.231955439    
  -8.38000011      0.233187199    
  -8.36999989      0.234480828    
  -8.35999966      0.235838801    
  -8.35000038      0.237263247    
  -8.34000015      0.238757655    
  -8.32999992      0.240324259    
  -8.31999969      0.241966963    
  -8.31000042      0.243689686    
  -8.30000019      0.245496735    
  -8.28999996      0.247392252    
  -8.27999973      0.249381602    
  -8.27000046      0.251469731    
  -8.26000023      0.253661692    
  -8.25000000      0.255962402    
  -8.23999977      0.258376867    
  -8.22999954      0.260909200    
  -8.22000027      0.263563275    
  -8.21000004      0.266342938    
  -8.19999981      0.269250900    
  -8.18999958      0.272289991    
  -8.18000031      0.275462598    
  -8.17000008      0.278770238    
  -8.15999985      0.282214433    
  -8.14999962      0.285796762    
  -8.14000034      0.289516628    
  -8.13000011      0.293374002    
  -8.11999989      0.297367036    
  -8.10999966      0.301493675    
  -8.10000038      0.305751532    
  -8.09000015      0.310137004    
  -8.07999992      0.314646214    
  -8.06999969      0.319274545    
  -8.06000042      0.324017674    
  -8.05000019      0.328869134    
  -8.03999996      0.333823711    
  -8.02999973      0.338874876    
  -8.02000046      0.344015092    
  -8.01000023      0.349237204    
  -8.00000000      0.354534119    
  -7.98999977      0.359896749    
  -7.98000002      0.365319282    
  -7.96999979      0.370793194    
  -7.96000004      0.376310736    
  -7.94999981      0.381865293    
  -7.94000006      0.387449384    
  -7.92999983      0.393055648    
  -7.92000008      0.398677230    
  -7.90999985      0.404306471    
  -7.90000010      0.409936726    
  -7.88999987      0.415560842    
  -7.88000011      0.421172529    
  -7.86999989      0.426765680    
  -7.86000013      0.432334065    
  -7.84999990      0.437873304    
  -7.84000015      0.443377137    
  -7.82999992      0.448842078    
  -7.82000017      0.454263091    
  -7.80999994      0.459635884    
  -7.80000019      0.464956820    
  -7.78999996      0.470222712    
  -7.78000021      0.475431472    
  -7.76999998      0.480581969    
  -7.76000023      0.485673368    
  -7.75000000      0.490706205    
  -7.73999977      0.495681375    
  -7.73000002      0.500600040    
  -7.71999979      0.505465090    
  -7.71000004      0.510279596    
  -7.69999981      0.515045166    
  -7.69000006      0.519766748    
  -7.67999983      0.524447680    
  -7.67000008      0.529092610    
  -7.65999985      0.533707142    
  -7.65000010      0.538296759    
  -7.63999987      0.542867720    
  -7.63000011      0.547427177    
  -7.61999989      0.551982820    
  -7.61000013      0.556540132    
  -7.59999990      0.561108947    
  -7.59000015      0.565696001    
  -7.57999992      0.570309281    
  -7.57000017      0.574958324    
  -7.55999994      0.579652607    
  -7.55000019      0.584401131    
  -7.53999996      0.589214742    
  -7.53000021      0.594101787    
  -7.51999998      0.599073291    
  -7.51000023      0.604139209    
  -7.50000000      0.609307766    
  -7.48999977      0.614587963    
  -7.48000002      0.619988024    
  -7.46999979      0.625516474    
  -7.46000004      0.631180942    
  -7.44999981      0.636989951    
  -7.44000006      0.642948806    