  -16.0000000       0.00000000    
  -15.9899998       0.00000000    
  -15.9799995       0.00000000    
  -15.9700003       0.00000000    
  -15.9600000       0.00000000    
  -15.9499998       0.00000000    
  -15.9399996       0.00000000    
  -15.9300003       0.00000000    
  -15.9200001       0.00000000    
  -15.9099998       0.00000000    
  -15.8999996       0.00000000    
  -15.8900003       0.00000000    
  -15.8800001      -0.00000000    
  -15.8699999      -7.28675201E-44
  -15.8599997      -2.80680082E-42
  -15.8500004      -5.70328475E-41
  -15.8400002      -7.61860752E-40
  -15.8299999      -7.44032732E-39
  -15.8199997      -5.67537593E-38
  -15.8100004      -3.53638541E-37
  -15.8000002      -1.85815351E-36
  -15.7900000      -8.42583574E-36
  -15.7799997      -3.35432278E-35
  -15.7700005      -1.18742229E-34
  -15.7600002      -3.77300167E-34
  -15.7500000      -1.08316845E-33
  -15.7399998      -2.82068686E-33
  -15.7299995      -6.67147484E-33
  -15.7200003      -1.43035299E-32
  -15.7100000      -2.76134967E-32
  -15.6999998      -4.72907607E-32
  -15.6899996      -6.95199467E-32
  -15.6800003      -8.04740024E-32
  -15.6700001      -4.99431697E-32
  -15.6599998       7.11104669E-32
  -15.6499996       3.39678559E-31
  -15.6400003       7.84250616E-31
  -15.6300001       1.33525917E-30
  -15.6199999       1.73453031E-30
  -15.6099997       1.47341596E-30
  -15.6000004      -1.45765743E-31
  -15.5900002      -3.71093222E-30
  -15.5799999      -9.10887375E-30
  -15.5699997      -1.47693775E-29
  -15.5600004      -1.71659926E-29
  -15.5500002      -1.12608138E-29
  -15.5400000       7.45235733E-30
  -15.5299997       3.92867591E-29
  -15.5200005       7.63698450E-29
  -15.5100002       1.01092869E-28
  -15.5000000       9.02599527E-29
  -15.4899998       2.62146931E-29
  -15.4799995      -8.87573421E-29
  -15.4700003      -2.24491402E-28
  -15.4600000      -3.33164791E-28
  -15.4499998      -3.80774069E-28
  -15.4399996      -3.81578554E-28
  -15.4300003      -3.92490439E-28
  -15.4200001      -4.21143582E-28
  -15.4099998      -2.51118418E-28
  -15.3999996       6.97826145E-28
  -15.3900003       3.22359227E-27
  -15.3800001       7.63289332E-27
  -15.3699999       1.24458778E-26
  -15.3599997       1.31158649E-26
  -15.3500004       2.18801126E-27
  -15.3400002      -2.72551597E-26
  -15.3299999      -7.39105599E-26
  -15.3199997      -1.18341092E-25
  -15.3100004      -1.17491908E-25
  -15.3000002      -1.42537428E-26
  -15.2900000       2.28516808E-25
  -15.2799997       5.71255252E-25
  -15.2700005       8.42154672E-25
  -15.2600002       7.32548710E-25
  -15.2500000      -9.62856196E-26
  -15.2399998      -1.76379950E-24
  -15.2299995      -3.83397760E-24
  -15.2200003      -5.07854136E-24
  -15.2100000      -3.63670044E-24
  -15.1999998       2.15097678E-24
  -15.1899996       1.22204305E-23
  -15.1800003       2.30943211E-23
  -15.1700001       2.71885455E-23
  -15.1599998       1.46287155E-23
  -15.1499996      -2.14043002E-23
  -15.1400003      -7.65262731E-23
  -15.1300001      -1.27743654E-22
  -15.1199999      -1.33068781E-22
  -15.1099997      -4.49535574E-23
  -15.1000004       1.59731194E-22
  -15.0900002       4.40170956E-22
  -15.0799999       6.62772559E-22
  -15.0699997       6.13442777E-22
  -15.0600004       7.85878254E-23
  -15.0500002      -1.00248262E-21
  -15.0400000      -2.35917747E-21
  -15.0299997      -3.28770992E-21
  -15.0200005      -2.76176159E-21
  -15.0100002       1.40220884E-22
  -15.0000000       5.51648528E-21
  -14.9899998       1.18754298E-20
  -14.9799995       1.57950057E-20
  -14.9700003       1.25823808E-20
  -14.9600000      -1.69015718E-21
  -14.9499998      -2.69966339E-20
  -14.9399996      -5.61605036E-20
  -14.9300003      -7.36898049E-20
  -14.9200001      -5.89668430E-20
  -14.9099998       4.85291679E-21
  -14.8999996       1.17414152E-19
  -14.8900003       2.48070225E-19
  -14.8800001       3.31383753E-19
  -14.8699999       2.80312484E-19
  -14.8599997       2.21293610E-20
  -14.8500004      -4.47801359E-19
  -14.8400002      -1.01328364E-18
  -14.8299999      -1.41714878E-18
  -14.8199997      -1.30829595E-18
  -14.8100004      -3.75633185E-19
  -14.8000002       1.44751623E-18
  -14.7900000       3.77589876E-18
  -14.7799997       5.67567248E-18
  -14.7700005       5.80605599E-18
  -14.7600002       2.87842702E-18
  -14.7500000      -3.61049241E-18
  -14.7399998      -1.25909975E-17
  -14.7299995      -2.09658075E-17
  -14.7200003      -2.39402596E-17
  -14.7100000      -1.64527216E-17
  -14.6999998       4.36410069E-18
  -14.6899996       3.63387855E-17
  -14.6800003       7.02664453E-17
  -14.6700001       9.02889410E-17
  -14.6599998       7.78596788E-17
  -14.6499996       1.93924653E-17
  -14.6400003      -8.40924185E-17
  -14.6300001      -2.08957814E-16
  -14.6199999      -3.07431455E-16
  -14.6099997      -3.16944773E-16
  -14.6000004      -1.81806106E-16
  -14.5900002       1.16459222E-16
  -14.5799999       5.29875330E-16
  -14.5699997       9.30301686E-16
  -14.5600004       1.12586677E-15
  -14.5500002       9.15625887E-16
  -14.5400000       1.76890059E-16
  -14.5299997      -1.03819452E-15
  -14.5200005      -2.43616967E-15
  -14.5100002      -3.49097853E-15
  -14.5000000      -3.56101672E-15
  -14.4899998      -2.11511306E-15
  -14.4799995       9.80156775E-16
  -14.4700003       5.20893965E-15
  -14.4600000       9.31700158E-15
  -14.4499998       1.14992092E-14
  -14.4399996       9.91007711E-15
  -14.4300003       3.42588002E-15
  -14.4200001      -7.55210849E-15
  -14.4099998      -2.05735375E-14
  -14.3999996      -3.12357528E-14
  -14.3900003      -3.41299254E-14
  -14.3800001      -2.46095851E-14
  -14.3699999      -1.00406449E-15
  -14.3599997       3.34381469E-14
  -14.3500004       6.97730244E-14
  -14.3400002       9.45382824E-14
  -14.3299999       9.32005870E-14
  -14.3199997       5.54090296E-14
  -14.3100004      -1.93027831E-14
  -14.3000002      -1.17418702E-13
  -14.2900000      -2.11148400E-13
  -14.2799997      -2.63489236E-13
  -14.2700005      -2.38697435E-13
  -14.2600002      -1.16177467E-13
  -14.2500000       9.62138965E-14
  -14.2399998       3.54642205E-13
  -14.2299995       5.82388792E-13
  -14.2200003       6.86111432E-13
  -14.2100000       5.83820210E-13
  -14.1999998       2.38329864E-13
  -14.1899996      -3.14101826E-13
  -14.1800003      -9.51833772E-13
  -14.1700001      -1.48227719E-12
  -14.1599998      -1.68601049E-12
  -14.1499996      -1.38436365E-12
  -14.1400003      -5.14089043E-13
  -14.1300001       8.14684095E-13
  -14.1199999       2.30225929E-12
  -14.1099997       3.50287941E-12
  -14.1000004       3.93051694E-12
  -14.0900002       3.20902484E-12
  -14.0799999       1.22867352E-12
  -14.0699997      -1.74141149E-12
  -14.0600004      -5.03433406E-12
  -14.0500002      -7.69141001E-12
  -14.0400000      -8.69143906E-12
  -14.0299997      -7.26067817E-12
  -14.0200005      -3.18404981E-12
  -14.0100002       2.98220151E-12
  -14.0000000       9.88852576E-12
  -13.9899998       1.56140292E-11
  -13.9799995       1.81205381E-11
  -13.9700003       1.58507513E-11
  -13.9600000       8.31742401E-12
  -13.9499998      -3.50088014E-12
  -13.9399996      -1.71217537E-11
  -13.9300003      -2.89676859E-11
  -13.9200001      -3.51919500E-11
  -13.9099998      -3.27585840E-11
  -13.8999996      -2.05033091E-11
  -13.8900003       1.45378528E-13
  -13.8800001       2.50655677E-11
  -13.8699999       4.81090341E-11
  -13.8599997       6.24819224E-11
  -13.8500004       6.25633920E-11
  -13.8400002       4.57091448E-11
  -13.8299999       1.35132331E-11
  -13.8199997      -2.79264563E-11
  -13.8100004      -6.89774071E-11
  -13.8000002      -9.85919679E-11
  -13.7900000      -1.07146410E-10
  -13.7799997      -8.92953697E-11
  -13.7700005      -4.60324591E-11
  -13.7600002       1.47383859E-11
  -13.7500000       7.94787222E-11
  -13.7399998       1.32012776E-10
  -13.7299995       1.57606900E-10
  -13.7200003       1.47101081E-10
  -13.7100000       9.99258454E-11
  -13.6999998       2.50281601E-11
  -13.6899996      -6.07704373E-11
  -13.6800003      -1.36758077E-10
  -13.6700001      -1.83724244E-10
  -13.6599998      -1.89310220E-10
  -13.6499996      -1.51746671E-10
  -13.6400003      -8.07345649E-11
  -13.6300001       5.01179610E-12
  -13.6199999       8.30635491E-11
  -13.6099997       1.33982603E-10
  -13.6000004       1.47411430E-10
  -13.5900002       1.25520441E-10
  -13.5799999       8.24295424E-11
  -13.5699997       3.94013433E-11
  -13.5600004       1.69999917E-11
  -13.5500002       2.66004302E-11
  -13.5400000       6.42009224E-11
  -13.5299997       1.09151313E-10
  -13.5200005       1.29137770E-10
  -13.5100002       9.08291220E-11
  -13.5000000      -2.64781443E-11
  -13.4899998      -2.18427804E-10
  -13.4799995      -4.49024373E-10
  -13.4700003      -6.53528898E-10
  -13.4600000      -7.52050366E-10
  -13.4499998      -6.71814604E-10
  -13.4399996      -3.72868569E-10
  -13.4300003       1.30183392E-10
  -13.4200001       7.58069052E-10
  -13.4099998       1.37395562E-09
  -13.3999996       1.80921600E-09
  -13.3900003       1.90398319E-09
  -13.3800001       1.55352520E-09
  -13.3699999       7.48208939E-10
  -13.3599997      -4.05418754E-10
  -13.3500004      -1.69154468E-09
  -13.3400002      -2.82261636E-09
  -13.3299999      -3.50192142E-09
  -13.3199997      -3.49788021E-09
  -13.3100004      -2.71169087E-09
  -13.3000002      -1.21940735E-09
  -13.2900000       7.25803917E-10
  -13.2799997       2.73630918E-09
  -13.2700005       4.37103065E-09
  -13.2600002       5.23737098E-09
  -13.2500000       5.08930675E-09
  -13.2399998       3.89581212E-09
  -13.2299995       1.85977822E-09
  -13.2200003      -6.20512530E-10
  -13.2100000      -3.04029069E-09
  -13.1999998      -4.90637131E-09
  -13.1899996      -5.85418736E-09
  -13.1800003      -5.73239856E-09
  -13.1700001      -4.63160443E-09
  -13.1599998      -2.84856072E-09
  -13.1499996      -7.95706778E-10
  -13.1400003       1.11785081E-09
  -13.1300001       2.59827004E-09
  -13.1199999       3.53708152E-09
  -13.1099997       4.01630684E-09
  -13.1000004       4.24516289E-09
  -13.0900002       4.44725501E-09
  -13.0799999       4.73536144E-09
  -13.0699997       5.01884845E-09
  -13.0600004       4.98322272E-09
  -13.0500002       4.16174961E-09
  -13.0400000       2.09120854E-09
  -13.0299997      -1.48579715E-09
  -13.0200005      -6.43129283E-09
  -13.0100002      -1.21010375E-08
  -13.0000000      -1.73654158E-08
  -12.9899998      -2.07848174E-08
  -12.9799995      -2.09203055E-08
  -12.9700003      -1.67182748E-08
  -12.9600000      -7.87708387E-09
  -12.9499998       4.90572871E-09
  -12.9399996       1.98895034E-08
  -12.9300003       3.44919826E-08
  -12.9200001       4.57205722E-08
  -12.9099998       5.07581923E-08
  -12.8999996       4.75822191E-08
  -12.8900003       3.54765675E-08
  -12.8800001       1.53105670E-08
  -12.8699999      -1.04931921E-08
  -12.8599997      -3.83120842E-08
  -12.8500004      -6.39313669E-08
  -12.8400002      -8.32798293E-08
  -12.8299999      -9.31336430E-08
  -12.8199997      -9.16362382E-08
  -12.8100004      -7.85278473E-08
  -12.8000002      -5.50512169E-08
  -12.7900000      -2.35827269E-08
  -12.7799997       1.28934854E-08
  -12.7700005       5.13135490E-08
  -12.7600002       8.89165932E-08
  -12.7500000       1.23383671E-07
  -12.7399998       1.52715913E-07
  -12.7299995       1.74922263E-07
  -12.7200003       1.87660532E-07
  -12.7100000       1.88006908E-07
  -12.6999998       1.72510553E-07
  -12.6899996       1.37620333E-07
  -12.6800003       8.04652842E-08
  -12.6700001      -1.39653067E-10
  -12.6599998      -1.02680225E-07
  -12.6499996      -2.22177405E-07
  -12.6400003      -3.49897874E-07
  -12.6300001      -4.73681069E-07
  -12.6199999      -5.78891218E-07
  -12.6099997      -6.49868525E-07
  -12.6000004      -6.71641885E-07
  -12.5900002      -6.31619628E-07
  -12.5799999      -5.21004267E-07
  -12.5699997      -3.35771261E-07
  -12.5600004      -7.71900446E-08
  -12.5500002       2.47999225E-07
  -12.5400000       6.27554300E-07
  -12.5299997       1.04363414E-06
  -12.5200005       1.47251797E-06
  -12.5100002       1.88417209E-06
  -12.5000000       2.24188898E-06
  -12.4899998       2.50237235E-06
  -12.4799995       2.61671494E-06
  -12.4700003       2.53264079E-06
  -12.4600000       2.19817707E-06
  -12.4499998       1.56662077E-06
  -12.4399996       6.02301270E-07
  -12.4300003      -7.13644113E-07
  -12.4200001      -2.37842960E-06
  -12.4099998      -4.36462642E-06
  -12.3999996      -6.61966578E-06
  -12.3900003      -9.06811238E-06
  -12.3800001      -1.16164538E-05
  -12.3699999      -1.41597084E-05
  -12.3599997      -1.65888596E-05
  -12.3500004      -1.87980040E-05
  -12.3400002      -2.06903242E-05
  -12.3299999      -2.21822302E-05
  -12.3199997      -2.32056464E-05
  -12.3100004      -2.37086915E-05
  -12.3000002      -2.36554260E-05
  -12.2900000      -2.30253354E-05
  -12.2799997      -2.18130754E-05
  -12.2700005      -2.00286922E-05
  -12.2600002      -1.76981266E-05
  -12.2500000      -1.48634172E-05
  -12.2399998      -1.15820067E-05
  -12.2299995      -7.92457195E-06
  -12.2200003      -3.97119584E-06
  -12.2100000       1.93768642E-07
  -12.1999998       4.48735864E-06
  -12.1899996       8.83304801E-06
  -12.1800003       1.31640172E-05
  -12.1700001       1.74238521E-05
  -12.1599998       2.15644523E-05
  -12.1499996       2.55417053E-05
  -12.1400003       2.93101039E-05
  -12.1300001       3.28180904E-05
  -12.1199999       3.60055747E-05
  -12.1099997       3.88050212E-05
  -12.1000004       4.11463370E-05
  -12.0900002       4.29649845E-05
  -12.0799999       4.42116943E-05
  -12.0699997       4.48616920E-05
  -12.0600004       4.49210856E-05
  -12.0500002       4.44286525E-05
  -12.0400000       4.34521498E-05
  -12.0299997       4.20794386E-05
  -12.0200005       4.04058846E-05
  -12.0100002       3.85203457E-05
  -12.0000000       3.64924272E-05
  -11.9899998       3.43632892E-05
  -11.9799995       3.21416665E-05
  -11.9700003       2.98055766E-05
  -11.9600000       2.73089972E-05
  -11.9499998       2.45918436E-05
  -11.9399996       2.15911496E-05
  -11.9300003       1.82513195E-05
  -11.9200001       1.45316790E-05
  -11.9099998       1.04107567E-05
  -11.8999996       5.88715693E-06
  -11.8900003       9.78195430E-07
  -11.8800001      -4.28258318E-06
  -11.8699999      -9.84747021E-06
  -11.8599997      -1.56554306E-05
  -11.8500004      -2.16313529E-05
  -11.8400002      -2.76843475E-05
  -11.8299999      -3.37061247E-05
  -11.8199997      -3.95709831E-05
  -11.8100004      -4.51386659E-05
  -11.8000002      -5.02609291E-05
  -11.7900000      -5.47916170E-05
  -11.7799997      -5.85993985E-05
  -11.7700005      -6.15811223E-05
  -11.7600002      -6.36735931E-05
  -11.7500000      -6.48614223E-05
  -11.7399998      -6.51790906E-05
  -11.7299995      -6.47064880E-05
  -11.7200003      -6.35583056E-05
  -11.7100000      -6.18687918E-05
  -11.6999998      -5.97745129E-05
  -11.6899996      -5.73979050E-05
  -11.6800003      -5.48344324E-05
  -11.6700001      -5.21451911E-05
  -11.6599998      -4.93558691E-05
  -11.6499996      -4.64613695E-05
  -11.6400003      -4.34345202E-05
  -11.6300001      -4.02365986E-05
  -11.6199999      -3.68270485E-05
  -11.6099997      -3.31706797E-05
  -11.6000004      -2.92413406E-05
  -11.5900002      -2.50223402E-05
  -11.5799999      -2.05047090E-05
  -11.5699997      -1.56851238E-05
  -11.5600004      -1.05651980E-05
  -11.5500002      -5.15297779E-06
  -11.5400000       5.33059506E-07
  -11.5299997       6.45882892E-06
  -11.5200005       1.25698125E-05
  -11.5100002       1.87889509E-05
  -11.5000000       2.50185967E-05
  -11.4899998       3.11472941E-05
  -11.4799995       3.70606213E-05
  -11.4700003       4.26540937E-05
  -11.4600000       4.78455222E-05
  -11.4499998       5.25836804E-05
  -11.4399996       5.68516043E-05
  -11.4300003       6.06634057E-05
  -11.4200001       6.40553262E-05
  -11.4099998       6.70735390E-05
  -11.3999996       6.97612704E-05
  -11.3900003       7.21485849E-05
  -11.3800001       7.42468910E-05
  -11.3699999       7.60491603E-05
  -11.3599997       7.75350054E-05
  -11.3500004       7.86789096E-05
  -11.3400002       7.94587831E-05
  -11.3299999       7.98625915E-05
  -11.3199997       7.98913607E-05
  -11.3100004       7.95583765E-05
  -11.3000002       7.88856269E-05
  -11.2900000       7.78991598E-05
  -11.2799997       7.66257726E-05
  -11.2700005       7.50922991E-05
  -11.2600002       7.33279230E-05
  -11.2500000       7.13688132E-05
  -11.2399998       6.92628528E-05
  -11.2299995       6.70725203E-05
  -11.2200003       6.48735222E-05
  -11.2100000       6.27483823E-05
  -11.1999998       6.07759684E-05
  -11.1899996       5.90182608E-05
  -11.1800003       5.75080594E-05
  -11.1700001       5.62405294E-05
  -11.1599998       5.51712874E-05
  -11.1499996       5.42222042E-05
  -11.1400003       5.32942904E-05
  -11.1300001       5.22856535E-05
  -11.1199999       5.11108483E-05
  -11.1099997       4.97179717E-05
  -11.1000004       4.81000825E-05
  -11.0900002       4.62989337E-05
  -11.0799999       4.44003927E-05
  -11.0699997       4.25227190E-05
  -11.0600004       4.07999396E-05
  -11.0500002       3.93637274E-05
  -11.0400000       3.83263105E-05
  -11.0299997       3.77673932E-05
  -11.0200005       3.77260476E-05
  -11.0100002       3.81982427E-05
  -11.0000000       3.91390677E-05
  -10.9899998       4.04682432E-05
  -10.9799995       4.20775905E-05
  -10.9700003       4.38387215E-05
  -10.9600000       4.56105772E-05
  -10.9499998       4.72461252E-05
  -10.9399996       4.85991768E-05
  -10.9300003       4.95313470E-05
  -10.9200001       4.99203779E-05
  -10.9099998       4.96694884E-05
  -10.8999996       4.87173602E-05
  -10.8900003       4.70473460E-05
  -10.8800001       4.46939448E-05
  -10.8699999       4.17446681E-05
  -10.8599997       3.83356637E-05
  -10.8500004       3.46404995E-05
  -10.8400002       3.08530325E-05
  -10.8299999       2.71661975E-05
  -10.8199997       2.37501681E-05
  -10.8100004       2.07332232E-05
  -10.8000002       1.81884916E-05
  -10.7900000       1.61287371E-05
  -10.7799997       1.45096892E-05
  -10.7700005       1.32406785E-05
  -10.7600002       1.22003894E-05
  -10.7500000       1.12546395E-05
  -10.7399998       1.02734375E-05
  -10.7299995       9.14501925E-06
  -10.7200003       7.78600315E-06
  -10.7100000       6.14783039E-06
  -10.6999998       4.21993627E-06
  -10.6899996       2.03085392E-06
  -10.6800003      -3.52215295E-07
  -10.6700001      -2.82542851E-06
  -10.6599998      -5.25259111E-06
  -10.6499996      -7.47213380E-06
  -10.6400003      -9.30761234E-06
  -10.6300001      -1.05811205E-05
  -10.6199999      -1.11286454E-05
  -10.6099997      -1.08151771E-05
  -10.6000004      -9.54696316E-06
  -10.5900002      -7.27908173E-06
  -10.5799999      -4.01675879E-06
  -10.5699997       1.89676513E-07
  -10.5600004       5.25474661E-06
  -10.5500002       1.10707115E-05
  -10.5400000       1.75205187E-05
  -10.5299997       2.44884886E-05
  -10.5200005       3.18672828E-05
  -10.5100002       3.95604366E-05
  -10.5000000       4.74808621E-05
  -10.4899998       5.55467741E-05
  -10.4799995       6.36765108E-05
  -10.4700003       7.17836083E-05
  -10.4600000       7.97733010E-05
  -10.4499998       8.75414116E-05
  -10.4399996       9.49752794E-05
  -10.4300003       1.01957325E-04
  -10.4200001       1.08370092E-04
  -10.4099998       1.14102746E-04
  -10.3999996       1.19057884E-04
  -10.3900003       1.23157850E-04
  -10.3800001       1.26349638E-04
  -10.3699999       1.28607033E-04
  -10.3599997       1.29930369E-04
  -10.3500004       1.30343004E-04
  -10.3400002       1.29886001E-04
  -10.3299999       1.28612111E-04
  -10.3199997       1.26580650E-04
  -10.3100004       1.23854552E-04
  -10.3000002       1.20500663E-04
  -10.2900000       1.16592491E-04
  -10.2799997       1.12214620E-04
  -10.2700005       1.07466192E-04
  -10.2600002       1.02462414E-04
  -10.2500000       9.73313145E-05
  -10.2399998       9.22065738E-05
  -10.2299995       8.72166929E-05
  -10.2200003       8.24731760E-05
  -10.2100000       7.80603368E-05
  -10.1999998       7.40293690E-05
  -10.1899996       7.03981932E-05
  -10.1800003       6.71571470E-05
  -10.1700001       6.42791274E-05
  -10.1599998       6.17313635E-05
  -10.1499996       5.94861594E-05
  -10.1400003       5.75280974E-05
  -10.1300001       5.58566353E-05
  -10.1199999       5.44841896E-05
  -10.1099997       5.34315914E-05
  -10.1000004       5.27225529E-05
  -10.0900002       5.23796189E-05
  -10.0799999       5.24217758E-05
  -10.0699997       5.28638229E-05
  -10.0600004       5.37162814E-05
  -10.0500002       5.49833057E-05
  -10.0400000       5.66589842E-05
  -10.0299997       5.87202558E-05
  -10.0200005       6.11202267E-05
  -10.0100002       6.37828634E-05
  -10.0000000       6.66034539E-05
  -9.98999977       6.94569317E-05
  -9.97999954       7.22136101E-05
  -9.97000027       7.47608792E-05
  -9.96000004       7.70258703E-05
  -9.94999981       7.89926344E-05
  -9.93999958       8.07103861E-05
  -9.93000031       8.22880902E-05
  -9.92000008       8.38772612E-05
  -9.90999985       8.56457991E-05
  -9.89999962       8.77502753E-05
  -9.89000034       9.03135078E-05
  -9.88000011       9.34133714E-05
  -9.86999989       9.70845504E-05
  -9.85999966       1.01332982E-04
  -9.85000038       1.06156542E-04
  -9.84000015       1.11565547E-04
  -9.82999992       1.17596064E-04
  -9.81999969       1.24311948E-04
  -9.81000042       1.31795765E-04
  -9.80000019       1.40131800E-04
  -9.78999996       1.49387706E-04
  -9.77999973       1.59600531E-04
  -9.77000046       1.70772444E-04
  -9.76000023       1.82876101E-04
  -9.75000000       1.95866291E-04
  -9.73999977       2.09692589E-04
  -9.72999954       2.24305477E-04
  -9.72000027       2.39652902E-04
  -9.71000004       2.55664985E-04
  -9.69999981       2.72232253E-04
  -9.68999958       2.89183838E-04
  -9.68000031       3.06273490E-04
  -9.67000008       3.23179935E-04
  -9.65999985       3.39524442E-04
  -9.64999962       3.54902004E-04
  -9.64000034       3.68920097E-04
  -9.63000011       3.81234800E-04
  -9.61999989       3.91576439E-04
  -9.60999966       3.99758370E-04
  -9.60000038       4.05669183E-04
  -9.59000015       4.09250933E-04
  -9.57999992       4.10471461E-04
  -9.56999969       4.09298809E-04
  -9.56000042       4.05684055E-04
  -9.55000019       3.99556913E-04
  -9.53999996       3.90833535E-04
  -9.52999973       3.79433826E-04
  -9.52000046       3.65302170E-04
  -9.51000023       3.48428614E-04
  -9.50000000       3.28865019E-04
  -9.48999977       3.06736183E-04
  -9.47999954       2.82242923E-04
  -9.47000027       2.55661638E-04
  -9.46000004       2.27337077E-04
  -9.44999981       1.97672169E-04
  -9.43999958       1.67113962E-04
  -9.43000031       1.36137314E-04
  -9.42000008       1.05226958E-04
  -9.40999985       7.48625389E-05
  -9.39999962       4.55072150E-05
  -9.39000034       1.76021931E-05
  -9.38000011      -8.43121325E-06
  -9.36999989      -3.21852458E-05
  -9.35999966      -5.32581398E-05
  -9.35000038      -7.12501496E-05
  -9.34000015      -8.57680643E-05
  -9.32999992      -9.64387364E-05
  -9.31999969      -1.02931175E-04
  -9.31000042      -1.04980259E-04
  -9.30000019      -1.02408158E-04
  -9.28999996      -9.51346883E-05
  -9.27999973      -8.31742291E-05
  -9.27000046      -6.66202104E-05
  -9.26000023      -4.56202579E-05
  -9.25000000      -2.03523432E-05
  -9.23999977       8.99212409E-06
  -9.22999954       4.22106714E-05
  -9.22000027       7.90788326E-05
  -9.21000004       1.19327582E-04
  -9.19999981       1.62619690E-04
  -9.18999958       2.08532845E-04
  -9.18000031       2.56558153E-04
  -9.17000008       3.06117232E-04
  -9.15999985       3.56593577E-04
  -9.14999962       4.07371786E-04
  -9.14000034       4.57874179E-04
  -9.13000011       5.07584424E-04
  -9.11999989       5.56052779E-04
  -9.10999966       6.02884218E-04
  -9.10000038       6.47714653E-04
  -9.09000015       6.90185407E-04
  -9.07999992       7.29923195E-04
  -9.06999969       7.66537851E-04
  -9.06000042       7.99634552E-04
  -9.05000019       8.28839198E-04
  -9.03999996       8.53830366E-04
  -9.02999973       8.74366495E-04
  -9.02000046       8.90300842E-04
  -9.01000023       9.01582942E-04
  -9.00000000       9.08245216E-04
  -8.98999977       9.10380273E-04
  -8.97999954       9.08116752E-04
  -8.97000027       9.01599240E-04
  -8.96000004       8.90977972E-04
  -8.94999981       8.76405742E-04
  -8.93999958       8.58042331E-04
  -8.93000031       8.36061372E-04
  -8.92000008       8.10656173E-04
  -8.90999985       7.82040588E-04
  -8.89999962       7.50449137E-04
  -8.89000034       7.16135313E-04
  -8.88000011       6.79372053E-04
  -8.86999989       6.40454818E-04
  -8.85999966       5.99707884E-04
  -8.85000038       5.57491381E-04
  -8.84000015       5.14205138E-04
  -8.82999992       4.70288272E-04
  -8.81999969       4.26210929E-04
  -8.81000042       3.82462371E-04
  -8.80000019       3.39539198E-04
  -8.78999996       2.97934748E-04
  -8.77999973       2.58135551E-04
  -8.77000046       2.20624206E-04
  -8.76000023       1.85882294E-04
  -8.75000000       1.54395544E-04
  -8.73999977       1.26644678E-04
  -8.72999954       1.03088998E-04
  -8.72000027       8.41383298E-05
  -8.71000004       7.01174940E-05
  -8.69999981       6.12334043E-05
  -8.68999958       5.75530466E-05
  -8.68000031       5.89960910E-05
  -8.67000008       6.53473471E-05
  -8.65999985       7.62823038E-05
  -8.64999962       9.13991316E-05
  -8.64000034       1.10247864E-04
  -8.63000011       1.32348956E-04
  -8.61999989       1.57201066E-04
  -8.60999966       1.84278368E-04
  -8.60000038       2.13025633E-04
  -8.59000015       2.42860347E-04
  -8.57999992       2.73187237E-04
  -8.56999969       3.03426379E-04
  -8.56000042       3.33047064E-04
  -8.55000019       3.61599959E-04
  -8.53999996       3.88737302E-04
  -8.52999973       4.14210110E-04
  -8.52000046       4.37845010E-04
  -8.51000023       4.59506002E-04
  -8.50000000       4.79052891E-04
  -8.48999977       4.96314606E-04
  -8.47999954       5.11084392E-04
  -8.47000027       5.23142633E-04
  -8.46000004       5.32301783E-04
  -8.44999981       5.38458640E-04
  -8.43999958       5.41639689E-04
  -8.43000031       5.42022230E-04
  -8.42000008       5.39923843E-04
  -8.40999985       5.35767525E-04
  -8.39999962       5.30029996E-04
  -8.39000034       5.23189723E-04
  -8.38000011       5.15689200E-04
  -8.36999989       5.07924648E-04
  -8.35999966       5.00256137E-04
  -8.35000038       4.93032450E-04
  -8.34000015       4.86613048E-04
  -8.32999992       4.81377792E-04
  -8.31999969       4.77711787E-04
  -8.31000042       4.75970155E-04
  -8.30000019       4.76432964E-04
  -8.28999996       4.79265495E-04
  -8.27999973       4.84500430E-04
  -8.27000046       4.92047344E-04
  -8.26000023       5.01731818E-04
  -8.25000000       5.13350067E-04
  -8.23999977       5.26726013E-04
  -8.22999954       5.41750051E-04
  -8.22000027       5.58393367E-04
  -8.21000004       5.76693681E-04
  -8.19999981       5.96721366E-04
  -8.18999958       6.18544815E-04
  -8.18000031       6.42198604E-04
  -8.17000008       6.67675224E-04
  -8.15999985       6.94935618E-04
  -8.14999962       7.23929552E-04
  -8.14000034       7.54616049E-04
  -8.13000011       7.86970893E-04
  -8.11999989       8.20973597E-04
  -8.10999966       8.56579689E-04
  -8.10000038       8.93685152E-04
  -8.09000015       9.32099298E-04
  -8.07999992       9.71537898E-04
  -8.06999969       1.01164356E-03
  -8.06000042       1.05202594E-03
  -8.05000019       1.09231542E-03
  -8.03999996       1.13220606E-03
  -8.02999973       1.17147889E-03
  -8.02000046       1.20999443E-03
  -8.01000023       1.24765793E-03
  -8.00000000       1.28437183E-03
  -7.98999977       1.31999166E-03
  -7.98000002       1.35429879E-03
  -7.96999979       1.38700055E-03
  -7.96000004       1.41775992E-03
  -7.94999981       1.44624047E-03
  -7.94000006       1.47215172E-03
  -7.92999983       1.49527937E-03
  -7.92000008       1.51549210E-03
  -7.90999985       1.53272925E-03
  -7.90000010       1.54696754E-03
  -7.88999987       1.55819219E-03
  -7.88000011       1.56637921E-03
  -7.86999989       1.57149555E-03
  -7.86000013       1.57351652E-03
  -7.84999990       1.57245563E-03
  -7.84000015       1.56838819E-03
  -7.82999992       1.56146486E-03
  -7.82000017       1.55190320E-03
  -7.80999994       1.53996679E-03
  -7.80000019       1.52593292E-03
  -7.78999996       1.51006738E-03
  -7.78000021       1.49261358E-03
  -7.76999998       1.47379667E-03
  -7.76000023       1.45384192E-03
  -7.75000000       1.43299613E-03
  -7.73999977       1.41153997E-03
  -7.73000002       1.38978253E-03
  -7.71999979       1.36804429E-03
  -7.71000004       1.34662213E-03
  -7.69999981       1.32576039E-03
  -7.69000006       1.30563206E-03
  -7.67999983       1.28634926E-03
  -7.67000008       1.26798381E-03
  -7.65999985       1.25061034E-03
  -7.65000010       1.23434747E-03
  -7.63999987       1.21938053E-03
  -7.63000011       1.20596285E-03
  -7.61999989       1.19439210E-03
  -7.61000013       1.18496513E-03
  -7.59999990       1.17793446E-03
  -7.59000015       1.17347203E-03
  -7.57999992       1.17165921E-03
  -7.57000017       1.17250264E-03
  -7.55999994       1.17596739E-03
  -7.55000019       1.18202041E-03
  -7.53999996       1.19065808E-03
  -7.53000021       1.20192592E-03
  -7.51999998       1.21590565E-03
  -7.51000023       1.23269169E-03
  -7.50000000       1.25235773E-03
  -7.48999977       1.27492659E-03
  -7.48000002       1.30036077E-03
  -7.46999979       1.32856367E-03
  -7.46000004       1.35940185E-03
  -7.44999981       1.39272120E-03
  -7.44000006       1.42836513E-03