  -16.0000000       0.00000000    
  -15.9899998       0.00000000    
  -15.9799995       0.00000000    
  -15.9700003       0.00000000    
  -15.9600000       0.00000000    
  -15.9499998       0.00000000    
  -15.9399996       0.00000000    
  -15.9300003       0.00000000    
  -15.9200001       0.00000000    
  -15.9099998       0.00000000    
  -15.8999996       0.00000000    
  -15.8900003       0.00000000    
  -15.8800001       0.00000000    
  -15.8699999       0.00000000    
  -15.8599997       0.00000000    
  -15.8500004      -2.80259693E-45
  -15.8400002      -7.56701171E-44
  -15.8299999      -1.04396736E-42
  -15.8199997      -1.03443853E-41
  -15.8100004      -7.93134931E-41
  -15.8000002      -4.95545380E-40
  -15.7900000      -2.61331374E-39
  -15.7799997      -1.19243521E-38
  -15.7700005      -4.79279388E-38
  -15.7600002      -1.71941765E-37
  -15.7500000      -5.55952633E-37
  -15.7399998      -1.63152987E-36
  -15.7299995      -4.36586702E-36
  -15.7200003      -1.06782376E-35
  -15.7100000      -2.38688691E-35
  -15.6999998      -4.85973701E-35
  -15.6899996      -8.93779438E-35
  -15.6800003      -1.45913907E-34
  -15.6700001      -2.03469922E-34
  -15.6599998      -2.18094013E-34
  -15.6499996      -1.01485490E-34
  -15.6400003       2.80389152E-34
  -15.6300001       1.06928118E-33
  -15.6199999       2.30601686E-33
  -15.6099997       3.73634149E-33
  -15.6000004       4.57394182E-33
  -15.5900002       3.36966366E-33
  -15.5799999      -1.74002827E-33
  -15.5699997      -1.20866114E-32
  -15.5600004      -2.66977660E-32
  -15.5500002      -4.01502732E-32
  -15.5400000      -4.14336544E-32
  -15.5299997      -1.60850195E-32
  -15.5200005       4.62545037E-32
  -15.5100002       1.38970986E-31
  -15.5000000       2.25369962E-31
  -15.4899998       2.36665075E-31
  -15.4799995       9.55083106E-32
  -15.4700003      -2.27422704E-31
  -15.4600000      -6.38693618E-31
  -15.4499998      -8.78898318E-31
  -15.4399996      -5.88402255E-31
  -15.4300003       4.55557805E-31
  -15.4200001       1.96278893E-30
  -15.4099998       2.82463713E-30
  -15.3999996       1.27282801E-30
  -15.3900003      -4.08533789E-30
  -15.3800001      -1.23093766E-29
  -15.3699999      -1.80554503E-29
  -15.3599997      -1.13098408E-29
  -15.3500004       1.85606548E-29
  -15.3400002       7.30068583E-29
  -15.3299999       1.31016765E-28
  -15.3199997       1.40590996E-28
  -15.3100004       2.85711376E-29
  -15.3000002      -2.58318917E-28
  -15.2900000      -6.81386503E-28
  -15.2799997      -1.03449353E-27
  -15.2700005      -9.26810067E-28
  -15.2600002       9.61734062E-29
  -15.2500000       2.24260155E-27
  -15.2399998       5.02702690E-27
  -15.2299995       6.90549962E-27
  -15.2200003       5.37537448E-27
  -15.2100000      -2.05530544E-27
  -15.1999998      -1.58998059E-26
  -15.1899996      -3.22482055E-26
  -15.1800003      -4.12543254E-26
  -15.1700001      -2.86272045E-26
  -15.1599998       1.80694753E-26
  -15.1499996       9.83825351E-26
  -15.1400003       1.86843739E-25
  -15.1300001       2.27584079E-25
  -15.1199999       1.45821850E-25
  -15.1099997      -1.16558488E-25
  -15.1000004      -5.44771268E-25
  -15.0900002      -9.95243385E-25
  -15.0799999      -1.17921975E-24
  -15.0699997      -7.31573580E-25
  -15.0600004       6.08660373E-25
  -15.0500002       2.73282441E-24
  -15.0400000       4.91845979E-24
  -15.0299997       5.78616537E-24
  -15.0200005       3.65146398E-24
  -15.0100002      -2.63601638E-24
  -15.0000000      -1.25158802E-23
  -14.9899998      -2.26880167E-23
  -14.9799995      -2.70017369E-23
  -14.9700003      -1.80490981E-23
  -14.9600000       9.21794381E-24
  -14.9499998       5.25425444E-23
  -14.9399996       9.81262376E-23
  -14.9300003       1.20213554E-22
  -14.9200001       8.75783595E-23
  -14.9099998      -2.19208479E-23
  -14.8999996      -2.01523896E-22
  -14.8900003      -3.98407549E-22
  -14.8800001      -5.11113305E-22
  -14.8699999      -4.13318761E-22
  -14.8599997      -8.60368543E-24
  -14.8500004       6.93722664E-22
  -14.8400002       1.51033315E-21
  -14.8299999       2.06660595E-21
  -14.8199997       1.87405947E-21
  -14.8100004       5.22287362E-22
  -14.8000002      -2.04499323E-21
  -14.7900000      -5.26548362E-21
  -14.7799997      -7.85553394E-21
  -14.7700005      -8.02642267E-21
  -14.7600002      -4.10474768E-21
  -14.7500000       4.51917405E-21
  -14.7399998       1.64089789E-20
  -14.7299995       2.75538192E-20
  -14.7200003       3.18369701E-20
  -14.7100000       2.28531537E-20
  -14.6999998      -3.05363740E-21
  -14.6899996      -4.33468813E-20
  -14.6800003      -8.69268273E-20
  -14.6700001      -1.14605486E-19
  -14.6599998      -1.03782952E-19
  -14.6499996      -3.73751963E-20
  -14.6400003       8.49807750E-20
  -14.6300001       2.37558750E-19
  -14.6199999       3.66413016E-19
  -14.6099997       3.99276178E-19
  -14.6000004       2.69104575E-19
  -14.5900002      -5.26153173E-20
  -14.5799999      -5.23111087E-19
  -14.5699997      -1.01124226E-18
  -14.5600004      -1.31145578E-18
  -14.5500002      -1.19754959E-18
  -14.5400000      -5.11436570E-19
  -14.5299997       7.35602154E-19
  -14.5200005       2.28743812E-18
  -14.5100002       3.63772651E-18
  -14.5000000       4.12843983E-18
  -14.4899998       3.15645339E-18
  -14.4799995       4.48295858E-19
  -14.4700003      -3.68240915E-18
  -14.4600000      -8.20868894E-18
  -14.4499998      -1.15014129E-17
  -14.4399996      -1.17295534E-17
  -14.4300003      -7.50384006E-18
  -14.4200001       1.39788871E-18
  -14.4099998       1.34798825E-17
  -14.3999996       2.54351669E-17
  -14.3900003       3.27165219E-17
  -14.3800001       3.07936049E-17
  -14.3699999       1.68600916E-17
  -14.3599997      -8.49975477E-18
  -14.3500004      -4.03259449E-17
  -14.3400002      -6.95746510E-17
  -14.3299999      -8.49970894E-17
  -14.3199997      -7.64249373E-17
  -14.3100004      -3.87096141E-17
  -14.3000002       2.48985864E-17
  -14.2900000       1.01295916E-16
  -14.2799997       1.69054899E-16
  -14.2700005       2.03231725E-16
  -14.2600002       1.82675453E-16
  -14.2500000       9.80015598E-17
  -14.2399998      -4.22787661E-17
  -14.2299995      -2.09939485E-16
  -14.2200003      -3.61096392E-16
  -14.2100000      -4.46092231E-16
  -14.1999998      -4.23251961E-16
  -14.1899996      -2.72952211E-16
  -14.1800003      -7.75264358E-18
  -14.1700001       3.25075866E-16
  -14.1599998       6.50454917E-16
  -14.1499996       8.81037720E-16
  -14.1400003       9.37978345E-16
  -14.1300001       7.71799110E-16
  -14.1199999       3.78005314E-16
  -14.1099997      -1.96505781E-16
  -14.1000004      -8.57670993E-16
  -14.0900002      -1.47784041E-15
  -14.0799999      -1.91554870E-15
  -14.0699997      -2.03793290E-15
  -14.0600004      -1.74330212E-15
  -14.0500002      -9.82976230E-16
  -14.0400000       2.17587650E-16
  -14.0299997       1.73941339E-15
  -14.0200005       3.35666663E-15
  -14.0100002       4.73807191E-15
  -14.0000000       5.47497321E-15
  -13.9899998       5.14677971E-15
  -13.9799995       3.42676581E-15
  -13.9700003       2.16528951E-16
  -13.9600000      -4.22113321E-15
  -13.9499998      -9.17746307E-15
  -13.9399996      -1.35136805E-14
  -13.9300003      -1.58189281E-14
  -13.9200001      -1.47197674E-14
  -13.9099998      -9.30239958E-15
  -13.8999996       4.45118673E-16
  -13.8900003       1.33049869E-14
  -13.8800001       2.67612657E-14
  -13.8699999       3.73016200E-14
  -13.8599997       4.11176898E-14
  -13.8500004       3.51150078E-14
  -13.8400002       1.80193368E-14
  -13.8299999      -8.72632993E-15
  -13.8199997      -4.06021279E-14
  -13.8100004      -7.04432714E-14
  -13.8000002      -8.97466576E-14
  -13.7900000      -9.06951990E-14
  -13.7799997      -6.84917821E-14
  -13.7700005      -2.34061817E-14
  -13.7600002       3.81165843E-14
  -13.7500000       1.03812710E-13
  -13.7399998       1.57641112E-13
  -13.7299995       1.83295707E-13
  -13.7200003       1.68512285E-13
  -13.7100000       1.09134320E-13
  -13.6999998       1.17681032E-14
  -13.6899996      -1.05968863E-13
  -13.6800003      -2.18115429E-13
  -13.6700001      -2.95740917E-13
  -13.6599998      -3.14029591E-13
  -13.6499996      -2.59435485E-13
  -13.6400003      -1.34975310E-13
  -13.6300001       3.80792471E-14
  -13.6199999       2.23130894E-13
  -13.6099997       3.75718391E-13
  -13.6000004       4.54155593E-13
  -13.5900002       4.30906856E-13
  -13.5799999       3.01691506E-13
  -13.5699997       8.94886446E-14
  -13.5600004      -1.58379034E-13
  -13.5500002      -3.80238430E-13
  -13.5400000      -5.15333436E-13
  -13.5299997      -5.20817059E-13
  -13.5200005      -3.85918890E-13
  -13.5100002      -1.38874724E-13
  -13.5000000       1.56381445E-13
  -13.4899998       4.14288856E-13
  -13.4799995       5.50020695E-13
  -13.4700003       5.04917776E-13
  -13.4600000       2.68104278E-13
  -13.4499998      -1.12564451E-13
  -13.4399996      -5.35076052E-13
  -13.4300003      -8.64532783E-13
  -13.4200001      -9.67721237E-13
  -13.4099998      -7.53264747E-13
  -13.3999996      -2.06853699E-13
  -13.3900003       5.89231734E-13
  -13.3800001       1.46041024E-12
  -13.3699999       2.17067531E-12
  -13.3599997       2.47597732E-12
  -13.3500004       2.18928565E-12
  -13.3400002       1.24174477E-12
  -13.3299999      -2.76908759E-13
  -13.3199997      -2.11242959E-12
  -13.3100004      -3.88131801E-12
  -13.3000002      -5.14418109E-12
  -13.2900000      -5.50400524E-12
  -13.2799997      -4.70819000E-12
  -13.2700005      -2.72975306E-12
  -13.2600002       1.94546920E-13
  -13.2500000       3.58322963E-12
  -13.2399998       6.78789793E-12
  -13.2299995       9.11747240E-12
  -13.2200003       9.98436143E-12
  -13.2100000       9.04089217E-12
  -13.1999998       6.27422853E-12
  -13.1899996       2.03558633E-12
  -13.1800003      -3.00676042E-12
  -13.1700001      -7.98418970E-12
  -13.1599998      -1.19914625E-11
  -13.1499996      -1.42633284E-11
  -13.1400003      -1.43260057E-11
  -13.1300001      -1.20906679E-11
  -13.1199999      -7.86898238E-12
  -13.1099997      -2.30847915E-12
  -13.1000004       3.73612252E-12
  -13.0900002       9.36525423E-12
  -13.0799999       1.37934638E-11
  -13.0699997       1.64706096E-11
  -13.0600004       1.71421835E-11
  -13.0500002       1.58423639E-11
  -13.0400000       1.28312404E-11
  -13.0299997       8.50156837E-12
  -13.0200005       3.28643124E-12
  -13.0100002      -2.40416216E-12
  -13.0000000      -8.20176739E-12
  -12.9899998      -1.37540960E-11
  -12.9799995      -1.86737015E-11
  -12.9700003      -2.24903256E-11
  -12.9600000      -2.46386696E-11
  -12.9499998      -2.45046431E-11
  -12.9399996      -2.15356934E-11
  -12.9300003      -1.53989183E-11
  -12.9200001      -6.15065811E-12
  -12.9099998       5.63032303E-12
  -12.8999996       1.87931858E-11
  -12.8900003       3.16818377E-11
  -12.8800001       4.23259483E-11
  -12.8699999       4.87341036E-11
  -12.8599997       4.92401467E-11
  -12.8500004       4.28370117E-11
  -12.8400002       2.94301007E-11
  -12.8299999       9.95680795E-12
  -12.8199997      -1.36555160E-11
  -12.8100004      -3.86880077E-11
  -12.8000002      -6.19508680E-11
  -12.7900000      -8.01712863E-11
  -12.7799997      -9.03887520E-11
  -12.7700005      -9.03055894E-11
  -12.7600002      -7.85596380E-11
  -12.7500000      -5.49080538E-11
  -12.7399998      -2.03270924E-11
  -12.7299995       2.29588987E-11
  -12.7200003       7.15127124E-11
  -12.7100000       1.20791765E-10
  -12.6999998       1.65352634E-10
  -12.6899996       1.99187930E-10
  -12.6800003       2.16226106E-10
  -12.6700001       2.10999301E-10
  -12.6599998       1.79444154E-10
  -12.6499996       1.19748225E-10
  -12.6400003       3.31082384E-11
  -12.6300001      -7.57619523E-11
  -12.6199999      -1.98529845E-10
  -12.6099997      -3.23664595E-10
  -12.6000004      -4.37412578E-10
  -12.5900002      -5.25261334E-10
  -12.5799999      -5.73718739E-10
  -12.5699997      -5.72148107E-10
  -12.5600004      -5.14359444E-10
  -12.5500002      -3.99677846E-10
  -12.5400000      -2.33273428E-10
  -12.5299997      -2.56773075E-11
  -12.5200005       2.08452589E-10
  -12.5100002       4.52102328E-10
  -12.5000000       6.87888579E-10
  -12.4899998       8.99895547E-10
  -12.4799995       1.07502529E-09
  -12.4700003       1.20362653E-09
  -12.4600000       1.27931565E-09
  -12.4499998       1.29807565E-09
  -12.4399996       1.25687005E-09
  -12.4300003       1.15211130E-09
  -12.4200001       9.78345738E-10
  -12.4099998       7.27452931E-10
  -12.3999996       3.88577032E-10
  -12.3900003      -5.12003911E-11
  -12.3800001      -6.05574646E-10
  -12.3699999      -1.28733246E-09
  -12.3599997      -2.10659912E-09
  -12.3500004      -3.06928571E-09
  -12.3400002      -4.17593604E-09
  -12.3299999      -5.42104317E-09
  -12.3199997      -6.79278589E-09
  -12.3100004      -8.27299829E-09
  -12.3000002      -9.83717552E-09
  -12.2900000      -1.14543628E-08
  -12.2799997      -1.30868933E-08
  -12.2700005      -1.46899444E-08
  -12.2600002      -1.62112901E-08
  -12.2500000      -1.75913861E-08
  -12.2399998      -1.87642080E-08
  -12.2299995      -1.96590726E-08
  -12.2200003      -2.02035277E-08
  -12.2100000      -2.03272386E-08
  -12.1999998      -1.99663699E-08
  -12.1899996      -1.90681977E-08
  -12.1800003      -1.75951413E-08
  -12.1700001      -1.55277657E-08
  -12.1599998      -1.28663080E-08
  -12.1499996      -9.63047775E-09
  -12.1400003      -5.85780979E-09
  -12.1300001      -1.60062430E-09
  -12.1199999       3.07766213E-09
  -12.1099997       8.10636891E-09
  -12.1000004       1.34109834E-08
  -12.0900002       1.89158076E-08
  -12.0799999       2.45453258E-08
  -12.0699997       3.02248253E-08
  -12.0600004       3.58800563E-08
  -12.0500002       4.14365751E-08
  -12.0400000       4.68189789E-08
  -12.0299997       5.19507992E-08
  -12.0200005       5.67549350E-08
  -12.0100002       6.11549993E-08
  -12.0000000       6.50774865E-08
  -11.9899998       6.84544403E-08
  -11.9799995       7.12265305E-08
  -11.9700003       7.33458307E-08
  -11.9600000       7.47779794E-08
  -11.9499998       7.55033298E-08
  -11.9399996       7.55168443E-08
  -11.9300003       7.48264597E-08
  -11.9200001       7.34501313E-08
  -11.9099998       7.14115700E-08
  -11.8999996       6.87355524E-08
  -11.8900003       6.54428973E-08
  -11.8800001       6.15459044E-08
  -11.8699999       5.70453516E-08
  -11.8599997       5.19287688E-08
  -11.8500004       4.61714293E-08
  -11.8400002       3.97388007E-08
  -11.8299999       3.25918457E-08
  -11.8199997       2.46922287E-08
  -11.8100004       1.60099827E-08
  -11.8000002       6.52974919E-09
  -11.7900000      -3.74411480E-09
  -11.7799997      -1.47825929E-08
  -11.7700005      -2.65313940E-08
  -11.7600002      -3.89100592E-08
  -11.7500000      -5.18149044E-08
  -11.7399998      -6.51226202E-08
  -11.7299995      -7.86946686E-08
  -11.7200003      -9.23826136E-08
  -11.7100000      -1.06033205E-07
  -11.6999998      -1.19492853E-07
  -11.6899996      -1.32611618E-07
  -11.6800003      -1.45246844E-07
  -11.6700001      -1.57265760E-07
  -11.6599998      -1.68547800E-07
  -11.6499996      -1.78986440E-07
  -11.6400003      -1.88490262E-07
  -11.6300001      -1.96983834E-07
  -11.6199999      -2.04407286E-07
  -11.6099997      -2.10714902E-07
  -11.6000004      -2.15872873E-07
  -11.5900002      -2.19855551E-07
  -11.5799999      -2.22641034E-07
  -11.5699997      -2.24206900E-07
  -11.5600004      -2.24524825E-07
  -11.5500002      -2.23557251E-07
  -11.5400000      -2.21255860E-07
  -11.5299997      -2.17560086E-07
  -11.5200005      -2.12400138E-07
  -11.5100002      -2.05699607E-07
  -11.5000000      -1.97381723E-07
  -11.4899998      -1.87374525E-07
  -11.4799995      -1.75615199E-07
  -11.4700003      -1.62055372E-07
  -11.4600000      -1.46661492E-07
  -11.4499998      -1.29413039E-07
  -11.4399996      -1.10300725E-07
  -11.4300003      -8.93203307E-08
  -11.4200001      -6.64674786E-08
  -11.4099998      -4.17307966E-08
  -11.3999996      -1.50904675E-08
  -11.3900003       1.34833202E-08
  -11.3800001       4.40266206E-08
  -11.3699999       7.65758941E-08
  -11.3599997       1.11158847E-07
  -11.3500004       1.47783311E-07
  -11.3400002       1.86429105E-07
  -11.3299999       2.27038427E-07
  -11.3199997       2.69511389E-07
  -11.3100004       3.13706209E-07
  -11.3000002       3.59441856E-07
  -11.2900000       4.06508263E-07
  -11.2799997       4.54676439E-07
  -11.2700005       5.03712101E-07
  -11.2600002       5.53388418E-07
  -11.2500000       6.03498620E-07
  -11.2399998       6.53865868E-07
  -11.2299995       7.04347826E-07
  -11.2200003       7.54838936E-07
  -11.2100000       8.05269110E-07
  -11.1999998       8.55600717E-07
  -11.1899996       9.05820627E-07
  -11.1800003       9.55932933E-07
  -11.1700001       1.00595400E-06
  -11.1599998       1.05590357E-06
  -11.1499996       1.10580061E-06
  -11.1400003       1.15565956E-06
  -11.1300001       1.20548293E-06
  -11.1199999       1.25526151E-06
  -11.1099997       1.30497199E-06
  -11.1000004       1.35457378E-06
  -11.0900002       1.40400243E-06
  -11.0799999       1.45317824E-06
  -11.0699997       1.50199639E-06
  -11.0600004       1.55033524E-06
  -11.0500002       1.59805290E-06
  -11.0400000       1.64500204E-06
  -11.0299997       1.69103248E-06
  -11.0200005       1.73599733E-06
  -11.0100002       1.77976347E-06
  -11.0000000       1.82221754E-06
  -10.9899998       1.86326565E-06
  -10.9799995       1.90284425E-06
  -10.9700003       1.94091308E-06
  -10.9600000       1.97744589E-06
  -10.9499998       2.01242938E-06
  -10.9399996       2.04586559E-06
  -10.9300003       2.07776066E-06
  -10.9200001       2.10813096E-06
  -10.9099998       2.13700173E-06
  -10.8999996       2.16441549E-06
  -10.8900003       2.19043068E-06
  -10.8800001       2.21514074E-06
  -10.8699999       2.23866550E-06
  -10.8599997       2.26116754E-06
  -10.8500004       2.28282579E-06
  -10.8400002       2.30383625E-06
  -10.8299999       2.32442062E-06
  -10.8199997       2.34478443E-06
  -10.8100004       2.36512005E-06
  -10.8000002       2.38558323E-06
  -10.7900000       2.40630516E-06
  -10.7799997       2.42737519E-06
  -10.7700005       2.44884177E-06
  -10.7600002       2.47071080E-06
  -10.7500000       2.49298046E-06
  -10.7399998       2.51563006E-06
  -10.7299995       2.53862186E-06
  -10.7200003       2.56194039E-06
  -10.7100000       2.58557725E-06
  -10.6999998       2.60954585E-06
  -10.6899996       2.63387051E-06
  -10.6800003       2.65861036E-06
  -10.6700001       2.68384838E-06
  -10.6599998       2.70968712E-06
  -10.6499996       2.73624732E-06
  -10.6400003       2.76369974E-06
  -10.6300001       2.79221831E-06
  -10.6199999       2.82203496E-06
  -10.6099997       2.85340002E-06
  -10.6000004       2.88659885E-06
  -10.5900002       2.92195432E-06
  -10.5799999       2.95980703E-06
  -10.5699997       3.00050669E-06
  -10.5600004       3.04437845E-06
  -10.5500002       3.09174106E-06
  -10.5400000       3.14285035E-06
  -10.5299997       3.19792389E-06
  -10.5200005       3.25709630E-06
  -10.5100002       3.32048535E-06
  -10.5000000       3.38810491E-06
  -10.4899998       3.45995340E-06
  -10.4799995       3.53596579E-06
  -10.4700003       3.61606612E-06
  -10.4600000       3.70017278E-06
  -10.4499998       3.78814389E-06
  -10.4399996       3.87981618E-06
  -10.4300003       3.97499753E-06
  -10.4200001       4.07344851E-06
  -10.4099998       4.17485489E-06
  -10.3999996       4.27886062E-06
  -10.3900003       4.38506368E-06
  -10.3800001       4.49298568E-06
  -10.3699999       4.60214824E-06
  -10.3599997       4.71205112E-06
  -10.3500004       4.82223140E-06
  -10.3400002       4.93224888E-06
  -10.3299999       5.04172795E-06
  -10.3199997       5.15037755E-06
  -10.3100004       5.25796986E-06
  -10.3000002       5.36433572E-06
  -10.2900000       5.46938873E-06
  -10.2799997       5.57305066E-06
  -10.2700005       5.67529469E-06
  -10.2600002       5.77613855E-06
  -10.2500000       5.87561226E-06
  -10.2399998       5.97371809E-06
  -10.2299995       6.07052516E-06
  -10.2200003       6.16611987E-06
  -10.2100000       6.26057044E-06
  -10.1999998       6.35401557E-06
  -10.1899996       6.44657439E-06
  -10.1800003       6.53835423E-06
  -10.1700001       6.62947741E-06
  -10.1599998       6.72004535E-06
  -10.1499996       6.81012216E-06
  -10.1400003       6.89975968E-06
  -10.1300001       6.98900294E-06
  -10.1199999       7.07790241E-06
  -10.1099997       7.16652357E-06
  -10.1000004       7.25494283E-06
  -10.0900002       7.34326886E-06
  -10.0799999       7.43167948E-06
  -10.0699997       7.52035021E-06
  -10.0600004       7.60937382E-06
  -10.0500002       7.69893995E-06
  -10.0400000       7.78916456E-06
  -10.0299997       7.88009493E-06
  -10.0200005       7.97172106E-06
  -10.0100002       8.06401749E-06
  -10.0000000       8.15694875E-06
  -9.98999977       8.25041207E-06
  -9.97999954       8.34436651E-06
  -9.97000027       8.43875387E-06
  -9.96000004       8.53367419E-06
  -9.94999981       8.62915294E-06
  -9.93999958       8.72528562E-06
  -9.93000031       8.82224776E-06
  -9.92000008       8.92022217E-06
  -9.90999985       9.01940712E-06
  -9.89999962       9.11995448E-06
  -9.89000034       9.22205891E-06
  -9.88000011       9.32590865E-06
  -9.86999989       9.43174200E-06
  -9.85999966       9.53974268E-06
  -9.85000038       9.65015624E-06
  -9.84000015       9.76327829E-06
  -9.82999992       9.87936528E-06
  -9.81999969       9.99882468E-06
  -9.81000042       1.01219784E-05
  -9.80000019       1.02492859E-05
  -9.78999996       1.03811608E-05
  -9.77999973       1.05180015E-05
  -9.77000046       1.06603156E-05
  -9.76000023       1.08085269E-05
  -9.75000000       1.09630037E-05
  -9.73999977       1.11241889E-05
  -9.72999954       1.12924481E-05
  -9.72000027       1.14680706E-05
  -9.71000004       1.16513165E-05
  -9.69999981       1.18424387E-05
  -9.68999958       1.20415871E-05
  -9.68000031       1.22489018E-05
  -9.67000008       1.24644257E-05
  -9.65999985       1.26881014E-05
  -9.64999962       1.29198388E-05
  -9.64000034       1.31594616E-05
  -9.63000011       1.34066559E-05
  -9.61999989       1.36609960E-05
  -9.60999966       1.39219337E-05
  -9.60000038       1.41888850E-05
  -9.59000015       1.44610758E-05
  -9.57999992       1.47376822E-05
  -9.56999969       1.50177739E-05
  -9.56000042       1.53004712E-05
  -9.55000019       1.55846647E-05
  -9.53999996       1.58693729E-05
  -9.52999973       1.61535536E-05
  -9.52000046       1.64361736E-05
  -9.51000023       1.67162889E-05
  -9.50000000       1.69928880E-05
  -9.48999977       1.72651326E-05
  -9.47999954       1.75321111E-05
  -9.47000027       1.77930851E-05
  -9.46000004       1.80474326E-05
  -9.44999981       1.82945569E-05
  -9.43999958       1.85338940E-05
  -9.43000031       1.87651367E-05
  -9.42000008       1.89879174E-05
  -9.40999985       1.92019743E-05
  -9.39999962       1.94072763E-05
  -9.39000034       1.96039346E-05
  -9.38000011       1.97921636E-05
  -9.36999989       1.99724946E-05
  -9.35999966       2.01455605E-05
  -9.35000038       2.03120799E-05
  -9.34000015       2.04732041E-05
  -9.32999992       2.06300665E-05
  -9.31999969       2.07840749E-05
  -9.31000042       2.09367390E-05
  -9.30000019       2.10897651E-05
  -9.28999996       2.12448904E-05
  -9.27999973       2.14040574E-05
  -9.27000046       2.15694363E-05
  -9.26000023       2.17432444E-05
  -9.25000000       2.19276299E-05
  -9.23999977       2.21249757E-05
  -9.22999954       2.23373918E-05
  -9.22000027       2.25671702E-05
  -9.21000004       2.28162971E-05
  -9.19999981       2.30867154E-05
  -9.18999958       2.33801475E-05
  -9.18000031       2.36981014E-05
  -9.17000008       2.40420632E-05
  -9.15999985       2.44131079E-05
  -9.14999962       2.48122233E-05
  -9.14000034       2.52402460E-05
  -9.13000011       2.56976382E-05
  -9.11999989       2.61847435E-05
  -9.10999966       2.67017058E-05
  -9.10000038       2.72482612E-05
  -9.09000015       2.78240168E-05
  -9.07999992       2.84282323E-05
  -9.06999969       2.90600801E-05
  -9.06000042       2.97183960E-05
  -9.05000019       3.04017631E-05
  -9.03999996       3.11087206E-05
  -9.02999973       3.18375241E-05
  -9.02000046       3.25862202E-05
  -9.01000023       3.33526696E-05
  -9.00000000       3.41344785E-05
  -8.98999977       3.49291877E-05
  -8.97999954       3.57340723E-05
  -8.97000027       3.65460983E-05
  -8.96000004       3.73622461E-05
  -8.94999981       3.81795435E-05
  -8.93999958       3.89945890E-05
  -8.93000031       3.98043667E-05
  -8.92000008       4.06053441E-05
  -8.90999985       4.13943235E-05
  -8.89999962       4.21681652E-05
  -8.89000034       4.29237989E-05
  -8.88000011       4.36580158E-05
  -8.86999989       4.43679055E-05
  -8.85999966       4.50503903E-05
  -8.85000038       4.57027709E-05
  -8.84000015       4.63224569E-05
  -8.82999992       4.69069928E-05
  -8.81999969       4.74540066E-05
  -8.81000042       4.79611699E-05
  -8.80000019       4.84268276E-05
  -8.78999996       4.88492951E-05
  -8.77999973       4.92270083E-05
  -8.77000046       4.95588029E-05
  -8.76000023       4.98440058E-05
  -8.75000000       5.00818933E-05
  -8.73999977       5.02723560E-05
  -8.72999954       5.04153904E-05
  -8.72000027       5.05113421E-05
  -8.71000004       5.05608659E-05
  -8.69999981       5.05652133E-05
  -8.68999958       5.05258176E-05
  -8.68000031       5.04441014E-05
  -8.67000008       5.03223891E-05
  -8.65999985       5.01626928E-05
  -8.64999962       4.99675807E-05
  -8.64000034       4.97396468E-05
  -8.63000011       4.94813939E-05
  -8.61999989       4.91958017E-05
  -8.60999966       4.88856858E-05
  -8.60000038       4.85537894E-05
  -8.59000015       4.82030810E-05
  -8.57999992       4.78363763E-05
  -8.56999969       4.74564731E-05
  -8.56000042       4.70662271E-05
  -8.55000019       4.66687707E-05
  -8.53999996       4.62663811E-05
  -8.52999973       4.58620016E-05
  -8.52000046       4.54582005E-05
  -8.51000023       4.50571824E-05
  -8.50000000       4.46613958E-05
  -8.48999977       4.42729615E-05
  -8.47999954       4.38935749E-05
  -8.47000027       4.35247312E-05
  -8.46000004       4.31678891E-05
  -8.44999981       4.28244166E-05
  -8.43999958       4.24953359E-05
  -8.43000031       4.21809709E-05
  -8.42000008       4.18821219E-05
  -8.40999985       4.15989489E-05
  -8.39999962       4.13318267E-05
  -8.39000034       4.10807006E-05
  -8.38000011       4.08452433E-05
  -8.36999989       4.06256622E-05
  -8.35999966       4.04215061E-05
  -8.35000038       4.02326768E-05
  -8.34000015       4.00591562E-05
  -8.32999992       3.99009332E-05
  -8.31999969       3.97581280E-05
  -8.31000042       3.96311225E-05
  -8.30000019       3.95200695E-05
  -8.28999996       3.94256676E-05
  -8.27999973       3.93485097E-05
  -8.27000046       3.92894108E-05
  -8.26000023       3.92493748E-05
  -8.25000000       3.92295406E-05
  -8.23999977       3.92310394E-05
  -8.22999954       3.92556503E-05
  -8.22000027       3.93047339E-05
  -8.21000004       3.93801674E-05
  -8.19999981       3.94834860E-05
  -8.18999958       3.96172654E-05
  -8.18000031       3.97834156E-05
  -8.17000008       3.99842065E-05
  -8.15999985       4.02220358E-05
  -8.14999962       4.04988896E-05
  -8.14000034       4.08171691E-05
  -8.13000011       4.11790243E-05
  -8.11999989       4.15862451E-05
  -8.10999966       4.20412762E-05
  -8.10000038       4.25455983E-05
  -8.09000015       4.31008302E-05
  -8.07999992       4.37087219E-05
  -8.06999969       4.43707104E-05
  -8.06000042       4.50878979E-05
  -8.05000019       4.58612740E-05
  -8.03999996       4.66908314E-05
  -8.02999973       4.75777415E-05
  -8.02000046       4.85212331E-05
  -8.01000023       4.95210734E-05
  -8.00000000       5.05768439E-05
  -7.98999977       5.16875189E-05
  -7.98000002       5.28523560E-05
  -7.96999979       5.40695364E-05
  -7.96000004       5.53373102E-05
  -7.94999981       5.66537456E-05
  -7.94000006       5.80170272E-05
  -7.92999983       5.94245030E-05
  -7.92000008       6.08736045E-05
  -7.90999985       6.23613887E-05
  -7.90000010       6.38848578E-05
  -7.88999987       6.54409741E-05
  -7.88000011       6.70267327E-05
  -7.86999989       6.86387139E-05
  -7.86000013       7.02737452E-05
  -7.84999990       7.19284071E-05
  -7.84000015       7.35991052E-05
  -7.82999992       7.52827109E-05
  -7.82000017       7.69755061E-05
  -7.80999994       7.86742603E-05
  -7.80000019       8.03761723E-05
  -7.78999996       8.20776695E-05
  -7.78000021       8.37756670E-05
  -7.76999998       8.54676473E-05
  -7.76000023       8.71509765E-05
  -7.75000000       8.88227369E-05
  -7.73999977       9.04808257E-05
  -7.73000002       9.21232859E-05
  -7.71999979       9.37473742E-05
  -7.71000004       9.53525741E-05
  -7.69999981       9.69368411E-05
  -7.69000006       9.84991202E-05
  -7.67999983       1.00038713E-04
  -7.67000008       1.01554353E-04
  -7.65999985       1.03046026E-04
  -7.65000010       1.04513369E-04
  -7.63999987       1.05956322E-04
  -7.63000011       1.07375185E-04
  -7.61999989       1.08771099E-04
  -7.61000013       1.10143534E-04
  -7.59999990       1.11494621E-04
  -7.59000015       1.12824753E-04
  -7.57999992       1.14135837E-04
  -7.57000017       1.15429139E-04
  -7.55999994       1.16706295E-04
  -7.55000019       1.17968943E-04
  -7.53999996       1.19219440E-04
  -7.53000021       1.20459285E-04
  -7.51999998       1.21690231E-04
  -7.51000023       1.22914818E-04
  -7.50000000       1.24134764E-04
  -7.48999977       1.25352657E-04
  -7.48000002       1.26570230E-04
  -7.46999979       1.27790277E-04
  -7.46000004       1.29015505E-04
  -7.44999981       1.30247543E-04
  -7.44000006       1.31488909E-04