  -16.0000000       0.00000000    
  -15.9899998       0.00000000    
  -15.9799995       0.00000000    
  -15.9700003       0.00000000    
  -15.9600000       0.00000000    
  -15.9499998       0.00000000    
  -15.9399996       0.00000000    
  -15.9300003       0.00000000    
  -15.9200001       0.00000000    
  -15.9099998       0.00000000    
  -15.8999996       0.00000000    
  -15.8900003       0.00000000    
  -15.8800001       0.00000000    
  -15.8699999       0.00000000    
  -15.8599997       0.00000000    
  -15.8500004       0.00000000    
  -15.8400002      -0.00000000    
  -15.8299999       0.00000000    
  -15.8199997       5.60519386E-45
  -15.8100004       3.08285662E-44
  -15.8000002       1.59748025E-43
  -15.7900000       7.00649232E-43
  -15.7799997       2.63444111E-42
  -15.7700005       8.70486606E-42
  -15.7600002       2.55204476E-41
  -15.7500000       6.67424446E-41
  -15.7399998       1.55647826E-40
  -15.7299995       3.21275699E-40
  -15.7200003       5.75500668E-40
  -15.7100000       8.52369218E-40
  -15.6999998       8.96584389E-40
  -15.6899996       1.24872509E-40
  -15.6800003      -2.42916910E-39
  -15.6700001      -7.84678375E-39
  -15.6599998      -1.63920167E-38
  -15.6499996      -2.56569397E-38
  -15.6400003      -2.79710524E-38
  -15.6300001      -8.14617257E-39
  -15.6199999       5.62283284E-38
  -15.6099997       1.88714209E-37
  -15.6000004       3.98317452E-37
  -15.5900002       6.49868104E-37
  -15.5799999       8.16369939E-37
  -15.5699997       6.14240236E-37
  -15.5600004      -4.54882423E-37
  -15.5500002      -3.07156193E-36
  -15.5400000      -7.78582915E-36
  -15.5299997      -1.41408082E-35
  -15.5200005      -1.90453862E-35
  -15.5100002      -1.47989128E-35
  -15.5000000       1.14997922E-35
  -15.4899998       7.36349865E-35
  -15.4799995       1.72694917E-34
  -15.4700003       2.72846404E-34
  -15.4600000       2.75021528E-34
  -15.4499998       1.42425131E-35
  -15.4399996      -6.77059950E-34
  -15.4300003      -1.80083494E-33
  -15.4200001      -2.93247674E-33
  -15.4099998      -2.99528175E-33
  -15.3999996      -3.52690343E-34
  -15.3900003       6.41131223E-33
  -15.3800001       1.68144769E-32
  -15.3699999       2.62842976E-32
  -15.3599997       2.48552609E-32
  -15.3500004      -8.17344365E-34
  -15.3400002      -5.96476455E-32
  -15.3299999      -1.42240377E-31
  -15.3199997      -2.05906291E-31
  -15.3100004      -1.70720771E-31
  -15.3000002       5.62460000E-32
  -15.2900000       5.15705499E-31
  -15.2799997       1.09778919E-30
  -15.2700005       1.45631873E-30
  -15.2600002       1.02355146E-30
  -15.2500000      -7.71676024E-31
  -15.2399998      -4.03399832E-30
  -15.2299995      -7.78600513E-30
  -15.2200003      -9.54887878E-30
  -15.2100000      -5.67157781E-30
  -15.1999998       7.04846801E-30
  -15.1899996       2.83600527E-29
  -15.1800003       5.10619700E-29
  -15.1700001       5.92080397E-29
  -15.1599998       3.11285439E-29
  -15.1499996      -5.01412882E-29
  -15.1400003      -1.79417310E-28
  -15.1300001      -3.10882047E-28
  -15.1199999      -3.51072738E-28
  -15.1099997      -1.79485609E-28
  -15.1000004       2.91647471E-28
  -15.0900002       1.02389957E-27
  -15.0799999       1.75972932E-27
  -15.0699997       1.99510761E-27
  -15.0600004       1.09607148E-27
  -15.0500002      -1.39079182E-27
  -15.0400000      -5.27080110E-27
  -15.0299997      -9.25036863E-27
  -15.0200005      -1.08148462E-26
  -15.0100002      -6.79653667E-27
  -15.0000000       5.14977759E-27
  -14.9899998       2.43488836E-26
  -14.9799995       4.49807656E-26
  -14.9700003       5.54247078E-26
  -14.9600000       4.06681062E-26
  -14.9499998      -1.12534059E-26
  -14.9399996      -9.95288918E-26
  -14.9300003      -2.00872447E-25
  -14.9200001      -2.65686529E-25
  -14.9099998      -2.26847455E-25
  -14.8999996      -2.54821039E-26
  -14.8900003       3.48599927E-25
  -14.8800001       8.14363694E-25
  -14.8699999       1.17772634E-24
  -14.8599997       1.15781845E-24
  -14.8500004       4.80905730E-25
  -14.8400002      -9.62646470E-25
  -14.8299999      -2.94115902E-24
  -14.8199997      -4.76741067E-24
  -14.8100004      -5.35256324E-24
  -14.8000002      -3.51280708E-24
  -14.7900000       1.46640782E-24
  -14.7799997       9.13759359E-24
  -14.7700005       1.73503535E-23
  -14.7600002       2.22428420E-23
  -14.7500000       1.91103400E-23
  -14.7399998       4.25960276E-24
  -14.7299995      -2.24789086E-23
  -14.7200003      -5.54432964E-23
  -14.7100000      -8.23186452E-23
  -14.6999998      -8.61091786E-23
  -14.6899996      -5.06022622E-23
  -14.6800003       3.12846552E-23
  -14.6700001       1.48641943E-22
  -14.6599998       2.67163207E-22
  -14.6499996       3.31761626E-22
  -14.6400003       2.80503893E-22
  -14.6300001       6.96289529E-23
  -14.6199999      -2.95907935E-22
  -14.6099997      -7.37515072E-22
  -14.6000004      -1.09818213E-21
  -14.5900002      -1.17079247E-21
  -14.5799999      -7.64186800E-22
  -14.5699997       2.03024575E-22
  -14.5600004       1.60848249E-21
  -14.5500002       3.07353113E-21
  -14.5400000       3.99617012E-21
  -14.5299997       3.69779663E-21
  -14.5200005       1.67623446E-21
  -14.5100002      -2.09207952E-21
  -14.5000000      -6.90625695E-21
  -14.4899998      -1.12826814E-20
  -14.4799995      -1.31971917E-20
  -14.4700003      -1.06662500E-20
  -14.4600000      -2.58159575E-21
  -14.4499998       1.04305892E-20
  -14.4399996       2.54667860E-20
  -14.4300003       3.74804583E-20
  -14.4200001       4.03361410E-20
  -14.4099998       2.87590666E-20
  -14.3999996       7.87514061E-22
  -14.3900003      -4.00283749E-20
  -14.3800001      -8.36495765E-20
  -14.3699999      -1.14676313E-19
  -14.3599997      -1.16001172E-19
  -14.3500004      -7.45981785E-20
  -14.3400002       1.19123516E-20
  -14.3299999       1.30104382E-19
  -14.3199997       2.49473459E-19
  -14.3100004       3.27006029E-19
  -14.3000002       3.18094398E-19
  -14.2900000       1.92135574E-19
  -14.2799997      -5.11708403E-20
  -14.2700005      -3.70482668E-19
  -14.2600002      -6.82283023E-19
  -14.2500000      -8.75139200E-19
  -14.2399998      -8.38810720E-19
  -14.2299995      -5.03008944E-19
  -14.2200003       1.24508531E-19
  -14.2100000       9.33974800E-19
  -14.1999998       1.71666809E-18
  -14.1899996       2.20263039E-18
  -14.1800003       2.13121389E-18
  -14.1700001       1.34086722E-18
  -14.1599998      -1.46043791E-19
  -14.1499996      -2.07314643E-18
  -14.1400003      -3.96162727E-18
  -14.1300001      -5.19775233E-18
  -14.1199999      -5.18973240E-18
  -14.1099997      -3.56281993E-18
  -14.1000004      -3.40560727E-19
  -14.0900002       3.94949833E-18
  -14.0799999       8.29962669E-18
  -14.0699997       1.14021438E-17
  -14.0600004       1.19705608E-17
  -14.0500002       9.13794529E-18
  -14.0400000       2.82905572E-18
  -14.0299997      -6.01435744E-18
  -14.0200005      -1.54593919E-17
  -14.0100002      -2.29110187E-17
  -14.0000000      -2.57164282E-17
  -13.9899998      -2.19274083E-17
  -13.9799995      -1.10302202E-17
  -13.9700003       5.57929229E-18
  -13.9600000       2.45695340E-17
  -13.9499998       4.11984583E-17
  -13.9399996       5.03525452E-17
  -13.9300003       4.79047292E-17
  -13.9200001       3.20662983E-17
  -13.9099998       4.34759513E-18
  -13.8999996      -3.02178838E-17
  -13.8900003      -6.37843206E-17
  -13.8800001      -8.73085431E-17
  -13.8699999      -9.27778811E-17
  -13.8599997      -7.55389342E-17
  -13.8500004      -3.61024368E-17
  -13.8400002       1.91541364E-17
  -13.8299999       7.87493082E-17
  -13.8199997       1.28338594E-16
  -13.8100004       1.54041319E-16
  -13.8000002       1.46107148E-16
  -13.7900000       1.01980901E-16
  -13.7799997       2.78649752E-17
  -13.7700005      -6.18267281E-17
  -13.7600002      -1.47227111E-16
  -13.7500000      -2.07498813E-16
  -13.7399998      -2.26028174E-16
  -13.7299995      -1.95010926E-16
  -13.7200003      -1.18140847E-16
  -13.7100000      -1.05045659E-17
  -13.6999998       1.04527631E-16
  -13.6899996       2.00810442E-16
  -13.6800003       2.56003665E-16
  -13.6700001       2.57480731E-16
  -13.6599998       2.05870220E-16
  -13.6499996       1.15077473E-16
  -13.6400003       8.56350392E-18
  -13.6300001      -8.72575490E-17
  -13.6199999      -1.50713446E-16
  -13.6099997      -1.71390235E-16
  -13.6000004      -1.53360861E-16
  -13.5900002      -1.13840302E-16
  -13.5799999      -7.72928285E-17
  -13.5699997      -6.64694746E-17
  -13.5600004      -9.30159967E-17
  -13.5500002      -1.50772593E-16
  -13.5400000      -2.14446666E-16
  -13.5299997      -2.44997107E-16
  -13.5200005      -2.01114315E-16
  -13.5100002      -5.41301037E-17
  -13.5000000       1.97839527E-16
  -13.4899998       5.21193084E-16
  -13.4799995       8.47387378E-16
  -13.4700003       1.08437910E-15
  -13.4600000       1.13765662E-15
  -13.4499998       9.36521131E-16
  -13.4399996       4.59068723E-16
  -13.4300003      -2.51335004E-16
  -13.4200001      -1.08400291E-15
  -13.4099998      -1.87609836E-15
  -13.3999996      -2.44354500E-15
  -13.3900003      -2.62180329E-15
  -13.3800001      -2.30732347E-15
  -13.3699999      -1.48931749E-15
  -13.3599997      -2.62933506E-16
  -13.3500004       1.18110825E-15
  -13.3400002       2.58977168E-15
  -13.3299999       3.69733227E-15
  -13.3199997       4.28032091E-15
  -13.3100004       4.20480962E-15
  -13.3000002       3.45451440E-15
  -13.2900000       2.13275442E-15
  -13.2799997       4.37986708E-16
  -13.2700005      -1.38041796E-15
  -13.2600002      -3.07412736E-15
  -13.2500000      -4.44144309E-15
  -13.2399998      -5.35443323E-15
  -13.2299995      -5.76119666E-15
  -13.2200003      -5.66479499E-15
  -13.2100000      -5.08832300E-15
  -13.1999998      -4.04096888E-15
  -13.1899996      -2.50082624E-15
  -13.1800003      -4.25855979E-16
  -13.1700001       2.20456948E-15
  -13.1599998       5.32643582E-15
  -13.1499996       8.72548290E-15
  -13.1400003       1.19946379E-14
  -13.1300001       1.45390478E-14
  -13.1199999       1.56444427E-14
  -13.1099997       1.46090568E-14
  -13.1000004       1.09204324E-14
  -13.0900002       4.44095774E-15
  -13.0799999      -4.44471645E-15
  -13.0699997      -1.47675434E-14
  -13.0600004      -2.50318836E-14
  -13.0500002      -3.34046349E-14
  -13.0400000      -3.80169596E-14
  -13.0299997      -3.73300803E-14
  -13.0200005      -3.04943211E-14
  -13.0100002      -1.76226848E-14
  -13.0000000       9.04771345E-17
  -12.9899998       2.04483427E-14
  -12.9799995       4.05318242E-14
  -12.9700003       5.71423131E-14
  -12.9600000       6.73309268E-14
  -12.9499998       6.89162337E-14
  -12.9399996       6.08907727E-14
  -12.9300003       4.36370504E-14
  -12.9200001       1.89115674E-14
  -12.9099998      -1.03980325E-14
  -12.8999996      -4.06923166E-14
  -12.8900003      -6.81732774E-14
  -12.8800001      -8.93564126E-14
  -12.8699999      -1.01495831E-13
  -12.8599997      -1.02865389E-13
  -12.8500004      -9.28771898E-14
  -12.8400002      -7.20571470E-14
  -12.8299999      -4.19235501E-14
  -12.8199997      -4.82358031E-15
  -12.8100004       3.62288528E-14
  -12.8000002       7.76977834E-14
  -12.7900000       1.15667377E-13
  -12.7799997       1.46023005E-13
  -12.7700005       1.64720031E-13
  -12.7600002       1.68174719E-13
  -12.7500000       1.53773858E-13
  -12.7399998       1.20449074E-13
  -12.7299995       6.92118617E-14
  -12.7200003       3.51163449E-15
  -12.7100000      -7.07219724E-14
  -12.6999998      -1.45456116E-13
  -12.6899996      -2.11381300E-13
  -12.6800003      -2.59123696E-13
  -12.6700001      -2.80681375E-13
  -12.6599998      -2.70846198E-13
  -12.6499996      -2.28340269E-13
  -12.6400003      -1.56418078E-13
  -12.6300001      -6.27643825E-14
  -12.6199999       4.13593076E-14
  -12.6099997       1.42625088E-13
  -12.6000004       2.27579403E-13
  -12.5900002       2.84697044E-13
  -12.5799999       3.06200649E-13
  -12.5699997       2.89336616E-13
  -12.5600004       2.36896765E-13
  -12.5500002       1.56913911E-13
  -12.5400000       6.16020838E-14
  -12.5299997      -3.42639261E-14
  -12.5200005      -1.15266859E-13
  -12.5100002      -1.67286405E-13
  -12.5000000      -1.79230505E-13
  -12.4899998      -1.44411623E-13
  -12.4799995      -6.15149817E-14
  -12.4700003       6.48209446E-14
  -12.4600000       2.23754039E-13
  -12.4499998       3.98275515E-13
  -12.4399996       5.65539586E-13
  -12.4300003       6.97559848E-13
  -12.4200001       7.62390693E-13
  -12.4099998       7.25921059E-13
  -12.3999996       5.54346608E-13
  -12.3900003       2.17276216E-13
  -12.3800001      -3.08748469E-13
  -12.3699999      -1.03668842E-12
  -12.3599997      -1.96590704E-12
  -12.3500004      -3.08006680E-12
  -12.3400002      -4.34650059E-12
  -12.3299999      -5.71736625E-12
  -12.3199997      -7.13260701E-12
  -12.3100004      -8.52446325E-12
  -12.3000002      -9.82296883E-12
  -12.2900000      -1.09617202E-11
  -12.2799997      -1.18830796E-11
  -12.2700005      -1.25421106E-11
  -12.2600002      -1.29087227E-11
  -12.2500000      -1.29678065E-11
  -12.2399998      -1.27175614E-11
  -12.2299995      -1.21663886E-11
  -12.2200003      -1.13290540E-11
  -12.2100000      -1.02228148E-11
  -12.1999998      -8.86418109E-12
  -12.1899996      -7.26675968E-12
  -12.1800003      -5.44032267E-12
  -12.1700001      -3.39112289E-12
  -12.1599998      -1.12306605E-12
  -12.1499996       1.36061550E-12
  -12.1400003       4.05560351E-12
  -12.1300001       6.95499517E-12
  -12.1199999       1.00482244E-11
  -12.1099997       1.33203613E-11
  -12.1000004       1.67516574E-11
  -12.0900002       2.03171230E-11
  -12.0799999       2.39859903E-11
  -12.0699997       2.77209037E-11
  -12.0600004       3.14770987E-11
  -12.0500002       3.52015569E-11
  -12.0400000       3.88327460E-11
  -12.0299997       4.23010099E-11
  -12.0200005       4.55300901E-11
  -12.0100002       4.84396724E-11
  -12.0000000       5.09488805E-11
  -11.9899998       5.29801585E-11
  -11.9799995       5.44632568E-11
  -11.9700003       5.53385636E-11
  -11.9600000       5.55593176E-11
  -11.9499998       5.50924792E-11
  -11.9399996       5.39182241E-11
  -11.9300003       5.20282602E-11
  -11.9200001       4.94234723E-11
  -11.9099998       4.61116631E-11
  -11.8999996       4.21056037E-11
  -11.8900003       3.74218503E-11
  -11.8800001       3.20807964E-11
  -11.8699999       2.61074270E-11
  -11.8599997       1.95326394E-11
  -11.8500004       1.23946374E-11
  -11.8400002       4.73984827E-12
  -11.8299999      -3.37686910E-12
  -11.8199997      -1.18929120E-11
  -11.8100004      -2.07394674E-11
  -11.8000002      -2.98437525E-11
  -11.7900000      -3.91312226E-11
  -11.7799997      -4.85276333E-11
  -11.7700005      -5.79606571E-11
  -11.7600002      -6.73607281E-11
  -11.7500000      -7.66611497E-11
  -11.7399998      -8.57977717E-11
  -11.7299995      -9.47082482E-11
  -11.7200003      -1.03331205E-10
  -11.7100000      -1.11605482E-10
  -11.6999998      -1.19469531E-10
  -11.6899996      -1.26860883E-10
  -11.6800003      -1.33715664E-10
  -11.6700001      -1.39968120E-10
  -11.6599998      -1.45550030E-10
  -11.6499996      -1.50390381E-10
  -11.6400003      -1.54415231E-10
  -11.6300001      -1.57547766E-10
  -11.6199999      -1.59709274E-10
  -11.6099997      -1.60820829E-10
  -11.6000004      -1.60805300E-10
  -11.5900002      -1.59590008E-10
  -11.5799999      -1.57109506E-10
  -11.5699997      -1.53308047E-10
  -11.5600004      -1.48141457E-10
  -11.5500002      -1.41578069E-10
  -11.5400000      -1.33598813E-10
  -11.5299997      -1.24196764E-10
  -11.5200005      -1.13375739E-10
  -11.5100002      -1.01149089E-10
  -11.5000000      -8.75384487E-11
  -11.4899998      -7.25732252E-11
  -11.4799995      -5.62901739E-11
  -11.4700003      -3.87339674E-11
  -11.4600000      -1.99575807E-11
  -11.4499998      -2.30012627E-14
  -11.4399996       2.09986317E-11
  -11.4300003       4.30273837E-11
  -11.4200001       6.59755167E-11
  -11.4099998       8.97492983E-11
  -11.3999996       1.14251206E-10
  -11.3900003       1.39382395E-10
  -11.3800001       1.65045450E-10
  -11.3699999       1.91146349E-10
  -11.3599997       2.17596469E-10
  -11.3500004       2.44313764E-10
  -11.3400002       2.71223682E-10
  -11.3299999       2.98259362E-10
  -11.3199997       3.25361987E-10
  -11.3100004       3.52480739E-10
  -11.3000002       3.79572540E-10
  -11.2900000       4.06601447E-10
  -11.2799997       4.33537900E-10
  -11.2700005       4.60357141E-10
  -11.2600002       4.87037244E-10
  -11.2500000       5.13556198E-10
  -11.2399998       5.39889022E-10
  -11.2299995       5.66004410E-10
  -11.2200003       5.91861893E-10
  -11.2100000       6.17409512E-10
  -11.1999998       6.42583209E-10
  -11.1899996       6.67307487E-10
  -11.1800003       6.91497748E-10
  -11.1700001       7.15063675E-10
  -11.1599998       7.37913786E-10
  -11.1499996       7.59959207E-10
  -11.1400003       7.81119502E-10
  -11.1300001       8.01324285E-10
  -11.1199999       8.20517709E-10
  -11.1099997       8.38658754E-10
  -11.1000004       8.55721327E-10
  -11.0900002       8.71694161E-10
  -11.0799999       8.86579754E-10
  -11.0699997       9.00393815E-10
  -11.0600004       9.13163822E-10
  -11.0500002       9.24929355E-10
  -11.0400000       9.35738598E-10
  -11.0299997       9.45648670E-10
  -11.0200005       9.54724189E-10
  -11.0100002       9.63033764E-10
  -11.0000000       9.70645564E-10
  -10.9899998       9.77627201E-10
  -10.9799995       9.84037629E-10
  -10.9700003       9.89926252E-10
  -10.9600000       9.95329930E-10
  -10.9499998       1.00026964E-09
  -10.9399996       1.00475173E-09
  -10.9300003       1.00876396E-09
  -10.9200001       1.01228137E-09
  -10.9099998       1.01526176E-09
  -10.8999996       1.01765063E-09
  -10.8900003       1.01938069E-09
  -10.8800001       1.02037900E-09
  -10.8699999       1.02055964E-09
  -10.8599997       1.01983400E-09
  -10.8500004       1.01810893E-09
  -10.8400002       1.01529252E-09
  -10.8299999       1.01129483E-09
  -10.8199997       1.00603315E-09
  -10.8100004       9.99439531E-10
  -10.8000002       9.91457028E-10
  -10.7900000       9.82052550E-10
  -10.7799997       9.71214220E-10
  -10.7700005       9.58958024E-10
  -10.7600002       9.45326484E-10
  -10.7500000       9.30387822E-10
  -10.7399998       9.14235798E-10
  -10.7299995       8.96984709E-10
  -10.7200003       8.78767170E-10
  -10.7100000       8.59730453E-10
  -10.6999998       8.40028769E-10
  -10.6899996       8.19819157E-10
  -10.6800003       7.99263211E-10
  -10.6700001       7.78513864E-10
  -10.6599998       7.57718777E-10
  -10.6499996       7.37015726E-10
  -10.6400003       7.16526505E-10
  -10.6300001       6.96360913E-10
  -10.6199999       6.76607992E-10
  -10.6099997       6.57341237E-10
  -10.6000004       6.38615050E-10
  -10.5900002       6.20467677E-10
  -10.5799999       6.02924044E-10
  -10.5699997       5.86000581E-10
  -10.5600004       5.69708225E-10
  -10.5500002       5.54059632E-10
  -10.5400000       5.39072009E-10
  -10.5299997       5.24766397E-10
  -10.5200005       5.11176490E-10
  -10.5100002       4.98337316E-10
  -10.5000000       4.86292340E-10
  -10.4899998       4.75082307E-10
  -10.4799995       4.64747824E-10
  -10.4700003       4.55323529E-10
  -10.4600000       4.46829906E-10
  -10.4499998       4.39277226E-10
  -10.4399996       4.32661851E-10
  -10.4300003       4.26968877E-10
  -10.4200001       4.22169966E-10
  -10.4099998       4.18231422E-10
  -10.3999996       4.15111140E-10
  -10.3900003       4.12769041E-10
  -10.3800001       4.11159995E-10
  -10.3699999       4.10242146E-10
  -10.3599997       4.09973694E-10
  -10.3500004       4.10307038E-10
  -10.3400002       4.11190360E-10
  -10.3299999       4.12559459E-10
  -10.3199997       4.14340701E-10
  -10.3100004       4.16444046E-10
  -10.3000002       4.18759166E-10
  -10.2900000       4.21163548E-10
  -10.2799997       4.23524688E-10
  -10.2700005       4.25698060E-10
  -10.2600002       4.27540420E-10
  -10.2500000       4.28910740E-10
  -10.2399998       4.29673797E-10
  -10.2299995       4.29706049E-10
  -10.2200003       4.28895530E-10
  -10.2100000       4.27141295E-10
  -10.1999998       4.24359520E-10
  -10.1899996       4.20480345E-10
  -10.1800003       4.15450979E-10
  -10.1700001       4.09242612E-10
  -10.1599998       4.01844641E-10
  -10.1499996       3.93279104E-10
  -10.1400003       3.83595489E-10
  -10.1300001       3.72878201E-10
  -10.1199999       3.61236624E-10
  -10.1099997       3.48810980E-10
  -10.1000004       3.35765388E-10
  -10.0900002       3.22278398E-10
  -10.0799999       3.08539222E-10
  -10.0699997       2.94739733E-10
  -10.0600004       2.81075246E-10
  -10.0500002       2.67736749E-10
  -10.0400000       2.54909344E-10
  -10.0299997       2.42774911E-10
  -10.0200005       2.31508424E-10
  -10.0100002       2.21280175E-10
  -10.0000000       2.12256074E-10
  -9.98999977       2.04591705E-10
  -9.97999954       1.98436267E-10
  -9.97000027       1.93925542E-10
  -9.96000004       1.91180544E-10
  -9.94999981       1.90306673E-10
  -9.93999958       1.91390903E-10
  -9.93000031       1.94501013E-10
  -9.92000008       1.99686490E-10
  -9.90999985       2.06977852E-10
  -9.89999962       2.16387575E-10
  -9.89000034       2.27910107E-10
  -9.88000011       2.41519804E-10
  -9.86999989       2.57174226E-10
  -9.85999966       2.74806733E-10
  -9.85000038       2.94330282E-10
  -9.84000015       3.15636101E-10
  -9.82999992       3.38589712E-10
  -9.81999969       3.63036684E-10
  -9.81000042       3.88801491E-10
  -9.80000019       4.15692175E-10
  -9.78999996       4.43506065E-10
  -9.77999973       4.72037631E-10
  -9.77000046       5.01085229E-10
  -9.76000023       5.30457622E-10
  -9.75000000       5.59982338E-10
  -9.73999977       5.89509774E-10
  -9.72999954       6.18914642E-10
  -9.72000027       6.48097132E-10
  -9.71000004       6.76977141E-10
  -9.69999981       7.05491721E-10
  -9.68999958       7.33587302E-10
  -9.68000031       7.61216368E-10
  -9.67000008       7.88331900E-10
  -9.65999985       8.14887768E-10
  -9.64999962       8.40840730E-10
  -9.64000034       8.66153149E-10
  -9.63000011       8.90796437E-10
  -9.61999989       9.14756049E-10
  -9.60999966       9.38032318E-10
  -9.60000038       9.60642121E-10
  -9.59000015       9.82615767E-10
  -9.57999992       1.00399689E-09
  -9.56999969       1.02483844E-09
  -9.56000042       1.04520248E-09
  -9.55000019       1.06515718E-09
  -9.53999996       1.08477682E-09
  -9.52999973       1.10414144E-09
  -9.52000046       1.12333409E-09
  -9.51000023       1.14243792E-09
  -9.50000000       1.16152910E-09
  -9.48999977       1.18067489E-09
  -9.47999954       1.19992505E-09
  -9.47000027       1.21930754E-09
  -9.46000004       1.23882704E-09
  -9.44999981       1.25846122E-09
  -9.43999958       1.27816335E-09
  -9.43000031       1.29786060E-09
  -9.42000008       1.31745315E-09
  -9.40999985       1.33681444E-09
  -9.39999962       1.35578482E-09
  -9.39000034       1.37416767E-09
  -9.38000011       1.39172496E-09
  -9.36999989       1.40817702E-09
  -9.35999966       1.42320211E-09
  -9.35000038       1.43644419E-09
  -9.34000015       1.44751988E-09
  -9.32999992       1.45602841E-09
  -9.31999969       1.46156787E-09
  -9.31000042       1.46373913E-09
  -9.30000019       1.46215862E-09
  -9.28999996       1.45645995E-09
  -9.27999973       1.44630030E-09
  -9.27000046       1.43136070E-09
  -9.26000023       1.41135059E-09
  -9.25000000       1.38601142E-09
  -9.23999977       1.35511979E-09
  -9.22999954       1.31849287E-09
  -9.22000027       1.27599209E-09
  -9.21000004       1.22752353E-09
  -9.19999981       1.17304044E-09
  -9.18999958       1.11253728E-09
  -9.18000031       1.04604836E-09
  -9.17000008       9.73645720E-10
  -9.15999985       8.95435004E-10
  -9.14999962       8.11554157E-10
  -9.14000034       7.22172544E-10
  -9.13000011       6.27495778E-10
  -9.11999989       5.27761612E-10
  -9.10999966       4.23245133E-10
  -9.10000038       3.14254928E-10
  -9.09000015       2.01132846E-10
  -9.07999992       8.42535763E-11
  -9.06999969      -3.59790392E-11
  -9.06000042      -1.59125241E-10
  -9.05000019      -2.84712615E-10
  -9.03999996      -4.12226753E-10
  -9.02999973      -5.41111767E-10
  -9.02000046      -6.70766498E-10
  -9.01000023      -8.00541633E-10
  -9.00000000      -9.29746780E-10
  -8.98999977      -1.05765352E-09
  -8.97999954      -1.18350429E-09
  -8.97000027      -1.30652233E-09
  -8.96000004      -1.42592105E-09
  -8.94999981      -1.54091051E-09
  -8.93999958      -1.65070591E-09
  -8.93000031      -1.75453152E-09
  -8.92000008      -1.85162530E-09
  -8.90999985      -1.94124206E-09
  -8.89999962      -2.02265515E-09
  -8.89000034      -2.09516027E-09
  -8.88000011      -2.15807749E-09
  -8.86999989      -2.21075247E-09
  -8.85999966      -2.25255703E-09
  -8.85000038      -2.28288721E-09
  -8.84000015      -2.30115949E-09
  -8.82999992      -2.30681096E-09
  -8.81999969      -2.29929387E-09
  -8.81000042      -2.27807972E-09
  -8.80000019      -2.24265695E-09
  -8.78999996      -2.19254104E-09
  -8.77999973      -2.12727969E-09
  -8.77000046      -2.04646144E-09
  -8.76000023      -1.94972549E-09
  -8.75000000      -1.83676563E-09
  -8.73999977      -1.70733805E-09
  -8.72999954      -1.56126279E-09
  -8.72000027      -1.39842260E-09
  -8.71000004      -1.21876775E-09
  -8.69999981      -1.02231501E-09
  -8.68999958      -8.09152301E-10
  -8.68000031      -5.79439940E-10
  -8.67000008      -3.33415878E-10
  -8.65999985      -7.13986509E-11
  -8.64999962       2.06216766E-10
  -8.64000034       4.98957708E-10
  -8.63000011       8.06287204E-10
  -8.61999989       1.12760845E-09
  -8.60999966       1.46227697E-09
  -8.60000038       1.80960724E-09
  -8.59000015       2.16887885E-09
  -8.57999992       2.53933674E-09
  -8.56999969       2.92019209E-09
  -8.56000042       3.31061889E-09
  -8.55000019       3.70976028E-09
  -8.53999996       4.11672785E-09
  -8.52999973       4.53061233E-09
  -8.52000046       4.95049512E-09
  -8.51000023       5.37546274E-09
  -8.50000000       5.80461901E-09
  -8.48999977       6.23709484E-09
  -8.47999954       6.67205269E-09
  -8.47000027       7.10868608E-09
  -8.46000004       7.54622143E-09
  -8.44999981       7.98391220E-09
  -8.43999958       8.42104164E-09
  -8.43000031       8.85692142E-09
  -8.42000008       9.29089250E-09
  -8.40999985       9.72233583E-09
  -8.39999962       1.01506723E-08
  -8.39000034       1.05753646E-08
  -8.38000011       1.09959082E-08
  -8.36999989       1.14118146E-08
  -8.35999966       1.18226131E-08
  -8.35000038       1.22278303E-08
  -8.34000015       1.26269679E-08
  -8.32999992       1.30195286E-08
  -8.31999969       1.34049820E-08
  -8.31000042       1.37827918E-08
  -8.30000019       1.41524090E-08
  -8.28999996       1.45132724E-08
  -8.27999973       1.48648267E-08
  -8.27000046       1.52064992E-08
  -8.26000023       1.55377045E-08
  -8.25000000       1.58578288E-08
  -8.23999977       1.61662435E-08
  -8.22999954       1.64622982E-08
  -8.22000027       1.67453216E-08
  -8.21000004       1.70146510E-08
  -8.19999981       1.72696168E-08
  -8.18999958       1.75095831E-08
  -8.18000031       1.77339103E-08
  -8.17000008       1.79420159E-08
  -8.15999985       1.81332958E-08
  -8.14999962       1.83071780E-08
  -8.14000034       1.84630764E-08
  -8.13000011       1.86004172E-08
  -8.11999989       1.87186302E-08
  -8.10999966       1.88171416E-08
  -8.10000038       1.88954061E-08
  -8.09000015       1.89529192E-08
  -8.07999992       1.89891782E-08
  -8.06999969       1.90037319E-08
  -8.06000042       1.89961646E-08
  -8.05000019       1.89660625E-08
  -8.03999996       1.89130578E-08
  -8.02999973       1.88368272E-08
  -8.02000046       1.87370244E-08
  -8.01000023       1.86133882E-08
  -8.00000000       1.84657036E-08
  -7.98999977       1.82938180E-08
  -7.98000002       1.80976709E-08
  -7.96999979       1.78772854E-08
  -7.96000004       1.76327450E-08
  -7.94999981       1.73642611E-08
  -7.94000006       1.70721002E-08
  -7.92999983       1.67566263E-08
  -7.92000008       1.64182463E-08
  -7.90999985       1.60575180E-08
  -7.90000010       1.56750488E-08
  -7.88999987       1.52715618E-08
  -7.88000011       1.48478811E-08
  -7.86999989       1.44049608E-08
  -7.86000013       1.39438345E-08
  -7.84999990       1.34656704E-08
  -7.84000015       1.29716593E-08
  -7.82999992       1.24630786E-08
  -7.82000017       1.19412853E-08
  -7.80999994       1.14076482E-08
  -7.80000019       1.08636122E-08
  -7.78999996       1.03106776E-08
  -7.78000021       9.75040226E-09
  -7.76999998       9.18439902E-09
  -7.76000023       8.61431904E-09
  -7.75000000       8.04188893E-09
  -7.73999977       7.46882822E-09
  -7.73000002       6.89683732E-09
  -7.71999979       6.32764774E-09
  -7.71000004       5.76293191E-09
  -7.69999981       5.20437826E-09
  -7.69000006       4.65361394E-09
  -7.67999983       4.11226564E-09
  -7.67000008       3.58192365E-09
  -7.65999985       3.06414960E-09
  -7.65000010       2.56045984E-09
  -7.63999987       2.07229434E-09
  -7.63000011       1.60100444E-09
  -7.61999989       1.14783660E-09
  -7.61000013       7.13914206E-10
  -7.59999990       3.00272279E-10
  -7.59000015      -9.21830667E-11
  -7.57999992      -4.62607175E-10
  -7.57000017      -8.10262524E-10
  -7.55999994      -1.13445497E-09
  -7.55000019      -1.43457779E-09
  -7.53999996      -1.71006997E-09
  -7.53000021      -1.96047290E-09
  -7.51999998      -2.18539764E-09
  -7.51000023      -2.38457787E-09
  -7.50000000      -2.55780064E-09
  -7.48999977      -2.70498135E-09
  -7.48000002      -2.82606960E-09
  -7.46999979      -2.92111690E-09
  -7.46000004      -2.99018899E-09
  -7.44999981      -3.03345815E-09
  -7.44000006      -3.05109737E-09