  -16.0000000       0.00000000    
  -15.9899998       0.00000000    
  -15.9799995       0.00000000    
  -15.9700003       0.00000000    
  -15.9600000       0.00000000    
  -15.9499998       0.00000000    
  -15.9399996       0.00000000    
  -15.9300003       0.00000000    
  -15.9200001       0.00000000    
  -15.9099998       0.00000000    
  -15.8999996       0.00000000    
  -15.8900003       0.00000000    
  -15.8800001       0.00000000    
  -15.8699999      -0.00000000    
  -15.8599997       0.00000000    
  -15.8500004       1.40129846E-45
  -15.8400002       2.80259693E-45
  -15.8299999      -2.80259693E-45
  -15.8199997      -1.02294788E-43
  -15.8100004      -7.55299872E-43
  -15.8000002      -3.78630845E-42
  -15.7900000      -1.48915988E-41
  -15.7799997      -4.83251788E-41
  -15.7700005      -1.31083064E-40
  -15.7600002      -2.92648573E-40
  -15.7500000      -5.02928821E-40
  -15.7399998      -4.99606343E-40
  -15.7299995       5.05592690E-40
  -15.7200003       3.98290362E-39
  -15.7100000       1.11997435E-38
  -15.6999998       1.95867502E-38
  -15.6899996       1.50055566E-38
  -15.6800003      -3.68625098E-38
  -15.6700001      -1.84444700E-37
  -15.6599998      -4.35332179E-37
  -15.6499996      -6.10798513E-37
  -15.6400003      -1.14803439E-37
  -15.6300001       2.21933445E-36
  -15.6199999       7.76122728E-36
  -15.6099997       1.65073472E-35
  -15.6000004       2.38510014E-35
  -15.5900002       1.66609292E-35
  -15.5799999      -2.73967555E-35
  -15.5699997      -1.29813159E-34
  -15.5600004      -2.82523868E-34
  -15.5500002      -4.01563197E-34
  -15.5400000      -2.88206236E-34
  -15.5299997       3.41491234E-34
  -15.5200005       1.67400112E-33
  -15.5100002       3.41469978E-33
  -15.5000000       4.31031113E-33
  -15.4899998       1.96888875E-33
  -15.4799995      -6.33413294E-33
  -15.4700003      -2.11775755E-32
  -15.4600000      -3.69149777E-32
  -15.4499998      -3.78987930E-32
  -15.4399996       5.24059305E-34
  -15.4300003       1.00086420E-31
  -15.4200001       2.52731262E-31
  -15.4099998       3.83999845E-31
  -15.3999996       3.28838761E-31
  -15.3900003      -1.39172219E-31
  -15.3800001      -1.17882448E-30
  -15.3699999      -2.63687213E-30
  -15.3599997      -3.75755741E-30
  -15.3500004      -3.04685183E-30
  -15.3400002       1.38840826E-30
  -15.3299999       1.07169703E-29
  -15.3199997       2.34532918E-29
  -15.3100004       3.33481059E-29
  -15.3000002       2.86192227E-29
  -15.2900000      -5.26703359E-30
  -15.2799997      -7.73442512E-29
  -15.2700005      -1.77623848E-28
  -15.2600002      -2.62788109E-28
  -15.2500000      -2.51075831E-28
  -15.2399998      -4.01654766E-29
  -15.2299995       4.40503752E-28
  -15.2200003       1.14465027E-27
  -15.2100000       1.81811831E-27
  -15.1999998       1.95983382E-27
  -15.1899996       9.13805129E-28
  -15.1800003      -1.84163892E-27
  -15.1700001      -6.21120573E-27
  -15.1599998      -1.09429860E-26
  -15.1499996      -1.33322531E-26
  -15.1400003      -9.58545733E-27
  -15.1300001       3.78754230E-27
  -15.1199999       2.75099125E-26
  -15.1099997       5.65927704E-26
  -15.1000004       7.83021979E-26
  -15.0900002       7.30546335E-26
  -15.0799999       2.01719946E-26
  -15.0699997      -9.08831057E-26
  -15.0600004      -2.45897189E-25
  -15.0500002      -3.93669054E-25
  -15.0400000      -4.45044508E-25
  -15.0299997      -2.92591221E-25
  -15.0200005       1.44195059E-25
  -15.0100002       8.53796582E-25
  -15.0000000       1.66847316E-24
  -14.9899998       2.23642284E-24
  -14.9799995       2.07167929E-24
  -14.9700003       7.10984655E-25
  -14.9600000      -2.02914451E-24
  -14.9499998      -5.75898319E-24
  -14.9399996      -9.31174174E-24
  -14.9300003      -1.07936319E-23
  -14.9200001      -8.03187171E-24
  -14.9099998       5.41415848E-25
  -14.8999996       1.47237149E-23
  -14.8900003       3.14851742E-23
  -14.8800001       4.46002203E-23
  -14.8699999       4.55708852E-23
  -14.8599997       2.61918844E-23
  -14.8500004      -1.74608871E-23
  -14.8400002      -8.06318902E-23
  -14.8299999      -1.46867435E-22
  -14.8199997      -1.88548763E-22
  -14.8100004      -1.72747765E-22
  -14.8000002      -7.27508290E-23
  -14.7900000       1.16752992E-22
  -14.7799997       3.65516492E-22
  -14.7700005       6.01332588E-22
  -14.7600002       7.18215167E-22
  -14.7500000       6.03192280E-22
  -14.7399998       1.79806581E-22
  -14.7299995      -5.41583985E-22
  -14.7200003      -1.42429839E-21
  -14.7100000      -2.19812645E-21
  -14.6999998      -2.50272218E-21
  -14.6899996      -1.98771602E-21
  -14.6800003      -4.55469455E-22
  -14.6700001       1.99099587E-21
  -14.6599998       4.85083510E-21
  -14.6499996       7.23902993E-21
  -14.6400003       8.05298616E-21
  -14.6300001       6.29259193E-21
  -14.6199999       1.47547483E-21
  -14.6099997      -5.97010579E-21
  -14.6000004      -1.44899635E-20
  -14.5900002      -2.15146899E-20
  -14.5799999      -2.39800597E-20
  -14.5699997      -1.92209552E-20
  -14.5600004      -6.05466966E-21
  -14.5500002       1.42639655E-20
  -14.5400000       3.75963508E-20
  -14.5299997       5.73113315E-20
  -14.5200005       6.56561428E-20
  -14.5100002       5.59559315E-20
  -14.5000000       2.51581345E-20
  -14.4899998      -2.40240505E-20
  -14.4799995      -8.21986048E-20
  -14.4700003      -1.34266858E-19
  -14.4600000      -1.62491760E-19
  -14.4499998      -1.51244055E-19
  -14.4399996      -9.23583666E-20
  -14.4300003       1.04281351E-20
  -14.4200001       1.39553628E-19
  -14.4099998       2.65393946E-19
  -14.3999996       3.51989365E-19
  -14.3900003       3.65856918E-19
  -14.3800001       2.85898383E-19
  -14.3699999       1.11732442E-19
  -14.3599997      -1.32212762E-19
  -14.3500004      -3.98677817E-19
  -14.3400002      -6.25964431E-19
  -14.3299999      -7.51292220E-19
  -14.3199997      -7.26132229E-19
  -14.3100004      -5.29691102E-19
  -14.3000002      -1.76971453E-19
  -14.2900000       2.80920514E-19
  -14.2799997       7.64530780E-19
  -14.2700005       1.18013848E-18
  -14.2600002       1.43685884E-18
  -14.2500000       1.46303425E-18
  -14.2399998       1.21878808E-18
  -14.2299995       7.03263580E-19
  -14.2200003      -4.32856732E-20
  -14.2100000      -9.41153797E-19
  -14.1999998      -1.87516385E-18
  -14.1899996      -2.70064875E-18
  -14.1800003      -3.25293532E-18
  -14.1700001      -3.36326136E-18
  -14.1599998      -2.88405206E-18
  -14.1499996      -1.72429655E-18
  -14.1400003       1.08513236E-19
  -14.1300001       2.46891203E-18
  -14.1199999       5.04995997E-18
  -14.1099997       7.39075951E-18
  -14.1000004       8.92671728E-18
  -14.0900002       9.08553595E-18
  -14.0799999       7.41921370E-18
  -14.0699997       3.74842643E-18
  -14.0600004      -1.71516707E-18
  -14.0500002      -8.30678346E-18
  -14.0400000      -1.49384137E-17
  -14.0299997      -2.02360539E-17
  -14.0200005      -2.27755116E-17
  -14.0100002      -2.13815882E-17
  -14.0000000      -1.54334895E-17
  -13.9899998      -5.10836885E-18
  -13.9799995       8.50140913E-18
  -13.9700003       2.34418138E-17
  -13.9600000       3.71342586E-17
  -13.9499998       4.67711377E-17
  -13.9399996       4.98100041E-17
  -13.9300003       4.44818988E-17
  -13.9200001       3.02213812E-17
  -13.9099998       7.93453481E-18
  -13.8999996      -1.99536345E-17
  -13.8900003      -4.96966506E-17
  -13.8800001      -7.66560119E-17
  -13.8699999      -9.59149603E-17
  -13.8599997      -1.03003448E-16
  -13.8500004      -9.46446359E-17
  -13.8400002      -6.94264930E-17
  -13.8299999      -2.83029707E-17
  -13.8199997       2.51618135E-17
  -13.8100004       8.48772343E-17
  -13.8000002       1.42683931E-16
  -13.7900000       1.89196866E-16
  -13.7799997       2.14992301E-16
  -13.7700005       2.12043846E-16
  -13.7600002       1.75241296E-16
  -13.7500000       1.03773864E-16
  -13.7399998       2.12315819E-18
  -13.7299995      -1.19589180E-16
  -13.7200003      -2.46102670E-16
  -13.7100000      -3.58466011E-16
  -13.6999998      -4.36386928E-16
  -13.6899996      -4.61261744E-16
  -13.6800003      -4.19494047E-16
  -13.6700001      -3.05586882E-16
  -13.6599998      -1.24435268E-16
  -13.6499996       1.07705910E-16
  -13.6400003       3.63955314E-16
  -13.6300001       6.09372019E-16
  -13.6199999       8.05189943E-16
  -13.6099997       9.14241941E-16
  -13.6000004       9.06850838E-16
  -13.5900002       7.66302608E-16
  -13.5799999       4.93011186E-16
  -13.5699997       1.06617691E-16
  -13.5600004      -3.54469365E-16
  -13.5500002      -8.36235501E-16
  -13.5400000      -1.27468760E-15
  -13.5299997      -1.60337503E-15
  -13.5200005      -1.76196840E-15
  -13.5100002      -1.70490093E-15
  -13.5000000      -1.40905868E-15
  -13.4899998      -8.79545089E-16
  -13.4799995      -1.52688184E-16
  -13.4700003       7.04341406E-16
  -13.4600000       1.59770563E-15
  -13.4499998       2.41495192E-15
  -13.4399996       3.03664657E-15
  -13.4300003       3.35083523E-15
  -13.4200001       3.26902138E-15
  -13.4099998       2.74185137E-15
  -13.3999996       1.77225561E-15
  -13.3900003       4.23627806E-16
  -13.3800001      -1.17919755E-15
  -13.3699999      -2.85772336E-15
  -13.3599997      -4.39678794E-15
  -13.3500004      -5.56975578E-15
  -13.3400002      -6.16930899E-15
  -13.3299999      -6.03979384E-15
  -13.3199997      -5.10620556E-15
  -13.3100004      -3.39472869E-15
  -13.3000002      -1.04056568E-15
  -13.2900000       1.71956656E-15
  -13.2799997       4.57054743E-15
  -13.2700005       7.15529727E-15
  -13.2600002       9.11993683E-15
  -13.2500000       1.01613638E-14
  -13.2399998       1.00704247E-14
  -13.2299995       8.76430327E-15
  -13.2200003       6.30343031E-15
  -13.2100000       2.89058929E-15
  -13.1999998      -1.14755971E-15
  -13.1899996      -5.39387828E-15
  -13.1800003      -9.38467528E-15
  -13.1700001      -1.26588854E-14
  -13.1599998      -1.48072032E-14
  -13.1499996      -1.55164679E-14
  -13.1400003      -1.46056974E-14
  -13.1300001      -1.20510020E-14
  -13.1199999      -7.99755464E-15
  -13.1099997      -2.75722142E-15
  -13.1000004       3.20915669E-15
  -13.0900002       9.32523813E-15
  -13.0799999       1.49480139E-14
  -13.0699997       1.94298059E-14
  -13.0600004       2.21892867E-14
  -13.0500002       2.27847357E-14
  -13.0400000       2.09806317E-14
  -13.0299997       1.67974867E-14
  -13.0200005       1.05350671E-14
  -13.0100002       2.76151947E-15
  -13.0000000      -5.73479676E-15
  -12.9899998      -1.40284445E-14
  -12.9799995      -2.11663793E-14
  -12.9700003      -2.62898596E-14
  -12.9600000      -2.87513306E-14
  -12.9499998      -2.82081589E-14
  -12.9399996      -2.46777493E-14
  -12.9300003      -1.85439754E-14
  -12.9200001      -1.05124802E-14
  -12.9099998      -1.52073490E-15
  -12.8999996       7.38423164E-15
  -12.8900003       1.51821491E-14
  -12.8800001       2.10100373E-14
  -12.8699999       2.42687154E-14
  -12.8599997       2.46916694E-14
  -12.8500004       2.23693592E-14
  -12.8400002       1.77289044E-14
  -12.8299999       1.14754795E-14
  -12.8199997       4.50582353E-15
  -12.8100004      -2.19413721E-15
  -12.8000002      -7.65605468E-15
  -12.7900000      -1.10311235E-14
  -12.7799997      -1.16808800E-14
  -12.7700005      -9.25303704E-15
  -12.7600002      -3.73933410E-15
  -12.7500000       4.48752169E-15
  -12.7399998       1.46620692E-14
  -12.7299995       2.56450507E-14
  -12.7200003       3.59789577E-14
  -12.7100000       4.39843711E-14
  -12.6999998       4.78971856E-14
  -12.6899996       4.60407401E-14
  -12.6800003       3.70198325E-14
  -12.6700001       1.99168329E-14
  -12.6599998      -5.53323087E-15
  -12.6499996      -3.88127810E-14
  -12.6400003      -7.85556922E-14
  -12.6300001      -1.22555788E-13
  -12.6199999      -1.67849729E-13
  -12.6099997      -2.10862564E-13
  -12.6000004      -2.47596106E-13
  -12.5900002      -2.73838081E-13
  -12.5799999      -2.85370767E-13
  -12.5699997      -2.78168710E-13
  -12.5600004      -2.48586281E-13
  -12.5500002      -1.93548045E-13
  -12.5400000      -1.10766573E-13
  -12.5299997       9.89611992E-16
  -12.5200005       1.41555590E-13
  -12.5100002       3.08955633E-13
  -12.5000000       4.98932384E-13
  -12.4899998       7.04459657E-13
  -12.4799995       9.15302990E-13
  -12.4700003       1.11770586E-12
  -12.4600000       1.29428065E-12
  -12.4499998       1.42417382E-12
  -12.4399996       1.48355416E-12
  -12.4300003       1.44642816E-12
  -12.4200001       1.28577975E-12
  -12.4099998       9.74964142E-13
  -12.3999996       4.89266505E-13
  -12.3900003      -1.92448027E-13
  -12.3800001      -1.08614409E-12
  -12.3699999      -2.20115592E-12
  -12.3599997      -3.53897597E-12
  -12.3500004      -5.09235362E-12
  -12.3400002      -6.84477475E-12
  -12.3299999      -8.77033602E-12
  -12.3199997      -1.08340593E-11
  -12.3100004      -1.29925853E-11
  -12.3000002      -1.51953051E-11
  -12.2900000      -1.73857803E-11
  -12.2799997      -1.95034666E-11
  -12.2700005      -2.14855841E-11
  -12.2600002      -2.32690759E-11
  -12.2500000      -2.47924875E-11
  -12.2399998      -2.59977213E-11
  -12.2299995      -2.68314364E-11
  -12.2200003      -2.72461411E-11
  -12.2100000      -2.72008353E-11
  -12.1999998      -2.66611941E-11
  -12.1899996      -2.55994323E-11
  -12.1800003      -2.39938139E-11
  -12.1700001      -2.18279977E-11
  -12.1599998      -1.90903300E-11
  -12.1499996      -1.57732768E-11
  -12.1400003      -1.18730685E-11
  -12.1300001      -7.38968348E-12
  -12.1199999      -2.32731716E-12
  -12.1099997       3.30483904E-12
  -12.1000004       9.49138164E-12
  -12.0900002       1.62091989E-11
  -12.0799999       2.34258411E-11
  -12.0699997       3.10979645E-11
  -12.0600004       3.91698653E-11
  -12.0500002       4.75724252E-11
  -12.0400000       5.62226134E-11
  -12.0299997       6.50235837E-11
  -12.0200005       7.38653930E-11
  -12.0100002       8.26265584E-11
  -12.0000000       9.11761985E-11
  -11.9899998       9.93766666E-11
  -11.9799995       1.07086659E-10
  -11.9700003       1.14164574E-10
  -11.9600000       1.20471924E-10
  -11.9499998       1.25876295E-10
  -11.9399996       1.30254363E-10
  -11.9300003       1.33494035E-10
  -11.9200001       1.35496281E-10
  -11.9099998       1.36176195E-10
  -11.8999996       1.35463418E-10
  -11.8900003       1.33302133E-10
  -11.8800001       1.29650721E-10
  -11.8699999       1.24481023E-10
  -11.8599997       1.17777829E-10
  -11.8500004       1.09538031E-10
  -11.8400002       9.97704350E-11
  -11.8299999       8.84952944E-11
  -11.8199997       7.57445426E-11
  -11.8100004       6.15618043E-11
  -11.8000002       4.60027329E-11
  -11.7900000       2.91351283E-11
  -11.7799997       1.10389762E-11
  -11.7700005      -8.19377465E-12
  -11.7600002      -2.84597502E-11
  -11.7500000      -4.96447917E-11
  -11.7399998      -7.16249143E-11
  -11.7299995      -9.42672815E-11
  -11.7200003      -1.17430940E-10
  -11.7100000      -1.40967724E-10
  -11.6999998      -1.64722500E-10
  -11.6899996      -1.88533605E-10
  -11.6800003      -2.12232648E-10
  -11.6700001      -2.35644254E-10
  -11.6599998      -2.58586264E-10
  -11.6499996      -2.80869356E-10
  -11.6400003      -3.02297437E-10
  -11.6300001      -3.22668114E-10
  -11.6199999      -3.41773748E-10
  -11.6099997      -3.59402508E-10
  -11.6000004      -3.75340065E-10
  -11.5900002      -3.89371813E-10
  -11.5799999      -4.01284950E-10
  -11.5699997      -4.10870532E-10
  -11.5600004      -4.17926527E-10
  -11.5500002      -4.22260032E-10
  -11.5400000      -4.23690055E-10
  -11.5299997      -4.22050256E-10
  -11.5200005      -4.17191504E-10
  -11.5100002      -4.08984124E-10
  -11.5000000      -3.97320149E-10
  -11.4899998      -3.82114784E-10
  -11.4799995      -3.63307329E-10
  -11.4700003      -3.40862033E-10
  -11.4600000      -3.14766602E-10
  -11.4499998      -2.85031887E-10
  -11.4399996      -2.51688947E-10
  -11.4300003      -2.14786841E-10
  -11.4200001      -1.74389295E-10
  -11.4099998      -1.30571109E-10
  -11.3999996      -8.34149833E-11
  -11.3900003      -3.30083738E-11
  -11.3800001       2.05590094E-11
  -11.3699999       7.71967698E-11
  -11.3599997       1.36814837E-10
  -11.3500004       1.99323114E-10
  -11.3400002       2.64630928E-10
  -11.3299999       3.32645578E-10
  -11.3199997       4.03270056E-10
  -11.3100004       4.76401918E-10
  -11.3000002       5.51931112E-10
  -11.2900000       6.29739094E-10
  -11.2799997       7.09697745E-10
  -11.2700005       7.91670285E-10
  -11.2600002       8.75510775E-10
  -11.2500000       9.61066005E-10
  -11.2399998       1.04817655E-09
  -11.2299995       1.13667853E-09
  -11.2200003       1.22640420E-09
  -11.2100000       1.31718525E-09
  -11.1999998       1.40885437E-09
  -11.1899996       1.50124513E-09
  -11.1800003       1.59419422E-09
  -11.1700001       1.68754433E-09
  -11.1599998       1.78114390E-09
  -11.1499996       1.87484939E-09
  -11.1400003       1.96852645E-09
  -11.1300001       2.06205164E-09
  -11.1199999       2.15531282E-09
  -11.1099997       2.24820962E-09
  -11.1000004       2.34065256E-09
  -11.0900002       2.43256748E-09
  -11.0799999       2.52388843E-09
  -11.0699997       2.61456146E-09
  -11.0600004       2.70454215E-09
  -11.0500002       2.79379320E-09
  -11.0400000       2.88228597E-09
  -11.0299997       2.96999247E-09
  -11.0200005       3.05688896E-09
  -11.0100002       3.14295190E-09
  -11.0000000       3.22815508E-09
  -10.9899998       3.31246941E-09
  -10.9799995       3.39586492E-09
  -10.9700003       3.47830409E-09
  -10.9600000       3.55975249E-09
  -10.9499998       3.64016683E-09
  -10.9399996       3.71951048E-09
  -10.9300003       3.79774345E-09
  -10.9200001       3.87482801E-09
  -10.9099998       3.95073041E-09
  -10.8999996       4.02541556E-09
  -10.8900003       4.09885059E-09
  -10.8800001       4.17100177E-09
  -10.8699999       4.24183177E-09
  -10.8599997       4.31129488E-09
  -10.8500004       4.37934045E-09
  -10.8400002       4.44590231E-09
  -10.8299999       4.51090765E-09
  -10.8199997       4.57426630E-09
  -10.8100004       4.63588279E-09
  -10.8000002       4.69564831E-09
  -10.7900000       4.75344653E-09
  -10.7799997       4.80915929E-09
  -10.7700005       4.86266849E-09
  -10.7600002       4.91385688E-09
  -10.7500000       4.96261343E-09
  -10.7399998       5.00884267E-09
  -10.7299995       5.05245978E-09
  -10.7200003       5.09339815E-09
  -10.7100000       5.13161069E-09
  -10.6999998       5.16707566E-09
  -10.6899996       5.19978904E-09
  -10.6800003       5.22977661E-09
  -10.6700001       5.25708943E-09
  -10.6599998       5.28180344E-09
  -10.6499996       5.30402300E-09
  -10.6400003       5.32387645E-09
  -10.6300001       5.34151656E-09
  -10.6199999       5.35711608E-09
  -10.6099997       5.37086375E-09
  -10.6000004       5.38296341E-09
  -10.5900002       5.39362333E-09
  -10.5799999       5.40305489E-09
  -10.5699997       5.41146505E-09
  -10.5600004       5.41905054E-09
  -10.5500002       5.42599654E-09
  -10.5400000       5.43246781E-09
  -10.5299997       5.43861223E-09
  -10.5200005       5.44455059E-09
  -10.5100002       5.45038592E-09
  -10.5000000       5.45619860E-09
  -10.4899998       5.46204637E-09
  -10.4799995       5.46796342E-09
  -10.4700003       5.47396795E-09
  -10.4600000       5.48005819E-09
  -10.4499998       5.48621504E-09
  -10.4399996       5.49240431E-09
  -10.4300003       5.49857671E-09
  -10.4200001       5.50467760E-09
  -10.4099998       5.51063506E-09
  -10.3999996       5.51637624E-09
  -10.3900003       5.52182033E-09
  -10.3800001       5.52688784E-09
  -10.3699999       5.53149615E-09
  -10.3599997       5.53555868E-09
  -10.3500004       5.53899104E-09
  -10.3400002       5.54170443E-09
  -10.3299999       5.54360913E-09
  -10.3199997       5.54461232E-09
  -10.3100004       5.54461277E-09
  -10.3000002       5.54350787E-09
  -10.2900000       5.54119239E-09
  -10.2799997       5.53755175E-09
  -10.2700005       5.53247270E-09
  -10.2600002       5.52584423E-09
  -10.2500000       5.51755486E-09
  -10.2399998       5.50749935E-09
  -10.2299995       5.49558354E-09
  -10.2200003       5.48172707E-09
  -10.2100000       5.46586243E-09
  -10.1999998       5.44794565E-09
  -10.1899996       5.42795320E-09
  -10.1800003       5.40588552E-09
  -10.1700001       5.38177281E-09
  -10.1599998       5.35566969E-09
  -10.1499996       5.32765654E-09
  -10.1400003       5.29784661E-09
  -10.1300001       5.26637667E-09
  -10.1199999       5.23340571E-09
  -10.1099997       5.19911980E-09
  -10.1000004       5.16372012E-09
  -10.0900002       5.12743448E-09
  -10.0799999       5.09049469E-09
  -10.0699997       5.05314546E-09
  -10.0600004       5.01563235E-09
  -10.0500002       4.97820629E-09
  -10.0400000       4.94110575E-09
  -10.0299997       4.90455898E-09
  -10.0200005       4.86878982E-09
  -10.0100002       4.83400298E-09
  -10.0000000       4.80040008E-09
  -9.98999977       4.76817430E-09
  -9.97999954       4.73752504E-09
  -9.97000027       4.70865480E-09
  -9.96000004       4.68178873E-09
  -9.94999981       4.65716488E-09
  -9.93999958       4.63505279E-09
  -9.93000031       4.61574690E-09
  -9.92000008       4.59956651E-09
  -9.90999985       4.58686022E-09
  -9.89999962       4.57798910E-09
  -9.89000034       4.57333194E-09
  -9.88000011       4.57327376E-09
  -9.86999989       4.57819471E-09
  -9.85999966       4.58846738E-09
  -9.85000038       4.60445193E-09
  -9.84000015       4.62648231E-09
  -9.82999992       4.65486938E-09
  -9.81999969       4.68988626E-09
  -9.81000042       4.73177142E-09
  -9.80000019       4.78072737E-09
  -9.78999996       4.83690332E-09
  -9.77999973       4.90041518E-09
  -9.77000046       4.97133046E-09
  -9.76000023       5.04967756E-09
  -9.75000000       5.13544007E-09
  -9.73999977       5.22856913E-09
  -9.72999954       5.32897548E-09
  -9.72000027       5.43653833E-09
  -9.71000004       5.55110757E-09
  -9.69999981       5.67250957E-09
  -9.68999958       5.80054316E-09
  -9.68000031       5.93498273E-09
  -9.67000008       6.07557782E-09
  -9.65999985       6.22206375E-09
  -9.64999962       6.37415676E-09
  -9.64000034       6.53154197E-09
  -9.63000011       6.69389300E-09
  -9.61999989       6.86087587E-09
  -9.60999966       7.03213177E-09
  -9.60000038       7.20730098E-09
  -9.59000015       7.38601269E-09
  -9.57999992       7.56789920E-09
  -9.56999969       7.75258879E-09
  -9.56000042       7.93971466E-09
  -9.55000019       8.12891887E-09
  -9.53999996       8.31984170E-09
  -9.52999973       8.51213855E-09
  -9.52000046       8.70547012E-09
  -9.51000023       8.89950691E-09
  -9.50000000       9.09393005E-09
  -9.48999977       9.28843757E-09
  -9.47999954       9.48274081E-09
  -9.47000027       9.67656799E-09
  -9.46000004       9.86966509E-09
  -9.44999981       1.00618083E-08
  -9.43999958       1.02527951E-08
  -9.43000031       1.04424522E-08
  -9.42000008       1.06306253E-08
  -9.40999985       1.08171889E-08
  -9.39999962       1.10020517E-08
  -9.39000034       1.11851435E-08
  -9.38000011       1.13664012E-08
  -9.36999989       1.15458061E-08
  -9.35999966       1.17233485E-08
  -9.35000038       1.18990409E-08
  -9.34000015       1.20729151E-08
  -9.32999992       1.22450210E-08
  -9.31999969       1.24154358E-08
  -9.31000042       1.25842439E-08
  -9.30000019       1.27515589E-08
  -9.28999996       1.29175168E-08
  -9.27999973       1.30822491E-08
  -9.27000046       1.32459288E-08
  -9.26000023       1.34087097E-08
  -9.25000000       1.35707818E-08
  -9.23999977       1.37323237E-08
  -9.22999954       1.38935254E-08
  -9.22000027       1.40545788E-08
  -9.21000004       1.42156740E-08
  -9.19999981       1.43770063E-08
  -9.18999958       1.45387595E-08
  -9.18000031       1.47011168E-08
  -9.17000008       1.48642432E-08
  -9.15999985       1.50282951E-08
  -9.14999962       1.51934199E-08
  -9.14000034       1.53597455E-08
  -9.13000011       1.55273820E-08
  -9.11999989       1.56964219E-08
  -9.10999966       1.58669469E-08
  -9.10000038       1.60390066E-08
  -9.09000015       1.62126224E-08
  -9.07999992       1.63877996E-08
  -9.06999969       1.65645222E-08
  -9.06000042       1.67427388E-08
  -9.05000019       1.69223746E-08
  -9.03999996       1.71033268E-08
  -9.02999973       1.72854708E-08
  -9.02000046       1.74686612E-08
  -9.01000023       1.76527486E-08
  -9.00000000       1.78375483E-08
  -8.98999977       1.80228845E-08
  -8.97999954       1.82085618E-08
  -8.97000027       1.83944007E-08
  -8.96000004       1.85802396E-08
  -8.94999981       1.87659293E-08
  -8.93999958       1.89513507E-08
  -8.93000031       1.91364258E-08
  -8.92000008       1.93211367E-08
  -8.90999985       1.95054923E-08
  -8.89999962       1.96895762E-08
  -8.89000034       1.98735233E-08
  -8.88000011       2.00575307E-08
  -8.86999989       2.02418491E-08
  -8.85999966       2.04267891E-08
  -8.85000038       2.06127240E-08
  -8.84000015       2.08000639E-08
  -8.82999992       2.09892868E-08
  -8.81999969       2.11809166E-08
  -8.81000042       2.13755094E-08
  -8.80000019       2.15736815E-08
  -8.78999996       2.17760707E-08
  -8.77999973       2.19833609E-08
  -8.77000046       2.21962519E-08
  -8.76000023       2.24154704E-08
  -8.75000000       2.26417551E-08
  -8.73999977       2.28758452E-08
  -8.72999954       2.31184725E-08
  -8.72000027       2.33703599E-08
  -8.71000004       2.36322144E-08
  -8.69999981       2.39046898E-08
  -8.68999958       2.41884219E-08
  -8.68000031       2.44839722E-08
  -8.67000008       2.47918734E-08
  -8.65999985       2.51125840E-08
  -8.64999962       2.54464947E-08
  -8.64000034       2.57939536E-08
  -8.63000011       2.61552291E-08
  -8.61999989       2.65305022E-08
  -8.60999966       2.69199170E-08
  -8.60000038       2.73235283E-08
  -8.59000015       2.77413506E-08
  -8.57999992       2.81733268E-08
  -8.56999969       2.86193718E-08
  -8.56000042       2.90793345E-08
  -8.55000019       2.95530338E-08
  -8.53999996       3.00402618E-08
  -8.52999973       3.05407610E-08
  -8.52000046       3.10542667E-08
  -8.51000023       3.15804769E-08
  -8.50000000       3.21190612E-08
  -8.48999977       3.26696856E-08
  -8.47999954       3.32320091E-08
  -8.47000027       3.38056516E-08
  -8.46000004       3.43902400E-08
  -8.44999981       3.49854155E-08
  -8.43999958       3.55908050E-08
  -8.43000031       3.62060106E-08
  -8.42000008       3.68306736E-08
  -8.40999985       3.74644387E-08
  -8.39999962       3.81069398E-08
  -8.39000034       3.87578325E-08
  -8.38000011       3.94168111E-08
  -8.36999989       4.00835489E-08
  -8.35999966       4.07577687E-08
  -8.35000038       4.14392076E-08
  -8.34000015       4.21275956E-08
  -8.32999992       4.28227018E-08
  -8.31999969       4.35242917E-08
  -8.31000042       4.42321166E-08
  -8.30000019       4.49459563E-08
  -8.28999996       4.56655584E-08
  -8.27999973       4.63906744E-08
  -8.27000046       4.71210519E-08
  -8.26000023       4.78564282E-08
  -8.25000000       4.85965543E-08
  -8.23999977       4.93411676E-08
  -8.22999954       5.00899979E-08
  -8.22000027       5.08427576E-08
  -8.21000004       5.15991765E-08
  -8.19999981       5.23589385E-08
  -8.18999958       5.31217310E-08
  -8.18000031       5.38871880E-08
  -8.17000008       5.46549543E-08
  -8.15999985       5.54246782E-08
  -8.14999962       5.61959155E-08
  -8.14000034       5.69682150E-08
  -8.13000011       5.77411505E-08
  -8.11999989       5.85141926E-08
  -8.10999966       5.92868439E-08
  -8.10000038       6.00585253E-08
  -8.09000015       6.08286470E-08
  -8.07999992       6.15965803E-08
  -8.06999969       6.23616074E-08
  -8.06000042       6.31230606E-08
  -8.05000019       6.38801723E-08
  -8.03999996       6.46321681E-08
  -8.02999973       6.53782024E-08
  -8.02000046       6.61174440E-08
  -8.01000023       6.68490472E-08
  -8.00000000       6.75721026E-08
  -7.98999977       6.82857646E-08
  -7.98000002       6.89890811E-08
  -7.96999979       6.96811995E-08
  -7.96000004       7.03611818E-08
  -7.94999981       7.10282393E-08
  -7.94000006       7.16814981E-08
  -7.92999983       7.23202191E-08
  -7.92000008       7.29436422E-08
  -7.90999985       7.35511279E-08
  -7.90000010       7.41420934E-08
  -7.88999987       7.47159774E-08
  -7.88000011       7.52723395E-08
  -7.86999989       7.58107959E-08
  -7.86000013       7.63309984E-08
  -7.84999990       7.68327411E-08
  -7.84000015       7.73158391E-08
  -7.82999992       7.77802782E-08
  -7.82000017       7.82260159E-08
  -7.80999994       7.86532155E-08
  -7.80000019       7.90620547E-08
  -7.78999996       7.94528248E-08
  -7.78000021       7.98258384E-08
  -7.76999998       8.01815858E-08
  -7.76000023       8.05205502E-08
  -7.75000000       8.08432858E-08
  -7.73999977       8.11504677E-08
  -7.73000002       8.14427850E-08
  -7.71999979       8.17210903E-08
  -7.71000004       8.19862436E-08
  -7.69999981       8.22392181E-08
  -7.69000006       8.24810016E-08
  -7.67999983       8.27127096E-08
  -7.67000008       8.29354718E-08
  -7.65999985       8.31504963E-08
  -7.65000010       8.33590192E-08
  -7.63999987       8.35623766E-08
  -7.63000011       8.37618543E-08
  -7.61999989       8.39588665E-08
  -7.61000013       8.41548342E-08
  -7.59999990       8.43511145E-08
  -7.59000015       8.45492139E-08
  -7.57999992       8.47506527E-08
  -7.57000017       8.49567954E-08
  -7.55999994       8.51691411E-08
  -7.55000019       8.53890896E-08
  -7.53999996       8.56180478E-08
  -7.53000021       8.58574154E-08
  -7.51999998       8.61085212E-08
  -7.51000023       8.63726939E-08
  -7.50000000       8.66512053E-08
  -7.48999977       8.69452350E-08
  -7.48000002       8.72559838E-08
  -7.46999979       8.75844961E-08
  -7.46000004       8.79318307E-08
  -7.44999981       8.82989184E-08
  -7.44000006       8.86866118E-08