  -16.0000000       0.00000000    
  -15.9899998       0.00000000    
  -15.9799995       0.00000000    
  -15.9700003       0.00000000    
  -15.9600000       0.00000000    
  -15.9499998       0.00000000    
  -15.9399996       0.00000000    
  -15.9300003       0.00000000    
  -15.9200001       0.00000000    
  -15.9099998       0.00000000    
  -15.8999996       0.00000000    
  -15.8900003       0.00000000    
  -15.8800001       0.00000000    
  -15.8699999       0.00000000    
  -15.8599997       0.00000000    
  -15.8500004      -0.00000000    
  -15.8400002       0.00000000    
  -15.8299999      -2.80259693E-45
  -15.8199997      -4.34402524E-44
  -15.8100004      -4.38606419E-43
  -15.8000002      -3.45139812E-42
  -15.7900000      -2.22021729E-41
  -15.7799997      -1.21079194E-40
  -15.7700005      -5.74047521E-40
  -15.7600002      -2.40858263E-39
  -15.7500000      -9.06241998E-39
  -15.7399998      -3.08848564E-38
  -15.7299995      -9.60641329E-38
  -15.7200003      -2.74250365E-37
  -15.7100000      -7.21517414E-37
  -15.6999998      -1.75366821E-36
  -15.6899996      -3.94157232E-36
  -15.6800003      -8.18598797E-36
  -15.6700001      -1.56608463E-35
  -15.6599998      -2.74203745E-35
  -15.6499996      -4.33939106E-35
  -15.6400003      -6.05530258E-35
  -15.6300001      -7.03973892E-35
  -15.6199999      -5.67245590E-35
  -15.6099997       4.10818595E-36
  -15.6000004       1.37023209E-34
  -15.5900002       3.52710753E-34
  -15.5799999       6.22036851E-34
  -15.5699997       8.46500206E-34
  -15.5600004       8.41463488E-34
  -15.5500002       3.59222120E-34
  -15.5400000      -8.19365113E-34
  -15.5299997      -2.71395417E-33
  -15.5200005      -4.92874643E-33
  -15.5100002      -6.49166094E-33
  -15.5000000      -5.90794902E-33
  -15.4899998      -1.59055755E-33
  -15.4799995       7.27613150E-33
  -15.4700003       1.96162265E-32
  -15.4600000       3.15676392E-32
  -15.4499998       3.65182131E-32
  -15.4399996       2.67112166E-32
  -15.4300003      -3.45364869E-33
  -15.4200001      -5.32030683E-32
  -15.4099998      -1.11975887E-31
  -15.3999996      -1.58908945E-31
  -15.3900003      -1.66618966E-31
  -15.3800001      -1.08913889E-31
  -15.3699999       2.98756709E-32
  -15.3599997       2.46865216E-31
  -15.3500004       5.14941616E-31
  -15.3400002       7.76870534E-31
  -15.3299999       9.34730538E-31
  -15.3199997       8.35388852E-31
  -15.3100004       2.68145496E-31
  -15.3000002      -9.88434926E-31
  -15.2900000      -3.02393157E-30
  -15.2799997      -5.53877779E-30
  -15.2700005      -7.53836440E-30
  -15.2600002      -7.17722018E-30
  -15.2500000      -2.06962106E-30
  -15.2399998       9.62933902E-30
  -15.2299995       2.73359485E-29
  -15.2200003       4.58763103E-29
  -15.2100000       5.43145828E-29
  -15.1999998       3.75424142E-29
  -15.1899996      -1.78711689E-29
  -15.1800003      -1.13597848E-28
  -15.1700001      -2.28052350E-28
  -15.1599998      -3.09516033E-28
  -15.1499996      -2.81847883E-28
  -15.1400003      -6.92408648E-29
  -15.1300001       3.59968151E-28
  -15.1199999       9.41367016E-28
  -15.1099997       1.47742554E-27
  -15.1000004       1.64556192E-27
  -15.0900002       1.07720189E-27
  -15.0799999      -4.86365344E-28
  -15.0699997      -2.98958716E-27
  -15.0600004      -5.87676800E-27
  -15.0500002      -8.02035190E-27
  -15.0400000      -7.86144805E-27
  -15.0299997      -3.82650348E-27
  -15.0200005       4.98777876E-27
  -15.0100002       1.79704332E-26
  -15.0000000       3.22196401E-26
  -14.9899998       4.21770461E-26
  -14.9799995       4.01073802E-26
  -14.9700003       1.78709366E-26
  -14.9600000      -2.97235763E-26
  -14.9499998      -1.00162224E-25
  -14.9399996      -1.78111641E-25
  -14.9300003      -2.32210403E-25
  -14.9200001      -2.17205184E-25
  -14.9099998      -8.51890399E-26
  -14.8999996       1.91945081E-25
  -14.8900003       5.91260518E-25
  -14.8800001       1.00849309E-24
  -14.8699999       1.24658818E-24
  -14.8599997       1.04545192E-24
  -14.8500004       1.70375738E-25
  -14.8400002      -1.44280540E-24
  -14.8299999      -3.52183993E-24
  -14.8199997      -5.34767861E-24
  -14.8100004      -5.80319648E-24
  -14.8000002      -3.67348266E-24
  -14.7900000       1.78188670E-24
  -14.7799997       1.01003612E-23
  -14.7700005       1.90164293E-23
  -14.7600002       2.44044250E-23
  -14.7500000       2.11688205E-23
  -14.7399998       5.24864541E-24
  -14.7299995      -2.35859392E-23
  -14.7200003      -5.91043242E-23
  -14.7100000      -8.76489910E-23
  -14.6999998      -9.04095876E-23
  -14.6899996      -4.98105456E-23
  -14.6800003       4.07225303E-23
  -14.6700001       1.66569482E-22
  -14.6599998       2.86281409E-22
  -14.6499996       3.36171749E-22
  -14.6400003       2.48964628E-22
  -14.6300001      -1.45527940E-23
  -14.6199999      -4.29138868E-22
  -14.6099997      -8.79446876E-22
  -14.6000004      -1.16417078E-21
  -14.5900002      -1.04512796E-21
  -14.5799999      -3.42783691E-22
  -14.5699997       9.42265447E-22
  -14.5600004       2.52642467E-21
  -14.5500002       3.81902301E-21
  -14.5400000       4.03213996E-21
  -14.5299997       2.44525878E-21
  -14.5200005      -1.21666636E-21
  -14.5100002      -6.40867550E-21
  -14.5000000      -1.15716606E-20
  -14.4899998      -1.43038721E-20
  -14.4799995      -1.20102643E-20
  -14.4700003      -2.98046059E-21
  -14.4600000       1.23735032E-20
  -14.4499998       3.05949939E-20
  -14.4399996       4.51456890E-20
  -14.4300003       4.77093673E-20
  -14.4200001       3.09228806E-20
  -14.4099998      -7.96116911E-21
  -14.3999996      -6.36137563E-20
  -14.3900003      -1.20948139E-19
  -14.3800001      -1.56766972E-19
  -14.3699999      -1.45587885E-19
  -14.3599997      -6.91291058E-20
  -14.3500004       7.28163927E-20
  -14.3400002       2.53965205E-19
  -14.3299999       4.20102492E-19
  -14.3199997       4.98242988E-19
  -14.3100004       4.17292405E-19
  -14.3000002       1.36890805E-19
  -14.2900000      -3.23498059E-19
  -14.2799997      -8.66530266E-19
  -14.2700005      -1.32148751E-18
  -14.2600002      -1.47874065E-18
  -14.2500000      -1.15297821E-18
  -14.2399998      -2.62581041E-19
  -14.2299995       1.09838760E-18
  -14.2200003       2.62526819E-18
  -14.2100000       3.83192866E-18
  -14.1999998       4.15719097E-18
  -14.1899996       3.13836233E-18
  -14.1800003       6.13631737E-19
  -14.1700001      -3.10882350E-18
  -14.1599998      -7.18695462E-18
  -14.1499996      -1.03455636E-17
  -14.1400003      -1.11631895E-17
  -14.1300001      -8.50895219E-18
  -14.1199999      -2.02919626E-18
  -14.1099997       7.46600896E-18
  -14.1000004       1.78804801E-17
  -14.0900002       2.61001010E-17
  -14.0799999       2.86863623E-17
  -14.0699997       2.28988541E-17
  -14.0600004       7.81200207E-18
  -14.0500002      -1.48099360E-17
  -14.0400000      -4.02364870E-17
  -14.0299997      -6.13602711E-17
  -14.0200005      -7.02179461E-17
  -14.0100002      -6.02301968E-17
  -14.0000000      -2.86609314E-17
  -13.9899998       2.14114312E-17
  -13.9799995       8.03581017E-17
  -13.9700003       1.33064826E-16
  -13.9600000       1.61958748E-16
  -13.9499998       1.51600316E-16
  -13.9399996       9.38661597E-17
  -13.9300003      -7.67713358E-18
  -13.9200001      -1.35716092E-16
  -13.9099998      -2.60641011E-16
  -13.8999996      -3.45945435E-16
  -13.8900003      -3.56962660E-16
  -13.8800001      -2.71209388E-16
  -13.8699999      -8.77392329E-17
  -13.8599997       1.67394899E-16
  -13.8500004       4.42002068E-16
  -13.8400002       6.66106392E-16
  -13.8299999       7.67090137E-16
  -13.8199997       6.88868814E-16
  -13.8100004       4.10654067E-16
  -13.8000002      -3.99216455E-17
  -13.7900000      -5.84004653E-16
  -13.7799997      -1.10179473E-15
  -13.7700005      -1.45559891E-15
  -13.7600002      -1.52186494E-15
  -13.7500000      -1.22535068E-15
  -13.7399998      -5.66880135E-16
  -13.7299995       3.63503951E-16
  -13.7200003       1.39359292E-15
  -13.7100000       2.29743774E-15
  -13.6999998       2.84100102E-15
  -13.6899996       2.83601581E-15
  -13.6800003       2.18999860E-15
  -13.6700001       9.40101433E-16
  -13.6599998      -7.38641000E-16
  -13.6499996      -2.55469224E-15
  -13.6400003      -4.14834428E-15
  -13.6300001      -5.15808464E-15
  -13.6199999      -5.29192770E-15
  -13.6099997      -4.38967286E-15
  -13.6000004      -2.46439175E-15
  -13.5900002       2.83816230E-16
  -13.5799999       3.48311997E-15
  -13.5699997       6.63095169E-15
  -13.5600004       9.15478715E-15
  -13.5500002       1.04866635E-14
  -13.5400000       1.01466348E-14
  -13.5299997       7.83124735E-15
  -13.5200005       3.50165813E-15
  -13.5100002      -2.53871487E-15
  -13.5000000      -9.59438878E-15
  -13.4899998      -1.65801871E-14
  -13.4799995      -2.21025082E-14
  -13.4700003      -2.46396209E-14
  -13.4600000      -2.28226217E-14
  -13.4499998      -1.57895175E-14
  -13.4399996      -3.55035257E-15
  -13.4300003       1.27287783E-14
  -13.4200001       3.06285352E-14
  -13.4099998       4.66581357E-14
  -13.3999996       5.67621782E-14
  -13.3900003       5.71232853E-14
  -13.3800001       4.51408964E-14
  -13.3699999       2.03828552E-14
  -13.3599997      -1.47439722E-14
  -13.3500004      -5.48505062E-14
  -13.3400002      -9.21204302E-14
  -13.3299999      -1.17592351E-13
  -13.3199997      -1.23016045E-13
  -13.3100004      -1.02947056E-13
  -13.3000002      -5.66102815E-14
  -13.2900000       1.09741165E-14
  -13.2799997       8.90243622E-14
  -13.2700005       1.62402399E-13
  -13.2600002       2.14300176E-13
  -13.2500000       2.29786378E-13
  -13.2399998       1.99511252E-13
  -13.2299995       1.22715396E-13
  -13.2200003       8.72603771E-15
  -13.2100000      -1.23636263E-13
  -13.1999998      -2.48900076E-13
  -13.1899996      -3.39684146E-13
  -13.1800003      -3.72493079E-13
  -13.1700001      -3.33370782E-13
  -13.1599998      -2.22101336E-13
  -13.1499996      -5.38344698E-14
  -13.1400003       1.42522075E-13
  -13.1300001       3.29124044E-13
  -13.1199999       4.66472835E-13
  -13.1099997       5.21767091E-13
  -13.1000004       4.76561173E-13
  -13.0900002       3.31967174E-13
  -13.0799999       1.10041459E-13
  -13.0699997      -1.49250661E-13
  -13.0600004      -3.95151332E-13
  -13.0500002      -5.76029784E-13
  -13.0400000      -6.50119444E-13
  -13.0299997      -5.94792716E-13
  -13.0200005      -4.12310350E-13
  -13.0100002      -1.30681395E-13
  -13.0000000       2.00683328E-13
  -12.9899998       5.19697133E-13
  -12.9799995       7.62898642E-13
  -12.9700003       8.76985008E-13
  -12.9600000       8.28259824E-13
  -12.9499998       6.08291575E-13
  -12.9399996       2.35100161E-13
  -12.9300003      -2.49660942E-13
  -12.9200001      -7.86139057E-13
  -12.9099998      -1.30255474E-12
  -12.8999996      -1.72083593E-12
  -12.8900003      -1.96106044E-12
  -12.8800001      -1.94540955E-12
  -12.8699999      -1.60346931E-12
  -12.8599997      -8.81176425E-13
  -12.8500004       2.44878689E-13
  -12.8400002       1.74782270E-12
  -12.8299999       3.52825495E-12
  -12.8199997       5.39500562E-12
  -12.8100004       7.05676706E-12
  -12.8000002       8.13302897E-12
  -12.7900000       8.19101557E-12
  -12.7799997       6.81090297E-12
  -12.7700005       3.67514135E-12
  -12.7600002      -1.32964874E-12
  -12.7500000      -8.01628555E-12
  -12.7399998      -1.58281634E-11
  -12.7299995      -2.38197431E-11
  -12.7200003      -3.07030686E-11
  -12.7100000      -3.49676191E-11
  -12.6999998      -3.50681671E-11
  -12.6899996      -2.96622622E-11
  -12.6800003      -1.78679103E-11
  -12.6700001       4.94696894E-13
  -12.6599998       2.47143504E-11
  -12.6499996       5.30848282E-11
  -12.6400003       8.29079097E-11
  -12.6300001       1.10613539E-10
  -12.6199999       1.31995345E-10
  -12.6099997       1.42550027E-10
  -12.6000004       1.37903147E-10
  -12.5900002       1.14300333E-10
  -12.5799999       6.91414009E-11
  -12.5699997       1.53103376E-12
  -12.5600004      -8.71862235E-11
  -12.5500002      -1.92950253E-10
  -12.5400000      -3.08625625E-10
  -12.5299997      -4.23830554E-10
  -12.5200005      -5.25034849E-10
  -12.5100002      -5.96010630E-10
  -12.5000000      -6.18704088E-10
  -12.4899998      -5.74570058E-10
  -12.4799995      -4.46366388E-10
  -12.4700003      -2.20355290E-10
  -12.4600000       1.11199272E-10
  -12.4499998       5.47398515E-10
  -12.4399996       1.07613696E-09
  -12.4300003       1.67180714E-09
  -12.4200001       2.29349717E-09
  -12.4099998       2.88387847E-09
  -12.3999996       3.36893624E-09
  -12.3900003       3.65867026E-09
  -12.3800001       3.64881991E-09
  -12.3699999       3.22364402E-09
  -12.3599997       2.25971064E-09
  -12.3500004       6.30627384E-10
  -12.3400002      -1.78741566E-09
  -12.3299999      -5.10948750E-09
  -12.3199997      -9.43533607E-09
  -12.3100004      -1.48427031E-08
  -12.3000002      -2.13808509E-08
  -12.2900000      -2.90646351E-08
  -12.2799997      -3.78694835E-08
  -12.2700005      -4.77276814E-08
  -12.2600002      -5.85261368E-08
  -12.2500000      -7.01059406E-08
  -12.2399998      -8.22637887E-08
  -12.2299995      -9.47553929E-08
  -12.2200003      -1.07300508E-07
  -12.2100000      -1.19589700E-07
  -12.1999998      -1.31292225E-07
  -12.1899996      -1.42064891E-07
  -12.1800003      -1.51561139E-07
  -12.1700001      -1.59440333E-07
  -12.1599998      -1.65376278E-07
  -12.1499996      -1.69065018E-07
  -12.1400003      -1.70231260E-07
  -12.1300001      -1.68633406E-07
  -12.1199999      -1.64067146E-07
  -12.1099997      -1.56367435E-07
  -12.1000004      -1.45409118E-07
  -12.0900002      -1.31106702E-07
  -12.0799999      -1.13413329E-07
  -12.0699997      -9.23193682E-08
  -12.0600004      -6.78510972E-08
  -12.0500002      -4.00695370E-08
  -12.0400000      -9.06999453E-09
  -12.0299997       2.50179237E-08
  -12.0200005       6.20296703E-08
  -12.0100002       1.01764634E-07
  -12.0000000       1.43984636E-07
  -11.9899998       1.88412073E-07
  -11.9799995       2.34728631E-07
  -11.9700003       2.82573865E-07
  -11.9600000       3.31544783E-07
  -11.9499998       3.81196173E-07
  -11.9399996       4.31042054E-07
  -11.9300003       4.80558242E-07
  -11.9200001       5.29186877E-07
  -11.9099998       5.76340994E-07
  -11.8999996       6.21411971E-07
  -11.8900003       6.63777087E-07
  -11.8800001       7.02807256E-07
  -11.8699999       7.37876860E-07
  -11.8599997       7.68372161E-07
  -11.8500004       7.93700110E-07
  -11.8400002       8.13296595E-07
  -11.8299999       8.26633368E-07
  -11.8199997       8.33225499E-07
  -11.8100004       8.32636204E-07
  -11.8000002       8.24481447E-07
  -11.7900000       8.08433470E-07
  -11.7799997       7.84222834E-07
  -11.7700005       7.51640982E-07
  -11.7600002       7.10540064E-07
  -11.7500000       6.60834189E-07
  -11.7399998       6.02498858E-07
  -11.7299995       5.35571417E-07
  -11.7200003       4.60151568E-07
  -11.7100000       3.76401545E-07
  -11.6999998       2.84547582E-07
  -11.6899996       1.84881330E-07
  -11.6800003       7.77613778E-08
  -11.6700001      -3.63850283E-08
  -11.6599998      -1.57060867E-07
  -11.6499996      -2.83698910E-07
  -11.6400003      -4.15662356E-07
  -11.6300001      -5.52246263E-07
  -11.6199999      -6.92680260E-07
  -11.6099997      -8.36131733E-07
  -11.6000004      -9.81710969E-07
  -11.5900002      -1.12847511E-06
  -11.5799999      -1.27543308E-06
  -11.5699997      -1.42155079E-06
  -11.5600004      -1.56575777E-06
  -11.5500002      -1.70695091E-06
  -11.5400000      -1.84400199E-06
  -11.5299997      -1.97576242E-06
  -11.5200005      -2.10107055E-06
  -11.5100002      -2.21875644E-06
  -11.5000000      -2.32764683E-06
  -11.4899998      -2.42657097E-06
  -11.4799995      -2.51436109E-06
  -11.4700003      -2.58985801E-06
  -11.4600000      -2.65191011E-06
  -11.4499998      -2.69937800E-06
  -11.4399996      -2.73113324E-06
  -11.4300003      -2.74606646E-06
  -11.4200001      -2.74308854E-06
  -11.4099998      -2.72114039E-06
  -11.3999996      -2.67920109E-06
  -11.3900003      -2.61629680E-06
  -11.3800001      -2.53151302E-06
  -11.3699999      -2.42400188E-06
  -11.3599997      -2.29299144E-06
  -11.3500004      -2.13779140E-06
  -11.3400002      -1.95779558E-06
  -11.3299999      -1.75248329E-06
  -11.3199997      -1.52141683E-06
  -11.3100004      -1.26423731E-06
  -11.3000002      -9.80658797E-07
  -11.2900000      -6.70461077E-07
  -11.2799997      -3.33482916E-07
  -11.2700005       3.03860688E-08
  -11.2600002       4.21212007E-07
  -11.2500000       8.39022675E-07
  -11.2399998       1.28381214E-06
  -11.2299995       1.75554351E-06
  -11.2200003       2.25415056E-06
  -11.2100000       2.77953586E-06
  -11.1999998       3.33157232E-06
  -11.1899996       3.91009598E-06
  -11.1800003       4.51490814E-06
  -11.1700001       5.14576686E-06
  -11.1599998       5.80238884E-06
  -11.1499996       6.48444666E-06
  -11.1400003       7.19156878E-06
  -11.1300001       7.92334231E-06
  -11.1199999       8.67931067E-06
  -11.1099997       9.45897955E-06
  -11.1000004       1.02618178E-05
  -11.0900002       1.10872634E-05
  -11.0799999       1.19347287E-05
  -11.0699997       1.28035954E-05
  -11.0600004       1.36932331E-05
  -11.0500002       1.46029970E-05
  -11.0400000       1.55322250E-05
  -11.0299997       1.64802568E-05
  -11.0200005       1.74464240E-05
  -11.0100002       1.84300552E-05
  -11.0000000       1.94304739E-05
  -10.9899998       2.04469925E-05
  -10.9799995       2.14789197E-05
  -10.9700003       2.25255462E-05
  -10.9600000       2.35861498E-05
  -10.9499998       2.46599793E-05
  -10.9399996       2.57462725E-05
  -10.9300003       2.68442400E-05
  -10.9200001       2.79530632E-05
  -10.9099998       2.90719199E-05
  -10.8999996       3.01999462E-05
  -10.8900003       3.13362798E-05
  -10.8800001       3.24800349E-05
  -10.8699999       3.36303237E-05
  -10.8599997       3.47862479E-05
  -10.8500004       3.59468977E-05
  -10.8400002       3.71113492E-05
  -10.8299999       3.82787039E-05
  -10.8199997       3.94480448E-05
  -10.8100004       4.06184517E-05
  -10.8000002       4.17890187E-05
  -10.7900000       4.29588545E-05
  -10.7799997       4.41270604E-05
  -10.7700005       4.52927525E-05
  -10.7600002       4.64550685E-05
  -10.7500000       4.76131354E-05
  -10.7399998       4.87661273E-05
  -10.7299995       4.99132148E-05
  -10.7200003       5.10535792E-05
  -10.7100000       5.21864349E-05
  -10.6999998       5.33110033E-05
  -10.6899996       5.44265276E-05
  -10.6800003       5.55322986E-05
  -10.6700001       5.66276067E-05
  -10.6599998       5.77117971E-05
  -10.6499996       5.87843206E-05
  -10.6400003       5.98446277E-05
  -10.6300001       6.08922965E-05
  -10.6199999       6.19270068E-05
  -10.6099997       6.29485439E-05
  -10.6000004       6.39567515E-05
  -10.5900002       6.49516514E-05
  -10.5799999       6.59333309E-05
  -10.5699997       6.69019792E-05
  -10.5600004       6.78578726E-05
  -10.5500002       6.88013461E-05
  -10.5400000       6.97328214E-05
  -10.5299997       7.06527353E-05
  -10.5200005       7.15615533E-05
  -10.5100002       7.24597776E-05
  -10.5000000       7.33479174E-05
  -10.4899998       7.42265038E-05
  -10.4799995       7.50960462E-05
  -10.4700003       7.59570903E-05
  -10.4600000       7.68101891E-05
  -10.4499998       7.76558591E-05
  -10.4399996       7.84946824E-05
  -10.4300003       7.93272193E-05
  -10.4200001       8.01540518E-05
  -10.4099998       8.09757330E-05
  -10.3999996       8.17928449E-05
  -10.3900003       8.26059040E-05
  -10.3800001       8.34153980E-05
  -10.3699999       8.42217851E-05
  -10.3599997       8.50254510E-05
  -10.3500004       8.58267376E-05
  -10.3400002       8.66259215E-05
  -10.3299999       8.74231919E-05
  -10.3199997       8.82187378E-05
  -10.3100004       8.90126539E-05
  -10.3000002       8.98050130E-05
  -10.2900000       9.05958805E-05
  -10.2799997       9.13852418E-05
  -10.2700005       9.21730752E-05
  -10.2600002       9.29593371E-05
  -10.2500000       9.37439618E-05
  -10.2399998       9.45268548E-05
  -10.2299995       9.53079434E-05
  -10.2200003       9.60870966E-05
  -10.2100000       9.68642344E-05
  -10.1999998       9.76392403E-05
  -10.1899996       9.84120343E-05
  -10.1800003       9.91825582E-05
  -10.1700001       9.99507683E-05
  -10.1599998       1.00716679E-04
  -10.1499996       1.01480349E-04
  -10.1400003       1.02241880E-04
  -10.1300001       1.03001417E-04
  -10.1199999       1.03759165E-04
  -10.1099997       1.04515391E-04
  -10.1000004       1.05270388E-04
  -10.0900002       1.06024527E-04
  -10.0799999       1.06778200E-04
  -10.0699997       1.07531894E-04
  -10.0600004       1.08286142E-04
  -10.0500002       1.09041517E-04
  -10.0400000       1.09798711E-04
  -10.0299997       1.10558460E-04
  -10.0200005       1.11321591E-04
  -10.0100002       1.12088994E-04
  -10.0000000       1.12861620E-04
  -9.98999977       1.13640504E-04
  -9.97999954       1.14426715E-04
  -9.97000027       1.15221424E-04
  -9.96000004       1.16025811E-04
  -9.94999981       1.16841125E-04
  -9.93999958       1.17668598E-04
  -9.93000031       1.18509583E-04
  -9.92000008       1.19365417E-04
  -9.90999985       1.20237521E-04
  -9.89999962       1.21127305E-04
  -9.89000034       1.22036166E-04
  -9.88000011       1.22965575E-04
  -9.86999989       1.23916965E-04
  -9.85999966       1.24891798E-04
  -9.85000038       1.25891514E-04
  -9.84000015       1.26917483E-04
  -9.82999992       1.27971129E-04
  -9.81999969       1.29053835E-04
  -9.81000042       1.30166954E-04
  -9.80000019       1.31311812E-04
  -9.78999996       1.32489746E-04
  -9.77999973       1.33702080E-04
  -9.77000046       1.34950082E-04
  -9.76000023       1.36235045E-04
  -9.75000000       1.37558323E-04
  -9.73999977       1.38921256E-04
  -9.72999954       1.40325152E-04
  -9.72000027       1.41771423E-04
  -9.71000004       1.43261495E-04
  -9.69999981       1.44796883E-04
  -9.68999958       1.46379098E-04
  -9.68000031       1.48009683E-04
  -9.67000008       1.49690168E-04
  -9.65999985       1.51422209E-04
  -9.64999962       1.53207322E-04
  -9.64000034       1.55047062E-04
  -9.63000011       1.56942930E-04
  -9.61999989       1.58896306E-04
  -9.60999966       1.60908516E-04
  -9.60000038       1.62980665E-04
  -9.59000015       1.65113786E-04
  -9.57999992       1.67308724E-04
  -9.56999969       1.69566105E-04
  -9.56000042       1.71886248E-04
  -9.55000019       1.74269269E-04
  -9.53999996       1.76714966E-04
  -9.52999973       1.79222727E-04
  -9.52000046       1.81791751E-04
  -9.51000023       1.84420787E-04
  -9.50000000       1.87108322E-04
  -9.48999977       1.89852348E-04
  -9.47999954       1.92650637E-04
  -9.47000027       1.95500601E-04
  -9.46000004       1.98399415E-04
  -9.44999981       2.01344010E-04
  -9.43999958       2.04331067E-04
  -9.43000031       2.07357181E-04
  -9.42000008       2.10418817E-04
  -9.40999985       2.13512481E-04
  -9.39999962       2.16634609E-04
  -9.39000034       2.19781723E-04
  -9.38000011       2.22950563E-04
  -9.36999989       2.26138087E-04
  -9.35999966       2.29341633E-04
  -9.35000038       2.32558785E-04
  -9.34000015       2.35787709E-04
  -9.32999992       2.39026951E-04
  -9.31999969       2.42275724E-04
  -9.31000042       2.45533825E-04
  -9.30000019       2.48801720E-04
  -9.28999996       2.52080412E-04
  -9.27999973       2.55371706E-04
  -9.27000046       2.58677959E-04
  -9.26000023       2.62002228E-04
  -9.25000000       2.65348004E-04
  -9.23999977       2.68719625E-04
  -9.22999954       2.72121833E-04
  -9.22000027       2.75559723E-04
  -9.21000004       2.79039057E-04
  -9.19999981       2.82565743E-04
  -9.18999958       2.86146300E-04
  -9.18000031       2.89787276E-04
  -9.17000008       2.93495483E-04
  -9.15999985       2.97277875E-04
  -9.14999962       3.01141350E-04
  -9.14000034       3.05092806E-04
  -9.13000011       3.09139083E-04
  -9.11999989       3.13286873E-04
  -9.10999966       3.17542494E-04
  -9.10000038       3.21912084E-04
  -9.09000015       3.26401321E-04
  -9.07999992       3.31015530E-04
  -9.06999969       3.35759629E-04
  -9.06000042       3.40637955E-04
  -9.05000019       3.45654029E-04
  -9.03999996       3.50811111E-04
  -9.02999973       3.56111676E-04
  -9.02000046       3.61557497E-04
  -9.01000023       3.67149769E-04
  -9.00000000       3.72888695E-04
  -8.98999977       3.78774013E-04
  -8.97999954       3.84804473E-04
  -8.97000027       3.90978093E-04
  -8.96000004       3.97292082E-04
  -8.94999981       4.03742888E-04
  -8.93999958       4.10326116E-04
  -8.93000031       4.17036732E-04
  -8.92000008       4.23868623E-04
  -8.90999985       4.30815242E-04
  -8.89999962       4.37869283E-04
  -8.89000034       4.45022713E-04
  -8.88000011       4.52267152E-04
  -8.86999989       4.59593604E-04
  -8.85999966       4.66992526E-04
  -8.85000038       4.74454282E-04
  -8.84000015       4.81968309E-04
  -8.82999992       4.89524682E-04
  -8.81999969       4.97112458E-04
  -8.81000042       5.04721073E-04
  -8.80000019       5.12339931E-04
  -8.78999996       5.19958267E-04
  -8.77999973       5.27565659E-04
  -8.77000046       5.35151456E-04
  -8.76000023       5.42705704E-04
  -8.75000000       5.50218334E-04
  -8.73999977       5.57679567E-04
  -8.72999954       5.65080089E-04
  -8.72000027       5.72411111E-04
  -8.71000004       5.79664134E-04
  -8.69999981       5.86830836E-04
  -8.68999958       5.93903707E-04
  -8.68000031       6.00875763E-04
  -8.67000008       6.07740192E-04
  -8.65999985       6.14491175E-04
  -8.64999962       6.21123065E-04
  -8.64000034       6.27630856E-04
  -8.63000011       6.34009950E-04
  -8.61999989       6.40256796E-04
  -8.60999966       6.46367786E-04
  -8.60000038       6.52340241E-04
  -8.59000015       6.58171950E-04
  -8.57999992       6.63861225E-04
  -8.56999969       6.69407076E-04
  -8.56000042       6.74808631E-04
  -8.55000019       6.80065830E-04
  -8.53999996       6.85178966E-04
  -8.52999973       6.90148969E-04
  -8.52000046       6.94977003E-04
  -8.51000023       6.99664815E-04
  -8.50000000       7.04214326E-04
  -8.48999977       7.08628097E-04
  -8.47999954       7.12909154E-04
  -8.47000027       7.17060291E-04
  -8.46000004       7.21084944E-04
  -8.44999981       7.24986778E-04
  -8.43999958       7.28769810E-04
  -8.43000031       7.32437999E-04
  -8.42000008       7.35995418E-04
  -8.40999985       7.39446667E-04
  -8.39999962       7.42796052E-04
  -8.39000034       7.46048521E-04
  -8.38000011       7.49208673E-04
  -8.36999989       7.52281456E-04
  -8.35999966       7.55271700E-04
  -8.35000038       7.58184586E-04
  -8.34000015       7.61025120E-04
  -8.32999992       7.63798307E-04
  -8.31999969       7.66509445E-04
  -8.31000042       7.69163773E-04
  -8.30000019       7.71766761E-04
  -8.28999996       7.74323766E-04
  -8.27999973       7.76840665E-04
  -8.27000046       7.79322814E-04
  -8.26000023       7.81776442E-04
  -8.25000000       7.84207485E-04
  -8.23999977       7.86622113E-04
  -8.22999954       7.89027021E-04
  -8.22000027       7.91429135E-04
  -8.21000004       7.93835381E-04
  -8.19999981       7.96253153E-04
  -8.18999958       7.98690366E-04
  -8.18000031       8.01154994E-04
  -8.17000008       8.03655712E-04
  -8.15999985       8.06201308E-04
  -8.14999962       8.08800803E-04
  -8.14000034       8.11463688E-04
  -8.13000011       8.14200030E-04
  -8.11999989       8.17020016E-04
  -8.10999966       8.19933892E-04
  -8.10000038       8.22952192E-04
  -8.09000015       8.26086209E-04
  -8.07999992       8.29346711E-04
  -8.06999969       8.32744816E-04
  -8.06000042       8.36292107E-04
  -8.05000019       8.39999761E-04
  -8.03999996       8.43878894E-04
  -8.02999973       8.47940333E-04
  -8.02000046       8.52195488E-04
  -8.01000023       8.56654719E-04
  -8.00000000       8.61328444E-04
  -7.98999977       8.66226852E-04
  -7.98000002       8.71359603E-04
  -7.96999979       8.76735547E-04
  -7.96000004       8.82363704E-04
  -7.94999981       8.88251991E-04
  -7.94000006       8.94407975E-04
  -7.92999983       9.00838699E-04
  -7.92000008       9.07550449E-04
  -7.90999985       9.14549106E-04
  -7.90000010       9.21839674E-04
  -7.88999987       9.29426693E-04
  -7.88000011       9.37313715E-04
  -7.86999989       9.45504638E-04
  -7.86000013       9.54001443E-04
  -7.84999990       9.62806342E-04
  -7.84000015       9.71920846E-04
  -7.82999992       9.81345540E-04
  -7.82000017       9.91080888E-04
  -7.80999994       1.00112625E-03
  -7.80000019       1.01148104E-03
  -7.78999996       1.02214376E-03
  -7.78000021       1.03311241E-03
  -7.76999998       1.04438502E-03
  -7.76000023       1.05595845E-03
  -7.75000000       1.06782943E-03
  -7.73999977       1.07999484E-03
  -7.73000002       1.09245058E-03
  -7.71999979       1.10519212E-03
  -7.71000004       1.11821492E-03
  -7.69999981       1.13151397E-03
  -7.69000006       1.14508450E-03
  -7.67999983       1.15892105E-03
  -7.67000008       1.17301801E-03
  -7.65999985       1.18737028E-03
  -7.65000010       1.20197190E-03
  -7.63999987       1.21681730E-03
  -7.63000011       1.23190088E-03
  -7.61999989       1.24721718E-03
  -7.61000013       1.26276060E-03
  -7.59999990       1.27852603E-03
  -7.59000015       1.29450823E-03
  -7.57999992       1.31070276E-03
  -7.57000017       1.32710522E-03
  -7.55999994       1.34371163E-03
  -7.55000019       1.36051828E-03
  -7.53999996       1.37752166E-03
  -7.53000021       1.39471923E-03
  -7.51999998       1.41210807E-03
  -7.51000023       1.42968621E-03
  -7.50000000       1.44745235E-03
  -7.48999977       1.46540499E-03
  -7.48000002       1.48354378E-03
  -7.46999979       1.50186848E-03
  -7.46000004       1.52037898E-03
  -7.44999981       1.53907656E-03
  -7.44000006       1.55796180E-03