  -16.0000000       0.00000000    
  -15.9899998       0.00000000    
  -15.9799995       0.00000000    
  -15.9700003       0.00000000    
  -15.9600000       0.00000000    
  -15.9499998       0.00000000    
  -15.9399996       0.00000000    
  -15.9300003       0.00000000    
  -15.9200001       0.00000000    
  -15.9099998       0.00000000    
  -15.8999996       0.00000000    
  -15.8900003       0.00000000    
  -15.8800001       0.00000000    
  -15.8699999       0.00000000    
  -15.8599997       0.00000000    
  -15.8500004       0.00000000    
  -15.8400002       0.00000000    
  -15.8299999       0.00000000    
  -15.8199997      -0.00000000    
  -15.8100004      -1.40129846E-45
  -15.8000002      -1.12103877E-44
  -15.7900000      -5.18480432E-44
  -15.7799997      -2.22806456E-43
  -15.7700005      -8.37976482E-43
  -15.7600002      -2.81100472E-42
  -15.7500000      -8.46244143E-42
  -15.7399998      -2.29476637E-41
  -15.7299995      -5.59832749E-41
  -15.7200003      -1.22130168E-40
  -15.7100000      -2.34891254E-40
  -15.6999998      -3.85795684E-40
  -15.6899996      -4.97665544E-40
  -15.6800003      -3.48804207E-40
  -15.6700001       5.07180361E-40
  -15.6599998       2.74653798E-39
  -15.6499996       7.05926382E-39
  -15.6400003       1.35411787E-38
  -15.6300001       2.06385144E-38
  -15.6199999       2.39351391E-38
  -15.6099997       1.56245872E-38
  -15.6000004      -1.40123148E-38
  -15.5900002      -7.19656669E-38
  -15.5799999      -1.54934251E-37
  -15.5699997      -2.41713694E-37
  -15.5600004      -2.90869024E-37
  -15.5500002      -2.48476966E-37
  -15.5400000      -6.44765505E-38
  -15.5299997       2.94525046E-37
  -15.5200005       8.54058994E-37
  -15.5100002       1.66464966E-36
  -15.5000000       2.81077065E-36
  -15.4899998       4.27685188E-36
  -15.4799995       5.52653102E-36
  -15.4700003       4.79193422E-36
  -15.4600000      -1.51861042E-36
  -15.4499998      -1.82586616E-35
  -15.4399996      -4.83452587E-35
  -15.4300003      -8.59719375E-35
  -15.4200001      -1.07698471E-34
  -15.4099998      -6.74048205E-35
  -15.3999996       9.39057897E-35
  -15.3900003       4.11324070E-34
  -15.3800001       8.29144399E-34
  -15.3699999       1.12468609E-33
  -15.3599997       8.79521587E-34
  -15.3500004      -4.14958689E-34
  -15.3400002      -3.03978541E-33
  -15.3299999      -6.52788453E-33
  -15.3199997      -9.13281969E-33
  -15.3100004      -7.71250146E-33
  -15.3000002       1.39689963E-33
  -15.2900000       2.00899919E-32
  -15.2799997       4.50084650E-32
  -15.2700005       6.42643349E-32
  -15.2600002       5.71091126E-32
  -15.2500000      -6.67055277E-35
  -15.2399998      -1.19258016E-31
  -15.2299995      -2.79830615E-31
  -15.2200003      -4.09651459E-31
  -15.2100000      -3.84138459E-31
  -15.1999998      -6.17145760E-32
  -15.1899996       6.33609934E-31
  -15.1800003       1.59443095E-30
  -15.1700001       2.42446519E-30
  -15.1599998       2.42920497E-30
  -15.1499996       7.99454836E-31
  -15.1400003      -2.95547379E-30
  -15.1300001      -8.38178479E-30
  -15.1199999      -1.34973594E-29
  -15.1099997      -1.46683700E-29
  -15.1000004      -7.44070245E-30
  -15.0900002       1.13522963E-29
  -15.0799999       4.04099283E-29
  -15.0699997       7.07675375E-29
  -15.0600004       8.45628352E-29
  -15.0500002       5.82371363E-29
  -15.0400000      -2.79627935E-29
  -15.0299997      -1.74563798E-28
  -15.0200005      -3.45816996E-28
  -15.0100002      -4.59901526E-28
  -15.0000000      -3.98371652E-28
  -14.9899998      -4.54009878E-29
  -14.9799995       6.41454127E-28
  -14.9700003       1.54438194E-27
  -14.9600000       2.31978589E-27
  -14.9499998       2.40975494E-27
  -14.9399996       1.18686714E-27
  -14.9300003      -1.74260587E-27
  -14.9200001      -6.12277704E-27
  -14.9099998      -1.06658671E-26
  -14.8999996      -1.29473676E-26
  -14.8900003      -9.85776688E-27
  -14.8800001       1.20443354E-27
  -14.8699999       2.04850876E-26
  -14.8599997       4.38913703E-26
  -14.8500004       6.18667555E-26
  -14.8400002       6.04002261E-26
  -14.8299999       2.52379021E-26
  -14.8199997      -5.05850769E-26
  -14.8100004      -1.57497485E-25
  -14.8000002      -2.62148364E-25
  -14.7900000      -3.07530127E-25
  -14.7799997      -2.25774136E-25
  -14.7700005       3.40192629E-26
  -14.7600002       4.66852370E-25
  -14.7500000       9.74376338E-25
  -14.7399998       1.34952624E-24
  -14.7299995       1.30663311E-24
  -14.7200003       5.72856639E-25
  -14.7100000      -9.64063658E-25
  -14.6999998      -3.08905013E-24
  -14.6899996      -5.14584381E-24
  -14.6800003      -6.06871957E-24
  -14.6700001      -4.63969961E-24
  -14.6599998       1.00170405E-26
  -14.6499996       7.74544184E-24
  -14.6400003       1.68446637E-23
  -14.6300001       2.38179811E-23
  -14.6199999       2.39695970E-23
  -14.6099997       1.28902570E-23
  -14.6000004      -1.12653747E-23
  -14.5900002      -4.53278025E-23
  -14.5799999      -7.95480963E-23
  -14.5699997      -9.81851624E-23
  -14.5600004      -8.32367405E-23
  -14.5500002      -2.14074904E-23
  -14.5400000       8.70441934E-23
  -14.5299997       2.20580403E-22
  -14.5200005       3.33941734E-22
  -14.5100002       3.65050117E-22
  -14.5000000       2.53305559E-22
  -14.4899998      -3.26993574E-23
  -14.4799995      -4.65302878E-22
  -14.4700003      -9.37803095E-22
  -14.4600000      -1.26841715E-21
  -14.4499998      -1.23896378E-21
  -14.4399996      -6.69440642E-22
  -14.4300003       4.85296425E-22
  -14.4200001       2.04700928E-21
  -14.4099998       3.57547608E-21
  -14.3999996       4.42084740E-21
  -14.3900003       3.88944928E-21
  -14.3800001       1.50866273E-21
  -14.3699999      -2.67163121E-21
  -14.3599997      -7.84802793E-21
  -14.3500004      -1.24304938E-20
  -14.3400002      -1.43119662E-20
  -14.3299999      -1.14698681E-20
  -14.3199997      -2.80761195E-21
  -14.3100004       1.09927521E-20
  -14.3000002       2.69396715E-20
  -14.2900000       3.98720055E-20
  -14.2799997       4.35031636E-20
  -14.2700005       3.23470465E-20
  -14.2600002       4.15230652E-21
  -14.2500000      -3.78789945E-20
  -14.2399998      -8.40213102E-20
  -14.2299995      -1.18972638E-19
  -14.2200003      -1.25266216E-19
  -14.2100000      -8.88408845E-20
  -14.1999998      -5.54120376E-21
  -14.1899996       1.13492812E-19
  -14.1800003       2.39940410E-19
  -14.1700001       3.31910460E-19
  -14.1599998       3.43765173E-19
  -14.1499996       2.40885670E-19
  -14.1400003       1.58798660E-20
  -14.1300001      -2.98997073E-19
  -14.1199999      -6.28898078E-19
  -14.1099997      -8.67194906E-19
  -14.1000004      -9.00940101E-19
  -14.0900002      -6.47077492E-19
  -14.0799999      -9.05305560E-20
  -14.0699997       6.88190488E-19
  -14.0600004       1.50852432E-18
  -14.0500002       2.11729306E-18
  -14.0400000       2.24873930E-18
  -14.0299997       1.70718684E-18
  -14.0200005       4.51896730E-19
  -14.0100002      -1.34294354E-18
  -14.0000000      -3.27977795E-18
  -13.9899998      -4.79815916E-18
  -13.9799995      -5.30407482E-18
  -13.9700003      -4.34594490E-18
  -13.9600000      -1.79430157E-18
  -13.9499998       2.03020128E-18
  -13.9399996       6.33379474E-18
  -13.9300003       9.96559326E-18
  -13.9200001       1.16717914E-17
  -13.9099998       1.04445358E-17
  -13.8999996       5.88251023E-18
  -13.8900003      -1.54255784E-18
  -13.8800001      -1.04149302E-17
  -13.8699999      -1.85648827E-17
  -13.8599997      -2.35214730E-17
  -13.8500004      -2.31523668E-17
  -13.8400002      -1.63439706E-17
  -13.8299999      -3.53351912E-18
  -13.8199997       1.30897088E-17
  -13.8100004       2.98364973E-17
  -13.8000002       4.22384030E-17
  -13.7900000       4.61210532E-17
  -13.7799997       3.87931726E-17
  -13.7700005       2.00405166E-17
  -13.7600002      -7.38338768E-18
  -13.7500000      -3.79871380E-17
  -13.7399998      -6.45430106E-17
  -13.7299995      -7.97051651E-17
  -13.7200003      -7.78967960E-17
  -13.7100000      -5.69961522E-17
  -13.6999998      -1.93435144E-17
  -13.6899996       2.82843988E-17
  -13.6800003       7.58478035E-17
  -13.6700001       1.12182420E-16
  -13.6599998       1.27639514E-16
  -13.6499996       1.16581565E-16
  -13.6400003       7.90687191E-17
  -13.6300001       2.12328644E-17
  -13.6199999      -4.58433984E-17
  -13.6099997      -1.08531377E-16
  -13.6000004      -1.53766960E-16
  -13.5900002      -1.72066154E-16
  -13.5799999      -1.59638433E-16
  -13.5699997      -1.19023389E-16
  -13.5600004      -5.80932716E-17
  -13.5500002       1.22483992E-17
  -13.5400000       8.09341371E-17
  -13.5299997       1.39236983E-16
  -13.5200005       1.82093422E-16
  -13.5100002       2.07828573E-16
  -13.5000000       2.16454889E-16
  -13.4899998       2.07305517E-16
  -13.4799995       1.77141377E-16
  -13.4700003       1.19871375E-16
  -13.4600000       2.85758013E-17
  -13.4499998      -1.00289826E-16
  -13.4399996      -2.61596517E-16
  -13.4300003      -4.37026914E-16
  -13.4200001      -5.93527209E-16
  -13.4099998      -6.86509510E-16
  -13.3999996      -6.68452462E-16
  -13.3900003      -5.01891585E-16
  -13.3800001      -1.74041051E-16
  -13.3699999       2.91019557E-16
  -13.3599997       8.26996436E-16
  -13.3500004       1.33034211E-15
  -13.3400002       1.67679680E-15
  -13.3299999       1.74772384E-15
  -13.3199997       1.46127975E-15
  -13.3100004       8.01060975E-16
  -13.3000002      -1.65910567E-16
  -13.2900000      -1.28864649E-15
  -13.2799997      -2.35244385E-15
  -13.2700005      -3.11832956E-15
  -13.2600002      -3.37483803E-15
  -13.2500000      -2.99099827E-15
  -13.2399998      -1.95755625E-15
  -13.2299995      -4.04687169E-16
  -13.2200003       1.41100453E-15
  -13.2100000       3.15049543E-15
  -13.1999998       4.45986987E-15
  -13.1899996       5.04722793E-15
  -13.1800003       4.75114926E-15
  -13.1700001       3.58352408E-15
  -13.1599998       1.73462766E-15
  -13.1499996      -4.62985933E-16
  -13.1400003      -2.60499435E-15
  -13.1300001      -4.30425086E-15
  -13.1199999      -5.27656760E-15
  -13.1099997      -5.40151386E-15
  -13.1000004      -4.74193735E-15
  -13.0900002      -3.51629825E-15
  -13.0799999      -2.03046651E-15
  -13.0699997      -5.87236560E-16
  -13.0600004       6.00934142E-16
  -13.0500002       1.46989704E-15
  -13.0400000       2.11328982E-15
  -13.0299997       2.73727400E-15
  -13.0200005       3.57026928E-15
  -13.0100002       4.75211487E-15
  -13.0000000       6.23619834E-15
  -12.9899998       7.73850571E-15
  -12.9799995       8.75809113E-15
  -12.9700003       8.67584338E-15
  -12.9600000       6.91660338E-15
  -12.9499998       3.13924175E-15
  -12.9399996      -2.59400283E-15
  -12.9300003      -9.71924398E-15
  -12.9200001      -1.71824242E-14
  -12.9099998      -2.35760423E-14
  -12.8999996      -2.73865166E-14
  -12.8900003      -2.73081999E-14
  -12.8800001      -2.25585406E-14
  -12.8699999      -1.31218439E-14
  -12.8599997       1.40951351E-16
  -12.8500004       1.55530750E-14
  -12.8400002       3.08535647E-14
  -12.8299999       4.35614747E-14
  -12.8199997       5.14035497E-14
  -12.8100004       5.27200726E-14
  -12.8000002       4.67675350E-14
  -12.7900000       3.38590003E-14
  -12.7799997       1.53192498E-14
  -12.7700005      -6.72805427E-15
  -12.7600002      -2.96890164E-14
  -12.7500000      -5.08715689E-14
  -12.7399998      -6.78274575E-14
  -12.7299995      -7.86078423E-14
  -12.7200003      -8.19065207E-14
  -12.7100000      -7.70987346E-14
  -12.6999998      -6.42098611E-14
  -12.6899996      -4.38608398E-14
  -12.6800003      -1.72295548E-14
  -12.6700001       1.39547602E-14
  -12.6599998       4.73993810E-14
  -12.6499996       8.02616301E-14
  -12.6400003       1.09246196E-13
  -12.6300001       1.30837154E-13
  -12.6199999       1.41685315E-13
  -12.6099997       1.39122681E-13
  -12.6000004       1.21723717E-13
  -12.5900002       8.97905339E-14
  -12.5799999       4.56239017E-14
  -12.5699997      -6.53841884E-15
  -12.5600004      -6.09768041E-14
  -12.5500002      -1.11314922E-13
  -12.5400000      -1.51596970E-13
  -12.5299997      -1.77419115E-13
  -12.5200005      -1.86872612E-13
  -12.5100002      -1.81063348E-13
  -12.5000000      -1.64036970E-13
  -12.4899998      -1.42047818E-13
  -12.4799995      -1.22245747E-13
  -12.4700003      -1.10985677E-13
  -12.4600000      -1.12059870E-13
  -12.4499998      -1.25190534E-13
  -12.4399996      -1.45087040E-13
  -12.4300003      -1.61274124E-13
  -12.4200001      -1.58756336E-13
  -12.4099998      -1.19427431E-13
  -12.3999996      -2.40034399E-14
  -12.3900003       1.45825572E-13
  -12.3800001       4.05343050E-13
  -12.3699999       7.65119413E-13
  -12.3599997       1.22984728E-12
  -12.3500004       1.79773861E-12
  -12.3400002       2.46040579E-12
  -12.3299999       3.20309014E-12
  -12.3199997       4.00507405E-12
  -12.3100004       4.84016690E-12
  -12.3000002       5.67726248E-12
  -12.2900000       6.48100627E-12
  -12.2799997       7.21275080E-12
  -12.2700005       7.83190093E-12
  -12.2600002       8.29779214E-12
  -12.2500000       8.57206580E-12
  -12.2399998       8.62137271E-12
  -12.2299995       8.42012137E-12
  -12.2200003       7.95283804E-12
  -12.2100000       7.21573322E-12
  -12.1999998       6.21712534E-12
  -12.1899996       4.97651313E-12
  -12.1800003       3.52235146E-12
  -12.1700001       1.88880812E-12
  -12.1599998       1.11966792E-13
  -12.1499996      -1.77392758E-12
  -12.1400003      -3.73956638E-12
  -12.1300001      -5.76253064E-12
  -12.1199999      -7.82780524E-12
  -12.1099997      -9.92683193E-12
  -12.1000004      -1.20553359E-11
  -12.0900002      -1.42103326E-11
  -12.0799999      -1.63868901E-11
  -12.0699997      -1.85752073E-11
  -12.0600004      -2.07584609E-11
  -12.0500002      -2.29117281E-11
  -12.0400000      -2.50019762E-11
  -12.0299997      -2.69891574E-11
  -12.0200005      -2.88279383E-11
  -12.0100002      -3.04699009E-11
  -12.0000000      -3.18658086E-11
  -11.9899998      -3.29677327E-11
  -11.9799995      -3.37308931E-11
  -11.9700003      -3.41152558E-11
  -11.9600000      -3.40867855E-11
  -11.9499998      -3.36186773E-11
  -11.9399996      -3.26922725E-11
  -11.9300003      -3.12978879E-11
  -11.9200001      -2.94352390E-11
  -11.9099998      -2.71134851E-11
  -11.8999996      -2.43505129E-11
  -11.8900003      -2.11716616E-11
  -11.8800001      -1.76077625E-11
  -11.8699999      -1.36928862E-11
  -11.8599997      -9.46181761E-12
  -11.8500004      -4.94809358E-12
  -11.8400002      -1.82566988E-13
  -11.8299999       4.80696906E-12
  -11.8199997       9.99530580E-12
  -11.8100004       1.53583431E-11
  -11.8000002       2.08711728E-11
  -11.7900000       2.65062278E-11
  -11.7799997       3.22315195E-11
  -11.7700005       3.80098279E-11
  -11.7600002       4.37987320E-11
  -11.7500000       4.95513040E-11
  -11.7399998       5.52177505E-11
  -11.7299995       6.07469144E-11
  -11.7200003       6.60881003E-11
  -11.7100000       7.11921078E-11
  -11.6999998       7.60120439E-11
  -11.6899996       8.05033609E-11
  -11.6800003       8.46235790E-11
  -11.6700001       8.83317031E-11
  -11.6599998       9.15876749E-11
  -11.6499996       9.43518250E-11
  -11.6400003       9.65845598E-11
  -11.6300001       9.82459530E-11
  -11.6199999       9.92955232E-11
  -11.6099997       9.96919283E-11
  -11.6000004       9.93926469E-11
  -11.5900002       9.83537765E-11
  -11.5799999       9.65303601E-11
  -11.5699997       9.38771005E-11
  -11.5600004       9.03501440E-11
  -11.5500002       8.59095572E-11
  -11.5400000       8.05224984E-11
  -11.5299997       7.41665618E-11
  -11.5200005       6.68331501E-11
  -11.5100002       5.85298129E-11
  -11.5000000       4.92812423E-11
  -11.4899998       3.91287315E-11
  -11.4799995       2.81281248E-11
  -11.4700003       1.63461467E-11
  -11.4600000       3.85602964E-12
  -11.4499998      -9.26709490E-12
  -11.4399996      -2.29501730E-11
  -11.4300003      -3.71253236E-11
  -11.4200001      -5.17317023E-11
  -11.4099998      -6.67159661E-11
  -11.3999996      -8.20314441E-11
  -11.3900003      -9.76369471E-11
  -11.3800001      -1.13495116E-10
  -11.3699999      -1.29570785E-10
  -11.3599997      -1.45829876E-10
  -11.3500004      -1.62239042E-10
  -11.3400002      -1.78765211E-10
  -11.3299999      -1.95375549E-10
  -11.3199997      -2.12037277E-10
  -11.3100004      -2.28717212E-10
  -11.3000002      -2.45380632E-10
  -11.2900000      -2.61990013E-10
  -11.2799997      -2.78503803E-10
  -11.2700005      -2.94875235E-10
  -11.2600002      -3.11052378E-10
  -11.2500000      -3.26978528E-10
  -11.2399998      -3.42594619E-10
  -11.2299995      -3.57842339E-10
  -11.2200003      -3.72667536E-10
  -11.2100000      -3.87024329E-10
  -11.1999998      -4.00878081E-10
  -11.1899996      -4.14207058E-10
  -11.1800003      -4.27002489E-10
  -11.1700001      -4.39266457E-10
  -11.1599998      -4.51008481E-10
  -11.1499996      -4.62240940E-10
  -11.1400003      -4.72975270E-10
  -11.1300001      -4.83218077E-10
  -11.1199999      -4.92969388E-10
  -11.1099997      -5.02223485E-10
  -11.1000004      -5.10970710E-10
  -11.0900002      -5.19200238E-10
  -11.0799999      -5.26905353E-10
  -11.0699997      -5.34085831E-10
  -11.0600004      -5.40750222E-10
  -11.0500002      -5.46916568E-10
  -11.0400000      -5.52611124E-10
  -11.0299997      -5.57865976E-10
  -11.0200005      -5.62716151E-10
  -11.0100002      -5.67198066E-10
  -11.0000000      -5.71344749E-10
  -10.9899998      -5.75188785E-10
  -10.9799995      -5.78759152E-10
  -10.9700003      -5.82083104E-10
  -10.9600000      -5.85186177E-10
  -10.9499998      -5.88092797E-10
  -10.9399996      -5.90823834E-10
  -10.9300003      -5.93396499E-10
  -10.9200001      -5.95819283E-10
  -10.9099998      -5.98090799E-10
  -10.8999996      -6.00197558E-10
  -10.8900003      -6.02114081E-10
  -10.8800001      -6.03801231E-10
  -10.8699999      -6.05209272E-10
  -10.8599997      -6.06284245E-10
  -10.8500004      -6.06964534E-10
  -10.8400002      -6.07194295E-10
  -10.8299999      -6.06920070E-10
  -10.8199997      -6.06098449E-10
  -10.8100004      -6.04696015E-10
  -10.8000002      -6.02691119E-10
  -10.7900000      -6.00070882E-10
  -10.7799997      -5.96833638E-10
  -10.7700005      -5.92982663E-10
  -10.7600002      -5.88523175E-10
  -10.7500000      -5.83461002E-10
  -10.7399998      -5.77801196E-10
  -10.7299995      -5.71544201E-10
  -10.7200003      -5.64691849E-10
  -10.7100000      -5.57242086E-10
  -10.6999998      -5.49198798E-10
  -10.6899996      -5.40574641E-10
  -10.6800003      -5.31389988E-10
  -10.6700001      -5.21678478E-10
  -10.6599998      -5.11488241E-10
  -10.6499996      -5.00875896E-10
  -10.6400003      -4.89909391E-10
  -10.6300001      -4.78662554E-10
  -10.6199999      -4.67210937E-10
  -10.6099997      -4.55629950E-10
  -10.6000004      -4.43993342E-10
  -10.5900002      -4.32371000E-10
  -10.5799999      -4.20828927E-10
  -10.5699997      -4.09428214E-10
  -10.5600004      -3.98223454E-10
  -10.5500002      -3.87258559E-10
  -10.5400000      -3.76571690E-10
  -10.5299997      -3.66186442E-10
  -10.5200005      -3.56114221E-10
  -10.5100002      -3.46354889E-10
  -10.5000000      -3.36895706E-10
  -10.4899998      -3.27718186E-10
  -10.4799995      -3.18798765E-10
  -10.4700003      -3.10114573E-10
  -10.4600000      -3.01641212E-10
  -10.4499998      -2.93361668E-10
  -10.4399996      -2.85259538E-10
  -10.4300003      -2.77326467E-10
  -10.4200001      -2.69557460E-10
  -10.4099998      -2.61950794E-10
  -10.3999996      -2.54504195E-10
  -10.3900003      -2.47216581E-10
  -10.3800001      -2.40084924E-10
  -10.3699999      -2.33102065E-10
  -10.3599997      -2.26254321E-10
  -10.3500004      -2.19515225E-10
  -10.3400002      -2.12845380E-10
  -10.3299999      -2.06192188E-10
  -10.3199997      -1.99491590E-10
  -10.3100004      -1.92665883E-10
  -10.3000002      -1.85632468E-10
  -10.2900000      -1.78310505E-10
  -10.2799997      -1.70624098E-10
  -10.2700005      -1.62506716E-10
  -10.2600002      -1.53908108E-10
  -10.2500000      -1.44792234E-10
  -10.2399998      -1.35136680E-10
  -10.2299995      -1.24934646E-10
  -10.2200003      -1.14189366E-10
  -10.2100000      -1.02916259E-10
  -10.1999998      -9.11391310E-11
  -10.1899996      -7.88952167E-11
  -10.1800003      -6.62280786E-11
  -10.1700001      -5.31906047E-11
  -10.1599998      -3.98447456E-11
  -10.1499996      -2.62581849E-11
  -10.1400003      -1.25006490E-11
  -10.1300001       1.35746373E-12
  -10.1199999       1.52484258E-11
  -10.1099997       2.91046111E-11
  -10.1000004       4.28588449E-11
  -10.0900002       5.64413967E-11
  -10.0799999       6.97761987E-11
  -10.0699997       8.27814484E-11
  -10.0600004       9.53682203E-11
  -10.0500002       1.07442381E-10
  -10.0400000       1.18907370E-10
  -10.0299997       1.29669608E-10
  -10.0200005       1.39639272E-10
  -10.0100002       1.48734899E-10
  -10.0000000       1.56881411E-10
  -9.98999977       1.64013067E-10
  -9.97999954       1.70064962E-10
  -9.97000027       1.74977408E-10
  -9.96000004       1.78689591E-10
  -9.94999981       1.81140006E-10
  -9.93999958       1.82267951E-10
  -9.93000031       1.82013030E-10
  -9.92000008       1.80317566E-10
  -9.90999985       1.77126244E-10
  -9.89999962       1.72385897E-10
  -9.89000034       1.66044650E-10
  -9.88000011       1.58052627E-10
  -9.86999989       1.48362725E-10
  -9.85999966       1.36934381E-10
  -9.85000038       1.23735633E-10
  -9.84000015       1.08754686E-10
  -9.82999992       9.20041821E-11
  -9.81999969       7.35288011E-11
  -9.81000042       5.34093984E-11
  -9.80000019       3.17627244E-11
  -9.78999996       8.73784378E-12
  -9.77999973      -1.54911032E-11
  -9.77000046      -4.07346934E-11
  -9.76000023      -6.67978242E-11
  -9.75000000      -9.34895841E-11
  -9.73999977      -1.20628701E-10
  -9.72999954      -1.48049115E-10
  -9.72000027      -1.75601034E-10
  -9.71000004      -2.03151287E-10
  -9.69999981      -2.30583205E-10
  -9.68999958      -2.57797256E-10
  -9.68000031      -2.84711782E-10
  -9.67000008      -3.11264514E-10
  -9.65999985      -3.37414346E-10
  -9.64999962      -3.63141878E-10
  -9.64000034      -3.88449134E-10
  -9.63000011      -4.13356904E-10
  -9.61999989      -4.37901521E-10
  -9.60999966      -4.62131278E-10
  -9.60000038      -4.86102159E-10
  -9.59000015      -5.09875586E-10
  -9.57999992      -5.33516398E-10
  -9.56999969      -5.57092761E-10
  -9.56000042      -5.80676229E-10
  -9.55000019      -6.04340744E-10
  -9.53999996      -6.28163022E-10
  -9.52999973      -6.52219057E-10
  -9.52000046      -6.76582124E-10
  -9.51000023      -7.01318781E-10
  -9.50000000      -7.26485705E-10
  -9.48999977      -7.52126694E-10
  -9.47999954      -7.78270004E-10
  -9.47000027      -8.04927014E-10
  -9.46000004      -8.32090397E-10
  -9.44999981      -8.59732674E-10
  -9.43999958      -8.87804052E-10
  -9.43000031      -9.16230314E-10
  -9.42000008      -9.44911260E-10
  -9.40999985      -9.73720105E-10
  -9.39999962      -1.00250386E-09
  -9.39000034      -1.03108688E-09
  -9.38000011      -1.05927234E-09
  -9.36999989      -1.08684806E-09
  -9.35999966      -1.11358889E-09
  -9.35000038      -1.13925813E-09
  -9.34000015      -1.16360843E-09
  -9.32999992      -1.18638011E-09
  -9.31999969      -1.20730037E-09
  -9.31000042      -1.22608412E-09
  -9.30000019      -1.24243493E-09
  -9.28999996      -1.25605215E-09
  -9.27999973      -1.26663746E-09
  -9.27000046      -1.27390565E-09
  -9.26000023      -1.27759214E-09
  -9.25000000      -1.27746247E-09
  -9.23999977      -1.27331601E-09
  -9.22999954      -1.26498911E-09
  -9.22000027      -1.25235322E-09
  -9.21000004      -1.23531596E-09
  -9.19999981      -1.21381738E-09
  -9.18999958      -1.18783128E-09
  -9.18000031      -1.15736642E-09
  -9.17000008      -1.12246934E-09
  -9.15999985      -1.08322662E-09
  -9.14999962      -1.03976683E-09
  -9.14000034      -9.92259941E-10
  -9.13000011      -9.40915346E-10
  -9.11999989      -8.85977181E-10
  -9.10999966      -8.27721947E-10
  -9.10000038      -7.66453401E-10
  -9.09000015      -7.02501446E-10
  -9.07999992      -6.36222186E-10
  -9.06999969      -5.67997704E-10
  -9.06000042      -4.98237784E-10
  -9.05000019      -4.27379299E-10
  -9.03999996      -3.55883351E-10
  -9.02999973      -2.84231333E-10
  -9.02000046      -2.12918280E-10
  -9.01000023      -1.42447137E-10
  -9.00000000      -7.33217653E-11
  -8.98999977      -6.04382430E-12
  -8.97999954       5.88889493E-11
  -8.97000027       1.20983362E-10
  -8.96000004       1.79747356E-10
  -8.94999981       2.34688130E-10
  -8.93999958       2.85311164E-10
  -8.93000031       3.31116801E-10
  -8.92000008       3.71600500E-10
  -8.90999985       4.06254336E-10
  -8.89999962       4.34567937E-10
  -8.89000034       4.56031407E-10
  -8.88000011       4.70139094E-10
  -8.86999989       4.76392092E-10
  -8.85999966       4.74308148E-10
  -8.85000038       4.63427630E-10
  -8.84000015       4.43320602E-10
  -8.82999992       4.13596241E-10
  -8.81999969       3.73904685E-10
  -8.81000042       3.23947397E-10
  -8.80000019       2.63475436E-10
  -8.78999996       1.92288227E-10
  -8.77999973       1.10230963E-10
  -8.77000046       1.71999949E-11
  -8.76000023      -8.68644046E-11
  -8.75000000      -2.01970704E-10
  -8.73999977      -3.28075733E-10
  -8.72999954      -4.65083194E-10
  -8.72000027      -6.12844220E-10
  -8.71000004      -7.71157860E-10
  -8.69999981      -9.39774703E-10
  -8.68999958      -1.11841070E-09
  -8.68000031      -1.30674749E-09
  -8.67000008      -1.50444601E-09
  -8.65999985      -1.71115078E-09
  -8.64999962      -1.92648786E-09
  -8.64000034      -2.15007057E-09
  -8.63000011      -2.38149100E-09
  -8.61999989      -2.62032684E-09
  -8.60999966      -2.86612867E-09
  -8.60000038      -3.11843440E-09
  -8.59000015      -3.37676220E-09
  -8.57999992      -3.64062291E-09
  -8.56999969      -3.90952826E-09
  -8.56000042      -4.18298551E-09
  -8.55000019      -4.46050752E-09
  -8.53999996      -4.74161643E-09
  -8.52999973      -5.02582820E-09
  -8.52000046      -5.31266187E-09
  -8.51000023      -5.60163693E-09
  -8.50000000      -5.89226801E-09
  -8.48999977      -6.18407814E-09
  -8.47999954      -6.47658460E-09
  -8.47000027      -6.76932066E-09
  -8.46000004      -7.06182579E-09
  -8.44999981      -7.35364569E-09
  -8.43999958      -7.64432606E-09
  -8.43000031      -7.93341925E-09
  -8.42000008      -8.22047497E-09
  -8.40999985      -8.50504289E-09
  -8.39999962      -8.78667539E-09
  -8.39000034      -9.06494257E-09
  -8.38000011      -9.33942168E-09
  -8.36999989      -9.60972990E-09
  -8.35999966      -9.87551374E-09
  -8.35000038      -1.01364526E-08
  -8.34000015      -1.03922604E-08
  -8.32999992      -1.06426761E-08
  -8.31999969      -1.08874660E-08
  -8.31000042      -1.11264038E-08
  -8.30000019      -1.13592726E-08
  -8.28999996      -1.15858567E-08
  -8.27999973      -1.18059447E-08
  -8.27000046      -1.20193331E-08
  -8.26000023      -1.22258115E-08
  -8.25000000      -1.24251667E-08
  -8.23999977      -1.26171731E-08
  -8.22999954      -1.28015945E-08
  -8.22000027      -1.29781634E-08
  -8.21000004      -1.31465843E-08
  -8.19999981      -1.33065212E-08
  -8.18999958      -1.34576057E-08
  -8.18000031      -1.35994345E-08
  -8.17000008      -1.37315741E-08
  -8.15999985      -1.38535690E-08
  -8.14999962      -1.39649527E-08
  -8.14000034      -1.40652476E-08
  -8.13000011      -1.41539784E-08
  -8.11999989      -1.42306833E-08
  -8.10999966      -1.42949013E-08
  -8.10000038      -1.43462131E-08
  -8.09000015      -1.43842138E-08
  -8.07999992      -1.44085446E-08
  -8.06999969      -1.44188830E-08
  -8.06000042      -1.44149546E-08
  -8.05000019      -1.43965284E-08
  -8.03999996      -1.43634162E-08
  -8.02999973      -1.43154741E-08
  -8.02000046      -1.42525947E-08
  -8.01000023      -1.41746916E-08
  -8.00000000      -1.40817331E-08
  -7.98999977      -1.39736995E-08
  -7.98000002      -1.38506140E-08
  -7.96999979      -1.37125395E-08
  -7.96000004      -1.35595704E-08
  -7.94999981      -1.33918396E-08
  -7.94000006      -1.32095241E-08
  -7.92999983      -1.30128468E-08
  -7.92000008      -1.28020714E-08
  -7.90999985      -1.25774999E-08
  -7.90000010      -1.23395010E-08
  -7.88999987      -1.20884884E-08
  -7.88000011      -1.18249632E-08
  -7.86999989      -1.15494894E-08
  -7.86000013      -1.12627143E-08
  -7.84999990      -1.09653771E-08
  -7.84000015      -1.06583000E-08
  -7.82999992      -1.03423625E-08
  -7.82000017      -1.00185220E-08
  -7.80999994      -9.68776881E-09
  -7.80000019      -9.35114741E-09
  -7.78999996      -9.00973163E-09
  -7.78000021      -8.66460415E-09
  -7.76999998      -8.31686542E-09
  -7.76000023      -7.96762833E-09
  -7.75000000      -7.61798979E-09
  -7.73999977      -7.26905025E-09
  -7.73000002      -6.92188573E-09
  -7.71999979      -6.57754295E-09
  -7.71000004      -6.23704066E-09
  -7.69999981      -5.90135052E-09
  -7.69000006      -5.57140867E-09
  -7.67999983      -5.24810506E-09
  -7.67000008      -4.93230123E-09
  -7.65999985      -4.62480454E-09
  -7.65000010      -4.32639169E-09
  -7.63999987      -4.03780342E-09
  -7.63000011      -3.75973563E-09
  -7.61999989      -3.49284623E-09
  -7.61000013      -3.23772831E-09
  -7.59999990      -2.99493719E-09
  -7.59000015      -2.76495937E-09
  -7.57999992      -2.54823873E-09
  -7.57000017      -2.34516984E-09
  -7.55999994      -2.15610907E-09
  -7.55000019      -1.98137817E-09
  -7.53999996      -1.82126381E-09
  -7.53000021      -1.67602243E-09
  -7.51999998      -1.54587043E-09
  -7.51000023      -1.43098833E-09
  -7.50000000      -1.33151701E-09
  -7.48999977      -1.24754096E-09
  -7.48000002      -1.17909849E-09
  -7.46999979      -1.12617671E-09
  -7.46000004      -1.08872844E-09
  -7.44999981      -1.06665432E-09
  -7.44000006      -1.05982034E-09