  -16.0000000       0.00000000    
  -15.9899998       0.00000000    
  -15.9799995       0.00000000    
  -15.9700003       0.00000000    
  -15.9600000       0.00000000    
  -15.9499998       0.00000000    
  -15.9399996       0.00000000    
  -15.9300003       0.00000000    
  -15.9200001       0.00000000    
  -15.9099998       0.00000000    
  -15.8999996       0.00000000    
  -15.8900003       0.00000000    
  -15.8800001       0.00000000    
  -15.8699999      -0.00000000    
  -15.8599997       0.00000000    
  -15.8500004      -1.40129846E-45
  -15.8400002      -2.38220739E-44
  -15.8299999      -3.08285662E-43
  -15.8199997      -2.62603332E-42
  -15.8100004      -1.67819504E-41
  -15.8000002      -8.65736204E-41
  -15.7900000      -3.75491937E-40
  -15.7799997      -1.40546172E-39
  -15.7700005      -4.61882828E-39
  -15.7600002      -1.34723497E-38
  -15.7500000      -3.50675053E-38
  -15.7399998      -8.14409108E-38
  -15.7299995      -1.67499302E-37
  -15.7200003      -2.99026981E-37
  -15.7100000      -4.40935489E-37
  -15.6999998      -4.58621894E-37
  -15.6899996      -4.44198693E-38
  -15.6800003       1.31248735E-36
  -15.6700001       4.18344370E-36
  -15.6599998       8.69838628E-36
  -15.6499996       1.35417738E-35
  -15.6400003       1.45626861E-35
  -15.6300001       3.64963158E-36
  -15.6199999      -3.07784226E-35
  -15.6099997      -9.97659619E-35
  -15.6000004      -2.04413394E-34
  -15.5900002      -3.20002210E-34
  -15.5799999      -3.74382071E-34
  -15.5699997      -2.25193471E-34
  -15.5600004       3.49950683E-34
  -15.5500002       1.61476777E-33
  -15.5400000       3.71659502E-33
  -15.5299997       6.31195063E-33
  -15.5200005       7.92599400E-33
  -15.5100002       5.23605665E-33
  -15.5000000      -7.00785577E-33
  -15.4899998      -3.40222948E-32
  -15.4799995      -7.53029910E-32
  -15.4700003      -1.14788822E-31
  -15.4600000      -1.10534731E-31
  -15.4499998       5.48985543E-33
  -15.4399996       3.00246836E-31
  -15.4300003       7.69639739E-31
  -15.4200001       1.23154879E-30
  -15.4099998       1.23551255E-30
  -15.3999996       1.05557923E-31
  -15.3900003      -2.73274488E-30
  -15.3800001      -7.05868822E-30
  -15.3699999      -1.09595051E-29
  -15.3599997      -1.03116208E-29
  -15.3500004       3.65285927E-31
  -15.3400002       2.46804326E-29
  -15.3299999       5.86908252E-29
  -15.3199997       8.48363173E-29
  -15.3100004       7.04678507E-29
  -15.3000002      -2.21056945E-29
  -15.2900000      -2.09010368E-28
  -15.2799997      -4.45114092E-28
  -15.2700005      -5.90059483E-28
  -15.2600002      -4.15498537E-28
  -15.2500000       3.05695012E-28
  -15.2399998       1.61044066E-27
  -15.2299995       3.10168186E-27
  -15.2200003       3.78834927E-27
  -15.2100000       2.22826763E-27
  -15.1999998      -2.81692811E-27
  -15.1899996      -1.11920673E-26
  -15.1800003      -1.99954176E-26
  -15.1700001      -2.29382848E-26
  -15.1599998      -1.16288921E-26
  -15.1499996       2.02603408E-26
  -15.1400003       7.01999801E-26
  -15.1300001       1.19837771E-25
  -15.1199999       1.32787736E-25
  -15.1099997       6.33168852E-26
  -15.1000004      -1.20005206E-25
  -15.0900002      -3.98499841E-25
  -15.0799999      -6.69332159E-25
  -15.0699997      -7.38469851E-25
  -15.0600004      -3.69812791E-25
  -15.0500002       5.92944292E-25
  -15.0400000       2.04982489E-24
  -15.0299997       3.48369219E-24
  -15.0200005       3.93465400E-24
  -15.0100002       2.24146543E-24
  -15.0000000      -2.38212466E-24
  -14.9899998      -9.52767269E-24
  -14.9799995      -1.68499916E-23
  -14.9700003      -1.99328742E-23
  -14.9600000      -1.33342247E-23
  -14.9499998       6.89928755E-24
  -14.9399996       3.96336940E-23
  -14.9300003       7.53070349E-23
  -14.9200001       9.50518700E-23
  -14.9099998       7.46721155E-23
  -14.8999996      -5.23086290E-24
  -14.8900003      -1.44344910E-22
  -14.8800001      -3.08082546E-22
  -14.8699999      -4.21990122E-22
  -14.8599997      -3.84756367E-22
  -14.8500004      -1.05670121E-22
  -14.8400002       4.37295210E-22
  -14.8299999       1.13671640E-21
  -14.8199997       1.72390175E-21
  -14.8100004       1.80305320E-21
  -14.8000002       9.77219584E-22
  -14.7900000      -9.40653495E-22
  -14.7799997      -3.68813784E-21
  -14.7700005      -6.39328421E-21
  -14.7600002      -7.62918534E-21
  -14.7500000      -5.79118638E-21
  -14.7399998       1.95030612E-22
  -14.7299995       9.99118342E-21
  -14.7200003       2.11309637E-20
  -14.7100000       2.89334854E-20
  -14.6999998       2.74674951E-20
  -14.6899996       1.17131263E-20
  -14.6800003      -1.94381175E-20
  -14.6700001      -6.03234063E-20
  -14.6599998      -9.72563486E-20
  -14.6499996      -1.10401198E-19
  -14.6400003      -7.96393920E-20
  -14.6300001       6.12941924E-21
  -14.6199999       1.38737563E-19
  -14.6099997       2.83822858E-19
  -14.6000004       3.82229744E-19
  -14.5900002       3.63531404E-19
  -14.5799999       1.71878257E-19
  -14.5699997      -2.01132326E-19
  -14.5600004      -6.87754926E-19
  -14.5500002      -1.13453115E-18
  -14.5400000      -1.32573984E-18
  -14.5299997      -1.04598209E-18
  -14.5200005      -1.73750309E-19
  -14.5100002       1.21958858E-18
  -14.5000000       2.80553587E-18
  -14.4899998       4.01298320E-18
  -14.4799995       4.15238133E-18
  -14.4700003       2.64803220E-18
  -14.4600000      -6.69327927E-19
  -14.4499998      -5.30422413E-18
  -14.4399996      -9.99474062E-18
  -14.4300003      -1.28785892E-17
  -14.4200001      -1.19764917E-17
  -14.4099998      -5.93417345E-18
  -14.3999996       5.16525985E-18
  -14.3900003       1.92136239E-17
  -14.3800001       3.20418237E-17
  -14.3699999       3.81772771E-17
  -14.3599997       3.24206890E-17
  -14.3500004       1.19575939E-17
  -14.3400002      -2.15990870E-17
  -14.3299999      -6.10465910E-17
  -14.3199997      -9.40932704E-17
  -14.3100004      -1.05967984E-16
  -14.3000002      -8.39500177E-17
  -14.2900000      -2.28412774E-17
  -14.2799997       7.03049655E-17
  -14.2700005       1.74210312E-16
  -14.2600002       2.55858266E-16
  -14.2500000       2.78106169E-16
  -14.2399998       2.11452021E-16
  -14.2299995       4.71539503E-17
  -14.2200003      -1.92517063E-16
  -14.2100000      -4.51474861E-16
  -14.1999998      -6.47892007E-16
  -14.1899996      -6.93841057E-16
  -14.1800003      -5.23363394E-16
  -14.1700001      -1.21930975E-16
  -14.1599998       4.52363504E-16
  -14.1499996       1.06560662E-15
  -14.1400003       1.52931830E-15
  -14.1300001       1.64621531E-15
  -14.1199999       1.27232374E-15
  -14.1099997       3.79502683E-16
  -14.1000004      -9.02081513E-16
  -14.0900002      -2.28095469E-15
  -14.0799999      -3.35247191E-15
  -14.0699997      -3.69615278E-15
  -14.0600004      -3.00386534E-15
  -14.0500002      -1.20591054E-15
  -14.0400000       1.44545325E-15
  -14.0299997       4.37186696E-15
  -14.0200005       6.76469607E-15
  -14.0100002       7.77485867E-15
  -14.0000000       6.75998064E-15
  -13.9899998       3.52617698E-15
  -13.9799995      -1.51054594E-15
  -13.9700003      -7.30986638E-15
  -13.9600000      -1.23756765E-14
  -13.9499998      -1.50955620E-14
  -13.9399996      -1.41853751E-14
  -13.9300003      -9.12826486E-15
  -13.9200001      -4.77897683E-16
  -13.9099998       1.00891026E-14
  -13.8999996       2.00337166E-14
  -13.8900003       2.65098205E-14
  -13.8800001       2.71065417E-14
  -13.8699999       2.05971901E-14
  -13.8599997       7.48219862E-15
  -13.8500004      -9.86221467E-15
  -13.8400002      -2.75341781E-14
  -13.8299999      -4.09336702E-14
  -13.8199997      -4.59066446E-14
  -13.8100004      -3.99316742E-14
  -13.8000002      -2.30245002E-14
  -13.7900000       1.92903516E-15
  -13.7799997       2.95783261E-14
  -13.7700005       5.32323988E-14
  -13.7600002       6.64796384E-14
  -13.7500000       6.49138404E-14
  -13.7399998       4.75026987E-14
  -13.7299995       1.71835575E-14
  -13.7200003      -1.95562374E-14
  -13.7100000      -5.40968705E-14
  -13.6999998      -7.78016635E-14
  -13.6899996      -8.43039289E-14
  -13.6800003      -7.13424003E-14
  -13.6700001      -4.15932141E-14
  -13.6599998      -2.18685971E-15
  -13.6499996       3.70498276E-14
  -13.6400003       6.62133041E-14
  -13.6300001       7.81050842E-14
  -13.6199999       7.03705011E-14
  -13.6099997       4.63137388E-14
  -13.6000004       1.40492747E-14
  -13.5900002      -1.58753066E-14
  -13.5799999      -3.37697637E-14
  -13.5699997      -3.40502501E-14
  -13.5600004      -1.74119769E-14
  -13.5500002       8.87844689E-15
  -13.5400000       3.28675550E-14
  -13.5299997       4.16181981E-14
  -13.5200005       2.57522665E-14
  -13.5100002      -1.65347625E-14
  -13.5000000      -7.73645200E-14
  -13.4899998      -1.39930507E-13
  -13.4799995      -1.82306915E-13
  -13.4700003      -1.83572965E-13
  -13.4600000      -1.30696926E-13
  -13.4499998      -2.41704257E-14
  -13.4399996       1.19510467E-13
  -13.4300003       2.69730066E-13
  -13.4200001       3.88072116E-13
  -13.4099998       4.37836264E-13
  -13.3999996       3.94416677E-13
  -13.3900003       2.53671352E-13
  -13.3800001       3.56554555E-14
  -13.3699999      -2.17860818E-13
  -13.3599997      -4.52059695E-13
  -13.3500004      -6.12111869E-13
  -13.3400002      -6.57346681E-13
  -13.3299999      -5.72673582E-13
  -13.3199997      -3.73838439E-13
  -13.3100004      -1.04548694E-13
  -13.3000002       1.74291056E-13
  -13.2900000       4.00689112E-13
  -13.2799997       5.28699480E-13
  -13.2700005       5.41589018E-13
  -13.2600002       4.56833952E-13
  -13.2500000       3.20797534E-13
  -13.2399998       1.93899313E-13
  -13.2299995       1.30046622E-13
  -13.2200003       1.56268864E-13
  -13.2100000       2.59078647E-13
  -13.1999998       3.82809398E-13
  -13.1899996       4.42127861E-13
  -13.1800003       3.46915422E-13
  -13.1700001       3.36651009E-14
  -13.1599998      -5.05208017E-13
  -13.1499996      -1.20341237E-12
  -13.1400003      -1.92148272E-12
  -13.1300001      -2.46915379E-12
  -13.1199999      -2.64672811E-12
  -13.1099997      -2.29710977E-12
  -13.1000004      -1.35609026E-12
  -13.0900002       1.12708989E-13
  -13.0799999       1.90954609E-12
  -13.0699997       3.72264285E-12
  -13.0600004       5.18278085E-12
  -13.0500002       5.93855477E-12
  -13.0400000       5.73633155E-12
  -13.0299997       4.48630369E-12
  -13.0200005       2.29783683E-12
  -13.0100002      -5.26455127E-13
  -13.0000000      -3.53930925E-12
  -12.9899998      -6.23134834E-12
  -12.9799995      -8.13020224E-12
  -12.9700003      -8.89438089E-12
  -12.9600000      -8.38051590E-12
  -12.9499998      -6.66859189E-12
  -12.9399996      -4.03962237E-12
  -12.9300003      -9.11630363E-13
  -12.9200001       2.24999490E-12
  -12.9099998       5.02567736E-12
  -12.8999996       7.11594889E-12
  -12.8900003       8.37973527E-12
  -12.8800001       8.82976071E-12
  -12.8699999       8.58984064E-12
  -12.8599997       7.82923032E-12
  -12.8500004       6.69548444E-12
  -12.8400002       5.26679178E-12
  -12.8299999       3.53888229E-12
  -12.8199997       1.45033258E-12
  -12.8100004      -1.06185557E-12
  -12.8000002      -3.99510156E-12
  -12.7900000      -7.22571438E-12
  -12.7799997      -1.04862247E-11
  -12.7700005      -1.33881439E-11
  -12.7600002      -1.54888810E-11
  -12.7500000      -1.63880177E-11
  -12.7399998      -1.58271781E-11
  -12.7299995      -1.37643300E-11
  -12.7200003      -1.03978293E-11
  -12.7100000      -6.12831617E-12
  -12.6999998      -1.46366881E-12
  -12.6899996       3.11091886E-12
  -12.6800003       7.26305691E-12
  -12.6700001       1.09055039E-11
  -12.6599998       1.42204200E-11
  -12.6499996       1.76007611E-11
  -12.6400003       2.15161101E-11
  -12.6300001       2.63316244E-11
  -12.6199999       3.21239250E-11
  -12.6099997       3.85420654E-11
  -12.6000004       4.47537042E-11
  -12.5900002       4.94985129E-11
  -12.5799999       5.12440507E-11
  -12.5699997       4.84157645E-11
  -12.5600004       3.96541584E-11
  -12.5500002       2.40450784E-11
  -12.5400000       1.27977923E-12
  -12.5299997      -2.82819081E-11
  -12.5200005      -6.36419042E-11
  -12.5100002      -1.03258770E-10
  -12.5000000      -1.45160703E-10
  -12.4899998      -1.87025090E-10
  -12.4799995      -2.26184724E-10
  -12.4700003      -2.59548050E-10
  -12.4600000      -2.83451984E-10
  -12.4499998      -2.93497254E-10
  -12.4399996      -2.84438806E-10
  -12.4300003      -2.50203164E-10
  -12.4200001      -1.84089716E-10
  -12.4099998      -7.91780391E-11
  -12.3999996       7.10814879E-11
  -12.3900003       2.72159129E-10
  -12.3800001       5.27714206E-10
  -12.3699999       8.38948244E-10
  -12.3599997       1.20414256E-09
  -12.3500004       1.61842906E-09
  -12.3400002       2.07382311E-09
  -12.3299999       2.55947685E-09
  -12.3199997       3.06208880E-09
  -12.3100004       3.56639140E-09
  -12.3000002       4.05563405E-09
  -12.2900000       4.51200988E-09
  -12.2799997       4.91704411E-09
  -12.2700005       5.25195309E-09
  -12.2600002       5.49803314E-09
  -12.2500000       5.63714808E-09
  -12.2399998       5.65236968E-09
  -12.2299995       5.52875346E-09
  -12.2200003       5.25419619E-09
  -12.2100000       4.82029616E-09
  -12.1999998       4.22310675E-09
  -12.1899996       3.46361850E-09
  -12.1800003       2.54788590E-09
  -12.1700001       1.48677071E-09
  -12.1599998       2.95284880E-10
  -12.1499996      -1.00836584E-09
  -12.1400003      -2.40393883E-09
  -12.1300001      -3.87033117E-09
  -12.1199999      -5.38665912E-09
  -12.1099997      -6.93309055E-09
  -12.1000004      -8.49136494E-09
  -12.0900002      -1.00449942E-08
  -12.0799999      -1.15791359E-08
  -12.0699997      -1.30802187E-08
  -12.0600004      -1.45353853E-08
  -12.0500002      -1.59318549E-08
  -12.0400000      -1.72562409E-08
  -12.0299997      -1.84939601E-08
  -12.0200005      -1.96287093E-08
  -12.0100002      -2.06421493E-08
  -12.0000000      -2.15137650E-08
  -11.9899998      -2.22209362E-08
  -11.9799995      -2.27393553E-08
  -11.9700003      -2.30436701E-08
  -11.9600000      -2.31084041E-08
  -11.9499998      -2.29091590E-08
  -11.9399996      -2.24239116E-08
  -11.9300003      -2.16343956E-08
  -11.9200001      -2.05275157E-08
  -11.9099998      -1.90963210E-08
  -11.8999996      -1.73408665E-08
  -11.8900003      -1.52685029E-08
  -11.8800001      -1.28936888E-08
  -11.8699999      -1.02373470E-08
  -11.8599997      -7.32565564E-09
  -11.8500004      -4.18865564E-09
  -11.8400002      -8.58600357E-10
  -11.8299999       2.63170929E-09
  -11.8199997       6.25033625E-09
  -11.8100004       9.96736294E-09
  -11.8000002       1.37556038E-08
  -11.7900000       1.75908816E-08
  -11.7799997       2.14518305E-08
  -11.7700005       2.53195136E-08
  -11.7600002       2.91765350E-08
  -11.7500000       3.30061880E-08
  -11.7399998       3.67914481E-08
  -11.7299995       4.05139424E-08
  -11.7200003       4.41529480E-08
  -11.7100000       4.76845372E-08
  -11.6999998       5.10808285E-08
  -11.6899996       5.43094458E-08
  -11.6800003       5.73333843E-08
  -11.6700001       6.01112120E-08
  -11.6599998       6.25978842E-08
  -11.6499996       6.47460965E-08
  -11.6400003       6.65081217E-08
  -11.6300001       6.78379166E-08
  -11.6199999       6.86933390E-08
  -11.6099997       6.90381441E-08
  -11.6000004       6.88434980E-08
  -11.5900002       6.80885250E-08
  -11.5799999       6.67600801E-08
  -11.5699997       6.48519460E-08
  -11.5600004       6.23628367E-08
  -11.5500002       5.92947202E-08
  -11.5400000       5.56508191E-08
  -11.5299997       5.14344478E-08
  -11.5200005       4.66481467E-08
  -11.5100002       4.12939514E-08
  -11.5000000       3.53740290E-08
  -11.4899998       2.88922042E-08
  -11.4799995       2.18550564E-08
  -11.4700003       1.42734109E-08
  -11.4600000       6.16309626E-09
  -11.4499998      -2.45477771E-09
  -11.4399996      -1.15538779E-08
  -11.4300003      -2.11033946E-08
  -11.4200001      -3.10685699E-08
  -11.4099998      -4.14114822E-08
  -11.3999996      -5.20915080E-08
  -11.3900003      -6.30657269E-08
  -11.3800001      -7.42892396E-08
  -11.3699999      -8.57153850E-08
  -11.3599997      -9.72963647E-08
  -11.3500004      -1.08984132E-07
  -11.3400002      -1.20731627E-07
  -11.3299999      -1.32494421E-07
  -11.3199997      -1.44232487E-07
  -11.3100004      -1.55911906E-07
  -11.3000002      -1.67506002E-07
  -11.2900000      -1.78996189E-07
  -11.2799997      -1.90371395E-07
  -11.2700005      -2.01627444E-07
  -11.2600002      -2.12764547E-07
  -11.2500000      -2.23785477E-07
  -11.2399998      -2.34692052E-07
  -11.2299995      -2.45482795E-07
  -11.2200003      -2.56150884E-07
  -11.2100000      -2.66681951E-07
  -11.1999998      -2.77054568E-07
  -11.1899996      -2.87239601E-07
  -11.1800003      -2.97203030E-07
  -11.1700001      -3.06907168E-07
  -11.1599998      -3.16314413E-07
  -11.1499996      -3.25388982E-07
  -11.1400003      -3.34100633E-07
  -11.1300001      -3.42425636E-07
  -11.1199999      -3.50349012E-07
  -11.1099997      -3.57864366E-07
  -11.1000004      -3.64973829E-07
  -11.0900002      -3.71687179E-07
  -11.0799999      -3.78020928E-07
  -11.0699997      -3.83997588E-07
  -11.0600004      -3.89644015E-07
  -11.0500002      -3.94990309E-07
  -11.0400000      -4.00068473E-07
  -11.0299997      -4.04912356E-07
  -11.0200005      -4.09556350E-07
  -11.0100002      -4.14033053E-07
  -11.0000000      -4.18373475E-07
  -10.9899998      -4.22606689E-07
  -10.9799995      -4.26756486E-07
  -10.9700003      -4.30843386E-07
  -10.9600000      -4.34883333E-07
  -10.9499998      -4.38885905E-07
  -10.9399996      -4.42857868E-07
  -10.9300003      -4.46800158E-07
  -10.9200001      -4.50709621E-07
  -10.9099998      -4.54579208E-07
  -10.8999996      -4.58397182E-07
  -10.8900003      -4.62146460E-07
  -10.8800001      -4.65806238E-07
  -10.8699999      -4.69349715E-07
  -10.8599997      -4.72746137E-07
  -10.8500004      -4.75960150E-07
  -10.8400002      -4.78952927E-07
  -10.8299999      -4.81682491E-07
  -10.8199997      -4.84107318E-07
  -10.8100004      -4.86186252E-07
  -10.8000002      -4.87879504E-07
  -10.7900000      -4.89151830E-07
  -10.7799997      -4.89973672E-07
  -10.7700005      -4.90324169E-07
  -10.7600002      -4.90190700E-07
  -10.7500000      -4.89571221E-07
  -10.7399998      -4.88473404E-07
  -10.7299995      -4.86916178E-07
  -10.7200003      -4.84927057E-07
  -10.7100000      -4.82541793E-07
  -10.6999998      -4.79803134E-07
  -10.6899996      -4.76756099E-07
  -10.6800003      -4.73449944E-07
  -10.6700001      -4.69930939E-07
  -10.6599998      -4.66243051E-07
  -10.6499996      -4.62429426E-07
  -10.6400003      -4.58523203E-07
  -10.6300001      -4.54555448E-07
  -10.6199999      -4.50550942E-07
  -10.6099997      -4.46527110E-07
  -10.6000004      -4.42494013E-07
  -10.5900002      -4.38460319E-07
  -10.5799999      -4.34427022E-07
  -10.5699997      -4.30395460E-07
  -10.5600004      -4.26362107E-07
  -10.5500002      -4.22326423E-07
  -10.5400000      -4.18288863E-07
  -10.5299997      -4.14250138E-07
  -10.5200005      -4.10217012E-07
  -10.5100002      -4.06198211E-07
  -10.5000000      -4.02205728E-07
  -10.4899998      -3.98253690E-07
  -10.4799995      -3.94356050E-07
  -10.4700003      -3.90529749E-07
  -10.4600000      -3.86787036E-07
  -10.4499998      -3.83135983E-07
  -10.4399996      -3.79579660E-07
  -10.4300003      -3.76113974E-07
  -10.4200001      -3.72726987E-07
  -10.4099998      -3.69396986E-07
  -10.3999996      -3.66097453E-07
  -10.3900003      -3.62796214E-07
  -10.3800001      -3.59456493E-07
  -10.3699999      -3.56041852E-07
  -10.3599997      -3.52516622E-07
  -10.3500004      -3.48850335E-07
  -10.3400002      -3.45014570E-07
  -10.3299999      -3.40985792E-07
  -10.3199997      -3.36744591E-07
  -10.3100004      -3.32274624E-07
  -10.3000002      -3.27562333E-07
  -10.2900000      -3.22596549E-07
  -10.2799997      -3.17369114E-07
  -10.2700005      -3.11875681E-07
  -10.2600002      -3.06113236E-07
  -10.2500000      -3.00085105E-07
  -10.2399998      -2.93796489E-07
  -10.2299995      -2.87255062E-07
  -10.2200003      -2.80470744E-07
  -10.2100000      -2.73449274E-07
  -10.1999998      -2.66196707E-07
  -10.1899996      -2.58716057E-07
  -10.1800003      -2.51007179E-07
  -10.1700001      -2.43071781E-07
  -10.1599998      -2.34912008E-07
  -10.1499996      -2.26540408E-07
  -10.1400003      -2.17977416E-07
  -10.1300001      -2.09257777E-07
  -10.1199999      -2.00430634E-07
  -10.1099997      -1.91560858E-07
  -10.1000004      -1.82723525E-07
  -10.0900002      -1.74004711E-07
  -10.0799999      -1.65494882E-07
  -10.0699997      -1.57289605E-07
  -10.0600004      -1.49483256E-07
  -10.0500002      -1.42167664E-07
  -10.0400000      -1.35432742E-07
  -10.0299997      -1.29361325E-07
  -10.0200005      -1.24033917E-07
  -10.0100002      -1.19525254E-07
  -10.0000000      -1.15905721E-07
  -9.98999977      -1.13241704E-07
  -9.97999954      -1.11594410E-07
  -9.97000027      -1.11019460E-07
  -9.96000004      -1.11570955E-07
  -9.94999981      -1.13296913E-07
  -9.93999958      -1.16241523E-07
  -9.93000031      -1.20445108E-07
  -9.92000008      -1.25944297E-07
  -9.90999985      -1.32770040E-07
  -9.89999962      -1.40946185E-07
  -9.89000034      -1.50488646E-07
  -9.88000011      -1.61404543E-07
  -9.86999989      -1.73689315E-07
  -9.85999966      -1.87326862E-07
  -9.85000038      -2.02289442E-07
  -9.84000015      -2.18537281E-07
  -9.82999992      -2.36017598E-07
  -9.81999969      -2.54667611E-07
  -9.81000042      -2.74413367E-07
  -9.80000019      -2.95170736E-07
  -9.78999996      -3.16848030E-07
  -9.77999973      -3.39347281E-07
  -9.77000046      -3.62568613E-07
  -9.76000023      -3.86412893E-07
  -9.75000000      -4.10786299E-07
  -9.73999977      -4.35604363E-07
  -9.72999954      -4.60795491E-07
  -9.72000027      -4.86301133E-07
  -9.71000004      -5.12076952E-07
  -9.69999981      -5.38090376E-07
  -9.68999958      -5.64318270E-07
  -9.68000031      -5.90742331E-07
  -9.67000008      -6.17347041E-07
  -9.65999985      -6.44118359E-07
  -9.64999962      -6.71041789E-07
  -9.64000034      -6.98104145E-07
  -9.63000011      -7.25293205E-07
  -9.61999989      -7.52601068E-07
  -9.60999966      -7.80022333E-07
  -9.60000038      -8.07555068E-07
  -9.59000015      -8.35198534E-07
  -9.57999992      -8.62953414E-07
  -9.56999969      -8.90819820E-07
  -9.56000042      -9.18797241E-07
  -9.55000019      -9.46885621E-07
  -9.53999996      -9.75086550E-07
  -9.52999973      -1.00340515E-06
  -9.52000046      -1.03184868E-06
  -9.51000023      -1.06042773E-06
  -9.50000000      -1.08915117E-06
  -9.48999977      -1.11802376E-06
  -9.47999954      -1.14704142E-06
  -9.47000027      -1.17618629E-06
  -9.46000004      -1.20542734E-06
  -9.44999981      -1.23471807E-06
  -9.43999958      -1.26400096E-06
  -9.43000031      -1.29320904E-06
  -9.42000008      -1.32226933E-06
  -9.40999985      -1.35110452E-06
  -9.39999962      -1.37963309E-06
  -9.39000034      -1.40776683E-06
  -9.38000011      -1.43540842E-06
  -9.36999989      -1.46244940E-06
  -9.35999966      -1.48876711E-06
  -9.35000038      -1.51423023E-06
  -9.34000015      -1.53869848E-06
  -9.32999992      -1.56202964E-06
  -9.31999969      -1.58408557E-06
  -9.31000042      -1.60473610E-06
  -9.30000019      -1.62386186E-06
  -9.28999996      -1.64135452E-06
  -9.27999973      -1.65711504E-06
  -9.27000046      -1.67105338E-06
  -9.26000023      -1.68308577E-06
  -9.25000000      -1.69313728E-06
  -9.23999977      -1.70114345E-06
  -9.22999954      -1.70705448E-06
  -9.22000027      -1.71084139E-06
  -9.21000004      -1.71249758E-06
  -9.19999981      -1.71204272E-06
  -9.18999958      -1.70951989E-06
  -9.18000031      -1.70499413E-06
  -9.17000008      -1.69854752E-06
  -9.15999985      -1.69027658E-06
  -9.14999962      -1.68028714E-06
  -9.14000034      -1.66869438E-06
  -9.13000011      -1.65562449E-06
  -9.11999989      -1.64121400E-06
  -9.10999966      -1.62561128E-06
  -9.10000038      -1.60897594E-06
  -9.09000015      -1.59148146E-06
  -9.07999992      -1.57330726E-06
  -9.06999969      -1.55464193E-06
  -9.06000042      -1.53567976E-06
  -9.05000019      -1.51661970E-06
  -9.03999996      -1.49767084E-06
  -9.02999973      -1.47905280E-06
  -9.02000046      -1.46099944E-06
  -9.01000023      -1.44376327E-06
  -9.00000000      -1.42761371E-06
  -8.98999977      -1.41283795E-06
  -8.97999954      -1.39973372E-06
  -8.97000027      -1.38860594E-06
  -8.96000004      -1.37975849E-06
  -8.94999981      -1.37349059E-06
  -8.93999958      -1.37008954E-06
  -8.93000031      -1.36983033E-06
  -8.92000008      -1.37297320E-06
  -8.90999985      -1.37976326E-06
  -8.89999962      -1.39042811E-06
  -8.89000034      -1.40518227E-06
  -8.88000011      -1.42422243E-06
  -8.86999989      -1.44772844E-06
  -8.85999966      -1.47586479E-06
  -8.85000038      -1.50878031E-06
  -8.84000015      -1.54661325E-06
  -8.82999992      -1.58949047E-06
  -8.81999969      -1.63753100E-06
  -8.81000042      -1.69084944E-06
  -8.80000019      -1.74955323E-06
  -8.78999996      -1.81374185E-06
  -8.77999973      -1.88350259E-06
  -8.77000046      -1.95890948E-06
  -8.76000023      -2.04001799E-06
  -8.75000000      -2.12686450E-06
  -8.73999977      -2.21946289E-06
  -8.72999954      -2.31780905E-06
  -8.72000027      -2.42187866E-06
  -8.71000004      -2.53162693E-06
  -8.69999981      -2.64699133E-06
  -8.68999958      -2.76788728E-06
  -8.68000031      -2.89420677E-06
  -8.67000008      -3.02581475E-06
  -8.65999985      -3.16254955E-06
  -8.64999962      -3.30421972E-06
  -8.64000034      -3.45061130E-06
  -8.63000011      -3.60148692E-06
  -8.61999989      -3.75659533E-06
  -8.60999966      -3.91567573E-06
  -8.60000038      -4.07845982E-06
  -8.59000015      -4.24467271E-06
  -8.57999992      -4.41403517E-06
  -8.56999969      -4.58625345E-06
  -8.56000042      -4.76102468E-06
  -8.55000019      -4.93802463E-06
  -8.53999996      -5.11691451E-06
  -8.52999973      -5.29734325E-06
  -8.52000046      -5.47895070E-06
  -8.51000023      -5.66137942E-06
  -8.50000000      -5.84428199E-06
  -8.48999977      -6.02732689E-06
  -8.47999954      -6.21020490E-06
  -8.47000027      -6.39262907E-06
  -8.46000004      -6.57433566E-06
  -8.44999981      -6.75507727E-06
  -8.43999958      -6.93463016E-06
  -8.43000031      -7.11278426E-06
  -8.42000008      -7.28934401E-06
  -8.40999985      -7.46414344E-06
  -8.39999962      -7.63703156E-06
  -8.39000034      -7.80788469E-06
  -8.38000011      -7.97660050E-06
  -8.36999989      -8.14309442E-06
  -8.35999966      -8.30729186E-06
  -8.35000038      -8.46912735E-06
  -8.34000015      -8.62852812E-06
  -8.32999992      -8.78541687E-06
  -8.31999969      -8.93970719E-06
  -8.31000042      -9.09130904E-06
  -8.30000019      -9.24011965E-06
  -8.28999996      -9.38603716E-06
  -8.27999973      -9.52894970E-06
  -8.27000046      -9.66873631E-06
  -8.26000023      -9.80527147E-06
  -8.25000000      -9.93840422E-06
  -8.23999977      -1.00679699E-05
  -8.22999954      -1.01937831E-05
  -8.22000027      -1.03156381E-05
  -8.21000004      -1.04333230E-05
  -8.19999981      -1.05466106E-05
  -8.18999958      -1.06552834E-05
  -8.18000031      -1.07591304E-05
  -8.17000008      -1.08579461E-05
  -8.15999985      -1.09515331E-05
  -8.14999962      -1.10397004E-05
  -8.14000034      -1.11222535E-05
  -8.13000011      -1.11989939E-05
  -8.11999989      -1.12697262E-05
  -8.10999966      -1.13342458E-05
  -8.10000038      -1.13923534E-05
  -8.09000015      -1.14438553E-05
  -8.07999992      -1.14885788E-05
  -8.06999969      -1.15263529E-05
  -8.06000042      -1.15570274E-05
  -8.05000019      -1.15804696E-05
  -8.03999996      -1.15965577E-05
  -8.02999973      -1.16051770E-05
  -8.02000046      -1.16062320E-05
  -8.01000023      -1.15996345E-05
  -8.00000000      -1.15853127E-05
  -7.98999977      -1.15632256E-05
  -7.98000002      -1.15333314E-05
  -7.96999979      -1.14956383E-05
  -7.96000004      -1.14501590E-05
  -7.94999981      -1.13969263E-05
  -7.94000006      -1.13359856E-05
  -7.92999983      -1.12674170E-05
  -7.92000008      -1.11912859E-05
  -7.90999985      -1.11077070E-05
  -7.90000010      -1.10168121E-05
  -7.88999987      -1.09187531E-05
  -7.88000011      -1.08137356E-05
  -7.86999989      -1.07019960E-05
  -7.86000013      -1.05838208E-05
  -7.84999990      -1.04595292E-05
  -7.84000015      -1.03294660E-05
  -7.82999992      -1.01940013E-05
  -7.82000017      -1.00535490E-05
  -7.80999994      -9.90851822E-06
  -7.80000019      -9.75935200E-06
  -7.78999996      -9.60652233E-06
  -7.78000021      -9.45052579E-06
  -7.76999998      -9.29191447E-06
  -7.76000023      -9.13125859E-06
  -7.75000000      -8.96914753E-06
  -7.73999977      -8.80623338E-06
  -7.73000002      -8.64313188E-06
  -7.71999979      -8.48051423E-06
  -7.71000004      -8.31901343E-06
  -7.69999981      -8.15928252E-06
  -7.69000006      -8.00195994E-06
  -7.67999983      -7.84768781E-06
  -7.67000008      -7.69708004E-06
  -7.65999985      -7.55076098E-06
  -7.65000010      -7.40933137E-06
  -7.63999987      -7.27335691E-06
  -7.63000011      -7.14338466E-06
  -7.61999989      -7.01991939E-06
  -7.61000013      -6.90339903E-06
  -7.59999990      -6.79422965E-06
  -7.59000015      -6.69275823E-06
  -7.57999992      -6.59930902E-06
  -7.57000017      -6.51415348E-06
  -7.55999994      -6.43753492E-06
  -7.55000019      -6.36967025E-06
  -7.53999996      -6.31076773E-06
  -7.53000021      -6.26098472E-06
  -7.51999998      -6.22046400E-06
  -7.51000023      -6.18931972E-06
  -7.50000000      -6.16764419E-06
  -7.48999977      -6.15550834E-06
  -7.48000002      -6.15294675E-06
  -7.46999979      -6.16000034E-06
  -7.46000004      -6.17668593E-06
  -7.44999981      -6.20300898E-06
  -7.44000006      -6.23898222E-06