  -16.0000000       0.00000000    
  -15.9899998       0.00000000    
  -15.9799995       0.00000000    
  -15.9700003       0.00000000    
  -15.9600000       0.00000000    
  -15.9499998       0.00000000    
  -15.9399996       0.00000000    
  -15.9300003       0.00000000    
  -15.9200001       0.00000000    
  -15.9099998       0.00000000    
  -15.8999996       0.00000000    
  -15.8900003       0.00000000    
  -15.8800001       0.00000000    
  -15.8699999      -1.61149323E-43
  -15.8599997      -4.66772518E-42
  -15.8500004      -8.19255134E-41
  -15.8400002      -8.86772497E-40
  -15.8299999      -6.97881107E-39
  -15.8199997      -4.29943452E-38
  -15.8100004      -2.16430593E-37
  -15.8000002      -9.12013828E-37
  -15.7900000      -3.24491757E-36
  -15.7799997      -9.69670413E-36
  -15.7700005      -2.36574423E-35
  -15.7600002      -4.27811297E-35
  -15.7500000      -3.26013715E-35
  -15.7399998       1.46228260E-34
  -15.7299995       8.92940223E-34
  -15.7200003       3.12009776E-33
  -15.7100000       8.52747610E-33
  -15.6999998       1.96020325E-32
  -15.6899996       3.87185740E-32
  -15.6800003       6.54222027E-32
  -15.6700001       9.11099399E-32
  -15.6599998       9.14756538E-32
  -15.6499996       1.97759615E-32
  -15.6400003      -1.91884289E-31
  -15.6300001      -6.11914634E-31
  -15.6199999      -1.25693815E-30
  -15.6099997      -2.00273223E-30
  -15.6000004      -2.47339020E-30
  -15.5900002      -1.96011934E-30
  -15.5799999       5.30291316E-31
  -15.5699997       5.95097118E-30
  -15.5600004       1.44628582E-29
  -15.5500002       2.42061318E-29
  -15.5400000       2.98605206E-29
  -15.5299997       2.18678196E-29
  -15.5200005      -1.19599061E-29
  -15.5100002      -8.00711453E-29
  -15.5000000      -1.74270142E-28
  -15.4899998      -2.52003648E-28
  -15.4799995      -2.23356138E-28
  -15.4700003       3.66285815E-29
  -15.4600000       6.21653930E-28
  -15.4499998       1.45434626E-27
  -15.4399996       2.09815315E-27
  -15.4300003       1.63710324E-27
  -15.4200001      -1.14650542E-27
  -15.4099998      -7.01338406E-27
  -15.3999996      -1.48021614E-26
  -15.3900003      -1.96600023E-26
  -15.3800001      -1.22809303E-26
  -15.3699999       1.85957965E-26
  -15.3599997       7.81012356E-26
  -15.3500004       1.51338872E-25
  -15.3400002       1.88714474E-25
  -15.3299999       1.03283056E-25
  -15.3199997      -2.00829935E-25
  -15.3100004      -7.52952006E-25
  -15.3000002      -1.39909461E-24
  -15.2900000      -1.69436791E-24
  -15.2799997      -9.11774605E-25
  -15.2700005       1.69215516E-24
  -15.2600002       6.26202480E-24
  -15.2500000       1.14709605E-23
  -15.2399998       1.38116702E-23
  -15.2299995       7.83500201E-24
  -15.2200003      -1.17434110E-23
  -15.2100000      -4.56082583E-23
  -15.1999998      -8.39655596E-23
  -15.1899996      -1.02239220E-22
  -15.1800003      -6.34461073E-23
  -15.1700001       6.72856448E-23
  -15.1599998       2.94047839E-22
  -15.1499996       5.53914146E-22
  -15.1400003       6.92207092E-22
  -15.1300001       4.79343541E-22
  -15.1199999      -3.00707012E-22
  -15.1099997      -1.68224707E-21
  -15.1000004      -3.31093540E-21
  -15.0900002      -4.30612617E-21
  -15.0799999      -3.35519481E-21
  -15.0699997       8.04913480E-22
  -15.0600004       8.48473889E-21
  -15.0500002       1.79386249E-20
  -15.0400000       2.46154927E-20
  -15.0299997       2.15796429E-20
  -15.0200005       1.86703913E-21
  -15.0100002      -3.70547381E-20
  -15.0000000      -8.77653299E-20
  -14.9899998      -1.28919381E-19
  -14.9799995      -1.26638069E-19
  -14.9700003      -4.48717856E-20
  -14.9600000       1.34283312E-19
  -14.9499998       3.84674192E-19
  -14.9399996       6.15835242E-19
  -14.9300003       6.75084690E-19
  -14.9200001       3.88257357E-19
  -14.9099998      -3.55038223E-19
  -14.8999996      -1.48758507E-18
  -14.8900003      -2.66660923E-18
  -14.8800001      -3.26012352E-18
  -14.8699999      -2.48762782E-18
  -14.8599997       2.51833483E-19
  -14.8500004       4.91331677E-18
  -14.8400002       1.03623571E-17
  -14.8299999       1.42153420E-17
  -14.8199997       1.32488261E-17
  -14.8100004       4.54711605E-18
  -14.8000002      -1.27279571E-17
  -14.7900000      -3.54722674E-17
  -14.7799997      -5.56057145E-17
  -14.7700005      -6.09573746E-17
  -14.7600002      -3.88534410E-17
  -14.7500000       1.77146353E-17
  -14.7399998       1.02873601E-16
  -14.7299995       1.92621261E-16
  -14.7200003       2.45413873E-16
  -14.7100000       2.11864923E-16
  -14.6999998       5.42344377E-17
  -14.6899996      -2.28062403E-16
  -14.6800003      -5.75855561E-16
  -14.6700001      -8.63206936E-16
  -14.6599998      -9.18320617E-16
  -14.6499996      -5.78253776E-16
  -14.6400003       2.29543043E-16
  -14.6300001       1.40236098E-15
  -14.6199999       2.61186506E-15
  -14.6099997       3.33021443E-15
  -14.6000004       2.96147367E-15
  -14.5900002       1.07388383E-15
  -14.5799999      -2.31981995E-15
  -14.5699997      -6.53515861E-15
  -14.5600004      -1.01702162E-14
  -14.5500002      -1.13522922E-14
  -14.5400000      -8.31297108E-15
  -14.5299997      -2.00815696E-16
  -14.5200005       1.21058084E-14
  -14.5100002       2.55342656E-14
  -14.5000000       3.50625053E-14
  -14.4899998       3.48958465E-14
  -14.4799995       2.05047483E-14
  -14.4700003      -8.93860656E-15
  -14.4600000      -4.85574512E-14
  -14.4499998      -8.72087775E-14
  -14.4399996      -1.09207477E-13
  -14.4300003      -9.86027395E-14
  -14.4200001      -4.53495070E-14
  -14.4099998       4.83029212E-14
  -14.3999996       1.63641006E-13
  -14.3900003       2.66035187E-13
  -14.3800001       3.11826248E-13
  -14.3699999       2.61305788E-13
  -14.3599997       9.51125707E-14
  -14.3500004      -1.70913129E-13
  -14.3400002      -4.78557786E-13
  -14.3299999      -7.33129594E-13
  -14.3199997      -8.24759315E-13
  -14.3100004      -6.62517296E-13
  -14.3000002      -2.13212206E-13
  -14.2900000       4.67617969E-13
  -14.2799997       1.22605084E-12
  -14.2700005       1.83149069E-12
  -14.2600002       2.03160622E-12
  -14.2500000       1.63115918E-12
  -14.2399998       5.74439584E-13
  -14.2299995      -9.95865066E-13
  -14.2200003      -2.72956050E-12
  -14.2100000      -4.12571973E-12
  -14.1999998      -4.65320013E-12
  -14.1899996      -3.91102949E-12
  -14.1800003      -1.78610956E-12
  -14.1700001       1.44276973E-12
  -14.1599998       5.09908001E-12
  -14.1499996       8.22275754E-12
  -14.1400003       9.79278898E-12
  -14.1300001       9.01053017E-12
  -14.1199999       5.56980937E-12
  -14.1099997      -1.67211731E-13
  -14.1000004      -7.15268860E-12
  -14.0900002      -1.38196546E-11
  -14.0799999      -1.84081049E-11
  -14.0699997      -1.93797183E-11
  -14.0600004      -1.58215611E-11
  -14.0500002      -7.73878791E-12
  -14.0400000       3.83703919E-12
  -14.0299997       1.69513483E-11
  -14.0200005       2.90196183E-11
  -14.0100002       3.72526177E-11
  -14.0000000       3.91418148E-11
  -13.9899998       3.29413441E-11
  -13.9799995       1.81002522E-11
  -13.9700003      -4.39144294E-12
  -13.9600000      -3.17889604E-11
  -13.9499998      -5.95892988E-11
  -13.9399996      -8.18484031E-11
  -13.9300003      -9.19374923E-11
  -13.9200001      -8.37970249E-11
  -13.9099998      -5.36147099E-11
  -13.8999996      -1.64795564E-12
  -13.8900003       6.62964336E-11
  -13.8800001       1.38348361E-10
  -13.8699999       1.97611386E-10
  -13.8599997       2.25062607E-10
  -13.8500004       2.04129477E-10
  -13.8400002       1.26130384E-10
  -13.8299999      -4.81717617E-12
  -13.8199997      -1.69112474E-10
  -13.8100004      -3.32728733E-10
  -13.8000002      -4.52808568E-10
  -13.7900000      -4.87364538E-10
  -13.7799997      -4.07271966E-10
  -13.7700005      -2.07513728E-10
  -13.7600002       8.58633858E-11
  -13.7500000       4.16177592E-10
  -13.7399998       7.05433212E-10
  -13.7299995       8.71696548E-10
  -13.7200003       8.51018145E-10
  -13.7100000       6.18340601E-10
  -13.6999998       2.01035188E-10
  -13.6899996      -3.20225652E-10
  -13.6800003      -8.25695068E-10
  -13.6700001      -1.18417964E-09
  -13.6599998      -1.28805433E-09
  -13.6499996      -1.08643539E-09
  -13.6400003      -6.06445505E-10
  -13.6300001       4.54996700E-11
  -13.6199999       7.05545289E-10
  -13.6099997       1.19400256E-09
  -13.6000004       1.36684897E-09
  -13.5900002       1.16278687E-09
  -13.5799999       6.30890618E-10
  -13.5699997      -7.23497234E-11
  -13.5600004      -7.19916737E-10
  -13.5500002      -1.07848275E-09
  -13.5400000      -9.83936266E-10
  -13.5299997      -4.06330886E-10
  -13.5200005       5.17666132E-10
  -13.5100002       1.50011570E-09
  -13.5000000       2.16804041E-09
  -13.4899998       2.16858731E-09
  -13.4799995       1.28759403E-09
  -13.4700003      -4.52105658E-10
  -13.4600000      -2.74562462E-09
  -13.4499998      -5.03675013E-09
  -13.4399996      -6.62852351E-09
  -13.4300003      -6.85544155E-09
  -13.4200001      -5.27860777E-09
  -13.4099998      -1.85309534E-09
  -13.3999996       2.98313174E-09
  -13.3900003       8.33465919E-09
  -13.3800001       1.29988349E-08
  -13.3699999       1.57182711E-08
  -13.3599997       1.54839199E-08
  -13.3500004       1.18171810E-08
  -13.3400002       4.95701391E-09
  -13.3299999      -4.10496837E-09
  -13.3199997      -1.37651845E-08
  -13.3100004      -2.21063452E-08
  -13.3000002      -2.72928773E-08
  -13.2900000      -2.79758421E-08
  -13.2799997      -2.36115891E-08
  -13.2700005      -1.46149404E-08
  -13.2600002      -2.30661445E-09
  -13.2500000       1.13363861E-08
  -13.2399998       2.40686759E-08
  -13.2299995       3.38101351E-08
  -13.2200003       3.90227726E-08
  -13.2100000       3.89453696E-08
  -13.1999998       3.36431967E-08
  -13.1899996       2.38815208E-08
  -13.1800003       1.08815863E-08
  -13.1700001      -3.95225408E-09
  -13.1599998      -1.92459826E-08
  -13.1499996      -3.37497390E-08
  -13.1400003      -4.63031107E-08
  -13.1300001      -5.57196422E-08
  -13.1199999      -6.06798025E-08
  -13.1099997      -5.97328551E-08
  -13.1000004      -5.14813898E-08
  -13.0900002      -3.49606566E-08
  -13.0799999      -1.01432995E-08
  -13.0699997       2.15673879E-08
  -13.0600004       5.70380685E-08
  -13.0500002       9.14660063E-08
  -13.0400000       1.18898136E-07
  -13.0299997       1.33192373E-07
  -13.0200005       1.29273957E-07
  -13.0100002       1.04426313E-07
  -13.0000000       5.93019784E-08
  -12.9899998      -1.64186054E-09
  -12.9799995      -7.04695751E-08
  -12.9700003      -1.36875144E-07
  -12.9600000      -1.89898813E-07
  -12.9499998      -2.19918959E-07
  -12.9399996      -2.20489127E-07
  -12.9300003      -1.89613402E-07
  -12.9200001      -1.30166825E-07
  -12.9099998      -4.93734937E-08
  -12.8999996       4.25155342E-08
  -12.8900003       1.34009952E-07
  -12.8800001       2.14193406E-07
  -12.8699999       2.74134720E-07
  -12.8599997       3.07622230E-07
  -12.8500004       3.11159965E-07
  -12.8400002       2.83413073E-07
  -12.8299999       2.24479194E-07
  -12.8199997       1.35421857E-07
  -12.8100004       1.84217228E-08
  -12.8000002      -1.22332608E-07
  -12.7900000      -2.79194524E-07
  -12.7799997      -4.39550632E-07
  -12.7700005      -5.84929523E-07
  -12.7600002      -6.91437037E-07
  -12.7500000      -7.31998341E-07
  -12.7399998      -6.80484106E-07
  -12.7299995      -5.17281535E-07
  -12.7200003      -2.35330788E-07
  -12.7100000       1.54659020E-07
  -12.6999998       6.21249001E-07
  -12.6899996       1.11268105E-06
  -12.6800003       1.56128226E-06
  -12.6700001       1.89163836E-06
  -12.6599998       2.03154741E-06
  -12.6499996       1.92403536E-06
  -12.6400003       1.53831115E-06
  -12.6300001       8.77664661E-07
  -12.6199999      -1.73276611E-08
  -12.6099997      -1.07102414E-06
  -12.6000004      -2.18014725E-06
  -12.5900002      -3.22519895E-06
  -12.5799999      -4.08402411E-06
  -12.5699997      -4.64528375E-06
  -12.5600004      -4.81988764E-06
  -12.5500002      -4.54894416E-06
  -12.5400000      -3.80772963E-06
  -12.5299997      -2.60591969E-06
  -12.5200005      -9.85283123E-07
  -12.5100002       9.83922291E-07
  -12.5000000       3.20636377E-06
  -12.4899998       5.56414534E-06
  -12.4799995       7.91817729E-06
  -12.4700003       1.01090436E-05
  -12.4600000       1.19583920E-05
  -12.4499998       1.32723053E-05
  -12.4399996       1.38473006E-05
  -12.4300003       1.34796819E-05
  -12.4200001       1.19771503E-05
  -12.4099998       9.17184298E-06
  -12.3999996       4.93237030E-06
  -12.3900003      -8.26862617E-07
  -12.3800001      -8.14065515E-06
  -12.3699999      -1.69929481E-05
  -12.3599997      -2.73211590E-05
  -12.3500004      -3.90233108E-05
  -12.3400002      -5.19655259E-05
  -12.3299999      -6.59876678E-05
  -12.3199997      -8.09047269E-05
  -12.3100004      -9.65034633E-05
  -12.3000002      -1.12534355E-04
  -12.2900000      -1.28700922E-04
  -12.2799997      -1.44648555E-04
  -12.2700005      -1.59956413E-04
  -12.2600002      -1.74135130E-04
  -12.2500000      -1.86632038E-04
  -12.2399998      -1.96843743E-04
  -12.2299995      -2.04136173E-04
  -12.2200003      -2.07870500E-04
  -12.2100000      -2.07431294E-04
  -12.1999998      -2.02254392E-04
  -12.1899996      -1.91854342E-04
  -12.1800003      -1.75847279E-04
  -12.1700001      -1.53971050E-04
  -12.1599998      -1.26104394E-04
  -12.1499996      -9.22747495E-05
  -12.1400003      -5.26693802E-05
  -12.1300001      -7.63784101E-06
  -12.1199999       4.23100319E-05
  -12.1099997       9.65170111E-05
  -12.1000004       1.54196314E-04
  -12.0900002       2.14458094E-04
  -12.0799999       2.76345905E-04
  -12.0699997       3.38873680E-04
  -12.0600004       4.01063473E-04
  -12.0500002       4.61979129E-04
  -12.0400000       5.20749541E-04
  -12.0299997       5.76582970E-04
  -12.0200005       6.28769398E-04
  -12.0100002       6.76669762E-04
  -12.0000000       7.19703909E-04
  -11.9899998       7.57331320E-04
  -11.9799995       7.89041515E-04
  -11.9700003       8.14340194E-04
  -11.9600000       8.32754944E-04
  -11.9499998       8.43839603E-04
  -11.9399996       8.47189222E-04
  -11.9300003       8.42449954E-04
  -11.9200001       8.29332101E-04
  -11.9099998       8.07613833E-04
  -11.8999996       7.77136243E-04
  -11.8900003       7.37794500E-04
  -11.8800001       6.89529523E-04
  -11.8699999       6.32306212E-04
  -11.8599997       5.66119270E-04
  -11.8500004       4.90987557E-04
  -11.8400002       4.06966195E-04
  -11.8299999       3.14176868E-04
  -11.8199997       2.12825369E-04
  -11.8100004       1.03235274E-04
  -11.8000002      -1.41306591E-05
  -11.7900000      -1.38659278E-04
  -11.7799997      -2.69582291E-04
  -11.7700005      -4.05993080E-04
  -11.7600002      -5.46865223E-04
  -11.7500000      -6.91085181E-04
  -11.7399998      -8.37478961E-04
  -11.7299995      -9.84832644E-04
  -11.7200003      -1.13191258E-03
  -11.7100000      -1.27746514E-03
  -11.6999998      -1.42022164E-03
  -11.6899996      -1.55888603E-03
  -11.6800003      -1.69213361E-03
  -11.6700001      -1.81861501E-03
  -11.6599998      -1.93696411E-03
  -11.6499996      -2.04583374E-03
  -11.6400003      -2.14392180E-03
  -11.6300001      -2.23001908E-03
  -11.6199999      -2.30304967E-03
  -11.6099997      -2.36210041E-03
  -11.6000004      -2.40644137E-03
  -11.5900002      -2.43553938E-03
  -11.5799999      -2.44901632E-03
  -11.5699997      -2.44663912E-03
  -11.5600004      -2.42826692E-03
  -11.5500002      -2.39381241E-03
  -11.5400000      -2.34318851E-03
  -11.5299997      -2.27628415E-03
  -11.5200005      -2.19295174E-03
  -11.5100002      -2.09298101E-03
  -11.5000000      -1.97611446E-03
  -11.4899998      -1.84206443E-03
  -11.4799995      -1.69051555E-03
  -11.4700003      -1.52114814E-03
  -11.4600000      -1.33364508E-03
  -11.4499998      -1.12770847E-03
  -11.4399996      -9.03066131E-04
  -11.4300003      -6.59488840E-04
  -11.4200001      -3.96798103E-04
  -11.4099998      -1.14898357E-04
  -11.3999996       1.86212783E-04
  -11.3900003       5.06401586E-04
  -11.3800001       8.45384493E-04
  -11.3699999       1.20270171E-03
  -11.3599997       1.57771527E-03
  -11.3500004       1.96960545E-03
  -11.3400002       2.37739296E-03
  -11.3299999       2.79996195E-03
  -11.3199997       3.23609659E-03
  -11.3100004       3.68453027E-03
  -11.3000002       4.14397009E-03
  -11.2900000       4.61315177E-03
  -11.2799997       5.09085646E-03
  -11.2700005       5.57595165E-03
  -11.2600002       6.06739474E-03
  -11.2500000       6.56426232E-03
  -11.2399998       7.06575904E-03
  -11.2299995       7.57122273E-03
  -11.2200003       8.08012951E-03
  -11.2100000       8.59210920E-03
  -11.1999998       9.10691358E-03
  -11.1899996       9.62442998E-03
  -11.1800003       1.01446537E-02
  -11.1700001       1.06676593E-02
  -11.1599998       1.11935632E-02
  -11.1499996       1.17224827E-02
  -11.1400003       1.22545063E-02
  -11.1300001       1.27896350E-02
  -11.1199999       1.33277485E-02
  -11.1099997       1.38685899E-02
  -11.1000004       1.44116953E-02
  -11.0900002       1.49564510E-02
  -11.0799999       1.55020207E-02
  -11.0699997       1.60473771E-02
  -11.0600004       1.65913291E-02
  -11.0500002       1.71325430E-02
  -11.0400000       1.76695455E-02
  -11.0299997       1.82008147E-02
  -11.0200005       1.87248047E-02
  -11.0100002       1.92399733E-02
  -11.0000000       1.97448805E-02
  -10.9899998       2.02381853E-02
  -10.9799995       2.07186993E-02
  -10.9700003       2.11854056E-02
  -10.9600000       2.16374826E-02
  -10.9499998       2.20742840E-02
  -10.9399996       2.24953443E-02
  -10.9300003       2.29003169E-02
  -10.9200001       2.32890006E-02
  -10.9099998       2.36612726E-02
  -10.8999996       2.40170751E-02
  -10.8900003       2.43563708E-02
  -10.8800001       2.46791840E-02
  -10.8699999       2.49855295E-02
  -10.8599997       2.52754111E-02
  -10.8500004       2.55488828E-02
  -10.8400002       2.58059595E-02
  -10.8299999       2.60466449E-02
  -10.8199997       2.62709521E-02
  -10.8100004       2.64788438E-02
  -10.8000002       2.66702436E-02
  -10.7900000       2.68450342E-02
  -10.7799997       2.70030443E-02
  -10.7700005       2.71440540E-02
  -10.7600002       2.72678044E-02
  -10.7500000       2.73740087E-02
  -10.7399998       2.74624005E-02
  -10.7299995       2.75327265E-02
  -10.7200003       2.75848396E-02
  -10.7100000       2.76186727E-02
  -10.6999998       2.76343729E-02
  -10.6899996       2.76322477E-02
  -10.6800003       2.76129376E-02
  -10.6700001       2.75773555E-02
  -10.6599998       2.75267716E-02
  -10.6499996       2.74628177E-02
  -10.6400003       2.73875203E-02
  -10.6300001       2.73031741E-02
  -10.6199999       2.72123981E-02
  -10.6099997       2.71179937E-02
  -10.6000004       2.70228684E-02
  -10.5900002       2.69299373E-02
  -10.5799999       2.68420205E-02
  -10.5699997       2.67617404E-02
  -10.5600004       2.66915131E-02
  -10.5500002       2.66334191E-02
  -10.5400000       2.65892465E-02
  -10.5299997       2.65603960E-02
  -10.5200005       2.65480317E-02
  -10.5100002       2.65529379E-02
  -10.5000000       2.65756100E-02
  -10.4899998       2.66162455E-02
  -10.4799995       2.66747754E-02
  -10.4700003       2.67508458E-02
  -10.4600000       2.68438943E-02
  -10.4499998       2.69531310E-02
  -10.4399996       2.70775761E-02
  -10.4300003       2.72160228E-02
  -10.4200001       2.73672175E-02
  -10.4099998       2.75297891E-02
  -10.3999996       2.77022906E-02
  -10.3900003       2.78832875E-02
  -10.3800001       2.80714091E-02
  -10.3699999       2.82653533E-02
  -10.3599997       2.84639020E-02
  -10.3500004       2.86659580E-02
  -10.3400002       2.88705416E-02
  -10.3299999       2.90768333E-02
  -10.3199997       2.92840339E-02
  -10.3100004       2.94914972E-02
  -10.3000002       2.96985004E-02
  -10.2900000       2.99044754E-02
  -10.2799997       3.01087778E-02
  -10.2700005       3.03107407E-02
  -10.2600002       3.05098854E-02
  -10.2500000       3.07057127E-02
  -10.2399998       3.08979247E-02
  -10.2299995       3.10865082E-02
  -10.2200003       3.12715992E-02
  -10.2100000       3.14537063E-02
  -10.1999998       3.16336416E-02
  -10.1899996       3.18125933E-02
  -10.1800003       3.19919549E-02
  -10.1700001       3.21733952E-02
  -10.1599998       3.23587283E-02
  -10.1499996       3.25498804E-02
  -10.1400003       3.27488109E-02
  -10.1300001       3.29573564E-02
  -10.1199999       3.31772715E-02
  -10.1099997       3.34101245E-02
  -10.1000004       3.36572900E-02
  -10.0900002       3.39199752E-02
  -10.0799999       3.41991447E-02
  -10.0699997       3.44957970E-02
  -10.0600004       3.48107256E-02
  -10.0500002       3.51448692E-02
  -10.0400000       3.54991555E-02
  -10.0299997       3.58746126E-02
  -10.0200005       3.62723507E-02
  -10.0100002       3.66934985E-02
  -10.0000000       3.71391997E-02
  -9.98999977       3.76104228E-02
  -9.97999954       3.81080136E-02
  -9.97000027       3.86326052E-02
  -9.96000004       3.91845703E-02
  -9.94999981       3.97640206E-02
  -9.93999958       4.03709114E-02
  -9.93000031       4.10052240E-02
  -9.92000008       4.16667499E-02
  -9.90999985       4.23555225E-02
  -9.89999962       4.30717096E-02
  -9.89000034       4.38157581E-02
  -9.88000011       4.45883088E-02
  -9.86999989       4.53903154E-02
  -9.85999966       4.62228321E-02
  -9.85000038       4.70870733E-02
  -9.84000015       4.79844622E-02
  -9.82999992       4.89163250E-02
  -9.81999969       4.98839468E-02
  -9.81000042       5.08885942E-02
  -9.80000019       5.19314073E-02
  -9.78999996       5.30133508E-02
  -9.77999973       5.41353635E-02
  -9.77000046       5.52980117E-02
  -9.76000023       5.65019399E-02
  -9.75000000       5.77475093E-02
  -9.73999977       5.90351336E-02
  -9.72999954       6.03651516E-02
  -9.72000027       6.17377236E-02
  -9.71000004       6.31531924E-02
  -9.69999981       6.46117628E-02
  -9.68999958       6.61135241E-02
  -9.68000031       6.76583201E-02
  -9.67000008       6.92456961E-02
  -9.65999985       7.08745942E-02
  -9.64999962       7.25434721E-02
  -9.64000034       7.42498338E-02
  -9.63000011       7.59906992E-02
  -9.61999989       7.77619407E-02
  -9.60999966       7.95590356E-02
  -9.60000038       8.13763216E-02
  -9.59000015       8.32083151E-02
  -9.57999992       8.50484297E-02
  -9.56999969       8.68902728E-02
  -9.56000042       8.87271389E-02
  -9.55000019       9.05523151E-02
  -9.53999996       9.23590735E-02
  -9.52999973       9.41406488E-02
  -9.52000046       9.58908796E-02
  -9.51000023       9.76031572E-02
  -9.50000000       9.92714912E-02
  -9.48999977      0.100890115    
  -9.47999954      0.102453656    
  -9.47000027      0.103957199    
  -9.46000004      0.105396464    
  -9.44999981      0.106767997    
  -9.43999958      0.108068973    
  -9.43000031      0.109297656    
  -9.42000008      0.110453360    
  -9.40999985      0.111536965    
  -9.39999962      0.112550057    
  -9.39000034      0.113495961    
  -9.38000011      0.114379466    
  -9.36999989      0.115206555    
  -9.35999966      0.115984537    
  -9.35000038      0.116722301    
  -9.34000015      0.117430009    
  -9.32999992      0.118118577    
  -9.31999969      0.118800879    
  -9.31000042      0.119490184    
  -9.30000019      0.120201111    
  -9.28999996      0.120949104    
  -9.27999973      0.121750273    
  -9.27000046      0.122620933    
  -9.26000023      0.123577878    
  -9.25000000      0.124637730    
  -9.23999977      0.125816733    
  -9.22999954      0.127130538    
  -9.22000027      0.128593802    
  -9.21000004      0.130220443    
  -9.19999981      0.132022485    
  -9.18999958      0.134010926    
  -9.18000031      0.136195019    
  -9.17000008      0.138581723    
  -9.15999985      0.141176254    
  -9.14999962      0.143981338    
  -9.14000034      0.146997705    
  -9.13000011      0.150223672    
  -9.11999989      0.153655082    
  -9.10999966      0.157285720    
  -9.10000038      0.161107317    
  -9.09000015      0.165109009    
  -9.07999992      0.169278413    
  -9.06999969      0.173600987    
  -9.06000042      0.178060085    
  -9.05000019      0.182637915    
  -9.03999996      0.187314868    
  -9.02999973      0.192070052    
  -9.02000046      0.196881309    
  -9.01000023      0.201725990    
  -9.00000000      0.206580713    
  -8.98999977      0.211421877    
  -8.97999954      0.216225445    
  -8.97000027      0.220967606    
  -8.96000004      0.225624874    
  -8.94999981      0.230174169    
  -8.93999958      0.234592617    
  -8.93000031      0.238859087    
  -8.92000008      0.242952809    
  -8.90999985      0.246854305    
  -8.89999962      0.250545561    
  -8.89000034      0.254009306    
  -8.88000011      0.257230550    
  -8.86999989      0.260195166    
  -8.85999966      0.262890726    
  -8.85000038      0.265305877    
  -8.84000015      0.267431229    
  -8.82999992      0.269259125    
  -8.81999969      0.270783454    
  -8.81000042      0.272000372    
  -8.80000019      0.272907615    
  -8.78999996      0.273505270    
  -8.77999973      0.273794770    
  -8.77000046      0.273780018    
  -8.76000023      0.273466378    
  -8.75000000      0.272861630    
  -8.73999977      0.271974057    
  -8.72999954      0.270814836    
  -8.72000027      0.269396067    
  -8.71000004      0.267730802    
  -8.69999981      0.265834093    
  -8.68999958      0.263722122    
  -8.68000031      0.261410713    
  -8.67000008      0.258917779    
  -8.65999985      0.256260484    
  -8.64999962      0.253456891    
  -8.64000034      0.250525177    
  -8.63000011      0.247482613    
  -8.61999989      0.244347438    
  -8.60999966      0.241136685    
  -8.60000038      0.237867489    
  -8.59000015      0.234555766    
  -8.57999992      0.231216416    
  -8.56999969      0.227864355    
  -8.56000042      0.224512786    
  -8.55000019      0.221173942    
  -8.53999996      0.217858985    
  -8.52999973      0.214579090    
  -8.52000046      0.211343318    
  -8.51000023      0.208161011    
  -8.50000000      0.205039710    
  -8.48999977      0.201986492    
  -8.47999954      0.199007422    
  -8.47000027      0.196107477    
  -8.46000004      0.193290144    
  -8.44999981      0.190559074    
  -8.43999958      0.187916473    
  -8.43000031      0.185364276    
  -8.42000008      0.182903931    
  -8.40999985      0.180537358    
  -8.39999962      0.178265363    
  -8.39000034      0.176089853    
  -8.38000011      0.174012184    
  -8.36999989      0.172034189    
  -8.35999966      0.170158371    
  -8.35000038      0.168387651    
  -8.34000015      0.166725531    
  -8.32999992      0.165176377    
  -8.31999969      0.163746446    
  -8.31000042      0.162441388    
  -8.30000019      0.161269441    
  -8.28999996      0.160238490    
  -8.27999973      0.159357578    
  -8.27000046      0.158636346    
  -8.26000023      0.158084035    
  -8.25000000      0.157712325    
  -8.23999977      0.157532811    
  -8.22999954      0.157557681    
  -8.22000027      0.157799870    
  -8.21000004      0.158274055    
  -8.19999981      0.158994451    
  -8.18999958      0.159975439    
  -8.18000031      0.161233112    
  -8.17000008      0.162781090    
  -8.15999985      0.164634287    
  -8.14999962      0.166805953    
  -8.14000034      0.169308662    
  -8.13000011      0.172155261    
  -8.11999989      0.175356448    
  -8.10999966      0.178922221    
  -8.10000038      0.182862356    
  -8.09000015      0.187183693    
  -8.07999992      0.191892713    
  -8.06999969      0.196992606    
  -8.06000042      0.202486038    
  -8.05000019      0.208373159    
  -8.03999996      0.214651793    
  -8.02999973      0.221319526    
  -8.02000046      0.228370801    
  -8.01000023      0.235799864    
  -8.00000000      0.243598610    
  -7.98999977      0.251758367    
  -7.98000002      0.260267943    
  -7.96999979      0.269115925    
  -7.96000004      0.278288454    
  -7.94999981      0.287770569    
  -7.94000006      0.297546834    
  -7.92999983      0.307600617    
  -7.92000008      0.317913562    
  -7.90999985      0.328468651    
  -7.90000010      0.339246243    
  -7.88999987      0.350228459    
  -7.88000011      0.361395895    
  -7.86999989      0.372729182    
  -7.86000013      0.384207278    
  -7.84999990      0.395810843    
  -7.84000015      0.407518119    
  -7.82999992      0.419310510    
  -7.82000017      0.431166321    
  -7.80999994      0.443067431    
  -7.80000019      0.454996198    
  -7.78999996      0.466934294    
  -7.78000021      0.478864789    
  -7.76999998      0.490773886    
  -7.76000023      0.502643287    
  -7.75000000      0.514459789    
  -7.73999977      0.526208758    
  -7.73000002      0.537875772    
  -7.71999979      0.549449801    
  -7.71000004      0.560918212    
  -7.69999981      0.572272480    
  -7.69000006      0.583502352    
  -7.67999983      0.594601095    
  -7.67000008      0.605560780    
  -7.65999985      0.616375446    
  -7.65000010      0.627038181    
  -7.63999987      0.637545347    
  -7.63000011      0.647890508    
  -7.61999989      0.658071220    
  -7.61000013      0.668084502    
  -7.59999990      0.677929997    
  -7.59000015      0.687607706    
  -7.57999992      0.697118819    
  -7.57000017      0.706465364    
  -7.55999994      0.715651512    
  -7.55000019      0.724680424    
  -7.53999996      0.733557820    
  -7.53000021      0.742289305    
  -7.51999998      0.750883281    
  -7.51000023      0.759348691    
  -7.50000000      0.767694294    
  -7.48999977      0.775933027    
  -7.48000002      0.784077823    
  -7.46999979      0.792141616    
  -7.46000004      0.800137401    
  -7.44999981      0.808081865    
  -7.44000006      0.815986097    