  -16.0000000       0.00000000    
  -15.9899998       0.00000000    
  -15.9799995       0.00000000    
  -15.9700003       0.00000000    
  -15.9600000       0.00000000    
  -15.9499998       0.00000000    
  -15.9399996       0.00000000    
  -15.9300003       0.00000000    
  -15.9200001       0.00000000    
  -15.9099998       0.00000000    
  -15.8999996       0.00000000    
  -15.8900003       0.00000000    
  -15.8800001       0.00000000    
  -15.8699999       0.00000000    
  -15.8599997      -0.00000000    
  -15.8500004      -1.40129846E-45
  -15.8400002      -2.52233724E-44
  -15.8299999      -3.02680468E-43
  -15.8199997      -2.71571642E-42
  -15.8100004      -1.94626344E-41
  -15.8000002      -1.16003691E-40
  -15.7900000      -5.91126547E-40
  -15.7799997      -2.62793909E-39
  -15.7700005      -1.03479796E-38
  -15.7600002      -3.65100019E-38
  -15.7500000      -1.16438205E-37
  -15.7399998      -3.37866176E-37
  -15.7299995      -8.96092925E-37
  -15.7200003      -2.17824255E-36
  -15.7100000      -4.85656991E-36
  -15.6999998      -9.91504589E-36
  -15.6899996      -1.84406006E-35
  -15.6800003      -3.09063121E-35
  -15.6700001      -4.56463455E-35
  -15.6599998      -5.64389161E-35
  -15.6499996      -4.97819676E-35
  -15.6400003      -3.67074227E-36
  -15.6300001       1.08799980E-34
  -15.6199999       3.06825125E-34
  -15.6099997       5.77574098E-34
  -15.6000004       8.43259240E-34
  -15.5900002       9.33499737E-34
  -15.5799999       5.90143485E-34
  -15.5699997      -4.60554784E-34
  -15.5600004      -2.34400755E-33
  -15.5500002      -4.79843112E-33
  -15.5400000      -6.95100519E-33
  -15.5299997      -7.28106564E-33
  -15.5200005      -3.97873724E-33
  -15.5100002       4.17611964E-33
  -15.5000000       1.65475618E-32
  -15.4899998       2.95239453E-32
  -15.4799995       3.64498434E-32
  -15.4700003       2.95363204E-32
  -15.4600000       4.00677351E-33
  -15.4499998      -3.67377191E-32
  -15.4399996      -7.79894775E-32
  -15.4300003      -9.67454420E-32
  -15.4200001      -7.35918062E-32
  -15.4099998      -1.12193398E-32
  -15.3999996       5.05717653E-32
  -15.3900003       4.04684648E-32
  -15.3800001      -1.02064225E-31
  -15.3699999      -3.48029365E-31
  -15.3599997      -4.97443348E-31
  -15.3500004      -1.68784050E-31
  -15.3400002       1.04860359E-30
  -15.3299999       3.22865679E-30
  -15.3199997       5.60899712E-30
  -15.3100004       6.24061939E-30
  -15.3000002       2.25475615E-30
  -15.2900000      -8.78958240E-30
  -15.2799997      -2.63992123E-29
  -15.2700005      -4.42494683E-29
  -15.2600002      -4.87672636E-29
  -15.2500000      -2.18232328E-29
  -15.2399998       5.03455631E-29
  -15.2299995       1.62463758E-28
  -15.2200003       2.75004692E-28
  -15.2100000       3.08974365E-28
  -15.1999998       1.63824332E-28
  -15.1899996      -2.32835180E-28
  -15.1800003      -8.49596936E-28
  -15.1700001      -1.47867624E-27
  -15.1599998      -1.71820203E-27
  -15.1499996      -1.06789792E-27
  -15.1400003       8.30402540E-28
  -15.1300001       3.84556556E-27
  -15.1199999       7.04058204E-27
  -15.1099997       8.61007551E-27
  -15.1000004       6.30415804E-27
  -15.0900002      -1.55994394E-27
  -15.0799999      -1.46825642E-26
  -15.0699997      -2.95157084E-26
  -15.0600004      -3.89826093E-26
  -15.0500002      -3.39908763E-26
  -15.0400000      -7.03608075E-27
  -15.0299997       4.27873687E-26
  -15.0200005       1.05193739E-25
  -15.0100002       1.57115997E-25
  -15.0000000       1.66456911E-25
  -14.9899998       1.01980887E-25
  -14.9799995      -5.23876241E-26
  -14.9700003      -2.83119837E-25
  -14.9600000      -5.37951073E-25
  -14.9499998      -7.26552431E-25
  -14.9399996      -7.32798533E-25
  -14.9300003      -4.37862570E-25
  -14.9200001       2.46678555E-25
  -14.9099998       1.33336850E-24
  -14.8999996       2.69594851E-24
  -14.8900003       3.98913904E-24
  -14.8800001       4.57421430E-24
  -14.8699999       3.51542294E-24
  -14.8599997      -2.42323180E-25
  -14.8500004      -7.39390018E-24
  -14.8400002      -1.74509206E-23
  -14.8299999      -2.77432125E-23
  -14.8199997      -3.27346952E-23
  -14.8100004      -2.44561916E-23
  -14.8000002       5.07017983E-24
  -14.7900000       5.90005290E-23
  -14.7799997       1.29185591E-22
  -14.7700005       1.90551472E-22
  -14.7600002       2.00594833E-22
  -14.7500000       1.08818616E-22
  -14.7399998      -1.20977739E-22
  -14.7299995      -4.77894511E-22
  -14.7200003      -8.71078134E-22
  -14.7100000      -1.11570882E-21
  -14.6999998      -9.60650223E-22
  -14.6899996      -1.74517742E-22
  -14.6800003       1.31327069E-21
  -14.6700001       3.25295359E-21
  -14.6599998       4.96958561E-21
  -14.6499996       5.40883588E-21
  -14.6400003       3.41598370E-21
  -14.6300001      -1.73626543E-21
  -14.6199999      -9.67577719E-21
  -14.6099997      -1.83649105E-20
  -14.6000004      -2.40014613E-20
  -14.5900002      -2.17438011E-20
  -14.5799999      -7.42924270E-21
  -14.5699997       1.99378122E-20
  -14.5600004       5.56739598E-20
  -14.5500002       8.80987354E-20
  -14.5400000       9.97826680E-20
  -14.5299997       7.23089044E-20
  -14.5200005      -5.63224169E-21
  -14.5100002      -1.28699196E-19
  -14.5000000      -2.67550664E-19
  -14.4899998      -3.68381603E-19
  -14.4799995      -3.63455975E-19
  -14.4700003      -1.93924481E-19
  -14.4600000       1.58700895E-19
  -14.4499998       6.41946646E-19
  -14.4399996       1.11686195E-18
  -14.4300003       1.37248661E-18
  -14.4200001       1.17960050E-18
  -14.4099998       3.80472502E-19
  -14.3999996      -1.00611849E-18
  -14.3900003      -2.70230973E-18
  -14.3800001      -4.15761035E-18
  -14.3699999      -4.64405872E-18
  -14.3599997      -3.47260099E-18
  -14.3500004      -2.97845327E-19
  -14.3400002       4.57396675E-18
  -14.3299999       9.99979635E-18
  -14.3199997       1.40699865E-17
  -14.3100004       1.45216073E-17
  -14.3000002       9.48160409E-18
  -14.2900000      -1.61265664E-18
  -14.2799997      -1.72052360E-17
  -14.2700005      -3.32949924E-17
  -14.2600002      -4.39244883E-17
  -14.2500000      -4.26371074E-17
  -14.2399998      -2.47396850E-17
  -14.2299995       1.01714165E-17
  -14.2200003       5.62802902E-17
  -14.2100000       1.01189580E-16
  -14.1999998       1.27882440E-16
  -14.1899996       1.19177020E-16
  -14.1800003       6.39735795E-17
  -14.1700001      -3.63366712E-17
  -14.1599998      -1.63593244E-16
  -14.1499996      -2.83064303E-16
  -14.1400003      -3.49676006E-16
  -14.1300001      -3.20195686E-16
  -14.1199999      -1.69123495E-16
  -14.1099997       9.60524774E-17
  -14.1000004       4.25830541E-16
  -14.0900002       7.31165775E-16
  -14.0799999       9.00414764E-16
  -14.0699997       8.29665754E-16
  -14.0600004       4.60392794E-16
  -14.0500002      -1.86050893E-16
  -14.0400000      -9.89755034E-16
  -14.0299997      -1.74056567E-15
  -14.0200005      -2.17883174E-15
  -14.0100002      -2.06480523E-15
  -14.0000000      -1.26229974E-15
  -13.9899998       1.86602602E-16
  -13.9799995       2.02266259E-15
  -13.9700003       3.78896896E-15
  -13.9600000       4.91871905E-15
  -13.9499998       4.88185195E-15
  -13.9399996       3.35977927E-15
  -13.9300003       4.00641555E-16
  -13.9200001      -3.49845487E-15
  -13.9099998      -7.42621906E-15
  -13.8999996      -1.02272579E-14
  -13.8900003      -1.07881064E-14
  -13.8800001      -8.37970203E-15
  -13.8699999      -2.96561947E-15
  -13.8599997       4.62469825E-15
  -13.8500004       1.27398101E-14
  -13.8400002       1.92018371E-14
  -13.8299999       2.18200803E-14
  -13.8199997       1.90169840E-14
  -13.8100004       1.04060496E-14
  -13.8000002      -2.85670755E-15
  -13.7900000      -1.80936893E-14
  -13.7799997      -3.15637443E-14
  -13.7700005      -3.93061540E-14
  -13.7600002      -3.81979130E-14
  -13.7500000      -2.69601304E-14
  -13.7399998      -6.81838568E-15
  -13.7299995       1.84263734E-14
  -13.7200003       4.30297819E-14
  -13.7100000       6.05677143E-14
  -13.6999998       6.55689831E-14
  -13.6899996       5.51102404E-14
  -13.6800003       2.99197956E-14
  -13.6700001      -5.38333399E-15
  -13.6599998      -4.30899043E-14
  -13.6499996      -7.41376090E-14
  -13.6400003      -9.03992728E-14
  -13.6300001      -8.69306119E-14
  -13.6199999      -6.35310150E-14
  -13.6099997      -2.51007338E-14
  -13.6000004       1.94206376E-14
  -13.5900002       5.93478581E-14
  -13.5799999       8.51959765E-14
  -13.5699997       9.14386703E-14
  -13.5600004       7.82089102E-14
  -13.5500002       5.13116601E-14
  -13.5400000       2.03891418E-14
  -13.5299997      -4.33774043E-15
  -13.5200005      -1.58030717E-14
  -13.5100002      -1.30680362E-14
  -13.5000000      -2.37207321E-15
  -13.4899998       4.42181692E-15
  -13.4799995      -6.10966644E-15
  -13.4700003      -4.33597487E-14
  -13.4600000      -1.07272488E-13
  -13.4499998      -1.85078556E-13
  -13.4399996      -2.51854229E-13
  -13.4300003      -2.75645555E-13
  -13.4200001      -2.26549451E-13
  -13.4099998      -8.77111155E-14
  -13.3999996       1.34867920E-13
  -13.3900003       4.07131875E-13
  -13.3800001       6.69109191E-13
  -13.3699999       8.45454186E-13
  -13.3599997       8.63149396E-13
  -13.3500004       6.72739750E-13
  -13.3400002       2.67714805E-13
  -13.3299999      -3.03856387E-13
  -13.3199997      -9.40227605E-13
  -13.3100004      -1.50154477E-12
  -13.3000002      -1.83849095E-12
  -13.2900000      -1.82855055E-12
  -13.2799997      -1.41145635E-12
  -13.2700005      -6.14315727E-13
  -13.2600002       4.41734512E-13
  -13.2500000       1.55769972E-12
  -13.2399998       2.49459676E-12
  -13.2299995       3.02601976E-12
  -13.2200003       2.99363269E-12
  -13.2100000       2.35171539E-12
  -13.1999998       1.18820633E-12
  -13.1899996      -2.85423540E-13
  -13.1800003      -1.77572139E-12
  -13.1700001      -2.97216960E-12
  -13.1599998      -3.62055850E-12
  -13.1499996      -3.58635452E-12
  -13.1400003      -2.89075491E-12
  -13.1300001      -1.70815629E-12
  -13.1199999      -3.23348743E-13
  -13.1099997       9.42326512E-13
  -13.1000004       1.81732591E-12
  -13.0900002       2.15533711E-12
  -13.0799999       1.97761967E-12
  -13.0699997       1.46774585E-12
  -13.0600004       9.16726330E-13
  -13.0500002       6.30733638E-13
  -13.0400000       8.25745288E-13
  -13.0299997       1.53970239E-12
  -13.0200005       2.59088519E-12
  -13.0100002       3.60079067E-12
  -13.0000000       4.08301171E-12
  -12.9899998       3.58050894E-12
  -12.9799995       1.81745526E-12
  -12.9700003      -1.17655159E-12
  -12.9600000      -5.00956611E-12
  -12.9499998      -8.96333095E-12
  -12.9399996      -1.21251472E-11
  -12.9300003      -1.35925446E-11
  -12.9200001      -1.27050584E-11
  -12.9099998      -9.24503096E-12
  -12.8999996      -3.55127082E-12
  -12.8900003       3.49359452E-12
  -12.8800001       1.06120347E-11
  -12.8699999       1.63924482E-11
  -12.8599997       1.96067815E-11
  -12.8500004       1.95106674E-11
  -12.8400002       1.60504613E-11
  -12.8299999       9.91945935E-12
  -12.8199997       2.43925518E-12
  -12.8100004      -4.71610338E-12
  -12.8000002      -9.89613166E-12
  -12.7900000      -1.18659431E-11
  -12.7799997      -1.01228401E-11
  -12.7700005      -5.06110475E-12
  -12.7600002       2.05777691E-12
  -12.7500000       9.32743813E-12
  -12.7399998       1.45656438E-11
  -12.7299995       1.57515077E-11
  -12.7200003       1.14396140E-11
  -12.7100000       1.06972460E-12
  -12.6999998      -1.48806592E-11
  -12.6899996      -3.49139953E-11
  -12.6800003      -5.66750362E-11
  -12.6700001      -7.72055475E-11
  -12.6599998      -9.32312422E-11
  -12.6499996      -1.01434007E-10
  -12.6400003      -9.86909443E-11
  -12.6300001      -8.22952539E-11
  -12.6199999      -5.01994661E-11
  -12.6099997      -1.32918589E-12
  -12.6000004       6.40036496E-11
  -12.5900002       1.43601547E-10
  -12.5799999       2.32866365E-10
  -12.5699997       3.24393207E-10
  -12.5600004       4.07836265E-10
  -12.5500002       4.70209705E-10
  -12.5400000       4.96744812E-10
  -12.5299997       4.72342443E-10
  -12.5200005       3.83544585E-10
  -12.5100002       2.20831201E-10
  -12.5000000      -1.90473488E-11
  -12.4899998      -3.31055627E-10
  -12.4799995      -7.00512759E-10
  -12.4700003      -1.10266019E-09
  -12.4600000      -1.50329749E-09
  -12.4499998      -1.86047100E-09
  -12.4399996      -2.12704365E-09
  -12.4300003      -2.25384023E-09
  -12.4200001      -2.19300822E-09
  -12.4099998      -1.90122784E-09
  -12.3999996      -1.34248002E-09
  -12.3900003      -4.90205654E-10
  -12.3800001       6.71187605E-10
  -12.3699999       2.14539075E-09
  -12.3599997       3.92368849E-09
  -12.3500004       5.98472871E-09
  -12.3400002       8.29448865E-09
  -12.3299999       1.08064295E-08
  -12.3199997       1.34619347E-08
  -12.3100004       1.61912066E-08
  -12.3000002       1.89147915E-08
  -12.2900000       2.15458194E-08
  -12.2799997       2.39929410E-08
  -12.2700005       2.61637378E-08
  -12.2600002       2.79682979E-08
  -12.2500000       2.93225515E-08
  -12.2399998       3.01508045E-08
  -12.2299995       3.03873833E-08
  -12.2200003       2.99771372E-08
  -12.2100000       2.88750428E-08
  -12.1999998       2.70452976E-08
  -12.1899996       2.44604390E-08
  -12.1800003       2.11010143E-08
  -12.1700001       1.69563137E-08
  -12.1599998       1.20261863E-08
  -12.1499996       6.32393427E-09
  -12.1400003      -1.20472410E-10
  -12.1300001      -7.25730498E-09
  -12.1199999      -1.50151358E-08
  -12.1099997      -2.33005704E-08
  -12.1000004      -3.20000382E-08
  -12.0900002      -4.09836929E-08
  -12.0799999      -5.01108417E-08
  -12.0699997      -5.92360792E-08
  -12.0600004      -6.82155203E-08
  -12.0500002      -7.69117960E-08
  -12.0400000      -8.51975201E-08
  -12.0299997      -9.29567392E-08
  -12.0200005      -1.00084662E-07
  -12.0100002      -1.06486105E-07
  -12.0000000      -1.12073209E-07
  -11.9899998      -1.16763381E-07
  -11.9799995      -1.20477821E-07
  -11.9700003      -1.23140907E-07
  -11.9600000      -1.24680597E-07
  -11.9499998      -1.25029359E-07
  -11.9399996      -1.24125208E-07
  -11.9300003      -1.21912620E-07
  -11.9200001      -1.18342996E-07
  -11.9099998      -1.13374981E-07
  -11.8999996      -1.06974127E-07
  -11.8900003      -9.91133433E-08
  -11.8800001      -8.97736498E-08
  -11.8699999      -7.89462291E-08
  -11.8599997      -6.66352236E-08
  -11.8500004      -5.28612958E-08
  -11.8400002      -3.76652487E-08
  -11.8299999      -2.11112940E-08
  -11.8199997      -3.28887673E-09
  -11.8100004       1.56871511E-08
  -11.8000002       3.56779637E-08
  -11.7900000       5.65249536E-08
  -11.7799997       7.80539366E-08
  -11.7700005       1.00080889E-07
  -11.7600002       1.22417219E-07
  -11.7500000       1.44873795E-07
  -11.7399998       1.67263735E-07
  -11.7299995       1.89403735E-07
  -11.7200003       2.11113743E-07
  -11.7100000       2.32216024E-07
  -11.6999998       2.52533653E-07
  -11.6899996       2.71888638E-07
  -11.6800003       2.90101696E-07
  -11.6700001       3.06992348E-07
  -11.6599998       3.22380032E-07
  -11.6499996       3.36086316E-07
  -11.6400003       3.47937231E-07
  -11.6300001       3.57765884E-07
  -11.6199999       3.65414792E-07
  -11.6099997       3.70737382E-07
  -11.6000004       3.73599363E-07
  -11.5900002       3.73878493E-07
  -11.5799999       3.71465489E-07
  -11.5699997       3.66262924E-07
  -11.5600004       3.58185986E-07
  -11.5500002       3.47162540E-07
  -11.5400000       3.33134238E-07
  -11.5299997       3.16057339E-07
  -11.5200005       2.95905352E-07
  -11.5100002       2.72669524E-07
  -11.5000000       2.46360258E-07
  -11.4899998       2.17007042E-07
  -11.4799995       1.84659456E-07
  -11.4700003       1.49384931E-07
  -11.4600000       1.11266559E-07
  -11.4499998       7.04024430E-08
  -11.4399996       2.69018354E-08
  -11.4300003      -1.91168503E-08
  -11.4200001      -6.75272247E-08
  -11.4099998      -1.18196738E-07
  -11.3999996      -1.70987747E-07
  -11.3900003      -2.25757347E-07
  -11.3800001      -2.82360361E-07
  -11.3699999      -3.40647318E-07
  -11.3599997      -4.00466718E-07
  -11.3500004      -4.61664058E-07
  -11.3400002      -5.24083873E-07
  -11.3299999      -5.87567740E-07
  -11.3199997      -6.51955531E-07
  -11.3100004      -7.17084447E-07
  -11.3000002      -7.82789130E-07
  -11.2900000      -8.48902005E-07
  -11.2799997      -9.15254304E-07
  -11.2700005      -9.81678340E-07
  -11.2600002      -1.04800949E-06
  -11.2500000      -1.11409065E-06
  -11.2399998      -1.17977504E-06
  -11.2299995      -1.24492738E-06
  -11.2200003      -1.30942590E-06
  -11.2100000      -1.37316204E-06
  -11.1999998      -1.43603711E-06
  -11.1899996      -1.49795915E-06
  -11.1800003      -1.55884072E-06
  -11.1700001      -1.61859361E-06
  -11.1599998      -1.67712869E-06
  -11.1499996      -1.73435342E-06
  -11.1400003      -1.79017820E-06
  -11.1300001      -1.84451494E-06
  -11.1199999      -1.89728553E-06
  -11.1099997      -1.94842232E-06
  -11.1000004      -1.99787473E-06
  -11.0900002      -2.04561229E-06
  -11.0799999      -2.09162135E-06
  -11.0699997      -2.13590852E-06
  -11.0600004      -2.17849174E-06
  -11.0500002      -2.21940604E-06
  -11.0400000      -2.25869121E-06
  -11.0299997      -2.29639386E-06
  -11.0200005      -2.33256083E-06
  -11.0100002      -2.36724281E-06
  -11.0000000      -2.40048303E-06
  -10.9899998      -2.43231671E-06
  -10.9799995      -2.46277068E-06
  -10.9700003      -2.49186064E-06
  -10.9600000      -2.51958863E-06
  -10.9499998      -2.54593579E-06
  -10.9399996      -2.57087345E-06
  -10.9300003      -2.59435228E-06
  -10.9200001      -2.61631544E-06
  -10.9099998      -2.63670404E-06
  -10.8999996      -2.65545441E-06
  -10.8900003      -2.67250584E-06
  -10.8800001      -2.68781491E-06
  -10.8699999      -2.70134410E-06
  -10.8599997      -2.71306885E-06
  -10.8500004      -2.72298143E-06
  -10.8400002      -2.73107685E-06
  -10.8299999      -2.73736100E-06
  -10.8199997      -2.74184526E-06
  -10.8100004      -2.74453168E-06
  -10.8000002      -2.74542981E-06
  -10.7900000      -2.74454351E-06
  -10.7799997      -2.74187391E-06
  -10.7700005      -2.73743422E-06
  -10.7600002      -2.73123283E-06
  -10.7500000      -2.72329066E-06
  -10.7399998      -2.71363865E-06
  -10.7299995      -2.70231544E-06
  -10.7200003      -2.68936469E-06
  -10.7100000      -2.67484120E-06
  -10.6999998      -2.65880863E-06
  -10.6899996      -2.64132200E-06
  -10.6800003      -2.62244589E-06
  -10.6700001      -2.60223760E-06
  -10.6599998      -2.58075488E-06
  -10.6499996      -2.55805435E-06
  -10.6400003      -2.53419444E-06
  -10.6300001      -2.50923949E-06
  -10.6199999      -2.48326546E-06
  -10.6099997      -2.45635533E-06
  -10.6000004      -2.42861893E-06
  -10.5900002      -2.40018176E-06
  -10.5799999      -2.37117615E-06
  -10.5699997      -2.34177469E-06
  -10.5600004      -2.31213244E-06
  -10.5500002      -2.28243198E-06
  -10.5400000      -2.25285271E-06
  -10.5299997      -2.22357289E-06
  -10.5200005      -2.19476374E-06
  -10.5100002      -2.16658009E-06
  -10.5000000      -2.13919316E-06
  -10.4899998      -2.11273141E-06
  -10.4799995      -2.08732945E-06
  -10.4700003      -2.06310665E-06
  -10.4600000      -2.04017556E-06
  -10.4499998      -2.01863008E-06
  -10.4399996      -1.99856709E-06
  -10.4300003      -1.98006910E-06
  -10.4200001      -1.96318047E-06
  -10.4099998      -1.94796121E-06
  -10.3999996      -1.93441929E-06
  -10.3900003      -1.92257971E-06
  -10.3800001      -1.91242248E-06
  -10.3699999      -1.90391154E-06
  -10.3599997      -1.89698630E-06
  -10.3500004      -1.89155617E-06
  -10.3400002      -1.88752426E-06
  -10.3299999      -1.88477316E-06
  -10.3199997      -1.88317927E-06
  -10.3100004      -1.88259105E-06
  -10.3000002      -1.88286594E-06
  -10.2900000      -1.88386514E-06
  -10.2799997      -1.88545869E-06
  -10.2700005      -1.88752722E-06
  -10.2600002      -1.88997831E-06
  -10.2500000      -1.89274908E-06
  -10.2399998      -1.89580214E-06
  -10.2299995      -1.89911975E-06
  -10.2200003      -1.90271919E-06
  -10.2100000      -1.90663923E-06
  -10.1999998      -1.91093227E-06
  -10.1899996      -1.91564845E-06
  -10.1800003      -1.92085849E-06
  -10.1700001      -1.92662060E-06
  -10.1599998      -1.93299434E-06
  -10.1499996      -1.94002746E-06
  -10.1400003      -1.94775816E-06
  -10.1300001      -1.95623943E-06
  -10.1199999      -1.96551696E-06
  -10.1099997      -1.97563122E-06
  -10.1000004      -1.98664975E-06
  -10.0900002      -1.99863666E-06
  -10.0799999      -2.01168086E-06
  -10.0699997      -2.02586011E-06
  -10.0600004      -2.04126241E-06
  -10.0500002      -2.05798574E-06
  -10.0400000      -2.07609060E-06
  -10.0299997      -2.09564632E-06
  -10.0200005      -2.11671545E-06
  -10.0100002      -2.13932253E-06
  -10.0000000      -2.16350895E-06
  -9.98999977      -2.18928403E-06
  -9.97999954      -2.21665823E-06
  -9.97000027      -2.24563132E-06
  -9.96000004      -2.27621672E-06
  -9.94999981      -2.30842329E-06
  -9.93999958      -2.34228628E-06
  -9.93000031      -2.37783524E-06
  -9.92000008      -2.41511839E-06
  -9.90999985      -2.45422484E-06
  -9.89999962      -2.49523032E-06
  -9.89000034      -2.53819985E-06
  -9.88000011      -2.58323735E-06
  -9.86999989      -2.63041125E-06
  -9.85999966      -2.67980295E-06
  -9.85000038      -2.73147498E-06
  -9.84000015      -2.78548805E-06
  -9.82999992      -2.84191151E-06
  -9.81999969      -2.90080516E-06
  -9.81000042      -2.96223243E-06
  -9.80000019      -3.02626768E-06
  -9.78999996      -3.09298184E-06
  -9.77999973      -3.16245723E-06
  -9.77000046      -3.23475979E-06
  -9.76000023      -3.30993953E-06
  -9.75000000      -3.38804512E-06
  -9.73999977      -3.46911565E-06
  -9.72999954      -3.55316820E-06
  -9.72000027      -3.64019979E-06
  -9.71000004      -3.73018952E-06
  -9.69999981      -3.82311737E-06
  -9.68999958      -3.91893764E-06
  -9.68000031      -4.01758643E-06
  -9.67000008      -4.11897508E-06
  -9.65999985      -4.22300582E-06
  -9.64999962      -4.32953584E-06
  -9.64000034      -4.43842464E-06
  -9.63000011      -4.54949532E-06
  -9.61999989      -4.66255506E-06
  -9.60999966      -4.77740014E-06
  -9.60000038      -4.89383001E-06
  -9.59000015      -5.01160139E-06
  -9.57999992      -5.13046689E-06
  -9.56999969      -5.25018822E-06
  -9.56000042      -5.37051892E-06
  -9.55000019      -5.49119250E-06
  -9.53999996      -5.61196157E-06
  -9.52999973      -5.73254874E-06
  -9.52000046      -5.85271391E-06
  -9.51000023      -5.97222788E-06
  -9.50000000      -6.09087283E-06
  -9.48999977      -6.20847504E-06
  -9.47999954      -6.32487809E-06
  -9.47000027      -6.43995372E-06
  -9.46000004      -6.55362328E-06
  -9.44999981      -6.66580854E-06
  -9.43999958      -6.77644039E-06
  -9.43000031      -6.88551199E-06
  -9.42000008      -6.99298744E-06
  -9.40999985      -7.09888945E-06
  -9.39999962      -7.20323033E-06
  -9.39000034      -7.30603597E-06
  -9.38000011      -7.40735686E-06
  -9.36999989      -7.50728077E-06
  -9.35999966      -7.60589728E-06
  -9.35000038      -7.70333281E-06
  -9.34000015      -7.79974744E-06
  -9.32999992      -7.89530532E-06
  -9.31999969      -7.99022382E-06
  -9.31000042      -8.08474306E-06
  -9.30000019      -8.17909586E-06
  -9.28999996      -8.27357962E-06
  -9.27999973      -8.36849358E-06
  -9.27000046      -8.46415969E-06
  -9.26000023      -8.56091992E-06
  -9.25000000      -8.65910351E-06
  -9.23999977      -8.75907244E-06
  -9.22999954      -8.86116959E-06
  -9.22000027      -8.96576239E-06
  -9.21000004      -9.07321191E-06
  -9.19999981      -9.18383103E-06
  -9.18999958      -9.29796079E-06
  -9.18000031      -9.41586768E-06
  -9.17000008      -9.53782001E-06
  -9.15999985      -9.66400785E-06
  -9.14999962      -9.79458946E-06
  -9.14000034      -9.92966579E-06
  -9.13000011      -1.00692923E-05
  -9.11999989      -1.02134627E-05
  -9.10999966      -1.03620887E-05
  -9.10000038      -1.05150930E-05
  -9.09000015      -1.06723392E-05
  -9.07999992      -1.08336317E-05
  -9.06999969      -1.09987650E-05
  -9.06000042      -1.11674826E-05
  -9.05000019      -1.13395045E-05
  -9.03999996      -1.15144849E-05
  -9.02999973      -1.16921001E-05
  -9.02000046      -1.18720036E-05
  -9.01000023      -1.20537743E-05
  -9.00000000      -1.22370457E-05
  -8.98999977      -1.24213666E-05
  -8.97999954      -1.26063542E-05
  -8.97000027      -1.27915864E-05
  -8.96000004      -1.29766395E-05
  -8.94999981      -1.31611832E-05
  -8.93999958      -1.33447911E-05
  -8.93000031      -1.35270666E-05
  -8.92000008      -1.37076913E-05
  -8.90999985      -1.38863288E-05
  -8.89999962      -1.40627062E-05
  -8.89000034      -1.42365234E-05
  -8.88000011      -1.44075693E-05
  -8.86999989      -1.45757067E-05
  -8.85999966      -1.47408218E-05
  -8.85000038      -1.49028992E-05
  -8.84000015      -1.50618489E-05
  -8.82999992      -1.52177236E-05
  -8.81999969      -1.53705823E-05
  -8.81000042      -1.55205107E-05
  -8.80000019      -1.56676542E-05
  -8.78999996      -1.58120947E-05
  -8.77999973      -1.59540450E-05
  -8.77000046      -1.60936725E-05
  -8.76000023      -1.62312190E-05
  -8.75000000      -1.63670211E-05
  -8.73999977      -1.65012916E-05
  -8.72999954      -1.66344817E-05
  -8.72000027      -1.67669550E-05
  -8.71000004      -1.68990882E-05
  -8.69999981      -1.70313779E-05
  -8.68999958      -1.71641877E-05
  -8.68000031      -1.72980635E-05
  -8.67000008      -1.74334618E-05
  -8.65999985      -1.75708756E-05
  -8.64999962      -1.77108341E-05
  -8.64000034      -1.78537612E-05
  -8.63000011      -1.80001043E-05
  -8.61999989      -1.81502255E-05
  -8.60999966      -1.83044849E-05
  -8.60000038      -1.84632027E-05
  -8.59000015      -1.86266534E-05
  -8.57999992      -1.87950372E-05
  -8.56999969      -1.89685143E-05
  -8.56000042      -1.91472791E-05
  -8.55000019      -1.93313317E-05
  -8.53999996      -1.95207886E-05
  -8.52999973      -1.97156060E-05
  -8.52000046      -1.99157384E-05
  -8.51000023      -2.01211369E-05
  -8.50000000      -2.03316686E-05
  -8.48999977      -2.05471624E-05
  -8.47999954      -2.07674275E-05
  -8.47000027      -2.09921945E-05
  -8.46000004      -2.12212963E-05
  -8.44999981      -2.14544652E-05
  -8.43999958      -2.16914523E-05
  -8.43000031      -2.19320063E-05
  -8.42000008      -2.21759656E-05
  -8.40999985      -2.24231062E-05
  -8.39999962      -2.26733282E-05
  -8.39000034      -2.29264369E-05
  -8.38000011      -2.31823506E-05
  -8.36999989      -2.34411200E-05
  -8.35999966      -2.37026652E-05
  -8.35000038      -2.39670208E-05
  -8.34000015      -2.42342594E-05
  -8.32999992      -2.45043957E-05
  -8.31999969      -2.47775351E-05
  -8.31000042      -2.50537287E-05
  -8.30000019      -2.53332855E-05
  -8.28999996      -2.56161256E-05
  -8.27999973      -2.59024382E-05
  -8.27000046      -2.61923378E-05
  -8.26000023      -2.64859191E-05
  -8.25000000      -2.67832747E-05
  -8.23999977      -2.70844212E-05
  -8.22999954      -2.73893656E-05
  -8.22000027      -2.76981536E-05
  -8.21000004      -2.80108179E-05
  -8.19999981      -2.83272184E-05
  -8.18999958      -2.86474060E-05
  -8.18000031      -2.89712607E-05
  -8.17000008      -2.92988880E-05
  -8.15999985      -2.96299258E-05
  -8.14999962      -2.99644907E-05
  -8.14000034      -3.03024299E-05
  -8.13000011      -3.06436195E-05
  -8.11999989      -3.09878742E-05
  -8.10999966      -3.13350974E-05
  -8.10000038      -3.16852020E-05
  -8.09000015      -3.20378495E-05
  -8.07999992      -3.23928034E-05
  -8.06999969      -3.27499802E-05
  -8.06000042      -3.31090232E-05
  -8.05000019      -3.34697361E-05
  -8.03999996      -3.38318096E-05
  -8.02999973      -3.41949890E-05
  -8.02000046      -3.45588523E-05
  -8.01000023      -3.49231050E-05
  -8.00000000      -3.52872594E-05
  -7.98999977      -3.56508972E-05
  -7.98000002      -3.60137528E-05
  -7.96999979      -3.63751096E-05
  -7.96000004      -3.67346256E-05
  -7.94999981      -3.70916168E-05
  -7.94000006      -3.74457450E-05
  -7.92999983      -3.77963297E-05
  -7.92000008      -3.81428436E-05
  -7.90999985      -3.84848245E-05
  -7.90000010      -3.88218359E-05
  -7.88999987      -3.91532340E-05
  -7.88000011      -3.94786803E-05
  -7.86999989      -3.97978911E-05
  -7.86000013      -4.01104298E-05
  -7.84999990      -4.04160783E-05
  -7.84000015      -4.07147309E-05
  -7.82999992      -4.10062385E-05
  -7.82000017      -4.12907539E-05
  -7.80999994      -4.15681607E-05
  -7.80000019      -4.18387317E-05
  -7.78999996      -4.21025979E-05
  -7.78000021      -4.23601050E-05
  -7.76999998      -4.26116821E-05
  -7.76000023      -4.28575513E-05
  -7.75000000      -4.30981527E-05
  -7.73999977      -4.33341811E-05
  -7.73000002      -4.35659676E-05
  -7.71999979      -4.37941962E-05
  -7.71000004      -4.40192962E-05
  -7.69999981      -4.42419914E-05
  -7.69000006      -4.44627913E-05
  -7.67999983      -4.46823469E-05
  -7.67000008      -4.49013678E-05
  -7.65999985      -4.51204287E-05
  -7.65000010      -4.53402463E-05
  -7.63999987      -4.55614500E-05
  -7.63000011      -4.57848291E-05
  -7.61999989      -4.60110095E-05
  -7.61000013      -4.62407988E-05
  -7.59999990      -4.64748809E-05
  -7.59000015      -4.67141836E-05
  -7.57999992      -4.69595325E-05
  -7.57000017      -4.72118409E-05
  -7.55999994      -4.74718217E-05
  -7.55000019      -4.77403482E-05
  -7.53999996      -4.80184317E-05
  -7.53000021      -4.83066215E-05
  -7.51999998      -4.86060781E-05
  -7.51000023      -4.89172126E-05
  -7.50000000      -4.92409345E-05
  -7.48999977      -4.95778404E-05
  -7.48000002      -4.99286762E-05
  -7.46999979      -5.02940384E-05
  -7.46000004      -5.06746110E-05
  -7.44999981      -5.10708778E-05
  -7.44000006      -5.14833446E-05