  -16.0000000       0.00000000    
  -15.9899998       0.00000000    
  -15.9799995       0.00000000    
  -15.9700003       0.00000000    
  -15.9600000       0.00000000    
  -15.9499998       0.00000000    
  -15.9399996       0.00000000    
  -15.9300003       0.00000000    
  -15.9200001       0.00000000    
  -15.9099998       0.00000000    
  -15.8999996       0.00000000    
  -15.8900003       0.00000000    
  -15.8800001       0.00000000    
  -15.8699999      -6.02558340E-43
  -15.8599997      -2.72762746E-41
  -15.8500004      -6.32096310E-40
  -15.8400002      -9.01362116E-39
  -15.8299999      -9.15886098E-38
  -15.8199997      -7.17257063E-37
  -15.8100004      -4.55243262E-36
  -15.8000002      -2.42310281E-35
  -15.7900000      -1.10871789E-34
  -15.7799997      -4.44124265E-34
  -15.7700005      -1.57865604E-33
  -15.7600002      -5.02867777E-33
  -15.7500000      -1.44536963E-32
  -15.7399998      -3.76391352E-32
  -15.7299995      -8.89129527E-32
  -15.7200003      -1.90091413E-31
  -15.7100000      -3.65096250E-31
  -15.6999998      -6.19553890E-31
  -15.6899996      -8.94796268E-31
  -15.6800003      -9.92148829E-31
  -15.6700001      -4.87364942E-31
  -15.6599998       1.29724829E-30
  -15.6499996       5.13350759E-30
  -15.6400003       1.13763606E-29
  -15.6300001       1.90079836E-29
  -15.6199999       2.44127344E-29
  -15.6099997       2.05519129E-29
  -15.6000004      -2.23010199E-30
  -15.5900002      -5.23275828E-29
  -15.5799999      -1.29239252E-28
  -15.5699997      -2.13672635E-28
  -15.5600004      -2.60186732E-28
  -15.5500002      -2.00062930E-28
  -15.5400000       3.80341854E-29
  -15.5299997       4.87538380E-28
  -15.5200005       1.09224764E-27
  -15.5100002       1.66370322E-27
  -15.5000000       1.87361206E-27
  -15.4899998       1.30210044E-27
  -15.4799995      -4.48939518E-28
  -15.4700003      -3.57230615E-27
  -15.4600000      -7.78465660E-27
  -15.4499998      -1.19466058E-26
  -15.4399996      -1.36296367E-26
  -15.4300003      -8.93855981E-27
  -15.4200001       6.68061264E-27
  -15.4099998       3.56175598E-26
  -15.3999996       7.27072081E-26
  -15.3900003       9.87557095E-26
  -15.3800001       7.81759000E-26
  -15.3699999      -3.03979137E-26
  -15.3599997      -2.42236751E-25
  -15.3500004      -4.95605216E-25
  -15.3400002      -6.07193930E-25
  -15.3299999      -2.88223299E-25
  -15.3199997       7.12035467E-25
  -15.3100004       2.30731027E-24
  -15.3000002       3.70981996E-24
  -15.2900000       3.27207039E-24
  -15.2799997      -1.04308011E-24
  -15.2700005      -1.02076787E-23
  -15.2600002      -2.18162229E-23
  -15.2500000      -2.79990243E-23
  -15.2399998      -1.57606883E-23
  -15.2299995       2.75995389E-23
  -15.2200003       1.02700123E-22
  -15.2100000       1.82715483E-22
  -15.1999998       2.03547318E-22
  -15.1899996       7.42938788E-23
  -15.1800003      -2.77675277E-22
  -15.1700001      -8.25470564E-22
  -15.1599998      -1.35142177E-21
  -15.1499996      -1.40805012E-21
  -15.1400003      -4.18084390E-22
  -15.1300001       2.01748988E-21
  -15.1199999       5.62329780E-21
  -15.1099997       8.94790026E-21
  -15.1000004       9.22545813E-21
  -15.0900002       3.06424252E-21
  -15.0799999      -1.17268701E-20
  -15.0699997      -3.33835200E-20
  -15.0600004      -5.35684136E-20
  -15.0500002      -5.68516582E-20
  -15.0400000      -2.45931847E-20
  -15.0299997       5.53975458E-20
  -15.0200005       1.74732056E-19
  -15.0100002       2.91289042E-19
  -15.0000000       3.26573956E-19
  -14.9899998       1.84417733E-19
  -14.9799995      -2.02791819E-19
  -14.9700003      -8.06617626E-19
  -14.9600000      -1.43871762E-18
  -14.9499998      -1.73353957E-18
  -14.9399996      -1.22604865E-18
  -14.9300003       4.46811999E-19
  -14.9200001       3.24512860E-18
  -14.9099998       6.42820417E-18
  -14.8999996       8.43947564E-18
  -14.8900003       7.18143070E-18
  -14.8800001       8.14306477E-19
  -14.8699999      -1.09926273E-17
  -14.8599997      -2.57400458E-17
  -14.8500004      -3.74066922E-17
  -14.8400002      -3.72275414E-17
  -14.8299999      -1.65536873E-17
  -14.8199997       2.83238983E-17
  -14.8100004       9.06626149E-17
  -14.8000002       1.49587990E-16
  -14.7900000       1.71464880E-16
  -14.7799997       1.18979767E-16
  -14.7700005      -3.17632723E-17
  -14.7600002      -2.69839312E-16
  -14.7500000      -5.32135585E-16
  -14.7399998      -7.01560068E-16
  -14.7299995      -6.31604305E-16
  -14.7200003      -2.01302819E-16
  -14.7100000       6.08240966E-16
  -14.6999998       1.64076296E-15
  -14.6899996       2.53343129E-15
  -14.6800003       2.76750715E-15
  -14.6700001       1.82495430E-15
  -14.6599998      -5.62739732E-16
  -14.6499996      -4.13949448E-15
  -14.6400003      -7.93918391E-15
  -14.6300001      -1.03280743E-14
  -14.6199999      -9.38266188E-15
  -14.6099997      -3.61278822E-15
  -14.6000004       7.11483027E-15
  -14.5900002       2.07669981E-14
  -14.5799999       3.28770011E-14
  -14.5699997       3.72271895E-14
  -14.5600004       2.76717786E-14
  -14.5500002       8.79423222E-16
  -14.5400000      -4.07434875E-14
  -14.5299997      -8.71354990E-14
  -14.5200005      -1.21003522E-13
  -14.5100002      -1.21557671E-13
  -14.5000000      -7.15753886E-14
  -14.4899998       3.35999234E-14
  -14.4799995       1.77994162E-13
  -14.4700003       3.21684167E-13
  -14.4600000       4.05807441E-13
  -14.4499998       3.67666509E-13
  -14.4399996       1.64330436E-13
  -14.4300003      -2.01028701E-13
  -14.4200001      -6.59464779E-13
  -14.4099998      -1.07403864E-12
  -14.3999996      -1.26347858E-12
  -14.3900003      -1.05345940E-12
  -14.3800001      -3.47107082E-13
  -14.3699999       8.04654086E-13
  -14.3599997       2.16007290E-12
  -14.3500004       3.29844919E-12
  -14.3400002       3.70447683E-12
  -14.3299999       2.92193765E-12
  -14.3199997       7.46443001E-13
  -14.3100004      -2.59942502E-12
  -14.3000002      -6.37982072E-12
  -14.2900000      -9.41335117E-12
  -14.2799997      -1.03274672E-11
  -14.2700005      -7.97620303E-12
  -14.2600002      -1.93062862E-12
  -14.2500000       7.10628778E-12
  -14.2399998       1.71340980E-11
  -14.2299995       2.50829756E-11
  -14.2200003       2.74918682E-11
  -14.2100000       2.15542618E-11
  -14.1999998       6.29554481E-12
  -14.1899996      -1.64760410E-11
  -14.1800003      -4.18405831E-11
  -14.1700001      -6.23700536E-11
  -14.1599998      -6.97574845E-11
  -14.1499996      -5.72520469E-11
  -14.1400003      -2.23462793E-11
  -14.1300001       3.10881529E-11
  -14.1199999       9.20719126E-11
  -14.1099997       1.43848447E-10
  -14.1000004       1.67445030E-10
  -14.0900002       1.46967050E-10
  -14.0799999       7.54448587E-11
  -14.0699997      -4.04524921E-11
  -14.0600004      -1.78614942E-10
  -14.0500002      -3.03945064E-10
  -14.0400000      -3.75436654E-10
  -14.0299997      -3.56927127E-10
  -14.0200005      -2.29192165E-10
  -14.0100002      -7.35643778E-14
  -14.0000000       2.90894503E-10
  -13.9899998       5.76082959E-10
  -13.9799995       7.72506170E-10
  -13.9700003       8.02095723E-10
  -13.9600000       6.15326623E-10
  -13.9499998       2.12065476E-10
  -13.9399996      -3.47032320E-10
  -13.9300003      -9.43926270E-10
  -13.9200001      -1.42363010E-09
  -13.9099998      -1.62943814E-09
  -13.8999996      -1.44600176E-09
  -13.8900003      -8.39676606E-10
  -13.8800001       1.15742638E-10
  -13.8699999       1.23795996E-09
  -13.8599997       2.26474484E-09
  -13.8500004       2.90966362E-09
  -13.8400002       2.93449975E-09
  -13.8299999       2.22130403E-09
  -13.8199997       8.24223911E-10
  -13.8100004      -1.01636299E-09
  -13.8000002      -2.90743118E-09
  -13.7900000      -4.38281855E-09
  -13.7799997      -5.01406161E-09
  -13.7700005      -4.52704008E-09
  -13.7600002      -2.89362601E-09
  -13.7500000      -3.70260267E-10
  -13.7399998       2.53399524E-09
  -13.7299995       5.15995646E-09
  -13.7200003       6.85200785E-09
  -13.7100000       7.12698700E-09
  -13.6999998       5.81394399E-09
  -13.6899996       3.12336113E-09
  -13.6800003      -3.80100895E-10
  -13.6700001      -3.90284782E-09
  -13.6599998      -6.61928956E-09
  -13.6499996      -7.89095722E-09
  -13.6400003      -7.44683204E-09
  -13.6300001      -5.46919665E-09
  -13.6199999      -2.55193355E-09
  -13.6099997       4.66987671E-10
  -13.6000004       2.75861778E-09
  -13.5900002       3.77053899E-09
  -13.5799999       3.42512019E-09
  -13.5699997       2.17632135E-09
  -13.5600004       8.88617291E-10
  -13.5500002       5.53609047E-10
  -13.5400000       1.91456895E-09
  -13.5299997       5.10999110E-09
  -13.5200005       9.45955403E-09
  -13.5100002       1.34916611E-08
  -13.5000000       1.52525406E-08
  -13.4899998       1.28556294E-08
  -13.4799995       5.14686072E-09
  -13.4700003      -7.69718689E-09
  -13.4600000      -2.38366269E-08
  -13.4499998      -3.98573228E-08
  -13.4399996      -5.13438714E-08
  -13.4300003      -5.38698863E-08
  -13.4200001      -4.42094397E-08
  -13.4099998      -2.14756621E-08
  -13.3999996       1.21356134E-08
  -13.3900003       5.12660527E-08
  -13.3800001       8.81118609E-08
  -13.3699999       1.13879480E-07
  -13.3599997       1.20722973E-07
  -13.3500004       1.03743645E-07
  -13.3400002       6.25650074E-08
  -13.3299999       2.04423212E-09
  -13.3199997      -6.81527936E-08
  -13.3100004      -1.35132012E-07
  -13.3000002      -1.85243692E-07
  -13.2900000      -2.06940243E-07
  -13.2799997      -1.93384096E-07
  -13.2700005      -1.44178046E-07
  -13.2600002      -6.57784014E-08
  -13.2500000       2.95650526E-08
  -13.2399998       1.26137124E-07
  -13.2299995       2.07837573E-07
  -13.2200003       2.61303427E-07
  -13.2100000       2.78344913E-07
  -13.1999998       2.57138964E-07
  -13.1899996       2.01957988E-07
  -13.1800003       1.21588513E-07
  -13.1700001       2.69621765E-08
  -13.1599998      -7.12799277E-08
  -13.1499996      -1.64563431E-07
  -13.1400003      -2.46996336E-07
  -13.1300001      -3.14710746E-07
  -13.1199999      -3.64266555E-07
  -13.1099997      -3.90823715E-07
  -13.1000004      -3.86971863E-07
  -13.0900002      -3.42978893E-07
  -13.0799999      -2.48865064E-07
  -13.0699997      -9.81013955E-08
  -13.0600004       1.07874932E-07
  -13.0500002       3.55627776E-07
  -13.0400000       6.17644787E-07
  -13.0299997       8.53454139E-07
  -13.0200005       1.01454339E-06
  -13.0100002       1.05275888E-06
  -13.0000000       9.30851343E-07
  -12.9899998       6.33072659E-07
  -12.9799995       1.73258144E-07
  -12.9700003      -4.01900138E-07
  -12.9600000      -1.01593844E-06
  -12.9499998      -1.57233137E-06
  -12.9399996      -1.96963060E-06
  -12.9300003      -2.11952897E-06
  -12.9200001      -1.96439987E-06
  -12.9099998      -1.49082621E-06
  -12.8999996      -7.36088964E-07
  -12.8900003       2.13989225E-07
  -12.8800001       1.23583243E-06
  -12.8699999       2.18577497E-06
  -12.8599997       2.92152208E-06
  -12.8500004       3.32357899E-06
  -12.8400002       3.31309502E-06
  -12.8299999       2.86326554E-06
  -12.8199997       2.00305271E-06
  -12.8100004       8.13323993E-07
  -12.8000002      -5.83052497E-07
  -12.7900000      -2.03495529E-06
  -12.7799997      -3.37828305E-06
  -12.7700005      -4.45101796E-06
  -12.7600002      -5.10711061E-06
  -12.7500000      -5.22924256E-06
  -12.7399998      -4.74078706E-06
  -12.7299995      -3.61740467E-06
  -12.7200003      -1.89781349E-06
  -12.7100000       3.07782415E-07
  -12.6999998       2.81418352E-06
  -12.6899996       5.36587777E-06
  -12.6800003       7.65283858E-06
  -12.6700001       9.33900810E-06
  -12.6599998       1.01025216E-05
  -12.6499996       9.68401309E-06
  -12.6400003       7.93611071E-06
  -12.6300001       4.86563249E-06
  -12.6199999       6.59459317E-07
  -12.6099997      -4.31363605E-06
  -12.6000004      -9.52900609E-06
  -12.5900002      -1.43594843E-05
  -12.5799999      -1.81503237E-05
  -12.5699997      -2.03050477E-05
  -12.5600004      -2.03696436E-05
  -12.5500002      -1.81009837E-05
  -12.5400000      -1.35089786E-05
  -12.5299997      -6.86505382E-06
  -12.5200005       1.32327909E-06
  -12.5100002       1.03671355E-05
  -12.5000000       1.94702297E-05
  -12.4899998       2.78100197E-05
  -12.4799995       3.46133602E-05
  -12.4700003       3.92174588E-05
  -12.4600000       4.11098481E-05
  -12.4499998       3.99471573E-05
  -12.4399996       3.55559314E-05
  -12.4300003       2.79208798E-05
  -12.4200001       1.71677002E-05
  -12.4099998       3.54430836E-06
  -12.3999996      -1.25969145E-05
  -12.3900003      -3.08179224E-05
  -12.3800001      -5.06168217E-05
  -12.3699999      -7.14571288E-05
  -12.3599997      -9.28062364E-05
  -12.3500004      -1.14179202E-04
  -12.3400002      -1.35184921E-04
  -12.3299999      -1.55562229E-04
  -12.3199997      -1.75196416E-04
  -12.3100004      -1.94106164E-04
  -12.3000002      -2.12392290E-04
  -12.2900000      -2.30160440E-04
  -12.2799997      -2.47411343E-04
  -12.2700005      -2.63934286E-04
  -12.2600002      -2.79207743E-04
  -12.2500000      -2.92345678E-04
  -12.2399998      -3.02089029E-04
  -12.2299995      -3.06874077E-04
  -12.2200003      -3.04949528E-04
  -12.2100000      -2.94551690E-04
  -12.1999998      -2.74096848E-04
  -12.1899996      -2.42375201E-04
  -12.1800003      -1.98703186E-04
  -12.1700001      -1.43029567E-04
  -12.1599998      -7.59548057E-05
  -12.1499996       1.30337310E-06
  -12.1400003       8.70262738E-05
  -12.1300001       1.79145150E-04
  -12.1199999       2.75410188E-04
  -12.1099997       3.73560237E-04
  -12.1000004       4.71464155E-04
  -12.0900002       5.67225390E-04
  -12.0799999       6.59242796E-04
  -12.0699997       7.46230711E-04
  -12.0600004       8.27215030E-04
  -12.0500002       9.01496096E-04
  -12.0400000       9.68609937E-04
  -12.0299997       1.02827977E-03
  -12.0200005       1.08036050E-03
  -12.0100002       1.12478517E-03
  -12.0000000       1.16150815E-03
  -11.9899998       1.19043724E-03
  -11.9799995       1.21137651E-03
  -11.9700003       1.22396857E-03
  -11.9600000       1.22765393E-03
  -11.9499998       1.22165959E-03
  -11.9399996       1.20501406E-03
  -11.9300003       1.17660651E-03
  -11.9200001       1.13525405E-03
  -11.9099998       1.07982161E-03
  -11.8999996       1.00931607E-03
  -11.8900003       9.22988984E-04
  -11.8800001       8.20403278E-04
  -11.8699999       7.01478450E-04
  -11.8599997       5.66480623E-04
  -11.8500004       4.15997492E-04
  -11.8400002       2.50886282E-04
  -11.8299999       7.22071636E-05
  -11.8199997      -1.18818651E-04
  -11.8100004      -3.20866791E-04
  -11.8000002      -5.32506383E-04
  -11.7900000      -7.52220862E-04
  -11.7799997      -9.78376949E-04
  -11.7700005      -1.20922260E-03
  -11.7600002      -1.44286628E-03
  -11.7500000      -1.67728961E-03
  -11.7399998      -1.91035680E-03
  -11.7299995      -2.13984144E-03
  -11.7200003      -2.36347062E-03
  -11.7100000      -2.57894979E-03
  -11.6999998      -2.78400024E-03
  -11.6899996      -2.97637493E-03
  -11.6800003      -3.15388106E-03
  -11.6700001      -3.31439264E-03
  -11.6599998      -3.45586729E-03
  -11.6499996      -3.57638951E-03
  -11.6400003      -3.67419282E-03
  -11.6300001      -3.74773168E-03
  -11.6199999      -3.79570574E-03
  -11.6099997      -3.81712336E-03
  -11.6000004      -3.81130166E-03
  -11.5900002      -3.77785787E-03
  -11.5799999      -3.71666416E-03
  -11.5699997      -3.62775149E-03
  -11.5600004      -3.51122883E-03
  -11.5500002      -3.36716976E-03
  -11.5400000      -3.19553702E-03
  -11.5299997      -2.99613294E-03
  -11.5200005      -2.76859477E-03
  -11.5100002      -2.51244591E-03
  -11.5000000      -2.22717179E-03
  -11.4899998      -1.91233691E-03
  -11.4799995      -1.56768889E-03
  -11.4700003      -1.19324587E-03
  -11.4600000      -7.89351994E-04
  -11.4499998      -3.56693869E-04
  -11.4399996       1.03737795E-04
  -11.4300003       5.90705022E-04
  -11.4200001       1.10280991E-03
  -11.4099998       1.63855974E-03
  -11.3999996       2.19642580E-03
  -11.3900003       2.77487235E-03
  -11.3800001       3.37235699E-03
  -11.3699999       3.98728484E-03
  -11.3599997       4.61800443E-03
  -11.3500004       5.26274368E-03
  -11.3400002       5.91961341E-03
  -11.3299999       6.58662012E-03
  -11.3199997       7.26168882E-03
  -11.3100004       7.94271566E-03
  -11.3000002       8.62764567E-03
  -11.2900000       9.31449886E-03
  -11.2799997       1.00014238E-02
  -11.2700005       1.06867170E-02
  -11.2600002       1.13688214E-02
  -11.2500000       1.20462952E-02
  -11.2399998       1.27178282E-02
  -11.2299995       1.33821974E-02
  -11.2200003       1.40382955E-02
  -11.2100000       1.46851456E-02
  -11.1999998       1.53219253E-02
  -11.1899996       1.59480050E-02
  -11.1800003       1.65629592E-02
  -11.1700001       1.71666183E-02
  -11.1599998       1.77590121E-02
  -11.1499996       1.83403678E-02
  -11.1400003       1.89110562E-02
  -11.1300001       1.94715299E-02
  -11.1199999       2.00222749E-02
  -11.1099997       2.05637403E-02
  -11.1000004       2.10963301E-02
  -11.0900002       2.16203276E-02
  -11.0799999       2.21358910E-02
  -11.0699997       2.26430483E-02
  -11.0600004       2.31416468E-02
  -11.0500002       2.36313418E-02
  -11.0400000       2.41115987E-02
  -11.0299997       2.45816559E-02
  -11.0200005       2.50405725E-02
  -11.0100002       2.54872032E-02
  -11.0000000       2.59203054E-02
  -10.9899998       2.63385754E-02
  -10.9799995       2.67406907E-02
  -10.9700003       2.71255076E-02
  -10.9600000       2.74920017E-02
  -10.9499998       2.78394613E-02
  -10.9399996       2.81673986E-02
  -10.9300003       2.84756534E-02
  -10.9200001       2.87643336E-02
  -10.9099998       2.90337596E-02
  -10.8999996       2.92844456E-02
  -10.8900003       2.95170285E-02
  -10.8800001       2.97321882E-02
  -10.8699999       2.99306065E-02
  -10.8599997       3.01129110E-02
  -10.8500004       3.02796979E-02
  -10.8400002       3.04314233E-02
  -10.8299999       3.05683985E-02
  -10.8199997       3.06908060E-02
  -10.8100004       3.07986401E-02
  -10.8000002       3.08916233E-02
  -10.7900000       3.09693310E-02
  -10.7799997       3.10310610E-02
  -10.7700005       3.10758781E-02
  -10.7600002       3.11026908E-02
  -10.7500000       3.11102923E-02
  -10.7399998       3.10974289E-02
  -10.7299995       3.10628749E-02
  -10.7200003       3.10056154E-02
  -10.7100000       3.09247784E-02
  -10.6999998       3.08198743E-02
  -10.6899996       3.06907315E-02
  -10.6800003       3.05375513E-02
  -10.6700001       3.03608943E-02
  -10.6599998       3.01617272E-02
  -10.6499996       2.99413223E-02
  -10.6400003       2.97013242E-02
  -10.6300001       2.94436384E-02
  -10.6199999       2.91705020E-02
  -10.6099997       2.88844332E-02
  -10.6000004       2.85882596E-02
  -10.5900002       2.82849967E-02
  -10.5799999       2.79778857E-02
  -10.5699997       2.76702475E-02
  -10.5600004       2.73654219E-02
  -10.5500002       2.70666908E-02
  -10.5400000       2.67770402E-02
  -10.5299997       2.64991987E-02
  -10.5200005       2.62354389E-02
  -10.5100002       2.59874985E-02
  -10.5000000       2.57566534E-02
  -10.4899998       2.55435389E-02
  -10.4799995       2.53483001E-02
  -10.4700003       2.51705684E-02
  -10.4600000       2.50095464E-02
  -10.4499998       2.48640999E-02
  -10.4399996       2.47327518E-02
  -10.4300003       2.46138852E-02
  -10.4200001       2.45057568E-02
  -10.4099998       2.44065225E-02
  -10.3999996       2.43144557E-02
  -10.3900003       2.42278576E-02
  -10.3800001       2.41451636E-02
  -10.3699999       2.40649935E-02
  -10.3599997       2.39861980E-02
  -10.3500004       2.39077974E-02
  -10.3400002       2.38291230E-02
  -10.3299999       2.37496216E-02
  -10.3199997       2.36691311E-02
  -10.3100004       2.35875715E-02
  -10.3000002       2.35050935E-02
  -10.2900000       2.34220177E-02
  -10.2799997       2.33388189E-02
  -10.2700005       2.32560840E-02
  -10.2600002       2.31745411E-02
  -10.2500000       2.30949800E-02
  -10.2399998       2.30184514E-02
  -10.2299995       2.29459740E-02
  -10.2200003       2.28788331E-02
  -10.2100000       2.28184406E-02
  -10.1999998       2.27664057E-02
  -10.1899996       2.27244422E-02
  -10.1800003       2.26943567E-02
  -10.1700001       2.26780772E-02
  -10.1599998       2.26775091E-02
  -10.1499996       2.26944797E-02
  -10.1400003       2.27306467E-02
  -10.1300001       2.27875169E-02
  -10.1199999       2.28663739E-02
  -10.1099997       2.29681954E-02
  -10.1000004       2.30938289E-02
  -10.0900002       2.32437700E-02
  -10.0799999       2.34185345E-02
  -10.0699997       2.36184429E-02
  -10.0600004       2.38438509E-02
  -10.0500002       2.40950678E-02
  -10.0400000       2.43724827E-02
  -10.0299997       2.46766154E-02
  -10.0200005       2.50079222E-02
  -10.0100002       2.53669024E-02
  -10.0000000       2.57540587E-02
  -9.98999977       2.61698849E-02
  -9.97999954       2.66148020E-02
  -9.97000027       2.70893015E-02
  -9.96000004       2.75937933E-02
  -9.94999981       2.81286966E-02
  -9.93999958       2.86945496E-02
  -9.93000031       2.92919260E-02
  -9.92000008       2.99215037E-02
  -9.90999985       3.05841379E-02
  -9.89999962       3.12807187E-02
  -9.89000034       3.20123583E-02
  -9.88000011       3.27803157E-02
  -9.86999989       3.35858762E-02
  -9.85999966       3.44304107E-02
  -9.85000038       3.53154279E-02
  -9.84000015       3.62422764E-02
  -9.82999992       3.72124575E-02
  -9.81999969       3.82273234E-02
  -9.81000042       3.92884240E-02
  -9.80000019       4.03970070E-02
  -9.78999996       4.15545180E-02
  -9.77999973       4.27620858E-02
  -9.77000046       4.40208688E-02
  -9.76000023       4.53316346E-02
  -9.75000000       4.66948710E-02
  -9.73999977       4.81105931E-02
  -9.72999954       4.95782197E-02
  -9.72000027       5.10966443E-02
  -9.71000004       5.26641458E-02
  -9.69999981       5.42783551E-02
  -9.68999958       5.59363142E-02
  -9.68000031       5.76346256E-02
  -9.67000008       5.93693480E-02
  -9.65999985       6.11361340E-02
  -9.64999962       6.29302040E-02
  -9.64000034       6.47463202E-02
  -9.63000011       6.65786788E-02
  -9.61999989       6.84214234E-02
  -9.60999966       7.02681914E-02
  -9.60000038       7.21127167E-02
  -9.59000015       7.39487335E-02
  -9.57999992       7.57703260E-02
  -9.56999969       7.75717199E-02
  -9.56000042       7.93478787E-02
  -9.55000019       8.10939223E-02
  -9.53999996       8.28055516E-02
  -9.52999973       8.44785422E-02
  -9.52000046       8.61092582E-02
  -9.51000023       8.76938477E-02
  -9.50000000       8.92290249E-02
  -9.48999977       9.07114521E-02
  -9.47999954       9.21384394E-02
  -9.47000027       9.35076475E-02
  -9.46000004       9.48171839E-02
  -9.44999981       9.60662067E-02
  -9.43999958       9.72543880E-02
  -9.43000031       9.83823836E-02
  -9.42000008       9.94514078E-02
  -9.40999985      0.100463696    
  -9.39999962      0.101422720    
  -9.39000034      0.102332361    
  -9.38000011      0.103198059    
  -9.36999989      0.104025990    
  -9.35999966      0.104823627    
  -9.35000038      0.105599545    
  -9.34000015      0.106363013    
  -9.32999992      0.107124247    
  -9.31999969      0.107894182    
  -9.31000042      0.108684115    
  -9.30000019      0.109505370    
  -9.28999996      0.110369794    
  -9.27999973      0.111288868    
  -9.27000046      0.112273879    
  -9.26000023      0.113336183    
  -9.25000000      0.114486374    
  -9.23999977      0.115734503    
  -9.22999954      0.117090367    
  -9.22000027      0.118562087    
  -9.21000004      0.120157681    
  -9.19999981      0.121883325    
  -9.18999958      0.123744331    
  -9.18000031      0.125744537    
  -9.17000008      0.127886727    
  -9.15999985      0.130171791    
  -9.14999962      0.132599518    
  -9.14000034      0.135168165    
  -9.13000011      0.137874544    
  -9.11999989      0.140714094    
  -9.10999966      0.143681094    
  -9.10000038      0.146767914    
  -9.09000015      0.149965987    
  -9.07999992      0.153265610    
  -9.06999969      0.156655505    
  -9.06000042      0.160123795    
  -9.05000019      0.163657039    
  -9.03999996      0.167241484    
  -9.02999973      0.170862779    
  -9.02000046      0.174505547    
  -9.01000023      0.178154141    
  -9.00000000      0.181793183    
  -8.98999977      0.185406730    
  -8.97999954      0.188979551    
  -8.97000027      0.192495525    
  -8.96000004      0.195939973    
  -8.94999981      0.199297935    
  -8.93999958      0.202555060    
  -8.93000031      0.205697447    
  -8.92000008      0.208711758    
  -8.90999985      0.211585343    
  -8.89999962      0.214306310    
  -8.89000034      0.216863841    
  -8.88000011      0.219247580    
  -8.86999989      0.221448556    
  -8.85999966      0.223459378    
  -8.85000038      0.225273237    
  -8.84000015      0.226885185    
  -8.82999992      0.228291377    
  -8.81999969      0.229489252    
  -8.81000042      0.230477870    
  -8.80000019      0.231257617    
  -8.78999996      0.231830060    
  -8.77999973      0.232198119    
  -8.77000046      0.232366443    
  -8.76000023      0.232341170    
  -8.75000000      0.232129544    
  -8.73999977      0.231740490    
  -8.72999954      0.231184080    
  -8.72000027      0.230471671    
  -8.71000004      0.229615286    
  -8.69999981      0.228628010    
  -8.68999958      0.227522880    
  -8.68000031      0.226314023    
  -8.67000008      0.225015610    
  -8.65999985      0.223641649    
  -8.64999962      0.222206831    
  -8.64000034      0.220724851    
  -8.63000011      0.219210714    
  -8.61999989      0.217677623    
  -8.60999966      0.216139466    
  -8.60000038      0.214607984    
  -8.59000015      0.213095903    
  -8.57999992      0.211613357    
  -8.56999969      0.210170522    
  -8.56000042      0.208775893    
  -8.55000019      0.207437798    
  -8.53999996      0.206163391    
  -8.52999973      0.204958498    
  -8.52000046      0.203829110    
  -8.51000023      0.202779382    
  -8.50000000      0.201813430    
  -8.48999977      0.200934172    
  -8.47999954      0.200144336    
  -8.47000027      0.199445158    
  -8.46000004      0.198838085    
  -8.44999981      0.198323235    
  -8.43999958      0.197902098    
  -8.43000031      0.197574064    
  -8.42000008      0.197339654    
  -8.40999985      0.197198778    
  -8.39999962      0.197151706    
  -8.39000034      0.197198927    
  -8.38000011      0.197340652    
  -8.36999989      0.197577000    
  -8.35999966      0.197909400    
  -8.35000038      0.198338971    
  -8.34000015      0.198867247    
  -8.32999992      0.199496865    
  -8.31999969      0.200230047    
  -8.31000042      0.201070935    
  -8.30000019      0.202022851    
  -8.28999996      0.203090087    
  -8.27999973      0.204277426    
  -8.27000046      0.205589831    
  -8.26000023      0.207031876    
  -8.25000000      0.208609655    
  -8.23999977      0.210328802    
  -8.22999954      0.212194905    
  -8.22000027      0.214213952    
  -8.21000004      0.216392100    
  -8.19999981      0.218735680    
  -8.18999958      0.221251398    
  -8.18000031      0.223944545    
  -8.17000008      0.226821870    
  -8.15999985      0.229888275    
  -8.14999962      0.233149320    
  -8.14000034      0.236608997    
  -8.13000011      0.240269989    
  -8.11999989      0.244136527    
  -8.10999966      0.248209313    
  -8.10000038      0.252489865    
  -8.09000015      0.256979436    
  -8.07999992      0.261677891    
  -8.06999969      0.266583622    
  -8.06000042      0.271695316    
  -8.05000019      0.277010053    
  -8.03999996      0.282524377    
  -8.02999973      0.288232356    
  -8.02000046      0.294128418    
  -8.01000023      0.300205410    
  -8.00000000      0.306455493    
  -7.98999977      0.312870055    
  -7.98000002      0.319440037    
  -7.96999979      0.326155543    
  -7.96000004      0.333006829    
  -7.94999981      0.339983821    
  -7.94000006      0.347074598    
  -7.92999983      0.354268432    
  -7.92000008      0.361554503    
  -7.90999985      0.368919611    
  -7.90000010      0.376353204    
  -7.88999987      0.383842856    
  -7.88000011      0.391378045    
  -7.86999989      0.398946643    
  -7.86000013      0.406536818    
  -7.84999990      0.414137781    
  -7.84000015      0.421738118    
  -7.82999992      0.429326445    
  -7.82000017      0.436891764    
  -7.80999994      0.444424421    
  -7.80000019      0.451914847    
  -7.78999996      0.459353596    
  -7.78000021      0.466733694    
  -7.76999998      0.474048346    
  -7.76000023      0.481289327    
  -7.75000000      0.488451600    
  -7.73999977      0.495528579    
  -7.73000002      0.502515912    
  -7.71999979      0.509406865    
  -7.71000004      0.516202092    
  -7.69999981      0.522896111    
  -7.69000006      0.529490054    
  -7.67999983      0.535986364    
  -7.67000008      0.542385399    
  -7.65999985      0.548690975    
  -7.65000010      0.554907382    
  -7.63999987      0.561039865    
  -7.63000011      0.567092955    
  -7.61999989      0.573071063    
  -7.61000013      0.578981996    
  -7.59999990      0.584831953    
  -7.59000015      0.590630889    
  -7.57999992      0.596388280    
  -7.57000017      0.602115154    
  -7.55999994      0.607822001    
  -7.55000019      0.613519788    
  -7.53999996      0.619222224    
  -7.53000021      0.624938965    
  -7.51999998      0.630681276    
  -7.51000023      0.636461079    
  -7.50000000      0.642290294    
  -7.48999977      0.648179650    
  -7.48000002      0.654142797    
  -7.46999979      0.660190642    
  -7.46000004      0.666334391    
  -7.44999981      0.672584713    
  -7.44000006      0.678952396    