  -16.0000000       0.00000000    
  -15.9899998       0.00000000    
  -15.9799995       0.00000000    
  -15.9700003       0.00000000    
  -15.9600000       0.00000000    
  -15.9499998       0.00000000    
  -15.9399996       0.00000000    
  -15.9300003       0.00000000    
  -15.9200001       0.00000000    
  -15.9099998       0.00000000    
  -15.8999996       0.00000000    
  -15.8900003       0.00000000    
  -15.8800001       0.00000000    
  -15.8699999      -2.02529107E-39
  -15.8599997      -2.51541314E-38
  -15.8500004      -1.12880264E-37
  -15.8400002       4.87386179E-38
  -15.8299999       3.39128578E-36
  -15.8199997       2.13148651E-35
  -15.8100004       7.50023137E-35
  -15.8000002       1.46805343E-34
  -15.7900000      -2.44748801E-35
  -15.7799997      -1.38998956E-33
  -15.7700005      -5.99478903E-33
  -15.7600002      -1.60722845E-32
  -15.7500000      -2.92799421E-32
  -15.7399998      -2.74350654E-32
  -15.7299995       4.06934427E-32
  -15.7200003       2.75136890E-31
  -15.7100000       8.23344831E-31
  -15.6999998       1.83263519E-30
  -15.6899996       3.28090479E-30
  -15.6800003       4.48238001E-30
  -15.6700001       2.89720576E-30
  -15.6599998      -7.93604410E-30
  -15.6499996      -3.99732447E-29
  -15.6400003      -1.06301655E-28
  -15.6300001      -1.99681440E-28
  -15.6199999      -2.42438324E-28
  -15.6099997      -1.70458131E-29
  -15.6000004       8.52534171E-28
  -15.5900002       2.70320638E-27
  -15.5799999       5.19780412E-27
  -15.5699997       6.19620774E-27
  -15.5600004       6.93737444E-28
  -15.5500002      -1.84871371E-26
  -15.5400000      -5.54871449E-26
  -15.5299997      -9.94500735E-26
  -15.5200005      -1.08083065E-25
  -15.5100002       9.53413515E-28
  -15.5000000       3.25528062E-25
  -15.4899998       8.90702059E-25
  -15.4799995       1.48730888E-24
  -15.4700003       1.49602599E-24
  -15.4600000      -1.31472113E-25
  -15.4499998      -4.45700337E-24
  -15.4399996      -1.14541744E-23
  -15.4300003      -1.82943612E-23
  -15.4200001      -1.78267529E-23
  -15.4099998       9.50174677E-25
  -15.3999996       4.79863805E-23
  -15.3900003       1.21202306E-22
  -15.3800001       1.91202528E-22
  -15.3699999       1.89772393E-22
  -15.3599997       1.75389465E-23
  -15.3500004      -4.10819322E-22
  -15.3400002      -1.07458466E-21
  -15.3299999      -1.72729529E-21
  -15.3199997      -1.81480296E-21
  -15.3100004      -5.44157262E-22
  -15.3000002       2.77238832E-21
  -15.2900000       8.04852310E-21
  -15.2799997       1.35780437E-20
  -15.2700005       1.54609831E-20
  -15.2600002       8.03731739E-21
  -15.2500000      -1.38938086E-20
  -15.2399998      -5.07785692E-20
  -15.2299995      -9.28458410E-20
  -15.2200003      -1.16152585E-19
  -15.2100000      -8.44533569E-20
  -15.1999998       3.85444064E-20
  -15.1899996       2.64621282E-19
  -15.1800003       5.48732128E-19
  -15.1700001       7.62962342E-19
  -15.1599998       6.99744650E-19
  -15.1499996       1.29463317E-19
  -15.1400003      -1.07455414E-18
  -15.1300001      -2.76173893E-18
  -15.1199999      -4.34543742E-18
  -15.1099997      -4.77088950E-18
  -15.1000004      -2.73881651E-18
  -15.0900002       2.73246459E-18
  -15.0799999       1.14566492E-17
  -15.0699997       2.12020321E-17
  -15.0600004       2.72744030E-17
  -15.0500002       2.31688145E-17
  -15.0400000       2.76549557E-18
  -15.0299997      -3.59585008E-17
  -15.0200005      -8.65972604E-17
  -15.0100002      -1.31272451E-16
  -15.0000000      -1.41495464E-16
  -14.9899998      -8.53482772E-17
  -14.9799995       5.82421310E-17
  -14.9700003       2.80571485E-16
  -14.9600000       5.26140709E-16
  -14.9499998       6.87665286E-16
  -14.9399996       6.23930822E-16
  -14.9300003       2.06955229E-16
  -14.9200001      -6.05557565E-16
  -14.9099998      -1.69171093E-15
  -14.8999996      -2.71545930E-15
  -14.8900003      -3.14781647E-15
  -14.8800001      -2.39401581E-15
  -14.8699999      -3.20957460E-17
  -14.8599997       3.88125955E-15
  -14.8500004       8.53998862E-15
  -14.8400002       1.22996053E-14
  -14.8299999       1.29179402E-14
  -14.8199997       8.20792036E-15
  -14.8100004      -2.95547223E-15
  -14.8000002      -1.95241755E-14
  -14.7900000      -3.74957430E-14
  -14.7799997      -4.99862636E-14
  -14.7700005      -4.85889134E-14
  -14.7600002      -2.61182711E-14
  -14.7500000       1.97014476E-14
  -14.7399998       8.26788250E-14
  -14.7299995       1.46286669E-13
  -14.7200003       1.85114985E-13
  -14.7100000       1.70688753E-13
  -14.6999998       8.14108573E-14
  -14.6899996      -8.54197965E-14
  -14.6800003      -3.03361313E-13
  -14.6700001      -5.13261634E-13
  -14.6599998      -6.30853280E-13
  -14.6499996      -5.67584066E-13
  -14.6400003      -2.62484235E-13
  -14.6300001       2.82364708E-13
  -14.6199999       9.74740579E-13
  -14.6099997       1.62739104E-12
  -14.6000004       1.98639781E-12
  -14.5900002       1.79590598E-12
  -14.5799999       8.89921166E-13
  -14.5699997      -7.11632738E-13
  -14.5600004      -2.73581722E-12
  -14.5500002      -4.65365593E-12
  -14.5400000      -5.76629543E-12
  -14.5299997      -5.38254294E-12
  -14.5200005      -3.05863342E-12
  -14.5100002       1.16119061E-12
  -14.5000000       6.58567775E-12
  -14.4899998       1.18811775E-11
  -14.4799995       1.52921668E-11
  -14.4700003       1.50742509E-11
  -14.4600000       1.00626452E-11
  -14.4499998       2.31159411E-13
  -14.4399996      -1.29434354E-11
  -14.4300003      -2.64869012E-11
  -14.4200001      -3.64072626E-11
  -14.4099998      -3.86288952E-11
  -14.3999996      -3.02110524E-11
  -14.3900003      -1.05465055E-11
  -14.3800001       1.78343017E-11
  -14.3699999       4.91965253E-11
  -14.3599997       7.54684787E-11
  -14.3500004       8.79997117E-11
  -14.3400002       7.98883112E-11
  -14.3299999       4.83157438E-11
  -14.3199997      -3.78272197E-12
  -14.3100004      -6.73216968E-11
  -14.3000002      -1.28291183E-10
  -14.2900000      -1.70546063E-10
  -14.2799997      -1.79647158E-10
  -14.2700005      -1.46872889E-10
  -14.2600002      -7.23424098E-11
  -14.2500000       3.36859464E-11
  -14.2399998       1.51897425E-10
  -14.2299995       2.57358995E-10
  -14.2200003       3.24652222E-10
  -14.2100000       3.33565564E-10
  -14.1999998       2.74007206E-10
  -14.1899996       1.48944607E-10
  -14.1800003      -2.53227387E-11
  -14.1700001      -2.21606108E-10
  -14.1599998      -4.06368050E-10
  -14.1499996      -5.45315237E-10
  -14.1400003      -6.08875561E-10
  -14.1300001      -5.76660941E-10
  -14.1199999      -4.40451536E-10
  -14.1099997      -2.05755316E-10
  -14.1000004       1.07700640E-10
  -14.0900002       4.66236161E-10
  -14.0799999       8.23250357E-10
  -14.0699997       1.12160781E-09
  -14.0600004       1.29827260E-09
  -14.0500002       1.29216204E-09
  -14.0400000       1.05546227E-09
  -14.0299997       5.67495884E-10
  -14.0200005      -1.51378965E-10
  -14.0100002      -1.02962217E-09
  -14.0000000      -1.94251482E-09
  -13.9899998      -2.72204015E-09
  -13.9799995      -3.18017301E-09
  -13.9700003      -3.14400261E-09
  -13.9600000      -2.49730547E-09
  -13.9499998      -1.22010735E-09
  -13.9399996       5.83824766E-10
  -13.9300003       2.68076916E-09
  -13.9200001       4.72811656E-09
  -13.9099998       6.32305230E-09
  -13.8999996       7.07307990E-09
  -13.8900003       6.67625644E-09
  -13.8800001       4.99566699E-09
  -13.8699999       2.11158335E-09
  -13.8599997      -1.66195413E-09
  -13.8500004      -5.80329740E-09
  -13.8400002      -9.65109770E-09
  -13.8299999      -1.25044561E-08
  -13.8199997      -1.37395126E-08
  -13.8100004      -1.29223183E-08
  -13.8000002      -9.89885329E-09
  -13.7900000      -4.84622653E-09
  -13.7799997       1.72420378E-09
  -13.7700005       9.01341934E-09
  -13.7600002       1.60251048E-08
  -13.7500000       2.16886278E-08
  -13.7399998       2.49992809E-08
  -13.7299995       2.51594816E-08
  -13.7200003       2.17053255E-08
  -13.7100000       1.46040273E-08
  -13.6999998       4.31015978E-09
  -13.6899996      -8.22890822E-09
  -13.6800003      -2.16255103E-08
  -13.6700001      -3.41650122E-08
  -13.6599998      -4.39782006E-08
  -13.6499996      -4.92627450E-08
  -13.6400003      -4.85360729E-08
  -13.6300001      -4.08922922E-08
  -13.6199999      -2.62285003E-08
  -13.6099997      -5.40103917E-09
  -13.6000004       1.97253680E-08
  -13.5900002       4.63648071E-08
  -13.5799999       7.10468413E-08
  -13.5699997       8.99952184E-08
  -13.5600004       9.96156757E-08
  -13.5500002       9.70389564E-08
  -13.5400000       8.06438720E-08
  -13.5299997       5.04818551E-08
  -13.5200005       8.52406057E-09
  -13.5100002      -4.13291978E-08
  -13.5000000      -9.35087883E-08
  -13.4899998      -1.41304454E-07
  -13.4799995      -1.77618332E-07
  -13.4700003      -1.95865766E-07
  -13.4600000      -1.90922890E-07
  -13.4499998      -1.59998450E-07
  -13.4399996      -1.03310512E-07
  -13.4300003      -2.44641782E-08
  -13.4200001       6.95547016E-08
  -13.4099998       1.68807361E-07
  -13.3999996       2.61259657E-07
  -13.3900003       3.34010366E-07
  -13.3800001       3.74804614E-07
  -13.3699999       3.73678034E-07
  -13.3599997       3.24566656E-07
  -13.3500004       2.26652546E-07
  -13.3400002       8.52594439E-08
  -13.3299999      -8.79151258E-08
  -13.3199997      -2.75361799E-07
  -13.3100004      -4.55175723E-07
  -13.3000002      -6.03277272E-07
  -13.2900000      -6.96260997E-07
  -13.2799997      -7.14581915E-07
  -13.2700005      -6.45661032E-07
  -13.2600002      -4.86486101E-07
  -13.2500000      -2.45258093E-07
  -13.2399998       5.82787472E-08
  -13.2299995       3.94010868E-07
  -13.2200003       7.24162646E-07
  -13.2100000       1.00727857E-06
  -13.1999998       1.20312131E-06
  -13.1899996       1.27783369E-06
  -13.1800003       1.20877473E-06
  -13.1700001       9.88321517E-07
  -13.1599998       6.26150324E-07
  -13.1499996       1.49596374E-07
  -13.1400003      -3.98027709E-07
  -13.1300001      -9.61075898E-07
  -13.1199999      -1.47682965E-06
  -13.1099997      -1.88192155E-06
  -13.1000004      -2.11927113E-06
  -13.0900002      -2.14489569E-06
  -13.0799999      -1.93385722E-06
  -13.0699997      -1.48474646E-06
  -13.0600004      -8.22111758E-07
  -13.0500002       3.60606367E-09
  -13.0400000       9.18886087E-07
  -13.0299997       1.83268901E-06
  -13.0200005       2.64460164E-06
  -13.0100002       3.25484143E-06
  -13.0000000       3.57541876E-06
  -12.9899998       3.54117287E-06
  -12.9799995       3.11943745E-06
  -12.9700003       2.31700528E-06
  -12.9600000       1.18324874E-06
  -12.9499998      -1.91376742E-07
  -12.9399996      -1.68170448E-06
  -12.9300003      -3.13874511E-06
  -12.9200001      -4.40413714E-06
  -12.9099998      -5.32668901E-06
  -12.8999996      -5.77923311E-06
  -12.8900003      -5.67382449E-06
  -12.8800001      -4.97366727E-06
  -12.8699999      -3.70026760E-06
  -12.8599997      -1.93502774E-06
  -12.8500004       1.85059335E-07
  -12.8400002       2.47726234E-06
  -12.8299999       4.72788315E-06
  -12.8199997       6.71059934E-06
  -12.8100004       8.20709920E-06
  -12.8000002       9.02833290E-06
  -12.7900000       9.03466844E-06
  -12.7799997       8.15313888E-06
  -12.7700005       6.39013524E-06
  -12.7600002       3.83785255E-06
  -12.7500000       6.73286536E-07
  -12.7399998      -2.85106739E-06
  -12.7299995      -6.42485747E-06
  -12.7200003      -9.70509882E-06
  -12.7100000      -1.23470827E-05
  -12.6999998      -1.40385646E-05
  -12.6899996      -1.45335816E-05
  -12.6800003      -1.36822991E-05
  -12.6700001      -1.14533832E-05
  -12.6599998      -7.94565312E-06
  -12.6499996      -3.38740892E-06
  -12.6400003       1.87752369E-06
  -12.6300001       7.41572785E-06
  -12.6199999       1.27401954E-05
  -12.6099997       1.73526259E-05
  -12.6000004       2.07882840E-05
  -12.5900002       2.26590182E-05
  -12.5799999       2.26905358E-05
  -12.5699997       2.07507874E-05
  -12.5600004       1.68669703E-05
  -12.5500002       1.12301077E-05
  -12.5400000       4.18673926E-06
  -12.5299997      -3.78148820E-06
  -12.5200005      -1.20891555E-05
  -12.5100002      -2.00873037E-05
  -12.5000000      -2.71099907E-05
  -12.4899998      -3.25240981E-05
  -12.4799995      -3.57797144E-05
  -12.4700003      -3.64565130E-05
  -12.4600000      -3.43026331E-05
  -12.4499998      -2.92628538E-05
  -12.4399996      -2.14919619E-05
  -12.4300003      -1.13515616E-05
  -12.4200001       6.10841596E-07
  -12.4099998       1.36999088E-05
  -12.3999996       2.71248500E-05
  -12.3900003       4.00627396E-05
  -12.3800001       5.17258122E-05
  -12.3699999       6.14276432E-05
  -12.3599997       6.86407948E-05
  -12.3500004       7.30401734E-05
  -12.3400002       7.45289290E-05
  -12.3299999       7.32422050E-05
  -12.3199997       6.95304698E-05
  -12.3100004       6.39228383E-05
  -12.3000002       5.70745578E-05
  -12.2900000       4.97035871E-05
  -12.2799997       4.25200305E-05
  -12.2700005       3.61574748E-05
  -12.2600002       3.11071271E-05
  -12.2500000       2.76643823E-05
  -12.2399998       2.58886012E-05
  -12.2299995       2.55815794E-05
  -12.2200003       2.62866288E-05
  -12.2100000       2.73102123E-05
  -12.1999998       2.77654653E-05
  -12.1899996       2.66371135E-05
  -12.1800003       2.28640565E-05
  -12.1700001       1.54318477E-05
  -12.1599998       3.47136051E-06
  -12.1499996      -1.36484905E-05
  -12.1400003      -3.62418177E-05
  -12.1300001      -6.42490559E-05
  -12.1199999      -9.72086127E-05
  -12.1099997      -1.34262271E-04
  -12.1000004      -1.74192595E-04
  -12.0900002      -2.15490611E-04
  -12.0799999      -2.56446976E-04
  -12.0699997      -2.95257982E-04
  -12.0600004      -3.30136943E-04
  -12.0500002      -3.59423197E-04
  -12.0400000      -3.81675200E-04
  -12.0299997      -3.95753392E-04
  -12.0200005      -4.00875026E-04
  -12.0100002      -3.96650139E-04
  -12.0000000      -3.83092847E-04
  -11.9899998      -3.60615406E-04
  -11.9799995      -3.29995295E-04
  -11.9700003      -2.92330107E-04
  -11.9600000      -2.48970988E-04
  -11.9499998      -2.01444738E-04
  -11.9399996      -1.51360684E-04
  -11.9300003      -1.00313693E-04
  -11.9200001      -4.97811161E-05
  -11.9099998      -1.02989929E-06
  -11.8999996       4.49664294E-05
  -11.8900003       8.75886617E-05
  -11.8800001       1.26604442E-04
  -11.8699999       1.62171767E-04
  -11.8599997       1.94808250E-04
  -11.8500004       2.25331445E-04
  -11.8400002       2.54776154E-04
  -11.8299999       2.84293637E-04
  -11.8199997       3.15042329E-04
  -11.8100004       3.48081609E-04
  -11.8000002       3.84273240E-04
  -11.7900000       4.24195983E-04
  -11.7799997       4.68084152E-04
  -11.7700005       5.15782100E-04
  -11.7600002       5.66728879E-04
  -11.7500000       6.19961997E-04
  -11.7399998       6.74146751E-04
  -11.7299995       7.27631093E-04
  -11.7200003       7.78521469E-04
  -11.7100000       8.24773917E-04
  -11.6999998       8.64304777E-04
  -11.6899996       8.95107922E-04
  -11.6800003       9.15370416E-04
  -11.6700001       9.23582236E-04
  -11.6599998       9.18627309E-04
  -11.6499996       8.99851380E-04
  -11.6400003       8.67093331E-04
  -11.6300001       8.20689136E-04
  -11.6199999       7.61437230E-04
  -11.6099997       6.90536457E-04
  -11.6000004       6.09499984E-04
  -11.5900002       5.20054949E-04
  -11.5799999       4.24035126E-04
  -11.5699997       3.23278364E-04
  -11.5600004       2.19533176E-04
  -11.5500002       1.14381714E-04
  -11.5400000       9.18117257E-06
  -11.5299997      -9.49751047E-05
  -11.5200005      -1.97276197E-04
  -11.5100002      -2.97195278E-04
  -11.5000000      -3.94478178E-04
  -11.4899998      -4.89117403E-04
  -11.4799995      -5.81316475E-04
  -11.4700003      -6.71448593E-04
  -11.4600000      -7.60009454E-04
  -11.4499998      -8.47564195E-04
  -11.4399996      -9.34696698E-04
  -11.4300003      -1.02195982E-03
  -11.4200001      -1.10982568E-03
  -11.4099998      -1.19865255E-03
  -11.3999996      -1.28865323E-03
  -11.3900003      -1.37988443E-03
  -11.3800001      -1.47224113E-03
  -11.3699999      -1.56547152E-03
  -11.3599997      -1.65919471E-03
  -11.3500004      -1.75292604E-03
  -11.3400002      -1.84610928E-03
  -11.3299999      -1.93813234E-03
  -11.3199997      -2.02834536E-03
  -11.3100004      -2.11606780E-03
  -11.3000002      -2.20058835E-03
  -11.2900000      -2.28115381E-03
  -11.2799997      -2.35697092E-03
  -11.2700005      -2.42719962E-03
  -11.2600002      -2.49097240E-03
  -11.2500000      -2.54742010E-03
  -11.2399998      -2.59570777E-03
  -11.2299995      -2.63509527E-03
  -11.2200003      -2.66498956E-03
  -11.2100000      -2.68500322E-03
  -11.1999998      -2.69500399E-03
  -11.1899996      -2.69513251E-03
  -11.1800003      -2.68581742E-03
  -11.1700001      -2.66775582E-03
  -11.1599998      -2.64187297E-03
  -11.1499996      -2.60927738E-03
  -11.1400003      -2.57119862E-03
  -11.1300001      -2.52892566E-03
  -11.1199999      -2.48375605E-03
  -11.1099997      -2.43694475E-03
  -11.1000004      -2.38965917E-03
  -11.0900002      -2.34294799E-03
  -11.0799999      -2.29769805E-03
  -11.0699997      -2.25460669E-03
  -11.0600004      -2.21413956E-03
  -11.0500002      -2.17650691E-03
  -11.0400000      -2.14163493E-03
  -11.0299997      -2.10915972E-03
  -11.0200005      -2.07843957E-03
  -11.0100002      -2.04858626E-03
  -11.0000000      -2.01851875E-03
  -10.9899998      -1.98703911E-03
  -10.9799995      -1.95291103E-03
  -10.9700003      -1.91494287E-03
  -10.9600000      -1.87205221E-03
  -10.9499998      -1.82332413E-03
  -10.9399996      -1.76803954E-03
  -10.9300003      -1.70568156E-03
  -10.9200001      -1.63592945E-03
  -10.9099998      -1.55863492E-03
  -10.8999996      -1.47379667E-03
  -10.8900003      -1.38153811E-03
  -10.8800001      -1.28208566E-03
  -10.8699999      -1.17575622E-03
  -10.8599997      -1.06295163E-03
  -10.8500004      -9.44143394E-04
  -10.8400002      -8.19872192E-04
  -10.8299999      -6.90727786E-04
  -10.8199997      -5.57332125E-04
  -10.8100004      -4.20313183E-04
  -10.8000002      -2.80275941E-04
  -10.7900000      -1.37774696E-04
  -10.7799997       6.71845510E-06
  -10.7700005       1.52829642E-04
  -10.7600002       3.00303451E-04
  -10.7500000       4.49010375E-04
  -10.7399998       5.98950544E-04
  -10.7299995       7.50253152E-04
  -10.7200003       9.03164386E-04
  -10.7100000       1.05804182E-03
  -10.6999998       1.21534441E-03
  -10.6899996       1.37560698E-03
  -10.6800003       1.53943140E-03
  -10.6700001       1.70745945E-03
  -10.6599998       1.88034447E-03
  -10.6499996       2.05871812E-03
  -10.6400003       2.24317168E-03
  -10.6300001       2.43421458E-03
  -10.6199999       2.63225357E-03
  -10.6099997       2.83758040E-03
  -10.6000004       3.05037224E-03
  -10.5900002       3.27068032E-03
  -10.5799999       3.49847064E-03
  -10.5699997       3.73363309E-03
  -10.5600004       3.97601118E-03
  -10.5500002       4.22542868E-03
  -10.5400000       4.48168442E-03
  -10.5299997       4.74455021E-03
  -10.5200005       5.01375087E-03
  -10.5100002       5.28891478E-03
  -10.5000000       5.56952460E-03
  -10.4899998       5.85486973E-03
  -10.4799995       6.14398858E-03
  -10.4700003       6.43564807E-03
  -10.4600000       6.72831153E-03
  -10.4499998       7.02015869E-03
  -10.4399996       7.30911875E-03
  -10.4300003       7.59289553E-03
  -10.4200001       7.86907226E-03
  -10.4099998       8.13515764E-03
  -10.3999996       8.38869624E-03
  -10.3900003       8.62732343E-03
  -10.3800001       8.84887483E-03
  -10.3699999       9.05143376E-03
  -10.3599997       9.23341233E-03
  -10.3500004       9.39354859E-03
  -10.3400002       9.53096803E-03
  -10.3299999       9.64516960E-03
  -10.3199997       9.73602198E-03
  -10.3100004       9.80376545E-03
  -10.3000002       9.84897651E-03
  -10.2900000       9.87258460E-03
  -10.2799997       9.87584516E-03
  -10.2700005       9.86035354E-03
  -10.2600002       9.82805528E-03
  -10.2500000       9.78120510E-03
  -10.2399998       9.72239114E-03
  -10.2299995       9.65444464E-03
  -10.2200003       9.58044268E-03
  -10.2100000       9.50356852E-03
  -10.1999998       9.42703243E-03
  -10.1899996       9.35397856E-03
  -10.1800003       9.28735547E-03
  -10.1700001       9.22983140E-03
  -10.1599998       9.18370951E-03
  -10.1499996       9.15087294E-03
  -10.1400003       9.13275220E-03
  -10.1300001       9.13030282E-03
  -10.1199999       9.14403237E-03
  -10.1099997       9.17402375E-03
  -10.1000004       9.21995565E-03
  -10.0900002       9.28117707E-03
  -10.0799999       9.35670920E-03
  -10.0699997       9.44533199E-03
  -10.0600004       9.54558048E-03
  -10.0500002       9.65584442E-03
  -10.0400000       9.77436174E-03
  -10.0299997       9.89926513E-03
  -10.0200005       1.00286612E-02
  -10.0100002       1.01606669E-02
  -10.0000000       1.02934316E-02
  -9.98999977       1.04252379E-02
  -9.97999954       1.05545819E-02
  -9.97000027       1.06801810E-02
  -9.96000004       1.08010834E-02
  -9.94999981       1.09167434E-02
  -9.93999958       1.10269831E-02
  -9.93000031       1.11321239E-02
  -9.92000008       1.12329191E-02
  -9.90999985       1.13306474E-02
  -9.89999962       1.14269517E-02
  -9.89000034       1.15239583E-02
  -9.88000011       1.16241006E-02
  -9.86999989       1.17300842E-02
  -9.85999966       1.18448129E-02
  -9.85000038       1.19712539E-02
  -9.84000015       1.21123698E-02
  -9.82999992       1.22709870E-02
  -9.81999969       1.24497432E-02
  -9.81000042       1.26509676E-02
  -9.80000019       1.28766745E-02
  -9.78999996       1.31285237E-02
  -9.77999973       1.34078255E-02
  -9.77000046       1.37155587E-02
  -9.76000023       1.40523789E-02
  -9.75000000       1.44186905E-02
  -9.73999977       1.48145882E-02
  -9.72999954       1.52398581E-02
  -9.72000027       1.56939831E-02
  -9.71000004       1.61759946E-02
  -9.69999981       1.66844614E-02
  -9.68999958       1.72172952E-02
  -9.68000031       1.77718494E-02
  -9.67000008       1.83447655E-02
  -9.65999985       1.89320035E-02
  -9.64999962       1.95289701E-02
  -9.64000034       2.01305579E-02
  -9.63000011       2.07313169E-02
  -9.61999989       2.13256441E-02
  -9.60999966       2.19078604E-02
  -9.60000038       2.24724058E-02
  -9.59000015       2.30139364E-02
  -9.57999992       2.35273615E-02
  -9.56999969       2.40079742E-02
  -9.56000042       2.44513862E-02
  -9.55000019       2.48536393E-02
  -9.53999996       2.52112299E-02
  -9.52999973       2.55211834E-02
  -9.52000046       2.57810876E-02
  -9.51000023       2.59892270E-02
  -9.50000000       2.61445828E-02
  -9.48999977       2.62469966E-02
  -9.47999954       2.62970664E-02
  -9.47000027       2.62963269E-02
  -9.46000004       2.62472015E-02
  -9.44999981       2.61529125E-02
  -9.43999958       2.60176118E-02
  -9.43000031       2.58462373E-02
  -9.42000008       2.56445445E-02
  -9.40999985       2.54189707E-02
  -9.39999962       2.51766089E-02
  -9.39000034       2.49250587E-02
  -9.38000011       2.46723089E-02
  -9.36999989       2.44265907E-02
  -9.35999966       2.41961908E-02
  -9.35000038       2.39892676E-02
  -9.34000015       2.38137823E-02
  -9.32999992       2.36773398E-02
  -9.31999969       2.35870220E-02
  -9.31000042       2.35495269E-02
  -9.30000019       2.35708896E-02
  -9.28999996       2.36566514E-02
  -9.27999973       2.38117743E-02
  -9.27000046       2.40405332E-02
  -9.26000023       2.43467148E-02
  -9.25000000       2.47333366E-02
  -9.23999977       2.52028033E-02
  -9.22999954       2.57567521E-02
  -9.22000027       2.63961088E-02
  -9.21000004       2.71210670E-02
  -9.19999981       2.79309209E-02
  -9.18999958       2.88242660E-02
  -9.18000031       2.97988150E-02
  -9.17000008       3.08516975E-02
  -9.15999985       3.19790877E-02
  -9.14999962       3.31765823E-02
  -9.14000034       3.44391279E-02
  -9.13000011       3.57610323E-02
  -9.11999989       3.71361673E-02
  -9.10999966       3.85578051E-02
  -9.10000038       4.00188826E-02
  -9.09000015       4.15118001E-02
  -9.07999992       4.30286899E-02
  -9.06999969       4.45612893E-02
  -9.06000042       4.61009182E-02
  -9.05000019       4.76387367E-02
  -9.03999996       4.91654761E-02
  -9.02999973       5.06717451E-02
  -9.02000046       5.21480367E-02
  -9.01000023       5.35846241E-02
  -9.00000000       5.49721606E-02
  -8.98999977       5.63011132E-02
  -8.97999954       5.75624816E-02
  -8.97000027       5.87476082E-02
  -8.96000004       5.98484986E-02
  -8.94999981       6.08576536E-02
  -8.93999958       6.17683232E-02
  -8.93000031       6.25746995E-02
  -8.92000008       6.32715523E-02
  -8.90999985       6.38547093E-02
  -8.89999962       6.43207431E-02
  -8.89000034       6.46669716E-02
  -8.88000011       6.48916736E-02
  -8.86999989       6.49938732E-02
  -8.85999966       6.49735704E-02
  -8.85000038       6.48314506E-02
  -8.84000015       6.45694062E-02
  -8.82999992       6.41899854E-02
  -8.81999969       6.36967570E-02
  -8.81000042       6.30939901E-02
  -8.80000019       6.23870119E-02
  -8.78999996       6.15816303E-02
  -8.77999973       6.06843121E-02
  -8.77000046       5.97021170E-02
  -8.76000023       5.86425029E-02
  -8.75000000       5.75133227E-02
  -8.73999977       5.63226864E-02
  -8.72999954       5.50789051E-02
  -8.72000027       5.37905395E-02
  -8.71000004       5.24659120E-02
  -8.69999981       5.11135124E-02
  -8.68999958       4.97415923E-02
  -8.68000031       4.83580828E-02
  -8.67000008       4.69707958E-02
  -8.65999985       4.55868840E-02
  -8.64999962       4.42133099E-02
  -8.64000034       4.28564250E-02
  -8.63000011       4.15220223E-02
  -8.61999989       4.02152948E-02
  -8.60999966       3.89411189E-02
  -8.60000038       3.77032198E-02
  -8.59000015       3.65049168E-02
  -8.57999992       3.53489667E-02
  -8.56999969       3.42373177E-02
  -8.56000042       3.31714042E-02
  -8.55000019       3.21519561E-02
  -8.53999996       3.11792195E-02
  -8.52999973       3.02529689E-02
  -8.52000046       2.93723810E-02
  -8.51000023       2.85363737E-02
  -8.50000000       2.77434476E-02
  -8.48999977       2.69917846E-02
  -8.47999954       2.62790080E-02
  -8.47000027       2.56026406E-02
  -8.46000004       2.49599554E-02
  -8.44999981       2.43477933E-02
  -8.43999958       2.37629153E-02
  -8.43000031       2.32022032E-02
  -8.42000008       2.26622429E-02
  -8.40999985       2.21401602E-02
  -8.39999962       2.16333885E-02
  -8.39000034       2.11398378E-02
  -8.38000011       2.06581131E-02
  -8.36999989       2.01876126E-02
  -8.35999966       1.97284482E-02
  -8.35000038       1.92817524E-02
  -8.34000015       1.88492704E-02
  -8.32999992       1.84336491E-02
  -8.31999969       1.80383399E-02
  -8.31000042       1.76673923E-02
  -8.30000019       1.73256360E-02
  -8.28999996       1.70182921E-02
  -8.27999973       1.67511292E-02
  -8.27000046       1.65302046E-02
  -8.26000023       1.63615011E-02
  -8.25000000       1.62513778E-02
  -8.23999977       1.62057877E-02
  -8.22999954       1.62304845E-02
  -8.22000027       1.63310599E-02
  -8.21000004       1.65125821E-02
  -8.19999981       1.67799443E-02
  -8.18999958       1.71376131E-02
  -8.18000031       1.75896753E-02
  -8.17000008       1.81397740E-02
  -8.15999985       1.87912062E-02
  -8.14999962       1.95466653E-02
  -8.14000034       2.04085410E-02
  -8.13000011       2.13784389E-02
  -8.11999989       2.24575493E-02
  -8.10999966       2.36464273E-02
  -8.10000038       2.49451492E-02
  -8.09000015       2.63531357E-02
  -8.07999992       2.78692134E-02
  -8.06999969       2.94917487E-02
  -8.06000042       3.12180724E-02
  -8.05000019       3.30453739E-02
  -8.03999996       3.49699743E-02
  -8.02999973       3.69877517E-02
  -8.02000046       3.90937962E-02
  -8.01000023       4.12832424E-02
  -8.00000000       4.35504988E-02
  -7.98999977       4.58899438E-02
  -7.98000002       4.82957438E-02
  -7.96999979       5.07616811E-02
  -7.96000004       5.32815978E-02
  -7.94999981       5.58488145E-02
  -7.94000006       5.84568232E-02
  -7.92999983       6.10984415E-02
  -7.92000008       6.37665689E-02
  -7.90999985       6.64537847E-02
  -7.90000010       6.91528246E-02
  -7.88999987       7.18562007E-02
  -7.88000011       7.45562315E-02
  -7.86999989       7.72459432E-02
  -7.86000013       7.99181089E-02
  -7.84999990       8.25656578E-02
  -7.84000015       8.51822123E-02
  -7.82999992       8.77616405E-02
  -7.82000017       9.02981684E-02
  -7.80999994       9.27868634E-02
  -7.80000019       9.52232555E-02
  -7.78999996       9.76032615E-02
  -7.78000021       9.99237299E-02
  -7.76999998      0.102181934    
  -7.76000023      0.104376003    
  -7.75000000      0.106504276    
  -7.73999977      0.108566560    
  -7.73000002      0.110562615    
  -7.71999979      0.112492979    
  -7.71000004      0.114359446    
  -7.69999981      0.116163515    
  -7.69000006      0.117907599    
  -7.67999983      0.119594581    
  -7.67000008      0.121227145    
  -7.65999985      0.122808859    
  -7.65000010      0.124343105    
  -7.63999987      0.125833452    
  -7.63000011      0.127284274    
  -7.61999989      0.128700122    
  -7.61000013      0.130085751    
  -7.59999990      0.131446749    
  -7.59000015      0.132788554    
  -7.57999992      0.134116739    
  -7.57000017      0.135437518    
  -7.55999994      0.136756271    
  -7.55000019      0.138078257    
  -7.53999996      0.139409199    
  -7.53000021      0.140754074    
  -7.51999998      0.142117500    
  -7.51000023      0.143504649    
  -7.50000000      0.144919917    
  -7.48999977      0.146367744    
  -7.48000002      0.147851884    
  -7.46999979      0.149376675    
  -7.46000004      0.150945231    
  -7.44999981      0.152560726    
  -7.44000006      0.154225841    