  -16.0000000       0.00000000    
  -15.9899998       0.00000000    
  -15.9799995       0.00000000    
  -15.9700003       0.00000000    
  -15.9600000       0.00000000    
  -15.9499998       0.00000000    
  -15.9399996       0.00000000    
  -15.9300003       0.00000000    
  -15.9200001       0.00000000    
  -15.9099998       0.00000000    
  -15.8999996       0.00000000    
  -15.8900003       0.00000000    
  -15.8800001       0.00000000    
  -15.8699999      -0.00000000    
  -15.8599997      -0.00000000    
  -15.8500004      -0.00000000    
  -15.8400002      -7.00649232E-45
  -15.8299999      -1.00893489E-43
  -15.8199997      -1.00052710E-42
  -15.8100004      -7.55440002E-42
  -15.8000002      -4.58392754E-41
  -15.7900000      -2.32340891E-40
  -15.7799997      -1.00860559E-39
  -15.7700005      -3.81385097E-39
  -15.7600002      -1.27010302E-38
  -15.7500000      -3.74880466E-38
  -15.7399998      -9.82399346E-38
  -15.7299995      -2.27671473E-37
  -15.7200003      -4.60440488E-37
  -15.7100000      -7.85774459E-37
  -15.6999998      -1.02797964E-36
  -15.6899996      -6.25997018E-37
  -15.6800003       1.65866672E-36
  -15.6700001       7.92921019E-36
  -15.6599998       2.08187927E-35
  -15.6499996       4.19738555E-35
  -15.6400003       6.87048553E-35
  -15.6300001       8.88254730E-35
  -15.6199999       7.54225931E-35
  -15.6099997      -1.40047338E-35
  -15.6000004      -2.27094190E-34
  -15.5900002      -5.88321744E-34
  -15.5799999      -1.05342156E-33
  -15.5699997      -1.46328136E-33
  -15.5600004      -1.53549693E-33
  -15.5500002      -9.42600635E-34
  -15.5400000       5.02569845E-34
  -15.5299997       2.63017981E-33
  -15.5200005       4.89631233E-33
  -15.5100002       6.90865801E-33
  -15.5000000       9.67686125E-33
  -15.4899998       1.70404010E-32
  -15.4799995       3.53377935E-32
  -15.4700003       6.79279394E-32
  -15.4600000       1.01426037E-31
  -15.4499998       8.52964797E-32
  -15.4399996      -8.19572529E-32
  -15.4300003      -5.30206022E-31
  -15.4200001      -1.31813664E-30
  -15.4099998      -2.23301383E-30
  -15.3999996      -2.53704031E-30
  -15.3900003      -8.42334425E-31
  -15.3800001       4.54770929E-30
  -15.3699999       1.44441300E-29
  -15.3599997       2.66031321E-29
  -15.3500004       3.32281355E-29
  -15.3400002       2.00293028E-29
  -15.3299999      -3.00844280E-29
  -15.3199997      -1.25637751E-28
  -15.3100004      -2.47329416E-28
  -15.3000002      -3.27350409E-28
  -15.2900000      -2.43289561E-28
  -15.2799997       1.49697876E-28
  -15.2700005       9.27767062E-28
  -15.2600002       1.95140460E-27
  -15.2500000       2.71491411E-27
  -15.2399998       2.30848145E-27
  -15.2299995      -3.47378395E-28
  -15.2200003      -5.86831663E-27
  -15.2100000      -1.34143178E-26
  -15.1999998      -1.96968230E-26
  -15.1899996      -1.87243747E-26
  -15.1800003      -3.25680917E-27
  -15.1700001       3.13081021E-26
  -15.1599998       8.09103014E-26
  -15.1499996       1.26778489E-25
  -15.1400003       1.33570261E-25
  -15.1300001       5.70916078E-26
  -15.1199999      -1.34444282E-25
  -15.1099997      -4.27127061E-25
  -15.1000004      -7.27015739E-25
  -15.0900002      -8.46487392E-25
  -15.0799999      -5.39004103E-25
  -15.0699997       3.96760723E-25
  -15.0600004       1.94868819E-24
  -15.0500002       3.70938924E-24
  -15.0400000       4.78285578E-24
  -15.0299997       3.91238840E-24
  -15.0200005      -6.34990566E-26
  -15.0100002      -7.43303636E-24
  -15.0000000      -1.67156313E-23
  -14.9899998      -2.40863405E-23
  -14.9799995      -2.37123905E-23
  -14.9700003      -9.51921768E-24
  -14.9600000       2.15283423E-23
  -14.9499998       6.53479815E-23
  -14.9399996       1.07569502E-22
  -14.9300003       1.23720401E-22
  -14.9200001       8.51241627E-23
  -14.9099998      -2.85935162E-23
  -14.8999996      -2.12467808E-22
  -14.8900003      -4.20606700E-22
  -14.8800001      -5.61373565E-22
  -14.8699999      -5.13289602E-22
  -14.8599997      -1.67404867E-22
  -14.8500004       5.08089229E-22
  -14.8400002       1.39946489E-21
  -14.8299999       2.20761763E-21
  -14.8199997       2.47529254E-21
  -14.8100004       1.71054529E-21
  -14.8000002      -3.94079441E-22
  -14.7900000      -3.69460948E-21
  -14.7799997      -7.38131550E-21
  -14.7700005      -9.95204502E-21
  -14.7600002      -9.49834130E-21
  -14.7500000      -4.35412405E-21
  -14.7399998       5.98513722E-21
  -14.7299995       1.99431355E-20
  -14.7200003       3.33661072E-20
  -14.7100000       3.99127829E-20
  -14.6999998       3.26474197E-20
  -14.6899996       6.78376556E-21
  -14.6800003      -3.70127652E-20
  -14.6700001      -8.99162645E-20
  -14.6599998      -1.34317200E-19
  -14.6499996      -1.46643109E-19
  -14.6400003      -1.04194106E-19
  -14.6300001       4.85633779E-21
  -14.6199999       1.70897402E-19
  -14.6099997       3.55866877E-19
  -14.6000004       4.94419604E-19
  -14.5900002       5.06772978E-19
  -14.5799999       3.23633458E-19
  -14.5699997      -8.10631572E-20
  -14.5600004      -6.58948568E-19
  -14.5500002      -1.27055180E-18
  -14.5400000      -1.69631417E-18
  -14.5299997      -1.68356835E-18
  -14.5200005      -1.02757049E-18
  -14.5100002       3.29136691E-19
  -14.5000000       2.20841590E-18
  -14.4899998       4.15706400E-18
  -14.4799995       5.49174308E-18
  -14.4700003       5.44767338E-18
  -14.4600000       3.42059553E-18
  -14.4499998      -7.46534794E-19
  -14.4399996      -6.51637418E-18
  -14.4300003      -1.25535759E-17
  -14.4200001      -1.68596234E-17
  -14.4099998      -1.71946911E-17
  -14.3999996      -1.17545393E-17
  -14.3900003       3.04508933E-20
  -14.3800001       1.68001044E-17
  -14.3699999       3.49505646E-17
  -14.3599997       4.89556026E-17
  -14.3500004       5.24591228E-17
  -14.3400002       4.00675039E-17
  -14.3299999       9.51033704E-18
  -14.3199997      -3.64071933E-17
  -14.3100004      -8.87810834E-17
  -14.3000002      -1.33194502E-16
  -14.2900000      -1.52313518E-16
  -14.2799997      -1.30384099E-16
  -14.2700005      -5.88642172E-17
  -14.2600002       5.82136694E-17
  -14.2500000       2.00965012E-16
  -14.2399998       3.34243621E-16
  -14.2299995       4.13261181E-16
  -14.2200003       3.94199287E-16
  -14.2100000       2.48172183E-16
  -14.1999998      -2.47111556E-17
  -14.1899996      -3.85550631E-16
  -14.1800003      -7.55584994E-16
  -14.1700001      -1.02702904E-15
  -14.1599998      -1.08629297E-15
  -14.1499996      -8.46366862E-16
  -14.1400003      -2.81319521E-16
  -14.1300001       5.46956173E-16
  -14.1199999       1.48020575E-15
  -14.1099997       2.28146800E-15
  -14.1000004       2.68125018E-15
  -14.0900002       2.44658034E-15
  -14.0799999       1.45883172E-15
  -14.0699997      -2.20273684E-16
  -14.0600004      -2.31707282E-15
  -14.0500002      -4.36701812E-15
  -14.0400000      -5.79577381E-15
  -14.0299997      -6.05190938E-15
  -14.0200005      -4.76568604E-15
  -14.0100002      -1.89483303E-15
  -14.0000000       2.18694865E-15
  -13.9899998       6.69643708E-15
  -13.9799995       1.05609000E-14
  -13.9700003       1.26420667E-14
  -13.9600000       1.20232176E-14
  -13.9499998       8.29311324E-15
  -13.9399996       1.74917534E-15
  -13.9300003      -6.54903174E-15
  -13.9200001      -1.49154980E-14
  -13.9099998      -2.13568295E-14
  -13.8999996      -2.40185628E-14
  -13.8900003      -2.16603909E-14
  -13.8800001      -1.40415261E-14
  -13.8699999      -2.10669334E-15
  -13.8599997       1.20963107E-14
  -13.8500004       2.57732441E-14
  -13.8400002       3.59493387E-14
  -13.8299999       4.01204745E-14
  -13.8199997       3.68355960E-14
  -13.8100004       2.60665428E-14
  -13.8000002       9.27028856E-15
  -13.7900000      -1.08744131E-14
  -13.7799997      -3.09910992E-14
  -13.7700005      -4.76592168E-14
  -13.7600002      -5.80371322E-14
  -13.7500000      -6.03112869E-14
  -13.7399998      -5.38868944E-14
  -13.7299995      -3.93169655E-14
  -13.7200003      -1.80456998E-14
  -13.7100000       7.90837224E-15
  -13.6999998       3.62009955E-14
  -13.6899996       6.42610219E-14
  -13.6800003       8.92392036E-14
  -13.6700001       1.07895755E-13
  -13.6599998       1.16578269E-13
  -13.6499996       1.11450982E-13
  -13.6400003       8.90804086E-14
  -13.6300001       4.73698737E-14
  -13.6199999      -1.33059288E-14
  -13.6099997      -8.90420550E-14
  -13.6000004      -1.71767169E-13
  -13.5900002      -2.49361106E-13
  -13.5799999      -3.06745243E-13
  -13.5699997      -3.27972377E-13
  -13.5600004      -2.99110183E-13
  -13.5500002      -2.11492905E-13
  -13.5400000      -6.47547947E-14
  -13.5299997       1.30995001E-13
  -13.5200005       3.54440002E-13
  -13.5100002       5.74175690E-13
  -13.5000000       7.51834955E-13
  -13.4899998       8.47068672E-13
  -13.4799995       8.23920305E-13
  -13.4700003       6.57840752E-13
  -13.4600000       3.42368332E-13
  -13.4499998      -1.05645087E-13
  -13.4399996      -6.43409317E-13
  -13.4300003      -1.20318902E-12
  -13.4200001      -1.69762490E-12
  -13.4099998      -2.02958397E-12
  -13.3999996      -2.10603518E-12
  -13.3900003      -1.85462279E-12
  -13.3800001      -1.24075782E-12
  -13.3699999      -2.82369912E-13
  -13.3599997       9.40887125E-13
  -13.3500004       2.28698137E-12
  -13.3400002       3.56156359E-12
  -13.3299999       4.53942743E-12
  -13.3199997       4.99607560E-12
  -13.3100004       4.74589378E-12
  -13.3000002       3.68149868E-12
  -13.2900000       1.80748678E-12
  -13.2799997      -7.38438661E-13
  -13.2700005      -3.68296843E-12
  -13.2600002      -6.63698957E-12
  -13.2500000      -9.13800372E-12
  -13.2399998      -1.07115922E-11
  -13.2299995      -1.09445916E-11
  -13.2200003      -9.55971240E-12
  -13.2100000      -6.47986612E-12
  -13.1999998      -1.87080104E-12
  -13.1899996       3.84711403E-12
  -13.1800003       1.00232938E-11
  -13.1700001       1.58379785E-11
  -13.1599998       2.03951266E-11
  -13.1499996       2.28376415E-11
  -13.1400003       2.24716929E-11
  -13.1300001       1.88847358E-11
  -13.1199999       1.20415518E-11
  -13.1099997       2.34374846E-12
  -13.1000004      -9.35875249E-12
  -13.0900002      -2.18116671E-11
  -13.0799999      -3.34580003E-11
  -13.0699997      -4.25933629E-11
  -13.0600004      -4.75646363E-11
  -13.0500002      -4.69946443E-11
  -13.0400000      -4.00092320E-11
  -13.0299997      -2.64381798E-11
  -13.0200005      -6.95865848E-12
  -13.0100002       1.68486804E-11
  -13.0000000       4.25553898E-11
  -12.9899998       6.70662692E-11
  -12.9799995       8.69235586E-11
  -12.9700003       9.87138843E-11
  -12.9600000       9.95378432E-11
  -12.9499998       8.74857756E-11
  -12.9399996       6.20522175E-11
  -12.9300003       2.44203477E-11
  -12.9200001      -2.24435817E-11
  -12.9099998      -7.39258446E-11
  -12.8999996      -1.24142127E-10
  -12.8900003      -1.66533787E-10
  -12.8800001      -1.94627134E-10
  -12.8699999      -2.02871803E-10
  -12.8599997      -1.87455010E-10
  -12.8500004      -1.46984355E-10
  -12.8400002      -8.29403213E-11
  -12.8299999       1.77338233E-13
  -12.8199997       9.50520496E-11
  -12.8100004       1.92105470E-10
  -12.8000002       2.80368173E-10
  -12.7900000       3.48591656E-10
  -12.7799997       3.86497084E-10
  -12.7700005       3.86035925E-10
  -12.7600002       3.42525758E-10
  -12.7500000       2.55528987E-10
  -12.7399998       1.29354638E-10
  -12.7299995      -2.69092613E-11
  -12.7200003      -1.99885483E-10
  -12.7100000      -3.72925191E-10
  -12.6999998      -5.27599575E-10
  -12.6899996      -6.45551557E-10
  -12.6800003      -7.10536741E-10
  -12.6700001      -7.10434767E-10
  -12.6599998      -6.38988640E-10
  -12.6499996      -4.97032304E-10
  -12.6400003      -2.92998376E-10
  -12.6300001      -4.25748985E-11
  -12.6199999       2.32528191E-10
  -12.6099997       5.06620801E-10
  -12.6000004       7.52686635E-10
  -12.5900002       9.45348355E-10
  -12.5799999       1.06377718E-09
  -12.5699997       1.09416165E-09
  -12.5600004       1.03138786E-09
  -12.5500002       8.79674777E-10
  -12.5400000       6.52046639E-10
  -12.5299997       3.68681252E-10
  -12.5200005       5.43406778E-11
  -12.5100002      -2.64772454E-10
  -12.5000000      -5.64294611E-10
  -12.4899998      -8.24644297E-10
  -12.4799995      -1.03318321E-09
  -12.4700003      -1.18524279E-09
  -12.4600000      -1.28379740E-09
  -12.4499998      -1.33772571E-09
  -12.4399996      -1.35877365E-09
  -12.4300003      -1.35748002E-09
  -12.4200001      -1.33845346E-09
  -12.4099998      -1.29547739E-09
  -12.3999996      -1.20696053E-09
  -12.3900003      -1.03226905E-09
  -12.3800001      -7.09439341E-10
  -12.3699999      -1.54712784E-10
  -12.3599997       7.35765782E-10
  -12.3500004       2.08187823E-09
  -12.3400002       4.01306721E-09
  -12.3299999       6.65964972E-09
  -12.3199997       1.01423456E-08
  -12.3100004       1.45606709E-08
  -12.3000002       1.99810941E-08
  -12.2900000       2.64259903E-08
  -12.2799997       3.38644703E-08
  -12.2700005       4.22061781E-08
  -12.2600002       5.12988230E-08
  -12.2500000       6.09299846E-08
  -12.2399998       7.08333090E-08
  -12.2299995       8.06986193E-08
  -12.2200003       9.01853312E-08
  -12.2100000       9.89378890E-08
  -12.1999998       1.06601867E-07
  -12.1899996       1.12839565E-07
  -12.1800003       1.17343546E-07
  -12.1700001       1.19847456E-07
  -12.1599998       1.20133279E-07
  -12.1499996       1.18034926E-07
  -12.1400003       1.13438411E-07
  -12.1300001       1.06278890E-07
  -12.1199999       9.65353735E-08
  -12.1099997       8.42239274E-08
  -12.1000004       6.93902962E-08
  -12.0900002       5.21024681E-08
  -12.0799999       3.24442233E-08
  -12.0699997       1.05099414E-08
  -12.0600004      -1.35984859E-08
  -12.0500002      -3.97725941E-08
  -12.0400000      -6.78958472E-08
  -12.0299997      -9.78397878E-08
  -12.0200005      -1.29458073E-07
  -12.0100002      -1.62579070E-07
  -12.0000000      -1.96997476E-07
  -11.9899998      -2.32466519E-07
  -11.9799995      -2.68690883E-07
  -11.9700003      -3.05322374E-07
  -11.9600000      -3.41958270E-07
  -11.9499998      -3.78143739E-07
  -11.9399996      -4.13377109E-07
  -11.9300003      -4.47119760E-07
  -11.9200001      -4.78807749E-07
  -11.9099998      -5.07865991E-07
  -11.8999996      -5.33722130E-07
  -11.8900003      -5.55820918E-07
  -11.8800001      -5.73637010E-07
  -11.8699999      -5.86684678E-07
  -11.8599997      -5.94525943E-07
  -11.8500004      -5.96776204E-07
  -11.8400002      -5.93106847E-07
  -11.8299999      -5.83246958E-07
  -11.8199997      -5.66983431E-07
  -11.8100004      -5.44160343E-07
  -11.8000002      -5.14678277E-07
  -11.7900000      -4.78492950E-07
  -11.7799997      -4.35614879E-07
  -11.7700005      -3.86108212E-07
  -11.7600002      -3.30089478E-07
  -11.7500000      -2.67727074E-07
  -11.7399998      -1.99239679E-07
  -11.7299995      -1.24895521E-07
  -11.7200003      -4.50114470E-08
  -11.7100000       4.00477305E-08
  -11.6999998       1.29869235E-07
  -11.6899996       2.23992160E-07
  -11.6800003       3.21907237E-07
  -11.6700001       4.23057003E-07
  -11.6599998       5.26836629E-07
  -11.6499996       6.32595629E-07
  -11.6400003       7.39641337E-07
  -11.6300001       8.47242973E-07
  -11.6199999       9.54637244E-07
  -11.6099997       1.06103414E-06
  -11.6000004       1.16562194E-06
  -11.5900002       1.26757232E-06
  -11.5799999       1.36604274E-06
  -11.5699997       1.46017851E-06
  -11.5600004       1.54911265E-06
  -11.5500002       1.63196478E-06
  -11.5400000       1.70784153E-06
  -11.5299997       1.77583627E-06
  -11.5200005       1.83503130E-06
  -11.5100002       1.88450451E-06
  -11.5000000       1.92333505E-06
  -11.4899998       1.95061625E-06
  -11.4799995       1.96546489E-06
  -11.4700003       1.96703786E-06
  -11.4600000       1.95454436E-06
  -11.4499998       1.92725884E-06
  -11.4399996       1.88453305E-06
  -11.4300003       1.82580550E-06
  -11.4200001       1.75060859E-06
  -11.4099998       1.65857455E-06
  -11.3999996       1.54943791E-06
  -11.3900003       1.42303657E-06
  -11.3800001       1.27930980E-06
  -11.3699999       1.11829308E-06
  -11.3599997       9.40111363E-07
  -11.3500004       7.44967224E-07
  -11.3400002       5.33127718E-07
  -11.3299999       3.04908070E-07
  -11.3199997       6.06539885E-08
  -11.3100004      -1.99276457E-07
  -11.3000002      -4.74529088E-07
  -11.2900000      -7.64768231E-07
  -11.2799997      -1.06968662E-06
  -11.2700005      -1.38900998E-06
  -11.2600002      -1.72249679E-06
  -11.2500000      -2.06993218E-06
  -11.2399998      -2.43111595E-06
  -11.2299995      -2.80585027E-06
  -11.2200003      -3.19392007E-06
  -11.2100000      -3.59507726E-06
  -11.1999998      -4.00902172E-06
  -11.1899996      -4.43538738E-06
  -11.1800003      -4.87373018E-06
  -11.1700001      -5.32351532E-06
  -11.1599998      -5.78411891E-06
  -11.1499996      -6.25481789E-06
  -11.1400003      -6.73480190E-06
  -11.1300001      -7.22317372E-06
  -11.1199999      -7.71896157E-06
  -11.1099997      -8.22113634E-06
  -11.1000004      -8.72862529E-06
  -11.0900002      -9.24033429E-06
  -11.0799999      -9.75516559E-06
  -11.0699997      -1.02720405E-05
  -11.0600004      -1.07899268E-05
  -11.0500002      -1.13078477E-05
  -11.0400000      -1.18249045E-05
  -11.0299997      -1.23402870E-05
  -11.0200005      -1.28532838E-05
  -11.0100002      -1.33632821E-05
  -11.0000000      -1.38697633E-05
  -10.9899998      -1.43723100E-05
  -10.9799995      -1.48705712E-05
  -10.9700003      -1.53642704E-05
  -10.9600000      -1.58531784E-05
  -10.9499998      -1.63370878E-05
  -10.9399996      -1.68158003E-05
  -10.9300003      -1.72890923E-05
  -10.9200001      -1.77567072E-05
  -10.9099998      -1.82183212E-05
  -10.8999996      -1.86735306E-05
  -10.8900003      -1.91218369E-05
  -10.8800001      -1.95626344E-05
  -10.8699999      -1.99952046E-05
  -10.8599997      -2.04187018E-05
  -10.8500004      -2.08321890E-05
  -10.8400002      -2.12346185E-05
  -10.8299999      -2.16248536E-05
  -10.8199997      -2.20016991E-05
  -10.8100004      -2.23639090E-05
  -10.8000002      -2.27102137E-05
  -10.7900000      -2.30393416E-05
  -10.7799997      -2.33500450E-05
  -10.7700005      -2.36411197E-05
  -10.7600002      -2.39114252E-05
  -10.7500000      -2.41598991E-05
  -10.7399998      -2.43855739E-05
  -10.7299995      -2.45875690E-05
  -10.7200003      -2.47651260E-05
  -10.7100000      -2.49175591E-05
  -10.6999998      -2.50442754E-05
  -10.6899996      -2.51447746E-05
  -10.6800003      -2.52186019E-05
  -10.6700001      -2.52653499E-05
  -10.6599998      -2.52846385E-05
  -10.6499996      -2.52760983E-05
  -10.6400003      -2.52393529E-05
  -10.6300001      -2.51740184E-05
  -10.6199999      -2.50796729E-05
  -10.6099997      -2.49558889E-05
  -10.6000004      -2.48022006E-05
  -10.5900002      -2.46181226E-05
  -10.5799999      -2.44031598E-05
  -10.5699997      -2.41568014E-05
  -10.5600004      -2.38785487E-05
  -10.5500002      -2.35679126E-05
  -10.5400000      -2.32244347E-05
  -10.5299997      -2.28476929E-05
  -10.5200005      -2.24373161E-05
  -10.5100002      -2.19929952E-05
  -10.5000000      -2.15144864E-05
  -10.4899998      -2.10016260E-05
  -10.4799995      -2.04543376E-05
  -10.4700003      -1.98726284E-05
  -10.4600000      -1.92566113E-05
  -10.4499998      -1.86065026E-05
  -10.4399996      -1.79226245E-05
  -10.4300003      -1.72054297E-05
  -10.4200001      -1.64554986E-05
  -10.4099998      -1.56735641E-05
  -10.3999996      -1.48605022E-05
  -10.3900003      -1.40173561E-05
  -10.3800001      -1.31453326E-05
  -10.3699999      -1.22458068E-05
  -10.3599997      -1.13203123E-05
  -10.3500004      -1.03705370E-05
  -10.3400002      -9.39829624E-06
  -10.3299999      -8.40552548E-06
  -10.3199997      -7.39425468E-06
  -10.3100004      -6.36657478E-06
  -10.3000002      -5.32461991E-06
  -10.2900000      -4.27054056E-06
  -10.2799997      -3.20647450E-06
  -10.2700005      -2.13452722E-06
  -10.2600002      -1.05675122E-06
  -10.2500000       2.48726355E-08
  -10.2399998       1.10845178E-06
  -10.2299995       2.19218850E-06
  -10.2200003       3.27440011E-06
  -10.2100000       4.35352376E-06
  -10.1999998       5.42812586E-06
  -10.1899996       6.49691083E-06
  -10.1800003       7.55872406E-06
  -10.1700001       8.61255739E-06
  -10.1599998       9.65754589E-06
  -10.1499996       1.06929720E-05
  -10.1400003       1.17182508E-05
  -10.1300001       1.27329286E-05
  -10.1199999       1.37366642E-05
  -10.1099997       1.47292230E-05
  -10.1000004       1.57104605E-05
  -10.0900002       1.66803093E-05
  -10.0799999       1.76387639E-05
  -10.0699997       1.85858680E-05
  -10.0600004       1.95216981E-05
  -10.0500002       2.04463468E-05
  -10.0400000       2.13599160E-05
  -10.0299997       2.22624931E-05
  -10.0200005       2.31541344E-05
  -10.0100002       2.40348691E-05
  -10.0000000       2.49046807E-05
  -9.98999977       2.57635129E-05
  -9.97999954       2.66112602E-05
  -9.97000027       2.74477807E-05
  -9.96000004       2.82729125E-05
  -9.94999981       2.90864682E-05
  -9.93999958       2.98882715E-05
  -9.93000031       3.06781658E-05
  -9.92000008       3.14560129E-05
  -9.90999985       3.22217311E-05
  -9.89999962       3.29753057E-05
  -9.89000034       3.37168094E-05
  -9.88000011       3.44463915E-05
  -9.86999989       3.51643321E-05
  -9.85999966       3.58710204E-05
  -9.85000038       3.65669694E-05
  -9.84000015       3.72528229E-05
  -9.82999992       3.79293524E-05
  -9.81999969       3.85974563E-05
  -9.81000042       3.92581605E-05
  -9.80000019       3.99126002E-05
  -9.78999996       4.05620340E-05
  -9.77999973       4.12078189E-05
  -9.77000046       4.18513955E-05
  -9.76000023       4.24943028E-05
  -9.75000000       4.31381450E-05
  -9.73999977       4.37845811E-05
  -9.72999954       4.44352881E-05
  -9.72000027       4.50919470E-05
  -9.71000004       4.57562237E-05
  -9.69999981       4.64297445E-05
  -9.68999958       4.71140411E-05
  -9.68000031       4.78105503E-05
  -9.67000008       4.85206001E-05
  -9.65999985       4.92453510E-05
  -9.64999962       4.99857852E-05
  -9.64000034       5.07427139E-05
  -9.63000011       5.15167194E-05
  -9.61999989       5.23081653E-05
  -9.60999966       5.31172082E-05
  -9.60000038       5.39437569E-05
  -9.59000015       5.47875134E-05
  -9.57999992       5.56479790E-05
  -9.56999969       5.65244518E-05
  -9.56000042       5.74160586E-05
  -9.55000019       5.83217443E-05
  -9.53999996       5.92403303E-05
  -9.52999973       6.01704851E-05
  -9.52000046       6.11107171E-05
  -9.51000023       6.20594365E-05
  -9.50000000       6.30149007E-05
  -9.48999977       6.39752179E-05
  -9.47999954       6.49384310E-05
  -9.47000027       6.59024590E-05
  -9.46000004       6.68651192E-05
  -9.44999981       6.78241922E-05
  -9.43999958       6.87774082E-05
  -9.43000031       6.97224823E-05
  -9.42000008       7.06571664E-05
  -9.40999985       7.15791975E-05
  -9.39999962       7.24864731E-05
  -9.39000034       7.33769557E-05
  -9.38000011       7.42487755E-05
  -9.36999989       7.51002663E-05
  -9.35999966       7.59300019E-05
  -9.35000038       7.67367965E-05
  -9.34000015       7.75197841E-05
  -9.32999992       7.82784409E-05
  -9.31999969       7.90125923E-05
  -9.31000042       7.97224639E-05
  -9.30000019       8.04087103E-05
  -9.28999996       8.10724086E-05
  -9.27999973       8.17150940E-05
  -9.27000046       8.23387891E-05
  -9.26000023       8.29459823E-05
  -9.25000000       8.35396058E-05
  -9.23999977       8.41230431E-05
  -9.22999954       8.47001284E-05
  -9.22000027       8.52750381E-05
  -9.21000004       8.58523272E-05
  -9.19999981       8.64368267E-05
  -9.18999958       8.70336298E-05
  -9.18000031       8.76480699E-05
  -9.17000008       8.82855675E-05
  -9.15999985       8.89516814E-05
  -9.14999962       8.96519996E-05
  -9.14000034       9.03920518E-05
  -9.13000011       9.11773022E-05
  -9.11999989       9.20130115E-05
  -9.10999966       9.29042071E-05
  -9.10000038       9.38556477E-05
  -9.09000015       9.48716988E-05
  -9.07999992       9.59563331E-05
  -9.06999969       9.71130357E-05
  -9.06000042       9.83448263E-05
  -9.05000019       9.96541494E-05
  -9.03999996       1.01042882E-04
  -9.02999973       1.02512298E-04
  -9.02000046       1.04063067E-04
  -9.01000023       1.05695173E-04
  -9.00000000       1.07407977E-04
  -8.98999977       1.09200235E-04
  -8.97999954       1.11070010E-04
  -8.97000027       1.13014765E-04
  -8.96000004       1.15031413E-04
  -8.94999981       1.17116186E-04
  -8.93999958       1.19264878E-04
  -8.93000031       1.21472716E-04
  -8.92000008       1.23734397E-04
  -8.90999985       1.26044208E-04
  -8.89999962       1.28395928E-04
  -8.89000034       1.30782995E-04
  -8.88000011       1.33198409E-04
  -8.86999989       1.35634895E-04
  -8.85999966       1.38084870E-04
  -8.85000038       1.40540491E-04
  -8.84000015       1.42993740E-04
  -8.82999992       1.45436439E-04
  -8.81999969       1.47860323E-04
  -8.81000042       1.50257052E-04
  -8.80000019       1.52618290E-04
  -8.78999996       1.54935755E-04
  -8.77999973       1.57201241E-04
  -8.77000046       1.59406656E-04
  -8.76000023       1.61544129E-04
  -8.75000000       1.63605961E-04
  -8.73999977       1.65584774E-04
  -8.72999954       1.67473423E-04
  -8.72000027       1.69265142E-04
  -8.71000004       1.70953615E-04
  -8.69999981       1.72532731E-04
  -8.68999958       1.73996959E-04
  -8.68000031       1.75341018E-04
  -8.67000008       1.76560279E-04
  -8.65999985       1.77650320E-04
  -8.64999962       1.78607297E-04
  -8.64000034       1.79427763E-04
  -8.63000011       1.80108676E-04
  -8.61999989       1.80647447E-04
  -8.60999966       1.81041905E-04
  -8.60000038       1.81290350E-04
  -8.59000015       1.81391340E-04
  -8.57999992       1.81343959E-04
  -8.56999969       1.81147581E-04
  -8.56000042       1.80801901E-04
  -8.55000019       1.80307019E-04
  -8.53999996       1.79663184E-04
  -8.52999973       1.78871021E-04
  -8.52000046       1.77931419E-04
  -8.51000023       1.76845351E-04
  -8.50000000       1.75614128E-04
  -8.48999977       1.74239191E-04
  -8.47999954       1.72722124E-04
  -8.47000027       1.71064676E-04
  -8.46000004       1.69268649E-04
  -8.44999981       1.67335995E-04
  -8.43999958       1.65268691E-04
  -8.43000031       1.63068791E-04
  -8.42000008       1.60738404E-04
  -8.40999985       1.58279756E-04
  -8.39999962       1.55695117E-04
  -8.39000034       1.52986860E-04
  -8.38000011       1.50157430E-04
  -8.36999989       1.47209386E-04
  -8.35999966       1.44145451E-04
  -8.35000038       1.40968405E-04
  -8.34000015       1.37681200E-04
  -8.32999992       1.34286980E-04
  -8.31999969       1.30789034E-04
  -8.31000042       1.27190884E-04
  -8.30000019       1.23496226E-04
  -8.28999996       1.19709010E-04
  -8.27999973       1.15833427E-04
  -8.27000046       1.11873931E-04
  -8.26000023       1.07835185E-04
  -8.25000000       1.03722137E-04
  -8.23999977       9.95399969E-05
  -8.22999954       9.52940973E-05
  -8.22000027       9.09901792E-05
  -8.21000004       8.66341652E-05
  -8.19999981       8.22322909E-05
  -8.18999958       7.77910391E-05
  -8.18000031       7.33171983E-05
  -8.17000008       6.88177752E-05
  -8.15999985       6.43001622E-05
  -8.14999962       5.97718790E-05
  -8.14000034       5.52408128E-05
  -8.13000011       5.07150253E-05
  -8.11999989       4.62027710E-05
  -8.10999966       4.17125702E-05
  -8.10000038       3.72531358E-05
  -8.09000015       3.28333444E-05
  -8.07999992       2.84622220E-05
  -8.06999969       2.41488960E-05
  -8.06000042       1.99025744E-05
  -8.05000019       1.57325085E-05
  -8.03999996       1.16479005E-05
  -8.02999973       7.65792265E-06
  -8.02000046       3.77165043E-06
  -8.01000023      -1.94695260E-09
  -8.00000000      -3.65405617E-06
  -7.98999977      -7.17602052E-06
  -7.98000002      -1.05593399E-05
  -7.96999979      -1.37958004E-05
  -7.96000004      -1.68774641E-05
  -7.94999981      -1.97966310E-05
  -7.94000006      -2.25459953E-05
  -7.92999983      -2.51185866E-05
  -7.92000008      -2.75078637E-05
  -7.90999985      -2.97076931E-05
  -7.90000010      -3.17123704E-05
  -7.88999987      -3.35166296E-05
  -7.88000011      -3.51157214E-05
  -7.86999989      -3.65053565E-05
  -7.86000013      -3.76818207E-05
  -7.84999990      -3.86419088E-05
  -7.84000015      -3.93829505E-05
  -7.82999992      -3.99029595E-05
  -7.82000017      -4.02004553E-05
  -7.80999994      -4.02744590E-05
  -7.80000019      -4.01245852E-05
  -7.78999996      -3.97508811E-05
  -7.78000021      -3.91539397E-05
  -7.76999998      -3.83347906E-05
  -7.76000023      -3.72949107E-05
  -7.75000000      -3.60362355E-05
  -7.73999977      -3.45611043E-05
  -7.73000002      -3.28722781E-05
  -7.71999979      -3.09729185E-05
  -7.71000004      -2.88664451E-05
  -7.69999981      -2.65566014E-05
  -7.69000006      -2.40473291E-05
  -7.67999983      -2.13428611E-05
  -7.67000008      -1.84474866E-05
  -7.65999985      -1.53657238E-05
  -7.65000010      -1.21022404E-05
  -7.63999987      -8.66183291E-06
  -7.63000011      -5.04945274E-06
  -7.61999989      -1.27011845E-06
  -7.61000013       2.67106407E-06
  -7.59999990       6.76899117E-06
  -7.59000015       1.10185319E-05
  -7.57999992       1.54146346E-05
  -7.57000017       1.99523365E-05
  -7.55999994       2.46268919E-05
  -7.55000019       2.94335550E-05
  -7.53999996       3.43677893E-05
  -7.53000021       3.94252093E-05
  -7.51999998       4.46016093E-05
  -7.51000023       4.98930167E-05
  -7.50000000       5.52955717E-05
  -7.48999977       6.08056616E-05
  -7.48000002       6.64200707E-05
  -7.46999979       7.21357501E-05
  -7.46000004       7.79499678E-05
  -7.44999981       8.38603664E-05
  -7.44000006       8.98647268E-05