  -16.0000000       0.00000000    
  -15.9899998       0.00000000    
  -15.9799995       0.00000000    
  -15.9700003       0.00000000    
  -15.9600000       0.00000000    
  -15.9499998       0.00000000    
  -15.9399996       0.00000000    
  -15.9300003       0.00000000    
  -15.9200001       0.00000000    
  -15.9099998       0.00000000    
  -15.8999996       0.00000000    
  -15.8900003       0.00000000    
  -15.8800001       0.00000000    
  -15.8699999      -4.20389539E-45
  -15.8599997      -1.12103877E-43
  -15.8500004       1.10982838E-42
  -15.8400002       3.20659128E-41
  -15.8299999       3.77309421E-40
  -15.8199997       3.10862790E-39
  -15.8100004       1.97843683E-38
  -15.8000002       1.03110209E-37
  -15.7900000       4.55674414E-37
  -15.7799997       1.73993522E-36
  -15.7700005       5.80458163E-36
  -15.7600002       1.69571446E-35
  -15.7500000       4.31224908E-35
  -15.7399998       9.35083027E-35
  -15.7299995       1.63490888E-34
  -15.7200003       1.88587968E-34
  -15.7100000      -5.52722954E-35
  -15.6999998      -1.10923541E-33
  -15.6899996      -3.97596895E-33
  -15.6800003      -1.00209711E-32
  -15.6700001      -2.01866175E-32
  -15.6599998      -3.29680204E-32
  -15.6499996      -4.09531946E-32
  -15.6400003      -2.69844191E-32
  -15.6300001       3.66872169E-32
  -15.6199999       1.80301673E-31
  -15.6099997       4.13101676E-31
  -15.6000004       6.83310117E-31
  -15.5900002       8.34545412E-31
  -15.5799999       5.92766395E-31
  -15.5699997      -3.65187303E-31
  -15.5600004      -2.21896620E-30
  -15.5500002      -4.70277486E-30
  -15.5400000      -6.81877001E-30
  -15.5299997      -6.81228580E-30
  -15.5200005      -2.69145400E-30
  -15.5100002       6.59920573E-30
  -15.5000000       1.96806628E-29
  -15.4899998       3.18207713E-29
  -15.4799995       3.58044490E-29
  -15.4700003       2.52850949E-29
  -15.4600000      -3.72753044E-31
  -15.4499998      -3.31177948E-29
  -15.4399996      -5.98175966E-29
  -15.4300003      -7.49357735E-29
  -15.4200001      -9.71653986E-29
  -15.4099998      -1.73613605E-28
  -15.3999996      -3.47883109E-28
  -15.3900003      -5.77983999E-28
  -15.3800001      -6.27937469E-28
  -15.3699999      -1.97910788E-29
  -15.3599997       1.81147636E-27
  -15.3500004       5.03368330E-27
  -15.3400002       8.63843059E-27
  -15.3299999       9.73415068E-27
  -15.3199997       3.67621200E-27
  -15.3100004      -1.40163989E-26
  -15.3000002      -4.34575522E-26
  -15.2900000      -7.48134790E-26
  -15.2799997      -8.45007094E-26
  -15.2700005      -3.84198896E-26
  -15.2600002       9.24640199E-26
  -15.2500000       3.03128678E-25
  -15.2399998       5.20648838E-25
  -15.2299995       5.86977299E-25
  -15.2200003       2.89215168E-25
  -15.2100000      -5.36840011E-25
  -15.1999998      -1.83396572E-24
  -15.1899996      -3.14203101E-24
  -15.1800003      -3.53374976E-24
  -15.1700001      -1.82851884E-24
  -15.1599998       2.80574986E-24
  -15.1499996       9.93133912E-24
  -15.1400003       1.69615444E-23
  -15.1300001       1.89851131E-23
  -15.1199999       1.00548740E-23
  -15.1099997      -1.36520521E-23
  -15.1000004      -4.93373269E-23
  -15.0900002      -8.36771647E-23
  -15.0799999      -9.26887204E-23
  -15.0699997      -4.86780790E-23
  -15.0600004       6.44362792E-23
  -15.0500002       2.30691580E-22
  -15.0400000       3.85934660E-22
  -15.0299997       4.20180993E-22
  -15.0200005       2.11981920E-22
  -15.0100002      -3.01892424E-22
  -15.0000000      -1.03859705E-21
  -14.9899998      -1.70568116E-21
  -14.9799995      -1.82194547E-21
  -14.9700003      -8.75252307E-22
  -14.9600000       1.37697057E-21
  -14.9499998       4.54480857E-21
  -14.9399996       7.36102049E-21
  -14.9300003       7.79653836E-21
  -14.9200001       3.73549877E-21
  -14.9099998      -5.78872423E-21
  -14.8999996      -1.91379350E-20
  -14.8900003      -3.11167607E-20
  -14.8800001      -3.34646935E-20
  -14.8699999      -1.75391694E-20
  -14.8599997       2.08352983E-20
  -14.8500004       7.56766411E-20
  -14.8400002       1.27050948E-19
  -14.8299999       1.42696992E-19
  -14.8199997       8.78737875E-20
  -14.8100004      -5.65782233E-20
  -14.8000002      -2.72639867E-19
  -14.7900000      -4.89756942E-19
  -14.7799997      -5.88437986E-19
  -14.7700005      -4.33254070E-19
  -14.7600002       6.37421826E-20
  -14.7500000       8.64168045E-19
  -14.7399998       1.74179608E-18
  -14.7299995       2.28231063E-18
  -14.7200003       1.98263736E-18
  -14.7100000       4.58890439E-19
  -14.6999998      -2.27968743E-18
  -14.6899996      -5.59333947E-18
  -14.6800003      -8.15525638E-18
  -14.6700001      -8.21170980E-18
  -14.6599998      -4.21187464E-18
  -14.6499996       4.29648115E-18
  -14.6400003       1.58017371E-17
  -14.6300001       2.64409623E-17
  -14.6199999       3.05485179E-17
  -14.6099997       2.23910992E-17
  -14.6000004      -1.10514153E-18
  -14.5900002      -3.74146927E-17
  -14.5799999      -7.65548444E-17
  -14.5699997      -1.01768547E-16
  -14.5600004      -9.37575277E-17
  -14.5500002      -3.83205348E-17
  -14.5400000       6.44181262E-17
  -14.5299997       1.92652482E-16
  -14.5200005       3.01735370E-16
  -14.5100002       3.32822538E-16
  -14.5000000       2.32211436E-16
  -14.4899998      -2.21370158E-17
  -14.4799995      -3.95298577E-16
  -14.4700003      -7.83138076E-16
  -14.4600000      -1.02463892E-15
  -14.4499998      -9.44840795E-16
  -14.4399996      -4.23747608E-16
  -14.4300003       5.26727438E-16
  -14.4200001       1.70724086E-15
  -14.4099998       2.73005114E-15
  -14.3999996       3.09701482E-15
  -14.3900003       2.35802919E-15
  -14.3800001       3.18383962E-16
  -14.3699999      -2.77021892E-15
  -14.3599997      -6.12039623E-15
  -14.3500004      -8.50024498E-15
  -14.3400002      -8.54191646E-15
  -14.3299999      -5.23130301E-15
  -14.3199997       1.54449936E-15
  -14.3100004       1.05866709E-14
  -14.3000002       1.93262747E-14
  -14.2900000       2.42770485E-14
  -14.2799997       2.20180895E-14
  -14.2700005       1.05272770E-14
  -14.2600002      -9.51522423E-15
  -14.2500000      -3.39594380E-14
  -14.2399998      -5.54389434E-14
  -14.2299995      -6.49155819E-14
  -14.2200003      -5.43986039E-14
  -14.2100000      -2.02453343E-14
  -14.1999998       3.39654452E-14
  -14.1899996       9.61777248E-14
  -14.1800003       1.47216820E-13
  -14.1700001       1.65145526E-13
  -14.1599998       1.32050024E-13
  -14.1499996       4.16530248E-14
  -14.1400003      -9.46524150E-14
  -14.1300001      -2.45937006E-13
  -14.1199999      -3.65983285E-13
  -14.1099997      -4.04068624E-13
  -14.1000004      -3.20608801E-13
  -14.0900002      -1.03849201E-13
  -14.0799999       2.17676476E-13
  -14.0699997       5.72278390E-13
  -14.0600004       8.55550006E-13
  -14.0500002       9.54484538E-13
  -14.0400000       7.81281778E-13
  -14.0299997       3.08658481E-13
  -14.0200005      -4.04239495E-13
  -14.0100002      -1.20604232E-12
  -14.0000000      -1.87471349E-12
  -13.9899998      -2.16687974E-12
  -13.9799995      -1.88687412E-12
  -13.9700003      -9.59183037E-13
  -13.9600000       5.16893060E-13
  -13.9499998       2.25158043E-12
  -13.9399996       3.80215824E-12
  -13.9300003       4.66543991E-12
  -13.9200001       4.41070140E-12
  -13.9099998       2.82328306E-12
  -13.8999996       1.91638358E-14
  -13.8900003      -3.50969275E-12
  -13.8800001      -6.94782600E-12
  -13.8699999      -9.31309804E-12
  -13.8599997      -9.69535216E-12
  -13.8500004      -7.52645862E-12
  -13.8400002      -2.81186858E-12
  -13.8299999       3.74932377E-12
  -13.8199997       1.08111905E-11
  -13.8100004       1.66137624E-11
  -13.8000002       1.93727742E-11
  -13.7900000       1.77479646E-11
  -13.7799997       1.12771806E-11
  -13.7700005       6.53250566E-13
  -13.7600002      -1.22550217E-11
  -13.7500000      -2.46826413E-11
  -13.7399998      -3.35199125E-11
  -13.7299995      -3.60289645E-11
  -13.7200003      -3.05635864E-11
  -13.7100000      -1.71092324E-11
  -13.6999998       2.50957848E-12
  -13.6899996       2.48373058E-11
  -13.6800003       4.53934945E-11
  -13.6700001       5.95572897E-11
  -13.6599998       6.35385078E-11
  -13.6499996       5.52165293E-11
  -13.6400003       3.46603753E-11
  -13.6300001       4.22793007E-12
  -13.6199999      -3.17560457E-11
  -13.6099997      -6.76439321E-11
  -13.6000004      -9.72769781E-11
  -13.5900002      -1.14811022E-10
  -13.5799999      -1.15454118E-10
  -13.5699997      -9.60947502E-11
  -13.5600004      -5.58620233E-11
  -13.5500002       3.32640382E-12
  -13.5400000       7.62357191E-11
  -13.5299997       1.53938848E-10
  -13.5200005       2.23865496E-10
  -13.5100002       2.70639594E-10
  -13.5000000       2.78024853E-10
  -13.4899998       2.32089209E-10
  -13.4799995       1.25311345E-10
  -13.4700003      -3.91186424E-11
  -13.4600000      -2.43963599E-10
  -13.4499998      -4.56957056E-10
  -13.4399996      -6.33376851E-10
  -13.4300003      -7.22784554E-10
  -13.4200001      -6.79526824E-10
  -13.4099998      -4.75401496E-10
  -13.3999996      -1.11750172E-10
  -13.3900003       3.72381043E-10
  -13.3800001       8.99290531E-10
  -13.3699999       1.36106626E-09
  -13.3599997       1.63770242E-09
  -13.3500004       1.62268199E-09
  -13.3400002       1.25136812E-09
  -13.3299999       5.25725352E-10
  -13.3199997      -4.71496675E-10
  -13.3100004      -1.57886593E-09
  -13.3000002      -2.57738986E-09
  -13.2900000      -3.22924709E-09
  -13.2799997      -3.32813133E-09
  -13.2700005      -2.75132606E-09
  -13.2600002      -1.50145585E-09
  -13.2500000       2.73356032E-10
  -13.2399998       2.28904740E-09
  -13.2299995       4.16705515E-09
  -13.2200003       5.50245982E-09
  -13.2100000       5.94703087E-09
  -13.1999998       5.29019895E-09
  -13.1899996       3.51972673E-09
  -13.1800003       8.46423875E-10
  -13.1700001      -2.31603337E-09
  -13.1599998      -5.41588863E-09
  -13.1499996      -7.86213405E-09
  -13.1400003      -9.13876175E-09
  -13.1300001      -8.91077079E-09
  -13.1199999      -7.09956272E-09
  -13.1099997      -3.91019706E-09
  -13.1000004       1.96157632E-10
  -13.0900002       4.57987115E-09
  -13.0799999       8.53493010E-09
  -13.0699997       1.14120962E-08
  -13.0600004       1.27282132E-08
  -13.0500002       1.22404842E-08
  -13.0400000       9.97341232E-09
  -13.0299997       6.19757312E-09
  -13.0200005       1.37083722E-09
  -13.0100002      -3.94068245E-09
  -13.0000000      -9.14088982E-09
  -12.9899998      -1.36652680E-08
  -12.9799995      -1.70168892E-08
  -12.9700003      -1.87795504E-08
  -12.9600000      -1.86193478E-08
  -12.9499998      -1.62915708E-08
  -12.9399996      -1.16676695E-08
  -12.9300003      -4.79000750E-09
  -12.9200001       4.05187484E-09
  -12.9099998       1.42429402E-08
  -12.8999996       2.47927900E-08
  -12.8900003       3.43480124E-08
  -12.8800001       4.12939656E-08
  -12.8699999       4.39548025E-08
  -12.8599997       4.08772109E-08
  -12.8500004       3.11564712E-08
  -12.8400002       1.47398325E-08
  -12.8299999      -7.36434824E-09
  -12.8199997      -3.30381020E-08
  -12.8100004      -5.92069540E-08
  -12.8000002      -8.21954771E-08
  -12.7900000      -9.82395960E-08
  -12.7799997      -1.04070267E-07
  -12.7700005      -9.74566632E-08
  -12.7600002      -7.75979387E-08
  -12.7500000      -4.52787354E-08
  -12.7399998      -2.76023671E-09
  -12.7299995       4.65615244E-08
  -12.7200003       9.86362423E-08
  -12.7100000       1.49246588E-07
  -12.6999998       1.94367729E-07
  -12.6899996       2.30306057E-07
  -12.6800003       2.53594436E-07
  -12.6700001       2.60710749E-07
  -12.6599998       2.47776057E-07
  -12.6499996       2.10426975E-07
  -12.6400003       1.44050958E-07
  -12.6300001       4.45165007E-08
  -12.6199999      -9.06105555E-08
  -12.6099997      -2.60494630E-07
  -12.6000004      -4.59380971E-07
  -12.5900002      -6.75223816E-07
  -12.5799999      -8.88961893E-07
  -12.5699997      -1.07473113E-06
  -12.5600004      -1.20116783E-06
  -12.5500002      -1.23378823E-06
  -12.5400000      -1.13822330E-06
  -12.5299997      -8.84047154E-07
  -12.5200005      -4.48788938E-07
  -12.5100002       1.78130136E-07
  -12.5000000       9.91781008E-07
  -12.4899998       1.96856536E-06
  -12.4799995       3.06348647E-06
  -12.4700003       4.20799370E-06
  -12.4600000       5.30834450E-06
  -12.4499998       6.24507175E-06
  -12.4399996       6.87356442E-06
  -12.4300003       7.02673651E-06
  -12.4200001       6.51991377E-06
  -12.4099998       5.15893908E-06
  -12.3999996       2.75077468E-06
  -12.3900003      -8.82862082E-07
  -12.3800001      -5.89023739E-06
  -12.3699999      -1.23735263E-05
  -12.3599997      -2.03735963E-05
  -12.3500004      -2.98568775E-05
  -12.3400002      -4.07065963E-05
  -12.3299999      -5.27174998E-05
  -12.3199997      -6.55971235E-05
  -12.3100004      -7.89716141E-05
  -12.3000002      -9.23972111E-05
  -12.2900000      -1.05374398E-04
  -12.2799997      -1.17367614E-04
  -12.2700005      -1.27824474E-04
  -12.2600002      -1.36198447E-04
  -12.2500000      -1.41968776E-04
  -12.2399998      -1.44661884E-04
  -12.2299995      -1.43869998E-04
  -12.2200003      -1.39264361E-04
  -12.2100000      -1.30610279E-04
  -12.1999998      -1.17772492E-04
  -12.1899996      -1.00721059E-04
  -12.1800003      -7.95281667E-05
  -12.1700001      -5.43642927E-05
  -12.1599998      -2.54899514E-05
  -12.1499996       6.75656565E-06
  -12.1400003       4.19714197E-05
  -12.1300001       7.96979075E-05
  -12.1199999       1.19441320E-04
  -12.1099997       1.60679643E-04
  -12.1000004       2.02872965E-04
  -12.0900002       2.45472387E-04
  -12.0799999       2.87927513E-04
  -12.0699997       3.29688715E-04
  -12.0600004       3.70211957E-04
  -12.0500002       4.08959168E-04
  -12.0400000       4.45398182E-04
  -12.0299997       4.79005423E-04
  -12.0200005       5.09260863E-04
  -12.0100002       5.35650994E-04
  -12.0000000       5.57666877E-04
  -11.9899998       5.74805890E-04
  -11.9799995       5.86575596E-04
  -11.9700003       5.92498982E-04
  -11.9600000       5.92123775E-04
  -11.9499998       5.85032860E-04
  -11.9399996       5.70859818E-04
  -11.9300003       5.49299759E-04
  -11.9200001       5.20129164E-04
  -11.9099998       4.83217795E-04
  -11.8999996       4.38538787E-04
  -11.8900003       3.86179978E-04
  -11.8800001       3.26344569E-04
  -11.8699999       2.59351567E-04
  -11.8599997       1.85631128E-04
  -11.8500004       1.05712199E-04
  -11.8400002       2.02101928E-05
  -11.8299999      -7.01909885E-05
  -11.8199997      -1.64757628E-04
  -11.8100004      -2.62720074E-04
  -11.8000002      -3.63297004E-04
  -11.7900000      -4.65702818E-04
  -11.7799997      -5.69164346E-04
  -11.7700005      -6.72925788E-04
  -11.7600002      -7.76248227E-04
  -11.7500000      -8.78417282E-04
  -11.7399998      -9.78730386E-04
  -11.7299995      -1.07649877E-03
  -11.7200003      -1.17103453E-03
  -11.7100000      -1.26165035E-03
  -11.6999998      -1.34764367E-03
  -11.6899996      -1.42829586E-03
  -11.6800003      -1.50286010E-03
  -11.6700001      -1.57055084E-03
  -11.6599998      -1.63054129E-03
  -11.6499996      -1.68195332E-03
  -11.6400003      -1.72386493E-03
  -11.6300001      -1.75531267E-03
  -11.6199999      -1.77531620E-03
  -11.6099997      -1.78289798E-03
  -11.6000004      -1.77712878E-03
  -11.5900002      -1.75715552E-03
  -11.5799999      -1.72224524E-03
  -11.5699997      -1.67181483E-03
  -11.5600004      -1.60544633E-03
  -11.5500002      -1.52289378E-03
  -11.5400000      -1.42407545E-03
  -11.5299997      -1.30905479E-03
  -11.5200005      -1.17801537E-03
  -11.5100002      -1.03124138E-03
  -11.5000000      -8.69097013E-04
  -11.4899998      -6.92019879E-04
  -11.4799995      -5.00519585E-04
  -11.4700003      -2.95183709E-04
  -11.4600000      -7.66830271E-05
  -11.4499998       1.54222376E-04
  -11.4399996       3.96688120E-04
  -11.4300003       6.49789581E-04
  -11.4200001       9.12535295E-04
  -11.4099998       1.18388224E-03
  -11.3999996       1.46274292E-03
  -11.3900003       1.74800109E-03
  -11.3800001       2.03850656E-03
  -11.3699999       2.33308109E-03
  -11.3599997       2.63052131E-03
  -11.3500004       2.92960019E-03
  -11.3400002       3.22908792E-03
  -11.3299999       3.52776842E-03
  -11.3199997       3.82447639E-03
  -11.3100004       4.11811797E-03
  -11.3000002       4.40770900E-03
  -11.2900000       4.69239336E-03
  -11.2799997       4.97145392E-03
  -11.2700005       5.24431048E-03
  -11.2600002       5.51051321E-03
  -11.2500000       5.76972123E-03
  -11.2399998       6.02168497E-03
  -11.2299995       6.26620604E-03
  -11.2200003       6.50311541E-03
  -11.2100000       6.73223985E-03
  -11.1999998       6.95336238E-03
  -11.1899996       7.16620265E-03
  -11.1800003       7.37038767E-03
  -11.1700001       7.56543409E-03
  -11.1599998       7.75076495E-03
  -11.1499996       7.92571716E-03
  -11.1400003       8.08957964E-03
  -11.1300001       8.24165810E-03
  -11.1199999       8.38131923E-03
  -11.1099997       8.50804616E-03
  -11.1000004       8.62149335E-03
  -11.0900002       8.72151367E-03
  -11.0799999       8.80816486E-03
  -11.0699997       8.88174120E-03
  -11.0600004       8.94271955E-03
  -11.0500002       8.99176672E-03
  -11.0400000       9.02970042E-03
  -11.0299997       9.05745663E-03
  -11.0200005       9.07604769E-03
  -11.0100002       9.08649992E-03
  -11.0000000       9.08981171E-03
  -10.9899998       9.08688921E-03
  -10.9799995       9.07848869E-03
  -10.9700003       9.06517357E-03
  -10.9600000       9.04729404E-03
  -10.9499998       9.02498420E-03
  -10.9399996       8.99818446E-03
  -10.9300003       8.96668341E-03
  -10.9200001       8.93016905E-03
  -10.9099998       8.88825394E-03
  -10.8999996       8.84055719E-03
  -10.8900003       8.78668856E-03
  -10.8800001       8.72629415E-03
  -10.8699999       8.65905266E-03
  -10.8599997       8.58469307E-03
  -10.8500004       8.50298442E-03
  -10.8400002       8.41376558E-03
  -10.8299999       8.31693131E-03
  -10.8199997       8.21240712E-03
  -10.8100004       8.10015760E-03
  -10.8000002       7.98010733E-03
  -10.7900000       7.85211939E-03
  -10.7799997       7.71595631E-03
  -10.7700005       7.57122412E-03
  -10.7600002       7.41743250E-03
  -10.7500000       7.25400262E-03
  -10.7399998       7.08035473E-03
  -10.7299995       6.89599244E-03
  -10.7200003       6.70057489E-03
  -10.7100000       6.49399729E-03
  -10.6999998       6.27639052E-03
  -10.6899996       6.04813173E-03
  -10.6800003       5.80978673E-03
  -10.6700001       5.56207029E-03
  -10.6599998       5.30577963E-03
  -10.6499996       5.04175434E-03
  -10.6400003       4.77085542E-03
  -10.6300001       4.49395692E-03
  -10.6199999       4.21191892E-03
  -10.6099997       3.92559078E-03
  -10.6000004       3.63581581E-03
  -10.5900002       3.34338425E-03
  -10.5799999       3.04902927E-03
  -10.5699997       2.75343470E-03
  -10.5600004       2.45725666E-03
  -10.5500002       2.16117245E-03
  -10.5400000       1.86592597E-03
  -10.5299997       1.57236261E-03
  -10.5200005       1.28144561E-03
  -10.5100002       9.94225848E-04
  -10.5000000       7.11742905E-04
  -10.4899998       4.34940768E-04
  -10.4799995       1.64527257E-04
  -10.4700003      -9.90861372E-05
  -10.4600000      -3.55829165E-04
  -10.4499998      -6.05931622E-04
  -10.4399996      -8.49859556E-04
  -10.4300003      -1.08816673E-03
  -10.4200001      -1.32140319E-03
  -10.4099998      -1.55001518E-03
  -10.3999996      -1.77432888E-03
  -10.3900003      -1.99456117E-03
  -10.3800001      -2.21089786E-03
  -10.3699999      -2.42358330E-03
  -10.3599997      -2.63299537E-03
  -10.3500004      -2.83968076E-03
  -10.3400002      -3.04439967E-03
  -10.3299999      -3.24804988E-03
  -10.3199997      -3.45163187E-03
  -10.3100004      -3.65618337E-03
  -10.3000002      -3.86270741E-03
  -10.2900000      -4.07211715E-03
  -10.2799997      -4.28518793E-03
  -10.2700005      -4.50250460E-03
  -10.2600002      -4.72440803E-03
  -10.2500000      -4.95095970E-03
  -10.2399998      -5.18189557E-03
  -10.2299995      -5.41666569E-03
  -10.2200003      -5.65444445E-03
  -10.2100000      -5.89427678E-03
  -10.1999998      -6.13516849E-03
  -10.1899996      -6.37624413E-03
  -10.1800003      -6.61684014E-03
  -10.1700001      -6.85656955E-03
  -10.1599998      -7.09527219E-03
  -10.1499996      -7.33295968E-03
  -10.1400003      -7.56962271E-03
  -10.1300001      -7.80513557E-03
  -10.1199999      -8.03911593E-03
  -10.1099997      -8.27088952E-03
  -10.1000004      -8.49950686E-03
  -10.0900002      -8.72382428E-03
  -10.0799999      -8.94260500E-03
  -10.0699997      -9.15462524E-03
  -10.0600004      -9.35873948E-03
  -10.0500002      -9.55389347E-03
  -10.0400000      -9.73912794E-03
  -10.0299997      -9.91352461E-03
  -10.0200005      -1.00761913E-02
  -10.0100002      -1.02262674E-02
  -10.0000000      -1.03629297E-02
  -9.98999977      -1.04854545E-02
  -9.97999954      -1.05932523E-02
  -9.97000027      -1.06858471E-02
  -9.96000004      -1.07628815E-02
  -9.94999981      -1.08239930E-02
  -9.93999958      -1.08687682E-02
  -9.93000031      -1.08966324E-02
  -9.92000008      -1.09068230E-02
  -9.90999985      -1.08984141E-02
  -9.89999962      -1.08703934E-02
  -9.89000034      -1.08218025E-02
  -9.88000011      -1.07518537E-02
  -9.86999989      -1.06600411E-02
  -9.85999966      -1.05462139E-02
  -9.85000038      -1.04105659E-02
  -9.84000015      -1.02535719E-02
  -9.82999992      -1.00759435E-02
  -9.81999969      -9.87855811E-03
  -9.81000042      -9.66240838E-03
  -9.80000019      -9.42861289E-03
  -9.78999996      -9.17844288E-03
  -9.77999973      -8.91334750E-03
  -9.77000046      -8.63497052E-03
  -9.76000023      -8.34514201E-03
  -9.75000000      -8.04583356E-03
  -9.73999977      -7.73907127E-03
  -9.72999954      -7.42683886E-03
  -9.72000027      -7.11103668E-03
  -9.71000004      -6.79339049E-03
  -9.69999981      -6.47545513E-03
  -9.68999958      -6.15861081E-03
  -9.68000031      -5.84408734E-03
  -9.67000008      -5.53298881E-03
  -9.65999985      -5.22629684E-03
  -9.64999962      -4.92492225E-03
  -9.64000034      -4.62967297E-03
  -9.63000011      -4.34127590E-03
  -9.61999989      -4.06039879E-03
  -9.60999966      -3.78764165E-03
  -9.60000038      -3.52354138E-03
  -9.59000015      -3.26852850E-03
  -9.57999992      -3.02287587E-03
  -9.56999969      -2.78661703E-03
  -9.56000042      -2.55943602E-03
  -9.55000019      -2.34059268E-03
  -9.53999996      -2.12888629E-03
  -9.52999973      -1.92271068E-03
  -9.52000046      -1.72016665E-03
  -9.51000023      -1.51922856E-03
  -9.50000000      -1.31803274E-03
  -9.48999977      -1.11504400E-03
  -9.47999954      -9.09239578E-04
  -9.47000027      -7.00201315E-04
  -9.46000004      -4.88095975E-04
  -9.44999981      -2.73574871E-04
  -9.43999958      -5.76094390E-05
  -9.43000031       1.58649316E-04
  -9.42000008       3.74024734E-04
  -9.40999985       5.87343180E-04
  -9.39999962       7.97433313E-04
  -9.39000034       1.00305537E-03
  -9.38000011       1.20275957E-03
  -9.36999989       1.39480084E-03
  -9.35999966       1.57705660E-03
  -9.35000038       1.74702599E-03
  -9.34000015       1.90184487E-03
  -9.32999992       2.03842670E-03
  -9.31999969       2.15353421E-03
  -9.31000042       2.24392582E-03
  -9.30000019       2.30642851E-03
  -9.28999996       2.33799219E-03
  -9.27999973       2.33569904E-03
  -9.27000046       2.29677930E-03
  -9.26000023       2.21858430E-03
  -9.25000000       2.09860737E-03
  -9.23999977       1.93447887E-03
  -9.22999954       1.72401709E-03
  -9.22000027       1.46524620E-03
  -9.21000004       1.15642871E-03
  -9.19999981       7.96073582E-04
  -9.18999958       3.82896484E-04
  -9.18000031      -8.41559304E-05
  -9.17000008      -6.05978479E-04
  -9.15999985      -1.18326419E-03
  -9.14999962      -1.81650172E-03
  -9.14000034      -2.50588497E-03
  -9.13000011      -3.25123803E-03
  -9.11999989      -4.05190885E-03
  -9.10999966      -4.90672374E-03
  -9.10000038      -5.81392460E-03
  -9.09000015      -6.77120406E-03
  -9.07999992      -7.77575187E-03
  -9.06999969      -8.82432237E-03
  -9.06000042      -9.91328619E-03
  -9.05000019      -1.10386834E-02
  -9.03999996      -1.21962102E-02
  -9.02999973      -1.33811804E-02
  -9.02000046      -1.45884771E-02
  -9.01000023      -1.58124957E-02
  -9.00000000      -1.70471426E-02
  -8.98999977      -1.82858929E-02
  -8.97999954      -1.95218418E-02
  -8.97000027      -2.07478311E-02
  -8.96000004      -2.19565630E-02
  -8.94999981      -2.31407192E-02
  -8.93999958      -2.42929999E-02
  -8.93000031      -2.54061446E-02
  -8.92000008      -2.64730100E-02
  -8.90999985      -2.74865329E-02
  -8.89999962      -2.84397677E-02
  -8.89000034      -2.93259900E-02
  -8.88000011      -3.01387534E-02
  -8.86999989      -3.08719948E-02
  -8.85999966      -3.15201469E-02
  -8.85000038      -3.20781618E-02
  -8.84000015      -3.25415730E-02
  -8.82999992      -3.29064652E-02
  -8.81999969      -3.31694856E-02
  -8.81000042      -3.33278328E-02
  -8.80000019      -3.33792493E-02
  -8.78999996      -3.33220661E-02
  -8.77999973      -3.31552662E-02
  -8.77000046      -3.28784212E-02
  -8.76000023      -3.24917249E-02
  -8.75000000      -3.19958404E-02
  -8.73999977      -3.13917696E-02
  -8.72999954      -3.06806900E-02
  -8.72000027      -2.98638009E-02
  -8.71000004      -2.89421976E-02
  -8.69999981      -2.79168915E-02
  -8.68999958      -2.67888345E-02
  -8.68000031      -2.55590249E-02
  -8.67000008      -2.42286362E-02
  -8.65999985      -2.27991659E-02
  -8.64999962      -2.12723874E-02
  -8.64000034      -1.96504164E-02
  -8.63000011      -1.79356746E-02
  -8.61999989      -1.61307566E-02
  -8.60999966      -1.42384702E-02
  -8.60000038      -1.22617995E-02
  -8.59000015      -1.02039734E-02
  -8.57999992      -8.06852523E-03
  -8.56999969      -5.85938618E-03
  -8.56000042      -3.58096138E-03
  -8.55000019      -1.23806996E-03
  -8.53999996       1.16403599E-03
  -8.52999973       3.61981965E-03
  -8.52000046       6.12347340E-03
  -8.51000023       8.66902713E-03
  -8.50000000       1.12503581E-02
  -8.48999977       1.38611738E-02
  -8.47999954       1.64950322E-02
  -8.47000027       1.91453267E-02
  -8.46000004       2.18053795E-02
  -8.44999981       2.44685262E-02
  -8.43999958       2.71283071E-02
  -8.43000031       2.97786016E-02
  -8.42000008       3.24138440E-02
  -8.40999985       3.50290462E-02
  -8.39999962       3.76198851E-02
  -8.39000034       4.01826575E-02
  -8.38000011       4.27141860E-02
  -8.36999989       4.52117287E-02
  -8.35999966       4.76729237E-02
  -8.35000038       5.00956476E-02
  -8.34000015       5.24780639E-02
  -8.32999992       5.48185483E-02
  -8.31999969       5.71155958E-02
  -8.31000042       5.93678430E-02
  -8.30000019       6.15739562E-02
  -8.28999996       6.37325495E-02
  -8.27999973       6.58420771E-02
  -8.27000046       6.79007769E-02
  -8.26000023       6.99066818E-02
  -8.25000000       7.18574971E-02
  -8.23999977       7.37506747E-02
  -8.22999954       7.55833238E-02
  -8.22000027       7.73521811E-02
  -8.21000004       7.90535659E-02
  -8.19999981       8.06833357E-02
  -8.18999958       8.22368413E-02
  -8.18000031       8.37089345E-02
  -8.17000008       8.50940794E-02
  -8.15999985       8.63864720E-02
  -8.14999962       8.75801221E-02
  -8.14000034       8.86690766E-02
  -8.13000011       8.96474719E-02
  -8.11999989       9.05096009E-02
  -8.10999966       9.12499055E-02
  -8.10000038       9.18629840E-02
  -8.09000015       9.23434645E-02
  -8.07999992       9.26861688E-02
  -8.06999969       9.28859711E-02
  -8.06000042       9.29379910E-02
  -8.05000019       9.28376541E-02
  -8.03999996       9.25807431E-02
  -8.02999973       9.21635628E-02
  -8.02000046       9.15828645E-02
  -8.01000023       9.08359215E-02
  -8.00000000       8.99205357E-02
  -7.98999977       8.88349861E-02
  -7.98000002       8.75781104E-02
  -7.96999979       8.61493573E-02
  -7.96000004       8.45488161E-02
  -7.94999981       8.27773288E-02
  -7.94000006       8.08364972E-02
  -7.92999983       7.87286609E-02
  -7.92000008       7.64567927E-02
  -7.90999985       7.40244389E-02
  -7.90000010       7.14355856E-02
  -7.88999987       6.86945319E-02
  -7.88000011       6.58059716E-02
  -7.86999989       6.27749562E-02
  -7.86000013       5.96069917E-02
  -7.84999990       5.63081205E-02
  -7.84000015       5.28851114E-02
  -7.82999992       4.93451990E-02
  -7.82000017       4.56962809E-02
  -7.80999994       4.19466570E-02
  -7.80000019       3.81049961E-02
  -7.78999996       3.41801196E-02
  -7.78000021       3.01810130E-02
  -7.76999998       2.61168014E-02
  -7.76000023       2.19967403E-02
  -7.75000000       1.78303290E-02
  -7.73999977       1.36273457E-02
  -7.73000002       9.39781312E-03
  -7.71999979       5.15198288E-03
  -7.71000004       9.00203187E-04
  -7.69999981      -3.34721664E-03
  -7.69000006      -7.58005260E-03
  -7.67999983      -1.17883617E-02
  -7.67000008      -1.59624461E-02
  -7.65999985      -2.00928263E-02
  -7.65000010      -2.41702702E-02
  -7.63999987      -2.81856954E-02
  -7.63000011      -3.21302749E-02
  -7.61999989      -3.59954797E-02
  -7.61000013      -3.97731997E-02
  -7.59999990      -4.34558727E-02
  -7.59000015      -4.70366366E-02
  -7.57999992      -5.05093746E-02
  -7.57000017      -5.38687445E-02
  -7.55999994      -5.71100824E-02
  -7.55000019      -6.02293313E-02
  -7.53999996      -6.32229298E-02
  -7.53000021      -6.60877675E-02
  -7.51999998      -6.88212067E-02
  -7.51000023      -7.14212209E-02
  -7.50000000      -7.38863572E-02
  -7.48999977      -7.62160569E-02
  -7.48000002      -7.84105808E-02
  -7.46999979      -8.04710090E-02
  -7.46000004      -8.23991373E-02
  -7.44999981      -8.41972902E-02
  -7.44000006      -8.58681127E-02