  -16.0000000       0.00000000    
  -15.9899998       0.00000000    
  -15.9799995       0.00000000    
  -15.9700003       0.00000000    
  -15.9600000       0.00000000    
  -15.9499998       0.00000000    
  -15.9399996       0.00000000    
  -15.9300003       0.00000000    
  -15.9200001       0.00000000    
  -15.9099998       0.00000000    
  -15.8999996       0.00000000    
  -15.8900003       0.00000000    
  -15.8800001       0.00000000    
  -15.8699999      -1.40129846E-45
  -15.8599997       9.80908925E-45
  -15.8500004       2.80259693E-43
  -15.8400002      -5.86863797E-42
  -15.8299999      -1.13491163E-40
  -15.8199997      -1.49881763E-39
  -15.8100004      -1.37941313E-38
  -15.8000002      -9.63023985E-38
  -15.7900000      -5.41972562E-37
  -15.7799997      -2.55472467E-36
  -15.7700005      -1.03402514E-35
  -15.7600002      -3.65581785E-35
  -15.7500000      -1.14104284E-34
  -15.7399998      -3.16176596E-34
  -15.7299995      -7.78132904E-34
  -15.7200003      -1.69001190E-33
  -15.7100000      -3.17996495E-33
  -15.6999998      -4.94496017E-33
  -15.6899996      -5.45727771E-33
  -15.6800003      -7.02950259E-34
  -15.6700001       1.71340747E-32
  -15.6599998       5.97138611E-32
  -15.6499996       1.38754883E-31
  -15.6400003       2.55035043E-31
  -15.6300001       3.77766151E-31
  -15.6199999       4.16598160E-31
  -15.6099997       1.98295741E-31
  -15.6000004      -5.25308019E-31
  -15.5900002      -1.99618651E-30
  -15.5799999      -4.24756401E-30
  -15.5699997      -6.75214563E-30
  -15.5600004      -7.96894892E-30
  -15.5500002      -5.00228029E-30
  -15.5400000       6.14309097E-30
  -15.5299997       2.89235286E-29
  -15.5200005       6.23805218E-29
  -15.5100002       9.48885822E-29
  -15.5000000       9.75867680E-29
  -15.4899998       2.34921519E-29
  -15.4799995      -1.77314616E-28
  -15.4700003      -5.15393346E-28
  -15.4600000      -8.91586542E-28
  -15.4499998      -1.02509807E-27
  -15.4399996      -4.49335104E-28
  -15.4300003       1.31863580E-27
  -15.4200001       4.34678729E-27
  -15.4099998       7.63920729E-27
  -15.3999996       8.59074995E-27
  -15.3900003       3.21124166E-27
  -15.3800001      -1.20512578E-26
  -15.3699999      -3.64773473E-26
  -15.3599997      -6.01815760E-26
  -15.3500004      -6.13147254E-26
  -15.3400002      -1.05713008E-26
  -15.3299999       1.12004924E-25
  -15.3199997       2.87953952E-25
  -15.3100004       4.30146377E-25
  -15.3000002       3.76593321E-25
  -15.2900000      -5.81224641E-26
  -15.2799997      -9.51668583E-25
  -15.2700005      -2.08457875E-24
  -15.2600002      -2.78782616E-24
  -15.2500000      -1.99654660E-24
  -15.2399998       1.30900670E-24
  -15.2299995       7.21967315E-24
  -15.2200003       1.38194105E-23
  -15.2100000       1.65803290E-23
  -15.1999998       9.20899576E-24
  -15.1899996      -1.32306994E-23
  -15.1800003      -4.90542457E-23
  -15.1700001      -8.44955353E-23
  -15.1599998      -9.20659052E-23
  -15.1499996      -3.77462370E-23
  -15.1400003       9.98348346E-23
  -15.1300001       3.01083216E-22
  -15.1199999       4.80321275E-22
  -15.1099997       4.85363774E-22
  -15.1000004       1.45053017E-22
  -15.0900002      -6.25434169E-22
  -15.0799999      -1.68431371E-21
  -15.0699997      -2.55590974E-21
  -15.0600004      -2.46102529E-21
  -15.0500002      -5.85020156E-22
  -15.0400000       3.39445722E-21
  -15.0299997       8.65699522E-21
  -15.0200005       1.28022550E-20
  -15.0100002       1.20991563E-20
  -15.0000000       2.82765674E-21
  -14.9899998      -1.62706087E-20
  -14.9799995      -4.11300082E-20
  -14.9700003      -6.06091326E-20
  -14.9600000      -5.78616264E-20
  -14.9499998      -1.64238585E-20
  -14.9399996       6.91340237E-20
  -14.9300003       1.81132870E-19
  -14.9200001       2.71687963E-19
  -14.9099998       2.68735368E-19
  -14.8999996       1.01333916E-19
  -14.8900003      -2.56743576E-19
  -14.8800001      -7.37894272E-19
  -14.8699999      -1.15124878E-18
  -14.8599997      -1.20445728E-18
  -14.8500004      -6.00421559E-19
  -14.8400002       7.94414799E-19
  -14.8299999       2.75727981E-18
  -14.8199997       4.58506462E-18
  -14.8100004       5.15637180E-18
  -14.8000002       3.27045211E-18
  -14.7900000      -1.74068579E-18
  -14.7799997      -9.28514373E-18
  -14.7700005      -1.69925811E-17
  -14.7600002      -2.08221841E-17
  -14.7500000      -1.61404113E-17
  -14.7399998       1.93572206E-19
  -14.7299995       2.72112957E-17
  -14.7200003       5.77379810E-17
  -14.7100000       7.82332203E-17
  -14.6999998       7.18303196E-17
  -14.6899996       2.49329740E-17
  -14.6800003      -6.38910599E-17
  -14.6700001      -1.75875340E-16
  -14.6599998      -2.69436734E-16
  -14.6499996      -2.87396850E-16
  -14.6400003      -1.76072712E-16
  -14.6300001       8.64745465E-17
  -14.6199999       4.61732271E-16
  -14.6099997       8.35242302E-16
  -14.6000004       1.02898844E-15
  -14.5900002       8.50782444E-16
  -14.5799999       1.76957041E-16
  -14.5699997      -9.53022286E-16
  -14.5600004      -2.26797434E-15
  -14.5500002      -3.26775973E-15
  -14.5400000      -3.33237225E-15
  -14.5299997      -1.94118458E-15
  -14.5200005       1.04241010E-15
  -14.5100002       5.11694043E-15
  -14.5000000       9.04791107E-15
  -14.4899998       1.10504757E-14
  -14.4799995       9.30152544E-15
  -14.4700003       2.71133574E-15
  -14.4600000      -8.26007048E-15
  -14.4499998      -2.10728668E-14
  -14.4399996      -3.12213939E-14
  -14.4300003      -3.32309897E-14
  -14.4200001      -2.25073493E-14
  -14.4099998       2.36471016E-15
  -14.3999996       3.76364555E-14
  -14.3900003       7.36785307E-14
  -14.3800001       9.63587120E-14
  -14.3699999       9.08245443E-14
  -14.3599997       4.71422455E-14
  -14.3500004      -3.37199615E-14
  -14.3400002      -1.35814157E-13
  -14.3299999      -2.28408763E-13
  -14.3199997      -2.72045380E-13
  -14.3100004      -2.30331677E-13
  -14.3000002      -8.50780018E-14
  -14.2900000       1.49803184E-13
  -14.2799997       4.21424587E-13
  -14.2700005       6.43222997E-13
  -14.2600002       7.14799422E-13
  -14.2500000       5.54033815E-13
  -14.2399998       1.33759093E-13
  -14.2299995      -4.88926770E-13
  -14.2200003      -1.16400433E-12
  -14.2100000      -1.67055313E-12
  -14.1999998      -1.77160142E-12
  -14.1899996      -1.29270737E-12
  -14.1800003      -2.03885127E-13
  -14.1700001       1.32317822E-12
  -14.1599998       2.91030806E-12
  -14.1499996       4.03817257E-12
  -14.1400003       4.18016706E-12
  -14.1300001       2.97890055E-12
  -14.1199999       4.17493080E-13
  -14.1099997      -3.07419476E-12
  -14.1000004      -6.63250704E-12
  -14.0900002      -9.12085425E-12
  -14.0799999      -9.42521321E-12
  -14.0699997      -6.82300614E-12
  -14.0600004      -1.32316944E-12
  -14.0500002       6.14091026E-12
  -14.0400000       1.37651548E-11
  -14.0299997       1.92204863E-11
  -14.0200005       2.02509971E-11
  -14.0100002       1.53967897E-11
  -14.0000000       4.64157011E-12
  -13.9899998      -1.02348408E-11
  -13.9799995      -2.57757739E-11
  -13.9700003      -3.75097731E-11
  -13.9600000      -4.10689920E-11
  -13.9499998      -3.35227991E-11
  -13.9399996      -1.45638814E-11
  -13.9300003       1.28400381E-11
  -13.9200001       4.26333829E-11
  -13.9099998       6.68118894E-11
  -13.8999996       7.73592301E-11
  -13.8900003       6.85589710E-11
  -13.8800001       3.90745908E-11
  -13.8699999      -6.85624084E-12
  -13.8599997      -5.96181021E-11
  -13.8500004      -1.05986810E-10
  -13.8400002      -1.32227576E-10
  -13.8299999      -1.27846983E-10
  -13.8199997      -8.90269733E-11
  -13.8100004      -2.07154034E-11
  -13.8000002       6.34367281E-11
  -13.7900000       1.43567477E-10
  -13.7799997       1.98180500E-10
  -13.7700005       2.09779999E-10
  -13.7600002       1.70112133E-10
  -13.7500000       8.34843930E-11
  -13.7399998      -3.29993845E-11
  -13.7299995      -1.52730162E-10
  -13.7200003      -2.45842374E-10
  -13.7100000      -2.86965368E-10
  -13.6999998      -2.62435879E-10
  -13.6899996      -1.74811152E-10
  -13.6800003      -4.32113685E-11
  -13.6700001       1.01029581E-10
  -13.6599998       2.22466323E-10
  -13.6499996       2.91295627E-10
  -13.6400003       2.91969171E-10
  -13.6300001       2.27939639E-10
  -13.6199999       1.20840907E-10
  -13.6099997       3.88823522E-12
  -13.6000004      -8.87271229E-11
  -13.5900002      -1.33371703E-10
  -13.5799999      -1.25560368E-10
  -13.5699997      -8.23973667E-11
  -13.5600004      -3.73308190E-11
  -13.5500002      -2.80554972E-11
  -13.5400000      -8.09647696E-11
  -13.5299997      -1.97215744E-10
  -13.5200005      -3.45727030E-10
  -13.5100002      -4.66985284E-10
  -13.5000000      -4.88441843E-10
  -13.4899998      -3.48515578E-10
  -13.4799995      -2.27162369E-11
  -13.4700003       4.56564259E-10
  -13.4600000       9.94569316E-10
  -13.4499998       1.44792711E-09
  -13.4399996       1.65722558E-09
  -13.4300003       1.49206436E-09
  -13.4200001       8.97105890E-10
  -13.4099998      -7.47697182E-11
  -13.3999996      -1.25466282E-09
  -13.3900003      -2.38205189E-09
  -13.3800001      -3.16003645E-09
  -13.3699999      -3.33026562E-09
  -13.3599997      -2.74953038E-09
  -13.3500004      -1.44598933E-09
  -13.3400002       3.63461511E-10
  -13.3299999       2.30553754E-09
  -13.3199997       3.92970012E-09
  -13.3100004       4.81802021E-09
  -13.3000002       4.69894301E-09
  -13.2900000       3.53293061E-09
  -13.2799997       1.54371083E-09
  -13.2700005      -8.20568391E-10
  -13.2600002      -2.99158365E-09
  -13.2500000      -4.42782122E-09
  -13.2399998      -4.76636419E-09
  -13.2299995      -3.93620869E-09
  -13.2200003      -2.19676699E-09
  -13.2100000      -8.25902818E-11
  -13.1999998       1.73774639E-09
  -13.1899996       2.65620925E-09
  -13.1800003       2.32018471E-09
  -13.1700001       7.69601716E-10
  -13.1599998      -1.53089563E-09
  -13.1499996      -3.78705289E-09
  -13.1400003      -5.08163334E-09
  -13.1300001      -4.64675676E-09
  -13.1199999      -2.12651230E-09
  -13.1099997       2.24819474E-09
  -13.1000004       7.63313590E-09
  -13.0900002       1.27183846E-08
  -13.0799999       1.60271068E-08
  -13.0699997       1.62971840E-08
  -13.0600004       1.28469591E-08
  -13.0500002       5.82173598E-09
  -13.0400000      -3.75673670E-09
  -13.0299997      -1.41665293E-08
  -13.0200005      -2.33566393E-08
  -13.0100002      -2.94208977E-08
  -13.0000000      -3.10519503E-08
  -12.9899998      -2.78490102E-08
  -12.9799995      -2.03886312E-08
  -12.9700003      -1.00343733E-08
  -12.9600000       1.46400492E-09
  -12.9499998       1.24650512E-08
  -12.9399996       2.18680629E-08
  -12.9300003       2.93442213E-08
  -12.9200001       3.52723255E-08
  -12.9099998       4.03843075E-08
  -12.8999996       4.52131914E-08
  -12.8900003       4.95255925E-08
  -12.8800001       5.19416048E-08
  -12.8699999       4.99277029E-08
  -12.8599997       4.02545943E-08
  -12.8500004       1.98735961E-08
  -12.8400002      -1.29479369E-08
  -12.8299999      -5.75324108E-08
  -12.8199997      -1.10048624E-07
  -12.8100004      -1.63408743E-07
  -12.8000002      -2.07958394E-07
  -12.7900000      -2.32929025E-07
  -12.7799997      -2.28427950E-07
  -12.7700005      -1.87582913E-07
  -12.7600002      -1.08378828E-07
  -12.7500000       5.24870547E-09
  -12.7399998       1.43339520E-07
  -12.7299995       2.90922202E-07
  -12.7200003       4.29943668E-07
  -12.7100000       5.41727559E-07
  -12.6999998       6.09463825E-07
  -12.6899996       6.20255889E-07
  -12.6800003       5.66397432E-07
  -12.6700001       4.45739630E-07
  -12.6599998       2.61354273E-07
  -12.6499996       2.07481143E-08
  -12.6400003      -2.64838661E-07
  -12.6300001      -5.80776543E-07
  -12.6199999      -9.08824347E-07
  -12.6099997      -1.22647157E-06
  -12.6000004      -1.50625647E-06
  -12.5900002      -1.71566433E-06
  -12.5799999      -1.81818609E-06
  -12.5699997      -1.77601635E-06
  -12.5600004      -1.55436805E-06
  -12.5500002      -1.12709893E-06
  -12.5400000      -4.82705673E-07
  -12.5299997       3.70328223E-07
  -12.5200005       1.40008774E-06
  -12.5100002       2.55051077E-06
  -12.5000000       3.74380329E-06
  -12.4899998       4.88568503E-06
  -12.4799995       5.87254817E-06
  -12.4700003       6.59909256E-06
  -12.4600000       6.96492225E-06
  -12.4499998       6.87882857E-06
  -12.4399996       6.26001020E-06
  -12.4300003       5.03656884E-06
  -12.4200001       3.14204408E-06
  -12.4099998       5.11874987E-07
  -12.3999996      -2.91854258E-06
  -12.3900003      -7.21231891E-06
  -12.3800001      -1.24252683E-05
  -12.3699999      -1.85959234E-05
  -12.3599997      -2.57322954E-05
  -12.3500004      -3.37979982E-05
  -12.3400002      -4.26993502E-05
  -12.3299999      -5.22772898E-05
  -12.3199997      -6.23046290E-05
  -12.3100004      -7.24892016E-05
  -12.3000002      -8.24842355E-05
  -12.2900000      -9.19022714E-05
  -12.2799997      -1.00331446E-04
  -12.2700005      -1.07351196E-04
  -12.2600002      -1.12547554E-04
  -12.2500000      -1.15525145E-04
  -12.2399998      -1.15918185E-04
  -12.2299995      -1.13400049E-04
  -12.2200003      -1.07695734E-04
  -12.2100000      -9.85942534E-05
  -12.1999998      -8.59652864E-05
  -12.1899996      -6.97749565E-05
  -12.1800003      -5.01003487E-05
  -12.1700001      -2.71384142E-05
  -12.1599998      -1.20475158E-06
  -12.1499996       2.72777525E-05
  -12.1400003       5.78049148E-05
  -12.1300001       8.98234357E-05
  -12.1199999       1.22773839E-04
  -12.1099997       1.56126582E-04
  -12.1000004       1.89415543E-04
  -12.0900002       2.22255519E-04
  -12.0799999       2.54345126E-04
  -12.0699997       2.85451126E-04
  -12.0600004       3.15380545E-04
  -12.0500002       3.43945925E-04
  -12.0400000       3.70927388E-04
  -12.0299997       3.96045041E-04
  -12.0200005       4.18941781E-04
  -12.0100002       4.39180090E-04
  -12.0000000       4.56257141E-04
  -11.9899998       4.69626422E-04
  -11.9799995       4.78729169E-04
  -11.9700003       4.83023527E-04
  -11.9600000       4.82011936E-04
  -11.9499998       4.75259032E-04
  -11.9399996       4.62404219E-04
  -11.9300003       4.43167228E-04
  -11.9200001       4.17353265E-04
  -11.9099998       3.84855986E-04
  -11.8999996       3.45664972E-04
  -11.8900003       2.99875363E-04
  -11.8800001       2.47696298E-04
  -11.8699999       1.89460290E-04
  -11.8599997       1.25620994E-04
  -11.8500004       5.67458192E-05
  -11.8400002      -1.65087149E-05
  -11.8299999      -9.34258278E-05
  -11.8199997      -1.73267254E-04
  -11.8100004      -2.55314313E-04
  -11.8000002      -3.38897720E-04
  -11.7900000      -4.23421850E-04
  -11.7799997      -5.08366269E-04
  -11.7700005      -5.93275123E-04
  -11.7600002      -6.77730539E-04
  -11.7500000      -7.61313655E-04
  -11.7399998      -8.43568298E-04
  -11.7299995      -9.23967746E-04
  -11.7200003      -1.00188947E-03
  -11.7100000      -1.07661728E-03
  -11.6999998      -1.14734482E-03
  -11.6899996      -1.21320656E-03
  -11.6800003      -1.27330690E-03
  -11.6700001      -1.32675958E-03
  -11.6599998      -1.37271383E-03
  -11.6499996      -1.41037966E-03
  -11.6400003      -1.43904192E-03
  -11.6300001      -1.45805546E-03
  -11.6199999      -1.46684621E-03
  -11.6099997      -1.46489963E-03
  -11.6000004      -1.45176053E-03
  -11.5900002      -1.42702402E-03
  -11.5799999      -1.39034633E-03
  -11.5699997      -1.34144933E-03
  -11.5600004      -1.28012453E-03
  -11.5500002      -1.20624132E-03
  -11.5400000      -1.11974368E-03
  -11.5299997      -1.02063827E-03
  -11.5200005      -9.08985501E-04
  -11.5100002      -7.84884265E-04
  -11.5000000      -6.48463378E-04
  -11.4899998      -4.99885296E-04
  -11.4799995      -3.39357008E-04
  -11.4700003      -1.67156031E-04
  -11.4600000       1.63371642E-05
  -11.4499998       2.10605402E-04
  -11.4399996       4.14970593E-04
  -11.4300003       6.28580747E-04
  -11.4200001       8.50422250E-04
  -11.4099998       1.07934931E-03
  -11.3999996       1.31412735E-03
  -11.3900003       1.55349297E-03
  -11.3800001       1.79620774E-03
  -11.3699999       2.04110891E-03
  -11.3599997       2.28713965E-03
  -11.3500004       2.53336923E-03
  -11.3400002       2.77898554E-03
  -11.3299999       3.02328728E-03
  -11.3199997       3.26566212E-03
  -11.3100004       3.50556988E-03
  -11.3000002       3.74252233E-03
  -11.2900000       3.97608010E-03
  -11.2799997       4.20583691E-03
  -11.2700005       4.43142187E-03
  -11.2600002       4.65248525E-03
  -11.2500000       4.86868527E-03
  -11.2399998       5.07967127E-03
  -11.2299995       5.28505817E-03
  -11.2200003       5.48441103E-03
  -11.2100000       5.67723205E-03
  -11.1999998       5.86296478E-03
  -11.1899996       6.04101270E-03
  -11.1800003       6.21076394E-03
  -11.1700001       6.37163501E-03
  -11.1599998       6.52311603E-03
  -11.1499996       6.66479254E-03
  -11.1400003       6.79638516E-03
  -11.1300001       6.91774674E-03
  -11.1199999       7.02886796E-03
  -11.1099997       7.12984987E-03
  -11.1000004       7.22088013E-03
  -11.0900002       7.30220368E-03
  -11.0799999       7.37411389E-03
  -11.0699997       7.43691530E-03
  -11.0600004       7.49093574E-03
  -11.0500002       7.53651606E-03
  -11.0400000       7.57402368E-03
  -11.0299997       7.60386419E-03
  -11.0200005       7.62647763E-03
  -11.0100002       7.64233898E-03
  -11.0000000       7.65193999E-03
  -10.9899998       7.65578449E-03
  -10.9799995       7.65435910E-03
  -10.9700003       7.64809828E-03
  -10.9600000       7.63738854E-03
  -10.9499998       7.62253674E-03
  -10.9399996       7.60377897E-03
  -10.9300003       7.58128660E-03
  -10.9200001       7.55516579E-03
  -10.9099998       7.52547523E-03
  -10.8999996       7.49221444E-03
  -10.8900003       7.45533453E-03
  -10.8800001       7.41469348E-03
  -10.8699999       7.37005658E-03
  -10.8599997       7.32106576E-03
  -10.8500004       7.26722740E-03
  -10.8400002       7.20792217E-03
  -10.8299999       7.14244694E-03
  -10.8199997       7.07003567E-03
  -10.8100004       6.98994519E-03
  -10.8000002       6.90150121E-03
  -10.7900000       6.80415286E-03
  -10.7799997       6.69750804E-03
  -10.7700005       6.58135675E-03
  -10.7600002       6.45563332E-03
  -10.7500000       6.32043835E-03
  -10.7399998       6.17597112E-03
  -10.7299995       6.02253946E-03
  -10.7200003       5.86054381E-03
  -10.7100000       5.69049036E-03
  -10.6999998       5.51298959E-03
  -10.6899996       5.32878097E-03
  -10.6800003       5.13871573E-03
  -10.6700001       4.94374661E-03
  -10.6599998       4.74487944E-03
  -10.6499996       4.54312470E-03
  -10.6400003       4.33943560E-03
  -10.6300001       4.13464988E-03
  -10.6199999       3.92947672E-03
  -10.6099997       3.72447376E-03
  -10.6000004       3.52006988E-03
  -10.5900002       3.31660197E-03
  -10.5799999       3.11435573E-03
  -10.5699997       2.91360589E-03
  -10.5600004       2.71464791E-03
  -10.5500002       2.51780450E-03
  -10.5400000       2.32341746E-03
  -10.5299997       2.13183276E-03
  -10.5200005       1.94336858E-03
  -10.5100002       1.75829430E-03
  -10.5000000       1.57680514E-03
  -10.4899998       1.39900157E-03
  -10.4799995       1.22490060E-03
  -10.4700003       1.05442514E-03
  -10.4600000       8.87423579E-04
  -10.4499998       7.23683159E-04
  -10.4399996       5.62969304E-04
  -10.4300003       4.05015162E-04
  -10.4200001       2.49575533E-04
  -10.4099998       9.64104984E-05
  -10.3999996      -5.47051677E-05
  -10.3900003      -2.03987976E-04
  -10.3800001      -3.51698429E-04
  -10.3699999      -4.98145295E-04
  -10.3599997      -6.43736217E-04
  -10.3500004      -7.89015787E-04
  -10.3400002      -9.34653275E-04
  -10.3299999      -1.08144875E-03
  -10.3199997      -1.23029668E-03
  -10.3100004      -1.38214300E-03
  -10.3000002      -1.53793779E-03
  -10.2900000      -1.69856939E-03
  -10.2799997      -1.86482177E-03
  -10.2700005      -2.03735963E-03
  -10.2600002      -2.21666275E-03
  -10.2500000      -2.40306323E-03
  -10.2399998      -2.59672198E-03
  -10.2299995      -2.79763690E-03
  -10.2200003      -3.00564663E-03
  -10.2100000      -3.22046108E-03
  -10.1999998      -3.44167836E-03
  -10.1899996      -3.66881955E-03
  -10.1800003      -3.90135823E-03
  -10.1700001      -4.13876586E-03
  -10.1599998      -4.38055629E-03
  -10.1499996      -4.62629925E-03
  -10.1400003      -4.87560639E-03
  -10.1300001      -5.12811355E-03
  -10.1199999      -5.38341654E-03
  -10.1099997      -5.64099709E-03
  -10.1000004      -5.90016320E-03
  -10.0900002      -6.15996961E-03
  -10.0799999      -6.41920138E-03
  -10.0699997      -6.67636003E-03
  -10.0600004      -6.92971284E-03
  -10.0500002      -7.17736920E-03
  -10.0400000      -7.41737196E-03
  -10.0299997      -7.64777465E-03
  -10.0200005      -7.86675140E-03
  -10.0100002      -8.07263609E-03
  -10.0000000      -8.26397445E-03
  -9.98999977      -8.43952503E-03
  -9.97999954      -8.59825127E-03
  -9.97000027      -8.73930193E-03
  -9.96000004      -8.86198319E-03
  -9.94999981      -8.96573626E-03
  -9.93999958      -9.05010104E-03
  -9.93000031      -9.11472831E-03
  -9.92000008      -9.15932283E-03
  -9.90999985      -9.18365270E-03
  -9.89999962      -9.18750092E-03
  -9.89000034      -9.17065237E-03
  -9.88000011      -9.13290773E-03
  -9.86999989      -9.07407794E-03
  -9.85999966      -8.99401959E-03
  -9.85000038      -8.89272895E-03
  -9.84000015      -8.77036341E-03
  -9.82999992      -8.62733461E-03
  -9.81999969      -8.46434850E-03
  -9.81000042      -8.28241184E-03
  -9.80000019      -8.08278285E-03
  -9.78999996      -7.86691066E-03
  -9.77999973      -7.63634825E-03
  -9.77000046      -7.39264721E-03
  -9.76000023      -7.13729532E-03
  -9.75000000      -6.87169796E-03
  -9.73999977      -6.59718597E-03
  -9.72999954      -6.31504785E-03
  -9.72000027      -6.02660747E-03
  -9.71000004      -5.73325437E-03
  -9.69999981      -5.43646328E-03
  -9.68999958      -5.13778115E-03
  -9.68000031      -4.83873254E-03
  -9.67000008      -4.54075309E-03
  -9.65999985      -4.24509868E-03
  -9.64999962      -3.95278260E-03
  -9.64000034      -3.66455014E-03
  -9.63000011      -3.38091212E-03
  -9.61999989      -3.10219685E-03
  -9.60999966      -2.82861479E-03
  -9.60000038      -2.56033242E-03
  -9.59000015      -2.29750830E-03
  -9.57999992      -2.04030378E-03
  -9.56999969      -1.78885204E-03
  -9.56000042      -1.54322351E-03
  -9.55000019      -1.30337034E-03
  -9.53999996      -1.06911082E-03
  -9.52999973      -8.40125314E-04
  -9.52000046      -6.15982921E-04
  -9.51000023      -3.96186224E-04
  -9.50000000      -1.80251853E-04
  -9.48999977       3.22359338E-05
  -9.47999954       2.41544651E-04
  -9.47000027       4.47761384E-04
  -9.46000004       6.50746224E-04
  -9.44999981       8.50120385E-04
  -9.43999958       1.04528957E-03
  -9.43000031       1.23544014E-03
  -9.42000008       1.41960464E-03
  -9.40999985       1.59671274E-03
  -9.39999962       1.76563044E-03
  -9.39000034       1.92521757E-03
  -9.38000011       2.07433384E-03
  -9.36999989       2.21181172E-03
  -9.35999966       2.33643828E-03
  -9.35000038       2.44683097E-03
  -9.34000015       2.54140818E-03
  -9.32999992       2.61831097E-03
  -9.31999969       2.67538987E-03
  -9.31000042       2.71024974E-03
  -9.30000019       2.72031338E-03
  -9.28999996       2.70297495E-03
  -9.27999973       2.65568844E-03
  -9.27000046       2.57609342E-03
  -9.26000023       2.46208836E-03
  -9.25000000       2.31184741E-03
  -9.23999977       2.12385249E-03
  -9.22999954       1.89685030E-03
  -9.22000027       1.62986142E-03
  -9.21000004       1.32216327E-03
  -9.19999981       9.73334885E-04
  -9.18999958       5.83295885E-04
  -9.18000031       1.52320325E-04
  -9.17000008      -3.18949373E-04
  -9.15999985      -8.29521683E-04
  -9.14999962      -1.37812935E-03
  -9.14000034      -1.96328340E-03
  -9.13000011      -2.58337730E-03
  -9.11999989      -3.23672639E-03
  -9.10999966      -3.92160425E-03
  -9.10000038      -4.63621551E-03
  -9.09000015      -5.37862675E-03
  -9.07999992      -6.14673039E-03
  -9.06999969      -6.93815621E-03
  -9.06000042      -7.75022013E-03
  -9.05000019      -8.57993308E-03
  -9.03999996      -9.42398701E-03
  -9.02999973      -1.02787996E-02
  -9.02000046      -1.11405440E-02
  -9.01000023      -1.20051950E-02
  -9.00000000      -1.28685646E-02
  -8.98999977      -1.37263294E-02
  -8.97999954      -1.45740733E-02
  -8.97000027      -1.54073136E-02
  -8.96000004      -1.62215251E-02
  -8.94999981      -1.70121640E-02
  -8.93999958      -1.77746676E-02
  -8.93000031      -1.85044575E-02
  -8.92000008      -1.91969220E-02
  -8.90999985      -1.98474098E-02
  -8.89999962      -2.04512607E-02
  -8.89000034      -2.10038014E-02
  -8.88000011      -2.15004589E-02
  -8.86999989      -2.19367892E-02
  -8.85999966      -2.23085973E-02
  -8.85000038      -2.26119999E-02
  -8.84000015      -2.28434298E-02
  -8.82999992      -2.29996666E-02
  -8.81999969      -2.30777934E-02
  -8.81000042      -2.30751652E-02
  -8.80000019      -2.29893718E-02
  -8.78999996      -2.28182636E-02
  -8.77999973      -2.25599762E-02
  -8.77000046      -2.22130138E-02
  -8.76000023      -2.17763130E-02
  -8.75000000      -2.12492868E-02
  -8.73999977      -2.06318274E-02
  -8.72999954      -1.99242495E-02
  -8.72000027      -1.91272330E-02
  -8.71000004      -1.82416942E-02
  -8.69999981      -1.72687508E-02
  -8.68999958      -1.62097048E-02
  -8.68000031      -1.50660872E-02
  -8.67000008      -1.38397599E-02
  -8.65999985      -1.25330128E-02
  -8.64999962      -1.11486586E-02
  -8.64000034      -9.69003420E-03
  -8.63000011      -8.16098787E-03
  -8.61999989      -6.56568352E-03
  -8.60999966      -4.90847696E-03
  -8.60000038      -3.19370907E-03
  -8.59000015      -1.42559758E-03
  -8.57999992       3.91865178E-04
  -8.56999969       2.25487142E-03
  -8.56000042       4.15974017E-03
  -8.55000019       6.10279432E-03
  -8.53999996       8.08026921E-03
  -8.52999973       1.00882212E-02
  -8.52000046       1.21225035E-02
  -8.51000023       1.41787939E-02
  -8.50000000       1.62526723E-02
  -8.48999977       1.83396805E-02
  -8.47999954       2.04353873E-02
  -8.47000027       2.25354433E-02
  -8.46000004       2.46355981E-02
  -8.44999981       2.67317407E-02
  -8.43999958       2.88198534E-02
  -8.43000031       3.08960844E-02
  -8.42000008       3.29567268E-02
  -8.40999985       3.49982902E-02
  -8.39999962       3.70175466E-02
  -8.39000034       3.90115865E-02
  -8.38000011       4.09778245E-02
  -8.36999989       4.29139994E-02
  -8.35999966       4.48182002E-02
  -8.35000038       4.66886871E-02
  -8.34000015       4.85239141E-02
  -8.32999992       5.03224097E-02
  -8.31999969       5.20826504E-02
  -8.31000042       5.38030118E-02
  -8.30000019       5.54817766E-02
  -8.28999996       5.71169630E-02
  -8.27999973       5.87064922E-02
  -8.27000046       6.02480322E-02
  -8.26000023       6.17390946E-02
  -8.25000000       6.31769970E-02
  -8.23999977       6.45588264E-02
  -8.22999954       6.58814758E-02
  -8.22000027       6.71416819E-02
  -8.21000004       6.83359504E-02
  -8.19999981       6.94607943E-02
  -8.18999958       7.05126300E-02
  -8.18000031       7.14880675E-02
  -8.17000008       7.23837540E-02
  -8.15999985       7.31966421E-02
  -8.14999962       7.39238560E-02
  -8.14000034       7.45626315E-02
  -8.13000011       7.51102418E-02
  -8.11999989       7.55639151E-02
  -8.10999966       7.59207383E-02
  -8.10000038       7.61776865E-02
  -8.09000015       7.63316751E-02
  -8.07999992       7.63795897E-02
  -8.06999969       7.63185322E-02
  -8.06000042       7.61458576E-02
  -8.05000019       7.58592635E-02
  -8.03999996       7.54566640E-02
  -8.02999973       7.49363452E-02
  -8.02000046       7.42966011E-02
  -8.01000023       7.35358000E-02
  -8.00000000       7.26523027E-02
  -7.98999977       7.16445222E-02
  -7.98000002       7.05110058E-02
  -7.96999979       6.92505240E-02
  -7.96000004       6.78622946E-02
  -7.94999981       6.63459748E-02
  -7.94000006       6.47018552E-02
  -7.92999983       6.29306212E-02
  -7.92000008       6.10335246E-02
  -7.90999985       5.90122193E-02
  -7.90000010       5.68687469E-02
  -7.88999987       5.46057783E-02
  -7.88000011       5.22264875E-02
  -7.86999989       4.97347191E-02
  -7.86000013       4.71351631E-02
  -7.84999990       4.44332473E-02
  -7.84000015       4.16350141E-02
  -7.82999992       3.87471914E-02
  -7.82000017       3.57767902E-02
  -7.80999994       3.27311829E-02
  -7.80000019       2.96178535E-02
  -7.78999996       2.64444929E-02
  -7.78000021       2.32190266E-02
  -7.76999998       1.99496932E-02
  -7.76000023       1.66449565E-02
  -7.75000000       1.33136539E-02
  -7.73999977       9.96472687E-03
  -7.73000002       6.60709664E-03
  -7.71999979       3.24952859E-03
  -7.71000004      -9.96409581E-05
  -7.69999981      -3.43244523E-03
  -7.69000006      -6.74139289E-03
  -7.67999983      -1.00193378E-02
  -7.67000008      -1.32593997E-02
  -7.65999985      -1.64548475E-02
  -7.65000010      -1.95990913E-02
  -7.63999987      -2.26857346E-02
  -7.63000011      -2.57086586E-02
  -7.61999989      -2.86621787E-02
  -7.61000013      -3.15411389E-02
  -7.59999990      -3.43409702E-02
  -7.59000015      -3.70576344E-02
  -7.57999992      -3.96875478E-02
  -7.57000017      -4.22274321E-02
  -7.55999994      -4.46741618E-02
  -7.55000019      -4.70247306E-02
  -7.53999996      -4.92762253E-02
  -7.53000021      -5.14258854E-02
  -7.51999998      -5.34712560E-02
  -7.51000023      -5.54102659E-02
  -7.50000000      -5.72413243E-02
  -7.48999977      -5.89633025E-02
  -7.48000002      -6.05755150E-02
  -7.46999979      -6.20776266E-02
  -7.46000004      -6.34695292E-02
  -7.44999981      -6.47512749E-02
  -7.44000006      -6.59231767E-02