  -16.0000000       0.00000000    
  -15.9899998       0.00000000    
  -15.9799995       0.00000000    
  -15.9700003       0.00000000    
  -15.9600000       0.00000000    
  -15.9499998       0.00000000    
  -15.9399996       0.00000000    
  -15.9300003       0.00000000    
  -15.9200001       0.00000000    
  -15.9099998       0.00000000    
  -15.8999996       0.00000000    
  -15.8900003       0.00000000    
  -15.8800001       0.00000000    
  -15.8699999      -1.56945428E-43
  -15.8599997      -1.08124190E-41
  -15.8500004      -3.43070094E-40
  -15.8400002      -5.60238846E-39
  -15.8299999      -6.00940569E-38
  -15.8199997      -4.77499694E-37
  -15.8100004      -3.00686795E-36
  -15.8000002      -1.56842185E-35
  -15.7900000      -6.97701528E-35
  -15.7799997      -2.69948627E-34
  -15.7700005      -9.20671696E-34
  -15.7600002      -2.79171955E-33
  -15.7500000      -7.55967397E-33
  -15.7399998      -1.82817554E-32
  -15.7299995      -3.92560982E-32
  -15.7200003      -7.36750900E-32
  -15.7100000      -1.16320562E-31
  -15.6999998      -1.38286566E-31
  -15.6899996      -6.37927560E-32
  -15.6800003       2.51017697E-31
  -15.6700001       1.00885524E-30
  -15.6599998       2.38059687E-30
  -15.6499996       4.27405420E-30
  -15.6400003       5.94582158E-30
  -15.6300001       5.57681791E-30
  -15.6199999       1.78514416E-31
  -15.6099997      -1.35295766E-29
  -15.6000004      -3.65793108E-29
  -15.5900002      -6.34535116E-29
  -15.5799999      -7.75766869E-29
  -15.5699997      -5.07547902E-29
  -15.5600004       4.70327349E-29
  -15.5500002       2.22230504E-28
  -15.5400000       4.20028132E-28
  -15.5299997       4.95828642E-28
  -15.5200005       2.39359485E-28
  -15.5100002      -4.97747109E-28
  -15.5000000      -1.55855775E-27
  -15.4899998      -2.22052346E-27
  -15.4799995      -1.18635696E-27
  -15.4700003       2.78176911E-27
  -15.4600000       9.32341531E-27
  -15.4499998       1.43995372E-26
  -15.4399996       9.19738399E-27
  -15.4300003      -1.72333891E-26
  -15.4200001      -6.88430407E-26
  -15.4099998      -1.27117909E-25
  -15.3999996      -1.36522166E-25
  -15.3900003      -7.67561507E-27
  -15.3800001       3.39135050E-25
  -15.3699999       8.76777678E-25
  -15.3599997       1.34260103E-24
  -15.3500004       1.16216842E-24
  -15.3400002      -4.28048943E-25
  -15.3299999      -3.90828277E-24
  -15.3199997      -8.63534479E-24
  -15.3100004      -1.19358386E-23
  -15.3000002      -8.87751562E-24
  -15.2900000       6.21694495E-24
  -15.2799997       3.56893611E-23
  -15.2700005       7.23258159E-23
  -15.2600002       9.37828010E-23
  -15.2500000       6.31703783E-23
  -15.2399998      -5.74940129E-23
  -15.2299995      -2.77266458E-22
  -15.2200003      -5.35401184E-22
  -15.2100000      -6.70423323E-22
  -15.1999998      -4.34731627E-22
  -15.1899996       4.07250919E-22
  -15.1800003       1.88399876E-21
  -15.1700001       3.57196985E-21
  -15.1599998       4.43429797E-21
  -15.1499996       2.94986218E-21
  -15.1400003      -2.26837945E-21
  -15.1300001      -1.13278346E-20
  -15.1199999      -2.16906483E-20
  -15.1099997      -2.73487398E-20
  -15.1000004      -1.96422486E-20
  -15.0900002       9.28983847E-21
  -15.0799999       6.03436141E-20
  -15.0699997       1.20268494E-19
  -15.0600004       1.57398434E-19
  -15.0500002       1.25775488E-19
  -15.0400000      -1.75800227E-20
  -15.0299997      -2.82002001E-19
  -15.0200005      -6.07340718E-19
  -15.0100002      -8.41515601E-19
  -15.0000000      -7.57063097E-19
  -14.9899998      -1.28945670E-19
  -14.9799995       1.12412594E-18
  -14.9700003       2.77003762E-18
  -14.9600000       4.14596323E-18
  -14.9499998       4.20602399E-18
  -14.9399996       1.83563765E-18
  -14.9300003      -3.54637351E-18
  -14.9200001      -1.12296675E-17
  -14.9099998      -1.86211260E-17
  -14.8999996      -2.12864674E-17
  -14.8900003      -1.40713299E-17
  -14.8800001       6.54030617E-18
  -14.8699999       3.92552092E-17
  -14.8599997       7.51677287E-17
  -14.8500004       9.71291556E-17
  -14.8400002       8.31555472E-17
  -14.8299999       1.48254274E-17
  -14.8199997      -1.10424800E-16
  -14.8100004      -2.67012419E-16
  -14.8000002      -3.95408321E-16
  -14.7900000      -4.10150611E-16
  -14.7799997      -2.26528400E-16
  -14.7700005       1.95730653E-16
  -14.7600002       8.03195445E-16
  -14.7500000       1.41528162E-15
  -14.7399998       1.73321692E-15
  -14.7299995       1.41312487E-15
  -14.7200003       2.06138120E-16
  -14.7100000      -1.86263392E-15
  -14.6999998      -4.34006723E-15
  -14.6899996      -6.30470001E-15
  -14.6800003      -6.52538385E-15
  -14.6700001      -3.85784756E-15
  -14.6599998       2.17225813E-15
  -14.6499996       1.07673126E-14
  -14.6400003       1.95048056E-14
  -14.6300001       2.45315514E-14
  -14.6199999       2.15126141E-14
  -14.6099997       7.30868816E-15
  -14.6000004      -1.79862669E-14
  -14.5900002      -4.93657307E-14
  -14.5799999      -7.65172024E-14
  -14.5699997      -8.55400684E-14
  -14.5600004      -6.30881727E-14
  -14.5500002      -2.35296605E-15
  -14.5400000       9.07775916E-14
  -14.5299997       1.93917907E-13
  -14.5200005       2.69472080E-13
  -14.5100002       2.72875960E-13
  -14.5000000       1.67602870E-13
  -14.4899998      -5.61450944E-14
  -14.4799995      -3.65057404E-13
  -14.4700003      -6.76334314E-13
  -14.4600000      -8.68323805E-13
  -14.4499998      -8.11336783E-13
  -14.4399996      -4.15084552E-13
  -14.4300003       3.18943494E-13
  -14.4200001       1.25861637E-12
  -14.4099998       2.13656198E-12
  -14.3999996       2.59560667E-12
  -14.3900003       2.28699850E-12
  -14.3800001       1.00491599E-12
  -14.3699999      -1.17932519E-12
  -14.3599997      -3.83394315E-12
  -14.3500004      -6.18466216E-12
  -14.3400002      -7.26545690E-12
  -14.3299999      -6.19571408E-12
  -14.3199997      -2.52879380E-12
  -14.3100004       3.42854044E-12
  -14.3000002       1.04511842E-11
  -14.2900000       1.64979020E-11
  -14.2799997       1.91361840E-11
  -14.2700005       1.62496405E-11
  -14.2600002       6.87358850E-12
  -14.2500000      -8.08782381E-12
  -14.2399998      -2.55492068E-11
  -14.2299995      -4.05714802E-11
  -14.2200003      -4.74167441E-11
  -14.2100000      -4.11983885E-11
  -14.1999998      -1.97531002E-11
  -14.1899996       1.48228305E-11
  -14.1800003       5.55775322E-11
  -14.1700001       9.15111945E-11
  -14.1599998       1.09921273E-10
  -14.1499996       9.99457878E-11
  -14.1400003       5.64950309E-11
  -14.1300001      -1.65791252E-11
  -14.1199999      -1.05282269E-10
  -14.1099997      -1.87118751E-10
  -14.1000004      -2.35775954E-10
  -14.0900002      -2.28146183E-10
  -14.0799999      -1.52076393E-10
  -14.0699997      -1.26522334E-11
  -14.0600004       1.65233868E-10
  -14.0500002       3.39634709E-10
  -14.0400000       4.59969202E-10
  -14.0299997       4.79806250E-10
  -14.0200005       3.71153219E-10
  -14.0100002       1.36340536E-10
  -14.0000000      -1.86440030E-10
  -13.9899998      -5.26788724E-10
  -13.9799995      -7.95614019E-10
  -13.9700003      -9.06423436E-10
  -13.9600000      -7.99763145E-10
  -13.9499998      -4.64305067E-10
  -13.9399996       5.18231083E-11
  -13.9300003       6.44301446E-10
  -13.9200001       1.17183563E-09
  -13.9099998       1.48838319E-09
  -13.8999996       1.48141999E-09
  -13.8900003       1.10646714E-09
  -13.8800001       4.07984285E-10
  -13.8699999      -4.80992635E-10
  -13.8599997      -1.36292722E-09
  -13.8500004      -2.01989003E-09
  -13.8400002      -2.26797048E-09
  -13.8299999      -2.00827932E-09
  -13.8199997      -1.26038857E-09
  -13.8100004      -1.67292319E-10
  -13.8000002       1.03207587E-09
  -13.7900000       2.05803974E-09
  -13.7799997       2.66043809E-09
  -13.7700005       2.68546207E-09
  -13.7600002       2.12051510E-09
  -13.7500000       1.10277631E-09
  -13.7399998      -1.13424097E-10
  -13.7299995      -1.22380850E-09
  -13.7200003      -1.95881911E-09
  -13.7100000      -2.16206919E-09
  -13.6999998      -1.83866666E-09
  -13.6899996      -1.15664744E-09
  -13.6800003      -3.97304994E-10
  -13.6700001       1.34520201E-10
  -13.6599998       2.15691423E-10
  -13.6499996      -2.06345746E-10
  -13.6400003      -9.71583036E-10
  -13.6300001      -1.73189874E-09
  -13.6199999      -2.04332373E-09
  -13.6099997      -1.50668111E-09
  -13.6000004       8.03840813E-11
  -13.5900002       2.60571276E-09
  -13.5799999       5.60115998E-09
  -13.5699997       8.30257996E-09
  -13.5600004       9.81025305E-09
  -13.5500002       9.31953448E-09
  -13.5400000       6.36776365E-09
  -13.5299997       1.03047459E-09
  -13.5200005      -5.99323613E-09
  -13.5100002      -1.34446454E-08
  -13.5000000      -1.97212700E-08
  -13.4899998      -2.32077007E-08
  -13.4799995      -2.26513528E-08
  -13.4700003      -1.74935231E-08
  -13.4600000      -8.07425682E-09
  -13.4499998       4.34992176E-09
  -13.4399996       1.77894908E-08
  -13.4300003       2.98747764E-08
  -13.4200001       3.83040302E-08
  -13.4099998       4.12883630E-08
  -13.3999996       3.78967826E-08
  -13.3900003       2.82285377E-08
  -13.3800001       1.33844500E-08
  -13.3699999      -4.74254191E-09
  -13.3599997      -2.37949482E-08
  -13.3500004      -4.13148626E-08
  -13.3400002      -5.50590862E-08
  -13.3299999      -6.32168025E-08
  -13.3199997      -6.45146869E-08
  -13.3100004      -5.82369886E-08
  -13.3000002      -4.42224568E-08
  -13.2900000      -2.28928272E-08
  -13.2799997       4.64982497E-09
  -13.2700005       3.64701833E-08
  -13.2600002       6.96562239E-08
  -13.2500000       1.00286464E-07
  -13.2399998       1.23621177E-07
  -13.2299995       1.34597940E-07
  -13.2200003       1.28632834E-07
  -13.2100000       1.02641579E-07
  -13.1999998       5.60888189E-08
  -13.1899996      -8.18685653E-09
  -13.1800003      -8.36364222E-08
  -13.1700001      -1.60354844E-07
  -13.1599998      -2.26215576E-07
  -13.1499996      -2.68676871E-07
  -13.1400003      -2.77011821E-07
  -13.1300001      -2.44545930E-07
  -13.1199999      -1.70452537E-07
  -13.1099997      -6.06699970E-08
  -13.1000004       7.23264222E-08
  -13.0900002       2.10968039E-07
  -13.0799999       3.35065522E-07
  -13.0699997       4.24908450E-07
  -13.0600004       4.64431906E-07
  -13.0500002       4.43905947E-07
  -13.0400000       3.61633312E-07
  -13.0299997       2.24402825E-07
  -13.0200005       4.66449919E-08
  -13.0100002      -1.51490568E-07
  -13.0000000      -3.46745765E-07
  -12.9899998      -5.15599481E-07
  -12.9799995      -6.36892253E-07
  -12.9700003      -6.93930019E-07
  -12.9600000      -6.75978015E-07
  -12.9499998      -5.79116602E-07
  -12.9399996      -4.06647075E-07
  -12.9300003      -1.69195715E-07
  -12.9200001       1.15420598E-07
  -12.9099998       4.22623231E-07
  -12.8999996       7.21985202E-07
  -12.8900003       9.78929847E-07
  -12.8800001       1.15741182E-06
  -12.8699999       1.22373569E-06
  -12.8599997       1.15121964E-06
  -12.8500004       9.25268466E-07
  -12.8400002       5.47990396E-07
  -12.8299999       4.14474570E-08
  -12.8199997      -5.51442895E-07
  -12.8100004      -1.16901322E-06
  -12.8000002      -1.73613216E-06
  -12.7900000      -2.17243883E-06
  -12.7799997      -2.40245595E-06
  -12.7700005      -2.36642768E-06
  -12.7600002      -2.03012360E-06
  -12.7500000      -1.39217309E-06
  -12.7399998      -4.87747741E-07
  -12.7299995       6.12132908E-07
  -12.7200003       1.80564257E-06
  -12.7100000       2.96903045E-06
  -12.6999998       3.96828545E-06
  -12.6899996       4.67234668E-06
  -12.6800003       4.96645589E-06
  -12.6700001       4.76464811E-06
  -12.6599998       4.02017577E-06
  -12.6499996       2.73342698E-06
  -12.6400003       9.56618351E-07
  -12.6300001      -1.20517689E-06
  -12.6199999      -3.59682963E-06
  -12.6099997      -6.02045748E-06
  -12.6000004      -8.24715426E-06
  -12.5900002      -1.00330753E-05
  -12.5799999      -1.11394666E-05
  -12.5699997      -1.13551023E-05
  -12.5600004      -1.05195595E-05
  -12.5500002      -8.54482823E-06
  -12.5400000      -5.43280021E-06
  -12.5299997      -1.28600345E-06
  -12.5200005       3.68993392E-06
  -12.5100002       9.19343984E-06
  -12.5000000       1.48427725E-05
  -12.4899998       2.02002084E-05
  -12.4799995       2.48002561E-05
  -12.4700003       2.81810480E-05
  -12.4600000       2.99139501E-05
  -12.4499998       2.96296748E-05
  -12.4399996       2.70382134E-05
  -12.4300003       2.19418816E-05
  -12.4200001       1.42409499E-05
  -12.4099998       3.93310665E-06
  -12.3999996      -8.89298371E-06
  -12.3900003      -2.40669524E-05
  -12.3800001      -4.13497437E-05
  -12.3699999      -6.04463094E-05
  -12.3599997      -8.10193742E-05
  -12.3500004      -1.02700666E-04
  -12.3400002      -1.25101229E-04
  -12.3299999      -1.47818806E-04
  -12.3199997      -1.70438143E-04
  -12.3100004      -1.92530948E-04
  -12.3000002      -2.13646679E-04
  -12.2900000      -2.33302897E-04
  -12.2799997      -2.50969635E-04
  -12.2700005      -2.66057323E-04
  -12.2600002      -2.77905987E-04
  -12.2500000      -2.85783724E-04
  -12.2399998      -2.88893323E-04
  -12.2299995      -2.86395138E-04
  -12.2200003      -2.77442974E-04
  -12.2100000      -2.61229434E-04
  -12.1999998      -2.37042797E-04
  -12.1899996      -2.04324446E-04
  -12.1800003      -1.62724900E-04
  -12.1700001      -1.12151793E-04
  -12.1599998      -5.28043674E-05
  -12.1499996       1.48160179E-05
  -12.1400003       8.99067891E-05
  -12.1300001       1.71385473E-04
  -12.1199999       2.57931097E-04
  -12.1099997       3.48031928E-04
  -12.1000004       4.40047414E-04
  -12.0900002       5.32268314E-04
  -12.0799999       6.22983032E-04
  -12.0699997       7.10536784E-04
  -12.0600004       7.93384970E-04
  -12.0500002       8.70145566E-04
  -12.0400000       9.39631660E-04
  -12.0299997       1.00087945E-03
  -12.0200005       1.05315330E-03
  -12.0100002       1.09594280E-03
  -12.0000000       1.12893549E-03
  -11.9899998       1.15197909E-03
  -11.9799995       1.16502773E-03
  -11.9700003       1.16808410E-03
  -11.9600000       1.16114342E-03
  -11.9499998       1.14414061E-03
  -11.9399996       1.11691689E-03
  -11.9300003       1.07920542E-03
  -11.9200001       1.03064184E-03
  -11.9099998       9.70786437E-04
  -11.8999996       8.99174018E-04
  -11.8900003       8.15369538E-04
  -11.8800001       7.19019619E-04
  -11.8699999       6.09910348E-04
  -11.8599997       4.87996236E-04
  -11.8500004       3.53431795E-04
  -11.8400002       2.06576733E-04
  -11.8299999       4.79860282E-05
  -11.8199997      -1.21598765E-04
  -11.8100004      -3.01267690E-04
  -11.8000002      -4.89962869E-04
  -11.7900000      -6.86490093E-04
  -11.7799997      -8.89530464E-04
  -11.7700005      -1.09764305E-03
  -11.7600002      -1.30927609E-03
  -11.7500000      -1.52276584E-03
  -11.7399998      -1.73635350E-03
  -11.7299995      -1.94818852E-03
  -11.7200003      -2.15635542E-03
  -11.7100000      -2.35888571E-03
  -11.6999998      -2.55378266E-03
  -11.6899996      -2.73904158E-03
  -11.6800003      -2.91266083E-03
  -11.6700001      -3.07266973E-03
  -11.6599998      -3.21713695E-03
  -11.6499996      -3.34418332E-03
  -11.6400003      -3.45201371E-03
  -11.6300001      -3.53893009E-03
  -11.6199999      -3.60336038E-03
  -11.6099997      -3.64388735E-03
  -11.6000004      -3.65927932E-03
  -11.5900002      -3.64849949E-03
  -11.5799999      -3.61073483E-03
  -11.5699997      -3.54539300E-03
  -11.5600004      -3.45209287E-03
  -11.5500002      -3.33064701E-03
  -11.5400000      -3.18102702E-03
  -11.5299997      -3.00333602E-03
  -11.5200005      -2.79775378E-03
  -11.5100002      -2.56450777E-03
  -11.5000000      -2.30383710E-03
  -11.4899998      -2.01596203E-03
  -11.4799995      -1.70105544E-03
  -11.4700003      -1.35924260E-03
  -11.4600000      -9.90596833E-04
  -11.4499998      -5.95148304E-04
  -11.4399996      -1.72899687E-04
  -11.4300003       2.76143081E-04
  -11.4200001       7.51939835E-04
  -11.4099998       1.25435495E-03
  -11.3999996       1.78313570E-03
  -11.3900003       2.33782595E-03
  -11.3800001       2.91774073E-03
  -11.3699999       3.52190551E-03
  -11.3599997       4.14901646E-03
  -11.3500004       4.79742745E-03
  -11.3400002       5.46513684E-03
  -11.3299999       6.14980841E-03
  -11.3199997       6.84881629E-03
  -11.3100004       7.55929574E-03
  -11.3000002       8.27822741E-03
  -11.2900000       9.00251698E-03
  -11.2799997       9.72909108E-03
  -11.2700005       1.04550179E-02
  -11.2600002       1.11775426E-02
  -11.2500000       1.18942102E-02
  -11.2399998       1.26029020E-02
  -11.2299995       1.33018810E-02
  -11.2200003       1.39898388E-02
  -11.2100000       1.46658421E-02
  -11.1999998       1.53293749E-02
  -11.1899996       1.59802362E-02
  -11.1800003       1.66184939E-02
  -11.1700001       1.72444191E-02
  -11.1599998       1.78583451E-02
  -11.1499996       1.84605904E-02
  -11.1400003       1.90513507E-02
  -11.1300001       1.96306091E-02
  -11.1199999       2.01980714E-02
  -11.1099997       2.07530987E-02
  -11.1000004       2.12947279E-02
  -11.0900002       2.18216795E-02
  -11.0799999       2.23323796E-02
  -11.0699997       2.28250492E-02
  -11.0600004       2.32977625E-02
  -11.0500002       2.37485524E-02
  -11.0400000       2.41754428E-02
  -11.0299997       2.45765913E-02
  -11.0200005       2.49502994E-02
  -11.0100002       2.52950974E-02
  -11.0000000       2.56097652E-02
  -10.9899998       2.58933809E-02
  -10.9799995       2.61453856E-02
  -10.9700003       2.63655204E-02
  -10.9600000       2.65539158E-02
  -10.9499998       2.67110262E-02
  -10.9399996       2.68376488E-02
  -10.9300003       2.69348677E-02
  -10.9200001       2.70039644E-02
  -10.9099998       2.70464271E-02
  -10.8999996       2.70637926E-02
  -10.8900003       2.70575788E-02
  -10.8800001       2.70292293E-02
  -10.8699999       2.69799959E-02
  -10.8599997       2.69109178E-02
  -10.8500004       2.68227421E-02
  -10.8400002       2.67159734E-02
  -10.8299999       2.65908428E-02
  -10.8199997       2.64473259E-02
  -10.8100004       2.62852311E-02
  -10.8000002       2.61042211E-02
  -10.7900000       2.59039029E-02
  -10.7799997       2.56838724E-02
  -10.7700005       2.54437663E-02
  -10.7600002       2.51833070E-02
  -10.7500000       2.49023549E-02
  -10.7399998       2.46009547E-02
  -10.7299995       2.42793784E-02
  -10.7200003       2.39380766E-02
  -10.7100000       2.35778317E-02
  -10.6999998       2.31997278E-02
  -10.6899996       2.28050929E-02
  -10.6800003       2.23956015E-02
  -10.6700001       2.19732113E-02
  -10.6599998       2.15401761E-02
  -10.6499996       2.10989639E-02
  -10.6400003       2.06522159E-02
  -10.6300001       2.02027820E-02
  -10.6199999       1.97534729E-02
  -10.6099997       1.93071980E-02
  -10.6000004       1.88668352E-02
  -10.5900002       1.84351597E-02
  -10.5799999       1.80148724E-02
  -10.5699997       1.76086109E-02
  -10.5600004       1.72188208E-02
  -10.5500002       1.68478563E-02
  -10.5400000       1.64979380E-02
  -10.5299997       1.61710978E-02
  -10.5200005       1.58691518E-02
  -10.5100002       1.55937094E-02
  -10.5000000       1.53460503E-02
  -10.4899998       1.51271336E-02
  -10.4799995       1.49375107E-02
  -10.4700003       1.47773018E-02
  -10.4600000       1.46462675E-02
  -10.4499998       1.45437187E-02
  -10.4399996       1.44686652E-02
  -10.4300003       1.44198276E-02
  -10.4200001       1.43957268E-02
  -10.4099998       1.43947992E-02
  -10.3999996       1.44153647E-02
  -10.3900003       1.44558344E-02
  -10.3800001       1.45146074E-02
  -10.3699999       1.45901153E-02
  -10.3599997       1.46808913E-02
  -10.3500004       1.47855738E-02
  -10.3400002       1.49027929E-02
  -10.3299999       1.50313368E-02
  -10.3199997       1.51701188E-02
  -10.3100004       1.53181441E-02
  -10.3000002       1.54746287E-02
  -10.2900000       1.56389978E-02
  -10.2799997       1.58108100E-02
  -10.2700005       1.59898642E-02
  -10.2600002       1.61760673E-02
  -10.2500000       1.63694564E-02
  -10.2399998       1.65701639E-02
  -10.2299995       1.67782772E-02
  -10.2200003       1.69939455E-02
  -10.2100000       1.72172599E-02
  -10.1999998       1.74483359E-02
  -10.1899996       1.76873002E-02
  -10.1800003       1.79343782E-02
  -10.1700001       1.81898642E-02
  -10.1599998       1.84541605E-02
  -10.1499996       1.87279359E-02
  -10.1400003       1.90119017E-02
  -10.1300001       1.93069316E-02
  -10.1199999       1.96139906E-02
  -10.1099997       1.99340694E-02
  -10.1000004       2.02681664E-02
  -10.0900002       2.06171293E-02
  -10.0799999       2.09816583E-02
  -10.0699997       2.13624071E-02
  -10.0600004       2.17595957E-02
  -10.0500002       2.21733730E-02
  -10.0400000       2.26035342E-02
  -10.0299997       2.30496172E-02
  -10.0200005       2.35110931E-02
  -10.0100002       2.39871703E-02
  -10.0000000       2.44769640E-02
  -9.98999977       2.49795727E-02
  -9.97999954       2.54941955E-02
  -9.97000027       2.60202046E-02
  -9.96000004       2.65570842E-02
  -9.94999981       2.71045677E-02
  -9.93999958       2.76628137E-02
  -9.93000031       2.82322634E-02
  -9.92000008       2.88137235E-02
  -9.90999985       2.94084195E-02
  -9.89999962       3.00180018E-02
  -9.89000034       3.06445323E-02
  -9.88000011       3.12905088E-02
  -9.86999989       3.19585837E-02
  -9.85999966       3.26517411E-02
  -9.85000038       3.33730169E-02
  -9.84000015       3.41254808E-02
  -9.82999992       3.49119194E-02
  -9.81999969       3.57349180E-02
  -9.81000042       3.65966447E-02
  -9.80000019       3.74989435E-02
  -9.78999996       3.84430587E-02
  -9.77999973       3.94300222E-02
  -9.77000046       4.04605716E-02
  -9.76000023       4.15350050E-02
  -9.75000000       4.26536910E-02
  -9.73999977       4.38166037E-02
  -9.72999954       4.50235419E-02
  -9.72000027       4.62741368E-02
  -9.71000004       4.75676507E-02
  -9.69999981       4.89027947E-02
  -9.68999958       5.02779856E-02
  -9.68000031       5.16910031E-02
  -9.67000008       5.31390309E-02
  -9.65999985       5.46190292E-02
  -9.64999962       5.61271943E-02
  -9.64000034       5.76594435E-02
  -9.63000011       5.92114553E-02
  -9.61999989       6.07784763E-02
  -9.60999966       6.23557009E-02
  -9.60000038       6.39382601E-02
  -9.59000015       6.55210018E-02
  -9.57999992       6.70988634E-02
  -9.56999969       6.86667636E-02
  -9.56000042       7.02196583E-02
  -9.55000019       7.17525780E-02
  -9.53999996       7.32607022E-02
  -9.52999973       7.47393593E-02
  -9.52000046       7.61840716E-02
  -9.51000023       7.75905326E-02
  -9.50000000       7.89546967E-02
  -9.48999977       8.02728981E-02
  -9.47999954       8.15417618E-02
  -9.47000027       8.27583522E-02
  -9.46000004       8.39204118E-02
  -9.44999981       8.50261077E-02
  -9.43999958       8.60744938E-02
  -9.43000031       8.70652348E-02
  -9.42000008       8.79990011E-02
  -9.40999985       8.88773948E-02
  -9.39999962       8.97027478E-02
  -9.39000034       9.04788226E-02
  -9.38000011       9.12098810E-02
  -9.36999989       9.19014215E-02
  -9.35999966       9.25598368E-02
  -9.35000038       9.31921974E-02
  -9.34000015       9.38064680E-02
  -9.32999992       9.44110379E-02
  -9.31999969       9.50148925E-02
  -9.31000042       9.56272334E-02
  -9.30000019       9.62575525E-02
  -9.28999996       9.69154090E-02
  -9.27999973       9.76101235E-02
  -9.27000046       9.83511880E-02
  -9.26000023       9.91475657E-02
  -9.25000000      0.100008100    
  -9.23999977      0.100941405    
  -9.22999954      0.101955034    
  -9.22000027      0.103056431    
  -9.21000004      0.104251906    
  -9.19999981      0.105546884    
  -9.18999958      0.106945738    
  -9.18000031      0.108451568    
  -9.17000008      0.110066377    
  -9.15999985      0.111790530    
  -9.14999962      0.113623433    
  -9.14000034      0.115562931    
  -9.13000011      0.117605843    
  -9.11999989      0.119747885    
  -9.10999966      0.121983632    
  -9.10000038      0.124306582    
  -9.09000015      0.126709521    
  -9.07999992      0.129184708    
  -9.06999969      0.131723195    
  -9.06000042      0.134315938    
  -9.05000019      0.136953101    
  -9.03999996      0.139624402    
  -9.02999973      0.142319366    
  -9.02000046      0.145027086    
  -9.01000023      0.147736371    
  -9.00000000      0.150435627    
  -8.98999977      0.153113514    
  -8.97999954      0.155758336    
  -8.97000027      0.158358291    
  -8.96000004      0.160902053    
  -8.94999981      0.163378179    
  -8.93999958      0.165775567    
  -8.93000031      0.168084025    
  -8.92000008      0.170293227    
  -8.90999985      0.172393605    
  -8.89999962      0.174376294    
  -8.89000034      0.176232934    
  -8.88000011      0.177956164    
  -8.86999989      0.179539219    
  -8.85999966      0.180976480    
  -8.85000038      0.182263285    
  -8.84000015      0.183396086    
  -8.82999992      0.184372827    
  -8.81999969      0.185192481    
  -8.81000042      0.185855046    
  -8.80000019      0.186362386    
  -8.78999996      0.186716765    
  -8.77999973      0.186922759    
  -8.77000046      0.186984956    
  -8.76000023      0.186909378    
  -8.75000000      0.186703265    
  -8.73999977      0.186374411    
  -8.72999954      0.185931444    
  -8.72000027      0.185383365    
  -8.71000004      0.184740052    
  -8.69999981      0.184011638    
  -8.68999958      0.183208331    
  -8.68000031      0.182340860    
  -8.67000008      0.181419551    
  -8.65999985      0.180454522    
  -8.64999962      0.179455981    
  -8.64000034      0.178433627    
  -8.63000011      0.177396342    
  -8.61999989      0.176353008    
  -8.60999966      0.175311700    
  -8.60000038      0.174279913    
  -8.59000015      0.173264727    
  -8.57999992      0.172272772    
  -8.56999969      0.171309605    
  -8.56000042      0.170380756    
  -8.55000019      0.169491142    
  -8.53999996      0.168644562    
  -8.52999973      0.167845026    
  -8.52000046      0.167095408    
  -8.51000023      0.166398659    
  -8.50000000      0.165757164    
  -8.48999977      0.165173098    
  -8.47999954      0.164648697    
  -8.47000027      0.164186314    
  -8.46000004      0.163788080    
  -8.44999981      0.163456738    
  -8.43999958      0.163194522    
  -8.43000031      0.163004622    
  -8.42000008      0.162889391    
  -8.40999985      0.162851751    
  -8.39999962      0.162895009    
  -8.39000034      0.163021937    
  -8.38000011      0.163235530    
  -8.36999989      0.163539350    
  -8.35999966      0.163936898    
  -8.35000038      0.164431736    
  -8.34000015      0.165027723    
  -8.32999992      0.165729240    
  -8.31999969      0.166540191    
  -8.31000042      0.167465240    
  -8.30000019      0.168508932    
  -8.28999996      0.169675946    
  -8.27999973      0.170970678    
  -8.27000046      0.172397688    
  -8.26000023      0.173962221    
  -8.25000000      0.175667822    
  -8.23999977      0.177519947    
  -8.22999954      0.179522872    
  -8.22000027      0.181681126    
  -8.21000004      0.183999091    
  -8.19999981      0.186481133    
  -8.18999958      0.189132169    
  -8.18000031      0.191956177    
  -8.17000008      0.194957346    
  -8.15999985      0.198139310    
  -8.14999962      0.201505572    
  -8.14000034      0.205058962    
  -8.13000011      0.208801374    
  -8.11999989      0.212734371    
  -8.10999966      0.216858566    
  -8.10000038      0.221172526    
  -8.09000015      0.225675344    
  -8.07999992      0.230363309    
  -8.06999969      0.235232681    
  -8.06000042      0.240277484    
  -8.05000019      0.245491937    
  -8.03999996      0.250867784    
  -8.02999973      0.256396890    
  -8.02000046      0.262070835    
  -8.01000023      0.267879307    
  -8.00000000      0.273812711    
  -7.98999977      0.279860705    
  -7.98000002      0.286012530    
  -7.96999979      0.292257667    
  -7.96000004      0.298584759    
  -7.94999981      0.304982901    
  -7.94000006      0.311440378    
  -7.92999983      0.317945927    
  -7.92000008      0.324487060    
  -7.90999985      0.331053644    
  -7.90000010      0.337632775    
  -7.88999987      0.344214171    
  -7.88000011      0.350786865    
  -7.86999989      0.357339859    
  -7.86000013      0.363863170    
  -7.84999990      0.370347291    
  -7.84000015      0.376783222    
  -7.82999992      0.383161873    
  -7.82000017      0.389475048    
  -7.80999994      0.395715594    
  -7.80000019      0.401877105    
  -7.78999996      0.407953650    
  -7.78000021      0.413940072    
  -7.76999998      0.419831812    
  -7.76000023      0.425626069    
  -7.75000000      0.431319833    
  -7.73999977      0.436911583    
  -7.73000002      0.442401111    
  -7.71999979      0.447787076    
  -7.71000004      0.453069478    
  -7.69999981      0.458250791    
  -7.69000006      0.463331640    
  -7.67999983      0.468314558    
  -7.67000008      0.473201990    
  -7.65999985      0.477997422    
  -7.65000010      0.482704967    
  -7.63999987      0.487329841    
  -7.63000011      0.491876751    
  -7.61999989      0.496352315    
  -7.61000013      0.500764072    
  -7.59999990      0.505119681    
  -7.59000015      0.509426892    
  -7.57999992      0.513696432    
  -7.57000017      0.517936468    
  -7.55999994      0.522157907    
  -7.55000019      0.526369870    
  -7.53999996      0.530584157    
  -7.53000021      0.534809768    
  -7.51999998      0.539058387    
  -7.51000023      0.543340266    
  -7.50000000      0.547666192    
  -7.48999977      0.552048206    
  -7.48000002      0.556495845    
  -7.46999979      0.561020613    
  -7.46000004      0.565633416    
  -7.44999981      0.570342004    
  -7.44000006      0.575156987    