  -16.0000000       0.00000000    
  -15.9899998       0.00000000    
  -15.9799995       0.00000000    
  -15.9700003       0.00000000    
  -15.9600000       0.00000000    
  -15.9499998       0.00000000    
  -15.9399996       0.00000000    
  -15.9300003       0.00000000    
  -15.9200001       0.00000000    
  -15.9099998       0.00000000    
  -15.8999996       0.00000000    
  -15.8900003       0.00000000    
  -15.8800001       0.00000000    
  -15.8699999       0.00000000    
  -15.8599997       0.00000000    
  -15.8500004       0.00000000    
  -15.8400002       0.00000000    
  -15.8299999       2.80259693E-45
  -15.8199997       1.68155816E-44
  -15.8100004       9.80908925E-44
  -15.8000002       4.98862253E-43
  -15.7900000       2.19163080E-42
  -15.7799997       8.42740896E-42
  -15.7700005       2.85850874E-41
  -15.7600002       8.60915738E-41
  -15.7500000       2.30770035E-40
  -15.7399998       5.49177276E-40
  -15.7299995       1.14816651E-39
  -15.7200003       2.05265983E-39
  -15.7100000       2.91483253E-39
  -15.6999998       2.41523599E-39
  -15.6899996      -2.66608523E-39
  -15.6800003      -1.83784876E-38
  -15.6700001      -5.34624735E-38
  -15.6599998      -1.16017166E-37
  -15.6499996      -2.04046455E-37
  -15.6400003      -2.87872017E-37
  -15.6300001      -2.87334815E-37
  -15.6199999      -5.76702982E-38
  -15.6099997       5.86303412E-37
  -15.6000004       1.76656823E-36
  -15.5900002       3.33080421E-36
  -15.5799999       4.57072905E-36
  -15.5699997       4.03845375E-36
  -15.5600004      -2.08170667E-37
  -15.5500002      -9.53510594E-36
  -15.5400000      -2.26940276E-35
  -15.5299997      -3.34569168E-35
  -15.5200005      -2.98259450E-35
  -15.5100002       2.18228725E-36
  -15.5000000       6.76530921E-35
  -15.4899998       1.46045106E-34
  -15.4799995       1.77628997E-34
  -15.4700003       7.12675593E-35
  -15.4600000      -2.45277434E-34
  -15.4499998      -7.25867578E-34
  -15.4399996      -1.09143466E-33
  -15.4300003      -7.94979207E-34
  -15.4200001       7.93266751E-34
  -15.4099998       3.87211843E-33
  -15.3999996       7.43667758E-33
  -15.3900003       8.65096472E-33
  -15.3800001       3.13954264E-33
  -15.3699999      -1.29256977E-32
  -15.3599997      -3.86409532E-32
  -15.3500004      -6.33061719E-32
  -15.3400002      -6.39034053E-32
  -15.3299999      -1.02710825E-32
  -15.3199997       1.17632554E-31
  -15.3100004       3.01303770E-31
  -15.3000002       4.55336671E-31
  -15.2900000       4.22393535E-31
  -15.2799997       2.04774011E-32
  -15.2700005      -8.40137850E-31
  -15.2600002      -1.99010159E-30
  -15.2500000      -2.86277694E-30
  -15.2399998      -2.51877519E-30
  -15.2299995       2.53379688E-32
  -15.2200003       5.11511834E-30
  -15.2100000       1.15890630E-29
  -15.1999998       1.61791943E-29
  -15.1899996       1.38610638E-29
  -15.1800003      -2.34235775E-31
  -15.1700001      -2.72940384E-29
  -15.1599998      -6.07142915E-29
  -15.1499996      -8.37237256E-29
  -15.1400003      -7.18364647E-29
  -15.1300001      -2.53883778E-30
  -15.1199999       1.28247711E-28
  -15.1099997       2.88239563E-28
  -15.1000004       3.99898746E-28
  -15.0900002       3.53438141E-28
  -15.0799999       5.04591238E-29
  -15.0699997      -5.25867082E-28
  -15.0600004      -1.23790669E-27
  -15.0500002      -1.76103375E-27
  -15.0400000      -1.64082163E-27
  -15.0299997      -4.69771580E-28
  -15.0200005       1.83806170E-27
  -15.0100002       4.76970918E-27
  -15.0000000       7.09452965E-27
  -14.9899998       7.07998271E-27
  -14.9799995       3.13810601E-27
  -14.9700003      -5.18757474E-27
  -14.9600000      -1.62372966E-26
  -14.9499998      -2.58071331E-26
  -14.9399996      -2.78577046E-26
  -14.9300003      -1.66531434E-26
  -14.9200001       9.99609487E-27
  -14.9099998       4.75070680E-26
  -14.8999996       8.30619750E-26
  -14.8900003       9.76674204E-26
  -14.8800001       7.25500337E-26
  -14.8699999      -1.18284830E-27
  -14.8599997      -1.12986538E-25
  -14.8500004      -2.28454217E-25
  -14.8400002      -2.94830058E-25
  -14.8299999      -2.58364396E-25
  -14.8199997      -9.00734139E-26
  -14.8100004       1.89555251E-25
  -14.8000002       5.00104731E-25
  -14.7900000       7.16504019E-25
  -14.7799997       7.12766939E-25
  -14.7700005       4.22706925E-25
  -14.7600002      -1.08161150E-25
  -14.7500000      -7.11368929E-25
  -14.7399998      -1.14728015E-24
  -14.7299995      -1.21553832E-24
  -14.7200003      -8.82226045E-25
  -14.7100000      -3.51731557E-25
  -14.6999998      -9.29471587E-27
  -14.6899996      -2.04370762E-25
  -14.6800003      -9.31813249E-25
  -14.6700001      -1.56933809E-24
  -14.6599998      -8.92466347E-25
  -14.6499996       2.45039564E-24
  -14.6400003       8.99683241E-24
  -14.6300001       1.73475688E-23
  -14.6199999       2.34514526E-23
  -14.6099997       2.10341304E-23
  -14.6000004       3.71891079E-24
  -14.5900002      -3.12327009E-23
  -14.5799999      -7.85986927E-23
  -14.5699997      -1.22312227E-22
  -14.5600004      -1.36517403E-22
  -14.5500002      -9.25260888E-23
  -14.5400000       2.82811431E-23
  -14.5299997       2.18564150E-22
  -14.5200005       4.32320616E-22
  -14.5100002       5.83488428E-22
  -14.5000000       5.62983800E-22
  -14.4899998       2.76358776E-22
  -14.4799995      -3.04316183E-22
  -14.4700003      -1.09070549E-21
  -14.4600000      -1.85445371E-21
  -14.4499998      -2.25339670E-21
  -14.4399996      -1.92135639E-21
  -14.4300003      -6.13435557E-22
  -14.4200001       1.62928883E-21
  -14.4099998       4.35704625E-21
  -14.3999996       6.70200069E-21
  -14.3900003       7.53782146E-21
  -14.3800001       5.81744210E-21
  -14.3699999       1.02864998E-21
  -14.3599997      -6.36666821E-21
  -14.3500004      -1.46922641E-20
  -14.3400002      -2.11934126E-20
  -14.3299999      -2.26468885E-20
  -14.3199997      -1.63947795E-20
  -14.3100004      -1.56811119E-21
  -14.3000002       1.98935936E-20
  -14.2900000       4.28857217E-20
  -14.2799997       5.98168616E-20
  -14.2700005       6.24362712E-20
  -14.2600002       4.45385804E-20
  -14.2500000       4.86231143E-21
  -14.2399998      -5.07896231E-20
  -14.2299995      -1.09206931E-19
  -14.2200003      -1.51878619E-19
  -14.2100000      -1.59560348E-19
  -14.1999998      -1.18462720E-19
  -14.1899996      -2.64256240E-20
  -14.1800003       1.02991980E-19
  -14.1700001       2.40422527E-19
  -14.1599998       3.45666913E-19
  -14.1499996       3.77404024E-19
  -14.1400003       3.05679839E-19
  -14.1300001       1.23890356E-19
  -14.1199999      -1.43579969E-19
  -14.1099997      -4.41333220E-19
  -14.1000004      -6.92119183E-19
  -14.0900002      -8.14255812E-19
  -14.0799999      -7.43760999E-19
  -14.0699997      -4.55666502E-19
  -14.0600004       2.16128319E-20
  -14.0500002       6.03901714E-19
  -14.0400000       1.16326709E-18
  -14.0299997       1.55318587E-18
  -14.0200005       1.64210003E-18
  -14.0100002       1.34799090E-18
  -14.0000000       6.65753111E-19
  -13.9899998      -3.19666197E-19
  -13.9799995      -1.43866034E-18
  -13.9700003      -2.46140950E-18
  -13.9600000      -3.13815471E-18
  -13.9499998      -3.24898223E-18
  -13.9399996      -2.65487092E-18
  -13.9300003      -1.34095293E-18
  -13.9200001       5.56797708E-19
  -13.9099998       2.74924457E-18
  -13.8999996       4.82163000E-18
  -13.8900003       6.29307388E-18
  -13.8800001       6.70466365E-18
  -13.8699999       5.72559200E-18
  -13.8599997       3.25897498E-18
  -13.8500004      -4.77746590E-19
  -13.8400002      -4.92538202E-18
  -13.8299999      -9.23141422E-18
  -13.8199997      -1.23839451E-17
  -13.8100004      -1.34201584E-17
  -13.8000002      -1.16735020E-17
  -13.7900000      -7.00295242E-18
  -13.7799997       6.27389482E-20
  -13.7700005       8.32516589E-18
  -13.7600002       1.60922810E-17
  -13.7500000       2.15180415E-17
  -13.7399998       2.30428216E-17
  -13.7299995       1.98298172E-17
  -13.7200003       1.20743736E-17
  -13.7100000       1.07910591E-18
  -13.6999998      -1.09613218E-17
  -13.6899996      -2.14437822E-17
  -13.6800003      -2.80032930E-17
  -13.6700001      -2.91533388E-17
  -13.6599998      -2.47296431E-17
  -13.6499996      -1.59827292E-17
  -13.6400003      -5.25410608E-18
  -13.6300001       4.70622590E-18
  -13.6199999       1.16017201E-17
  -13.6099997       1.43696956E-17
  -13.6000004       1.36106250E-17
  -13.5900002       1.14734881E-17
  -13.5799999       1.09563728E-17
  -13.5699997       1.47682362E-17
  -13.5600004       2.40693164E-17
  -13.5500002       3.75028834E-17
  -13.5400000       5.09113620E-17
  -13.5299997       5.79816486E-17
  -13.5200005       5.18145770E-17
  -13.5100002       2.71223573E-17
  -13.5000000      -1.74946714E-17
  -13.4899998      -7.78694263E-17
  -13.4799995      -1.43818690E-16
  -13.4700003      -2.00313207E-16
  -13.4600000      -2.30271518E-16
  -13.4499998      -2.18528201E-16
  -13.4399996      -1.56133874E-16
  -13.4300003      -4.39189826E-17
  -13.4200001       1.05712372E-16
  -13.4099998       2.69482632E-16
  -13.3999996       4.16622499E-16
  -13.3900003       5.14468542E-16
  -13.3800001       5.35213438E-16
  -13.3699999       4.62359763E-16
  -13.3599997       2.95368515E-16
  -13.3500004       5.13185367E-17
  -13.3400002      -2.36969934E-16
  -13.3299999      -5.26081417E-16
  -13.3199997      -7.69375326E-16
  -13.3100004      -9.25006459E-16
  -13.3000002      -9.62881643E-16
  -13.2900000      -8.69159989E-16
  -13.2799997      -6.47585646E-16
  -13.2700005      -3.17808588E-16
  -13.2600002       8.83724562E-17
  -13.2500000       5.31463199E-16
  -13.2399998       9.68085602E-16
  -13.2299995       1.35335176E-15
  -13.2200003       1.64186791E-15
  -13.2100000       1.78835633E-15
  -13.1999998       1.74944364E-15
  -13.1899996       1.48813789E-15
  -13.1800003       9.81767831E-16
  -13.1700001       2.32771298E-16
  -13.1599998      -7.19896584E-16
  -13.1499996      -1.79229652E-15
  -13.1400003      -2.85407434E-15
  -13.1300001      -3.73748206E-15
  -13.1199999      -4.25830441E-15
  -13.1099997      -4.24724978E-15
  -13.1000004      -3.58707061E-15
  -13.0900002      -2.24806801E-15
  -13.0799999      -3.13358357E-16
  -13.0699997       2.01398410E-15
  -13.0600004       4.42685380E-15
  -13.0500002       6.55349900E-15
  -13.0400000       8.01544567E-15
  -13.0299997       8.49423105E-15
  -13.0200005       7.79423286E-15
  -13.0100002       5.88859634E-15
  -13.0000000       2.93785098E-15
  -12.9899998      -7.23905009E-16
  -12.9799995      -4.63380597E-15
  -12.9700003      -8.26812323E-15
  -12.9600000      -1.11205118E-14
  -12.9499998      -1.27760453E-14
  -12.9399996      -1.29679118E-14
  -12.9300003      -1.16081334E-14
  -12.9200001      -8.78986249E-15
  -12.9099998      -4.76538873E-15
  -12.8999996       9.14943417E-17
  -12.8900003       5.32798589E-15
  -12.8800001       1.04505146E-14
  -12.8699999       1.49539737E-14
  -12.8599997       1.83429762E-14
  -12.8500004       2.01515864E-14
  -12.8400002       1.99707702E-14
  -12.8299999       1.74917454E-14
  -12.8199997       1.25682164E-14
  -12.8100004       5.29213268E-15
  -12.8000002      -3.93182953E-15
  -12.7900000      -1.43353736E-14
  -12.7799997      -2.47841942E-14
  -12.7700005      -3.38453800E-14
  -12.7600002      -3.99345135E-14
  -12.7500000      -4.15359817E-14
  -12.7399998      -3.74709046E-14
  -12.7299995      -2.71701725E-14
  -12.7200003      -1.08998732E-14
  -12.7100000       1.01137479E-14
  -12.6999998       3.37009947E-14
  -12.6899996       5.69262587E-14
  -12.6800003       7.64167104E-14
  -12.6700001       8.88029613E-14
  -12.6599998       9.12084739E-14
  -12.6499996       8.17114930E-14
  -12.6400003       5.97044861E-14
  -12.6300001       2.60927229E-14
  -12.6199999      -1.67002066E-14
  -12.6099997      -6.49187532E-14
  -12.6000004      -1.13822241E-13
  -12.5900002      -1.58138815E-13
  -12.5799999      -1.92562939E-13
  -12.5699997      -2.12237766E-13
  -12.5600004      -2.13178487E-13
  -12.5500002      -1.92613571E-13
  -12.5400000      -1.49241120E-13
  -12.5299997      -8.34089742E-14
  -12.5200005       2.76913853E-15
  -12.5100002       1.05358966E-13
  -12.5000000       2.18623120E-13
  -12.4899998       3.35137571E-13
  -12.4799995       4.46040096E-13
  -12.4700003       5.41438910E-13
  -12.4600000       6.10989178E-13
  -12.4499998       6.44613106E-13
  -12.4399996       6.33302655E-13
  -12.4300003       5.69907619E-13
  -12.4200001       4.49798239E-13
  -12.4099998       2.71296223E-13
  -12.3999996       3.57888835E-14
  -12.3900003      -2.52496591E-13
  -12.3800001      -5.87031400E-13
  -12.3699999      -9.59742919E-13
  -12.3599997      -1.36186071E-12
  -12.3500004      -1.78469208E-12
  -12.3400002      -2.22019603E-12
  -12.3299999      -2.66126010E-12
  -12.3199997      -3.10163830E-12
  -12.3100004      -3.53559326E-12
  -12.3000002      -3.95732579E-12
  -12.2900000      -4.36033848E-12
  -12.2799997      -4.73684416E-12
  -12.2700005      -5.07733265E-12
  -12.2600002      -5.37040074E-12
  -12.2500000      -5.60282506E-12
  -12.2399998      -5.75986351E-12
  -12.2299995      -5.82573833E-12
  -12.2200003      -5.78422206E-12
  -12.2100000      -5.61927284E-12
  -12.1999998      -5.31568669E-12
  -12.1899996      -4.85976190E-12
  -12.1800003      -4.23999854E-12
  -12.1700001      -3.44784206E-12
  -12.1599998      -2.47845125E-12
  -12.1499996      -1.33149546E-12
  -12.1400003      -1.18965930E-14
  -12.1300001       1.46962520E-12
  -12.1199999       3.09629969E-12
  -12.1099997       4.84539145E-12
  -12.1000004       6.68881313E-12
  -12.0900002       8.59413408E-12
  -12.0799999       1.05259993E-11
  -12.0699997       1.24478058E-11
  -12.0600004       1.43233949E-11
  -12.0500002       1.61186082E-11
  -12.0400000       1.78024991E-11
  -12.0299997       1.93481377E-11
  -12.0200005       2.07328547E-11
  -12.0100002       2.19380399E-11
  -12.0000000       2.29486482E-11
  -11.9899998       2.37524601E-11
  -11.9799995       2.43393430E-11
  -11.9700003       2.47006565E-11
  -11.9600000       2.48288386E-11
  -11.9499998       2.47172560E-11
  -11.9399996       2.43602100E-11
  -11.9300003       2.37530395E-11
  -11.9200001       2.28922419E-11
  -11.9099998       2.17755241E-11
  -11.8999996       2.04017046E-11
  -11.8900003       1.87705546E-11
  -11.8800001       1.68826290E-11
  -11.8699999       1.47391873E-11
  -11.8599997       1.23421620E-11
  -11.8500004       9.69460970E-12
  -11.8400002       6.80100507E-12
  -11.8299999       3.66804677E-12
  -11.8199997       3.05131137E-13
  -11.8100004      -3.27498987E-12
  -11.8000002      -7.05601549E-12
  -11.7900000      -1.10180623E-11
  -11.7799997      -1.51379308E-11
  -11.7700005      -1.93895750E-11
  -11.7600002      -2.37445948E-11
  -11.7500000      -2.81726309E-11
  -11.7399998      -3.26414937E-11
  -11.7299995      -3.71169866E-11
  -11.7200003      -4.15625138E-11
  -11.7100000      -4.59385446E-11
  -11.6999998      -5.02022798E-11
  -11.6899996      -5.43073954E-11
  -11.6800003      -5.82044135E-11
  -11.6700001      -6.18414486E-11
  -11.6599998      -6.51655327E-11
  -11.6499996      -6.81243603E-11
  -11.6400003      -7.06678258E-11
  -11.6300001      -7.27499866E-11
  -11.6199999      -7.43303405E-11
  -11.6099997      -7.53749424E-11
  -11.6000004      -7.58569388E-11
  -11.5900002      -7.57567620E-11
  -11.5799999      -7.50619567E-11
  -11.5699997      -7.37669092E-11
  -11.5600004      -7.18722928E-11
  -11.5500002      -6.93846369E-11
  -11.5400000      -6.63154670E-11
  -11.5299997      -6.26803887E-11
  -11.5200005      -5.84978177E-11
  -11.5100002      -5.37875786E-11
  -11.5000000      -4.85687462E-11
  -11.4899998      -4.28579464E-11
  -11.4799995      -3.66673220E-11
  -11.4700003      -3.00030521E-11
  -11.4600000      -2.28646182E-11
  -11.4499998      -1.52445903E-11
  -11.4399996      -7.12975122E-12
  -11.4300003       1.49730825E-12
  -11.4200001       1.06557306E-11
  -11.4099998       2.03635702E-11
  -11.3999996       3.06347829E-11
  -11.3900003       4.14771169E-11
  -11.3800001       5.28899216E-11
  -11.3699999       6.48619353E-11
  -11.3599997       7.73712691E-11
  -11.3500004       9.03847344E-11
  -11.3400002       1.03857832E-10
  -11.3299999       1.17735405E-10
  -11.3199997       1.31952421E-10
  -11.3100004       1.46434920E-10
  -11.3000002       1.61102007E-10
  -11.2900000       1.75867321E-10
  -11.2799997       1.90641683E-10
  -11.2700005       2.05336290E-10
  -11.2600002       2.19865695E-10
  -11.2500000       2.34151587E-10
  -11.2399998       2.48125520E-10
  -11.2299995       2.61731969E-10
  -11.2200003       2.74930023E-10
  -11.2100000       2.87693869E-10
  -11.1999998       3.00012848E-10
  -11.1899996       3.11889597E-10
  -11.1800003       3.23337773E-10
  -11.1700001       3.34379413E-10
  -11.1599998       3.45041912E-10
  -11.1499996       3.55355301E-10
  -11.1400003       3.65350444E-10
  -11.1300001       3.75057124E-10
  -11.1199999       3.84502957E-10
  -11.1099997       3.93712868E-10
  -11.1000004       4.02708422E-10
  -11.0900002       4.11505774E-10
  -11.0799999       4.20115942E-10
  -11.0699997       4.28540786E-10
  -11.0600004       4.36772257E-10
  -11.0500002       4.44789844E-10
  -11.0400000       4.52558990E-10
  -11.0299997       4.60030875E-10
  -11.0200005       4.67143269E-10
  -11.0100002       4.73823591E-10
  -11.0000000       4.79991935E-10
  -10.9899998       4.85567586E-10
  -10.9799995       4.90473606E-10
  -10.9700003       4.94644159E-10
  -10.9600000       4.98028452E-10
  -10.9499998       5.00594066E-10
  -10.9399996       5.02329567E-10
  -10.9300003       5.03246556E-10
  -10.9200001       5.03377784E-10
  -10.9099998       5.02775599E-10
  -10.8999996       5.01507391E-10
  -10.8900003       4.99651986E-10
  -10.8800001       4.97299812E-10
  -10.8699999       4.94543628E-10
  -10.8599997       4.91480801E-10
  -10.8500004       4.88202700E-10
  -10.8400002       4.84799645E-10
  -10.8299999       4.81355622E-10
  -10.8199997       4.77942963E-10
  -10.8100004       4.74623896E-10
  -10.8000002       4.71447492E-10
  -10.7900000       4.68450112E-10
  -10.7799997       4.65654543E-10
  -10.7700005       4.63067668E-10
  -10.7600002       4.60684629E-10
  -10.7500000       4.58487581E-10
  -10.7399998       4.56451266E-10
  -10.7299995       4.54541987E-10
  -10.7200003       4.52723609E-10
  -10.7100000       4.50964543E-10
  -10.6999998       4.49236870E-10
  -10.6899996       4.47523824E-10
  -10.6800003       4.45820825E-10
  -10.6700001       4.44136450E-10
  -10.6599998       4.42505421E-10
  -10.6499996       4.40976672E-10
  -10.6400003       4.39619119E-10
  -10.6300001       4.38529019E-10
  -10.6199999       4.37815728E-10
  -10.6099997       4.37608616E-10
  -10.6000004       4.38052122E-10
  -10.5900002       4.39303233E-10
  -10.5799999       4.41523790E-10
  -10.5699997       4.44874360E-10
  -10.5600004       4.49513538E-10
  -10.5500002       4.55575688E-10
  -10.5400000       4.63187128E-10
  -10.5299997       4.72439921E-10
  -10.5200005       4.83402596E-10
  -10.5100002       4.96111097E-10
  -10.5000000       5.10574971E-10
  -10.4899998       5.26772015E-10
  -10.4799995       5.44657930E-10
  -10.4700003       5.64183533E-10
  -10.4600000       5.85273552E-10
  -10.4499998       6.07848938E-10
  -10.4399996       6.31825925E-10
  -10.4300003       6.57112975E-10
  -10.4200001       6.83620216E-10
  -10.4099998       7.11247283E-10
  -10.3999996       7.39887540E-10
  -10.3900003       7.69424580E-10
  -10.3800001       7.99732947E-10
  -10.3699999       8.30675417E-10
  -10.3599997       8.62113048E-10
  -10.3500004       8.93899510E-10
  -10.3400002       9.25890697E-10
  -10.3299999       9.57957047E-10
  -10.3199997       9.89977211E-10
  -10.3100004       1.02185316E-09
  -10.3000002       1.05351705E-09
  -10.2900000       1.08492215E-09
  -10.2799997       1.11604770E-09
  -10.2700005       1.14689835E-09
  -10.2600002       1.17748422E-09
  -10.2500000       1.20782906E-09
  -10.2399998       1.23795507E-09
  -10.2299995       1.26788391E-09
  -10.2200003       1.29762623E-09
  -10.2100000       1.32717937E-09
  -10.1999998       1.35654166E-09
  -10.1899996       1.38570855E-09
  -10.1800003       1.41466272E-09
  -10.1700001       1.44341450E-09
  -10.1599998       1.47196921E-09
  -10.1499996       1.50035262E-09
  -10.1400003       1.52860347E-09
  -10.1300001       1.55678315E-09
  -10.1199999       1.58496327E-09
  -10.1099997       1.61322333E-09
  -10.1000004       1.64164538E-09
  -10.0900002       1.67031877E-09
  -10.0799999       1.69932202E-09
  -10.0699997       1.72872716E-09
  -10.0600004       1.75859827E-09
  -10.0500002       1.78899051E-09
  -10.0400000       1.81994275E-09
  -10.0299997       1.85147420E-09
  -10.0200005       1.88360394E-09
  -10.0100002       1.91633598E-09
  -10.0000000       1.94966288E-09
  -9.98999977       1.98359396E-09
  -9.97999954       2.01810813E-09
  -9.97000027       2.05321471E-09
  -9.96000004       2.08892215E-09
  -9.94999981       2.12523354E-09
  -9.93999958       2.16219109E-09
  -9.93000031       2.19982876E-09
  -9.92000008       2.23819674E-09
  -9.90999985       2.27736718E-09
  -9.89999962       2.31741426E-09
  -9.89000034       2.35843234E-09
  -9.88000011       2.40051379E-09
  -9.86999989       2.44377096E-09
  -9.85999966       2.48832044E-09
  -9.85000038       2.53428833E-09
  -9.84000015       2.58180721E-09
  -9.82999992       2.63102562E-09
  -9.81999969       2.68209699E-09
  -9.81000042       2.73519296E-09
  -9.80000019       2.79051160E-09
  -9.78999996       2.84825896E-09
  -9.77999973       2.90865665E-09
  -9.77000046       2.97193359E-09
  -9.76000023       3.03831738E-09
  -9.75000000       3.10802650E-09
  -9.73999977       3.18125548E-09
  -9.72999954       3.25816285E-09
  -9.72000027       3.33888295E-09
  -9.71000004       3.42347439E-09
  -9.69999981       3.51195562E-09
  -9.68999958       3.60428087E-09
  -9.68000031       3.70035047E-09
  -9.67000008       3.80000120E-09
  -9.65999985       3.90303212E-09
  -9.64999962       4.00919875E-09
  -9.64000034       4.11820267E-09
  -9.63000011       4.22969970E-09
  -9.61999989       4.34330616E-09
  -9.60999966       4.45862369E-09
  -9.60000038       4.57519489E-09
  -9.59000015       4.69251749E-09
  -9.57999992       4.81009144E-09
  -9.56999969       4.92737184E-09
  -9.56000042       5.04378450E-09
  -9.55000019       5.15875875E-09
  -9.53999996       5.27171995E-09
  -9.52999973       5.38209521E-09
  -9.52000046       5.48929524E-09
  -9.51000023       5.59278757E-09
  -9.50000000       5.69207259E-09
  -9.48999977       5.78668580E-09
  -9.47999954       5.87620530E-09
  -9.47000027       5.96029404E-09
  -9.46000004       6.03863803E-09
  -9.44999981       6.11103435E-09
  -9.43999958       6.17729690E-09
  -9.43000031       6.23735108E-09
  -9.42000008       6.29118002E-09
  -9.40999985       6.33882102E-09
  -9.39999962       6.38041842E-09
  -9.39000034       6.41619335E-09
  -9.38000011       6.44645315E-09
  -9.36999989       6.47163079E-09
  -9.35999966       6.49223786E-09
  -9.35000038       6.50890764E-09
  -9.34000015       6.52236531E-09
  -9.32999992       6.53345866E-09
  -9.31999969       6.54314025E-09
  -9.31000042       6.55242838E-09
  -9.30000019       6.56240795E-09
  -9.28999996       6.57423760E-09
  -9.27999973       6.58912880E-09
  -9.27000046       6.60831256E-09
  -9.26000023       6.63304656E-09
  -9.25000000       6.66456978E-09
  -9.23999977       6.70413458E-09
  -9.22999954       6.75292489E-09
  -9.22000027       6.81211132E-09
  -9.21000004       6.88272017E-09
  -9.19999981       6.96575508E-09
  -9.18999958       7.06205272E-09
  -9.18000031       7.17238136E-09
  -9.17000008       7.29741156E-09
  -9.15999985       7.43766071E-09
  -9.14999962       7.59355157E-09
  -9.14000034       7.76533682E-09
  -9.13000011       7.95318567E-09
  -9.11999989       8.15709988E-09
  -9.10999966       8.37695957E-09
  -9.10000038       8.61246274E-09
  -9.09000015       8.86311557E-09
  -9.07999992       9.12833187E-09
  -9.06999969       9.40736733E-09
  -9.06000042       9.69935066E-09
  -9.05000019       1.00031867E-08
  -9.03999996       1.03177635E-08
  -9.02999973       1.06417897E-08
  -9.02000046       1.09738902E-08
  -9.01000023       1.13125811E-08
  -9.00000000       1.16563283E-08
  -8.98999977       1.20034818E-08
  -8.97999954       1.23523174E-08
  -8.97000027       1.27011175E-08
  -8.96000004       1.30480728E-08
  -8.94999981       1.33913591E-08
  -8.93999958       1.37291654E-08
  -8.93000031       1.40596486E-08
  -8.92000008       1.43809622E-08
  -8.90999985       1.46913122E-08
  -8.89999962       1.49888706E-08
  -8.89000034       1.52719757E-08
  -8.88000011       1.55388680E-08
  -8.86999989       1.57880162E-08
  -8.85999966       1.60178857E-08
  -8.85000038       1.62271512E-08
  -8.84000015       1.64145035E-08
  -8.82999992       1.65788432E-08
  -8.81999969       1.67191860E-08
  -8.81000042       1.68347327E-08
  -8.80000019       1.69247301E-08
  -8.78999996       1.69886736E-08
  -8.77999973       1.70261742E-08
  -8.77000046       1.70369354E-08
  -8.76000023       1.70209447E-08
  -8.75000000       1.69783245E-08
  -8.73999977       1.69092456E-08
  -8.72999954       1.68141625E-08
  -8.72000027       1.66935212E-08
  -8.71000004       1.65480341E-08
  -8.69999981       1.63784577E-08
  -8.68999958       1.61857070E-08
  -8.68000031       1.59706630E-08
  -8.67000008       1.57344093E-08
  -8.65999985       1.54780224E-08
  -8.64999962       1.52026569E-08
  -8.64000034       1.49094586E-08
  -8.63000011       1.45997001E-08
  -8.61999989       1.42745495E-08
  -8.60999966       1.39353187E-08
  -8.60000038       1.35832670E-08
  -8.59000015       1.32195579E-08
  -8.57999992       1.28454305E-08
  -8.56999969       1.24621771E-08
  -8.56000042       1.20709647E-08
  -8.55000019       1.16730243E-08
  -8.53999996       1.12695462E-08
  -8.52999973       1.08616574E-08
  -8.52000046       1.04506226E-08
  -8.51000023       1.00375832E-08
  -8.50000000       9.62358815E-09
  -8.48999977       9.20980714E-09
  -8.47999954       8.79724915E-09
  -8.47000027       8.38695335E-09
  -8.46000004       7.97987809E-09
  -8.44999981       7.57699858E-09
  -8.43999958       7.17925897E-09
  -8.43000031       6.78750300E-09
  -8.42000008       6.40259668E-09
  -8.40999985       6.02538153E-09
  -8.39999962       5.65670843E-09
  -8.39000034       5.29730748E-09
  -8.38000011       4.94799224E-09
  -8.36999989       4.60943417E-09
  -8.35999966       4.28233138E-09
  -8.35000038       3.96740285E-09
  -8.34000015       3.66520081E-09
  -8.32999992       3.37642225E-09
  -8.31999969       3.10166914E-09
  -8.31000042       2.84152946E-09
  -8.30000019       2.59647570E-09
  -8.28999996       2.36714426E-09
  -8.27999973       2.15409490E-09
  -8.27000046       1.95783745E-09
  -8.26000023       1.77898751E-09
  -8.25000000       1.61793567E-09
  -8.23999977       1.47534562E-09
  -8.22999954       1.35187961E-09
  -8.22000027       1.24812249E-09
  -8.21000004       1.16478227E-09
  -8.19999981       1.10244480E-09
  -8.18999958       1.06178610E-09
  -8.18000031       1.04356668E-09
  -8.17000008       1.04856746E-09
  -8.15999985       1.07735521E-09
  -8.14999962       1.13067400E-09
  -8.14000034       1.20919930E-09
  -8.13000011       1.31368083E-09
  -8.11999989       1.44476087E-09
  -8.10999966       1.60292946E-09
  -8.10000038       1.78875004E-09
  -8.09000015       2.00272643E-09
  -8.07999992       2.24531460E-09
  -8.06999969       2.51674281E-09
  -8.06000042       2.81717627E-09
  -8.05000019       3.14677706E-09
  -8.03999996       3.50546259E-09
  -8.02999973       3.89300636E-09
  -8.02000046       4.30909308E-09
  -8.01000023       4.75336703E-09
  -8.00000000       5.22517540E-09
  -7.98999977       5.72373393E-09
  -7.98000002       6.24831609E-09
  -7.96999979       6.79778456E-09
  -7.96000004       7.37118677E-09
  -7.94999981       7.96732813E-09
  -7.94000006       8.58482441E-09
  -7.92999983       9.22238108E-09
  -7.92000008       9.87861792E-09
  -7.90999985       1.05519353E-08
  -7.90000010       1.12410463E-08
  -7.88999987       1.19442829E-08
  -7.88000011       1.26601369E-08
  -7.86999989       1.33870310E-08
  -7.86000013       1.41234224E-08
  -7.84999990       1.48677133E-08
  -7.84000015       1.56183919E-08
  -7.82999992       1.63739600E-08
  -7.82000017       1.71328320E-08
  -7.80999994       1.78935089E-08
  -7.80000019       1.86545872E-08
  -7.78999996       1.94145962E-08
  -7.78000021       2.01720436E-08
  -7.76999998       2.09256825E-08
  -7.76000023       2.16742482E-08
  -7.75000000       2.24164420E-08
  -7.73999977       2.31510455E-08
  -7.73000002       2.38769537E-08
  -7.71999979       2.45930831E-08
  -7.71000004       2.52984886E-08
  -7.69999981       2.59921062E-08
  -7.69000006       2.66731952E-08
  -7.67999983       2.73407856E-08
  -7.67000008       2.79942665E-08
  -7.65999985       2.86328223E-08
  -7.65000010       2.92558600E-08
  -7.63999987       2.98628713E-08
  -7.63000011       3.04532790E-08
  -7.61999989       3.10269570E-08
  -7.61000013       3.15834789E-08
  -7.59999990       3.21230225E-08
  -7.59000015       3.26454135E-08
  -7.57999992       3.31509256E-08
  -7.57000017       3.36397932E-08
  -7.55999994       3.41124426E-08
  -7.55000019       3.45693607E-08
  -7.53999996       3.50111797E-08
  -7.53000021       3.54385818E-08
  -7.51999998       3.58524659E-08
  -7.51000023       3.62535388E-08
  -7.50000000       3.66427990E-08
  -7.48999977       3.70210920E-08
  -7.48000002       3.73895048E-08
  -7.46999979       3.77491425E-08
  -7.46000004       3.81010743E-08
  -7.44999981       3.84466006E-08
  -7.44000006       3.87865740E-08