  -16.0000000       0.00000000    
  -15.9899998       0.00000000    
  -15.9799995       0.00000000    
  -15.9700003       0.00000000    
  -15.9600000       0.00000000    
  -15.9499998       0.00000000    
  -15.9399996       0.00000000    
  -15.9300003       0.00000000    
  -15.9200001       0.00000000    
  -15.9099998       0.00000000    
  -15.8999996       0.00000000    
  -15.8900003       0.00000000    
  -15.8800001       0.00000000    
  -15.8699999       0.00000000    
  -15.8599997       0.00000000    
  -15.8500004      -0.00000000    
  -15.8400002       0.00000000    
  -15.8299999       0.00000000    
  -15.8199997       0.00000000    
  -15.8100004       1.40129846E-45
  -15.8000002       4.20389539E-45
  -15.7900000       1.40129846E-44
  -15.7799997       5.46506401E-44
  -15.7700005       1.97583083E-43
  -15.7600002       7.00649232E-43
  -15.7500000       2.38080609E-42
  -15.7399998       7.56000522E-42
  -15.7299995       2.19807677E-41
  -15.7200003       5.74924734E-41
  -15.7100000       1.32681945E-40
  -15.6999998       2.61899880E-40
  -15.6899996       4.11170397E-40
  -15.6800003       3.86653279E-40
  -15.6700001      -3.75720348E-40
  -15.6599998      -3.09910748E-39
  -15.6499996      -9.87411931E-39
  -15.6400003      -2.33974706E-38
  -15.6300001      -4.56229709E-38
  -15.6199999      -7.47167521E-38
  -15.6099997      -1.00280427E-37
  -15.6000004      -9.81111609E-38
  -15.5900002      -2.74868085E-38
  -15.5799999       1.64809257E-37
  -15.5699997       5.29667323E-37
  -15.5600004       1.08697901E-36
  -15.5500002       1.77894360E-36
  -15.5400000       2.39531081E-36
  -15.5299997       2.45607810E-36
  -15.5200005       1.06147206E-36
  -15.5100002      -3.17876481E-36
  -15.5000000      -1.18125366E-35
  -15.4899998      -2.52419102E-35
  -15.4799995      -3.99251892E-35
  -15.4700003      -4.44604049E-35
  -15.4600000      -1.71969701E-35
  -15.4499998       6.86912350E-35
  -15.4399996       2.24804823E-34
  -15.4300003       4.08238168E-34
  -15.4200001       4.76115620E-34
  -15.4099998       1.75667999E-34
  -15.3999996      -7.59531303E-34
  -15.3900003      -2.34129932E-33
  -15.3800001      -3.90715698E-33
  -15.3699999      -3.76894566E-33
  -15.3599997       5.84342879E-34
  -15.3500004       1.10960833E-32
  -15.3400002       2.62318088E-32
  -15.3299999       3.73034551E-32
  -15.3199997       2.66596711E-32
  -15.3100004      -2.77399857E-32
  -15.3000002      -1.36807829E-31
  -15.2900000      -2.73647797E-31
  -15.2799997      -3.45894385E-31
  -15.2700005      -1.91850693E-31
  -15.2600002       3.64129241E-31
  -15.2500000       1.36957684E-30
  -15.2399998       2.53054123E-30
  -15.2299995       3.02483247E-30
  -15.2200003       1.53810445E-30
  -15.2100000      -3.23251016E-30
  -15.1999998      -1.14636143E-29
  -15.1899996      -2.06751709E-29
  -15.1800003      -2.45497718E-29
  -15.1700001      -1.34628386E-29
  -15.1599998       2.17399108E-29
  -15.1499996       8.20254045E-29
  -15.1400003       1.50123194E-28
  -15.1300001       1.83278078E-28
  -15.1199999       1.17297463E-28
  -15.1099997      -1.09110624E-28
  -15.1000004      -5.06350431E-28
  -15.0900002      -9.72728859E-28
  -15.0799999      -1.25045951E-27
  -15.0699997      -9.47367925E-28
  -15.0600004       3.25822858E-28
  -15.0500002       2.68467682E-27
  -15.0400000       5.62324667E-27
  -15.0299997       7.75123324E-27
  -15.0200005       6.87167182E-27
  -15.0100002       6.63123343E-28
  -15.0000000      -1.19272811E-26
  -14.9899998      -2.88398518E-26
  -14.9799995      -4.33863668E-26
  -14.9700003      -4.43110689E-26
  -14.9600000      -1.87593820E-26
  -14.9499998       4.11946154E-26
  -14.9399996       1.29459556E-25
  -14.9300003       2.17663043E-25
  -14.9200001       2.53372213E-25
  -14.9099998       1.71149056E-25
  -14.8999996      -7.97459920E-26
  -14.8900003      -4.93958371E-25
  -14.8800001      -9.68175694E-25
  -14.8699999      -1.28247336E-24
  -14.8599997      -1.13330716E-24
  -14.8500004      -2.38741629E-25
  -14.8400002       1.48871759E-24
  -14.8299999       3.74729914E-24
  -14.8199997       5.71997008E-24
  -14.8100004       6.13564140E-24
  -14.8000002       3.61849038E-24
  -14.7900000      -2.65768008E-24
  -14.7799997      -1.21437682E-23
  -14.7700005      -2.22340493E-23
  -14.7600002      -2.81829331E-23
  -14.7500000      -2.40665780E-23
  -14.7399998      -4.99348243E-24
  -14.7299995       2.97359130E-23
  -14.7200003       7.34954505E-23
  -14.7100000       1.10809348E-22
  -14.6999998       1.19220675E-22
  -14.6899996       7.57687142E-23
  -14.6800003      -3.22170226E-23
  -14.6700001      -1.94579535E-22
  -14.6599998      -3.69019286E-22
  -14.6499996      -4.81384634E-22
  -14.6400003      -4.41142580E-22
  -14.6300001      -1.73686585E-22
  -14.6199999       3.35787820E-22
  -14.6099997       1.00049202E-21
  -14.6000004       1.61270856E-21
  -14.5900002       1.86831626E-21
  -14.5799999       1.44843819E-21
  -14.5699997       1.52869833E-22
  -14.5600004      -1.94606962E-21
  -14.5500002      -4.38637844E-21
  -14.5400000      -6.30675255E-21
  -14.5299997      -6.60495803E-21
  -14.5200005      -4.28254143E-21
  -14.5100002       1.07694422E-21
  -14.5000000       8.83276140E-21
  -14.4899998       1.70174300E-20
  -14.4799995       2.24875027E-20
  -14.4700003       2.16362919E-20
  -14.4600000       1.16435429E-20
  -14.4499998      -7.99690509E-21
  -14.4399996      -3.41650570E-20
  -14.4300003      -5.96505401E-20
  -14.4200001      -7.41106331E-20
  -14.4099998      -6.67109596E-20
  -14.3999996      -3.01499191E-20
  -14.3900003       3.49098168E-20
  -14.3800001       1.16562078E-19
  -14.3699999       1.91299462E-19
  -14.3599997       2.27953580E-19
  -14.3500004       1.96218809E-19
  -14.3400002       7.84023046E-20
  -14.3299999      -1.18730584E-19
  -14.3199997      -3.56430213E-19
  -14.3100004      -5.65275120E-19
  -14.3000002      -6.58287495E-19
  -14.2900000      -5.55572705E-19
  -14.2799997      -2.15845621E-19
  -14.2700005       3.34027603E-19
  -14.2600002       9.82864482E-19
  -14.2500000       1.54303378E-18
  -14.2399998       1.78817051E-18
  -14.2299995       1.51793091E-18
  -14.2200003       6.36447911E-19
  -14.2100000      -7.78204851E-19
  -14.1999998      -2.44064313E-18
  -14.1899996      -3.88437067E-18
  -14.1800003      -4.55802119E-18
  -14.1700001      -3.98144404E-18
  -14.1599998      -1.92782879E-18
  -14.1499996       1.42112773E-18
  -14.1400003       5.40695541E-18
  -14.1300001       8.96174010E-18
  -14.1199999       1.08288712E-17
  -14.1099997       9.90953027E-18
  -14.1000004       5.65802582E-18
  -14.0900002      -1.58785745E-18
  -14.0799999      -1.04653683E-17
  -14.0699997      -1.87299184E-17
  -14.0600004      -2.37124921E-17
  -14.0500002      -2.30284518E-17
  -14.0400000      -1.53794432E-17
  -14.0299997      -1.22204893E-18
  -14.0200005       1.69357984E-17
  -14.0100002       3.47901247E-17
  -14.0000000       4.70976127E-17
  -13.9899998       4.90097366E-17
  -13.9799995       3.75863790E-17
  -13.9700003       1.30731470E-17
  -13.9600000      -2.04896343E-17
  -13.9499998      -5.56442810E-17
  -13.9399996      -8.29650971E-17
  -13.9300003      -9.33610501E-17
  -13.9200001      -8.07190106E-17
  -13.9099998      -4.41774765E-17
  -13.8999996       1.06949300E-17
  -13.8900003       7.23480685E-17
  -13.8800001       1.25469535E-16
  -13.8699999       1.54625137E-16
  -13.8599997       1.48499527E-16
  -13.8500004       1.03616766E-16
  -13.8400002       2.64005165E-17
  -13.8299999      -6.72494331E-17
  -13.8199997      -1.55085790E-16
  -13.8100004      -2.13815706E-16
  -13.8000002      -2.25344831E-16
  -13.7900000      -1.82299278E-16
  -13.7799997      -9.11609680E-17
  -13.7700005       2.81611555E-17
  -13.7600002       1.46603232E-16
  -13.7500000       2.33254636E-16
  -13.7399998       2.63907805E-16
  -13.7299995       2.28488143E-16
  -13.7200003       1.35058278E-16
  -13.7100000       8.84891432E-18
  -13.6999998      -1.13928446E-16
  -13.6899996      -1.96194880E-16
  -13.6800003      -2.11419940E-16
  -13.6700001      -1.53006510E-16
  -13.6599998      -3.85212750E-17
  -13.6499996       9.31809563E-17
  -13.6400003       1.91979409E-16
  -13.6300001       2.11527434E-16
  -13.6199999       1.25369572E-16
  -13.6099997      -6.06808382E-17
  -13.6000004      -3.04273002E-16
  -13.5900002      -5.32926290E-16
  -13.5799999      -6.60879511E-16
  -13.5699997      -6.13027443E-16
  -13.5600004      -3.50034354E-16
  -13.5500002       1.12486227E-16
  -13.5400000       6.97160314E-16
  -13.5299997       1.27425074E-15
  -13.5200005       1.68711525E-15
  -13.5100002       1.78911464E-15
  -13.5000000       1.48367689E-15
  -13.4899998       7.57332582E-16
  -13.4799995      -3.03762453E-16
  -13.4700003      -1.52000909E-15
  -13.4600000      -2.64818985E-15
  -13.4499998      -3.42989687E-15
  -13.4399996      -3.64838732E-15
  -13.4300003      -3.18080311E-15
  -13.4200001      -2.03304001E-15
  -13.4099998      -3.48129933E-16
  -13.3999996       1.61485233E-15
  -13.3900003       3.52726987E-15
  -13.3800001       5.05247276E-15
  -13.3699999       5.90850543E-15
  -13.3599997       5.91804514E-15
  -13.3500004       5.03538090E-15
  -13.3400002       3.34654967E-15
  -13.3299999       1.04593460E-15
  -13.3199997      -1.60149578E-15
  -13.3100004      -4.30044345E-15
  -13.3000002      -6.75731672E-15
  -13.2900000      -8.69834142E-15
  -13.2799997      -9.87484817E-15
  -13.2700005      -1.00634858E-14
  -13.2600002      -9.07278250E-15
  -13.2500000      -6.76651465E-15
  -13.2399998      -3.10842880E-15
  -13.2299995       1.77689682E-15
  -13.2200003       7.54280807E-15
  -13.2100000       1.35825960E-14
  -13.1999998       1.90401284E-14
  -13.1899996       2.28880432E-14
  -13.1800003       2.40780516E-14
  -13.1700001       2.17481350E-14
  -13.1599998       1.54511972E-14
  -13.1499996       5.35473985E-15
  -13.1400003      -7.64345676E-15
  -13.1300001      -2.19295000E-14
  -13.1199999      -3.53407150E-14
  -13.1099997      -4.54771922E-14
  -13.1000004      -5.01136405E-14
  -13.0900002      -4.76384679E-14
  -13.0799999      -3.74317988E-14
  -13.0699997      -2.00972187E-14
  -13.0600004       2.51347456E-15
  -13.0500002       2.75046218E-14
  -13.0400000       5.13445148E-14
  -13.0299997       7.04077367E-14
  -13.0200005       8.15526981E-14
  -13.0100002       8.26270543E-14
  -13.0000000       7.28092716E-14
  -12.9899998       5.27301083E-14
  -12.9799995       2.43662156E-14
  -12.9700003      -9.25559254E-15
  -12.9600000      -4.44698294E-14
  -12.9499998      -7.74125298E-14
  -12.9399996      -1.04413596E-13
  -12.9300003      -1.22295091E-13
  -12.9200001      -1.28568895E-13
  -12.9099998      -1.21564298E-13
  -12.8999996      -1.00536455E-13
  -12.8900003      -6.58025338E-14
  -12.8800001      -1.89243949E-14
  -12.8699999       3.70897533E-14
  -12.8599997       9.76409844E-14
  -12.8500004       1.56562412E-13
  -12.8400002       2.06423705E-13
  -12.8299999       2.39194705E-13
  -12.8199997       2.47273827E-13
  -12.8100004       2.24788111E-13
  -12.8000002       1.68972814E-13
  -12.7900000       8.13629830E-14
  -12.7799997      -3.14944400E-14
  -12.7700005      -1.58061674E-13
  -12.7600002      -2.82711869E-13
  -12.7500000      -3.87502476E-13
  -12.7399998      -4.54636654E-13
  -12.7299995      -4.69265089E-13
  -12.7200003      -4.22175505E-13
  -12.7100000      -3.11889566E-13
  -12.6999998      -1.45752618E-13
  -12.6899996       6.02464313E-14
  -12.6800003       2.82980697E-13
  -12.6700001       4.94848682E-13
  -12.6599998       6.67227504E-13
  -12.6499996       7.74221561E-13
  -12.6400003       7.96168036E-13
  -12.6300001       7.22416159E-13
  -12.6199999       5.53024640E-13
  -12.6099997       2.99200308E-13
  -12.6000004      -1.75174206E-14
  -12.5900002      -3.67167234E-13
  -12.5799999      -7.14110791E-13
  -12.5699997      -1.02031068E-12
  -12.5600004      -1.24884705E-12
  -12.5500002      -1.36742321E-12
  -12.5400000      -1.35164503E-12
  -12.5299997      -1.18788735E-12
  -12.5200005      -8.75553699E-13
  -12.5100002      -4.28511339E-13
  -12.5000000       1.24538631E-13
  -12.4899998       7.40986482E-13
  -12.4799995       1.36670775E-12
  -12.4700003       1.93994517E-12
  -12.4600000       2.39651853E-12
  -12.4499998       2.67594367E-12
  -12.4399996       2.72781819E-12
  -12.4300003       2.51767162E-12
  -12.4200001       2.03142776E-12
  -12.4099998       1.27773486E-12
  -12.3999996       2.87654530E-13
  -12.3900003      -8.88396507E-13
  -12.3800001      -2.18617333E-12
  -12.3699999      -3.53486706E-12
  -12.3599997      -4.86511222E-12
  -12.3500004      -6.11657383E-12
  -12.3400002      -7.24403090E-12
  -12.3299999      -8.22109308E-12
  -12.3199997      -9.04108906E-12
  -12.3100004      -9.71511066E-12
  -12.3000002      -1.02676236E-11
  -12.2900000      -1.07303732E-11
  -12.2799997      -1.11355534E-11
  -12.2700005      -1.15090966E-11
  -12.2600002      -1.18649856E-11
  -12.2500000      -1.22010475E-11
  -12.2399998      -1.24966721E-11
  -12.2299995      -1.27123841E-11
  -12.2200003      -1.27912186E-11
  -12.2100000      -1.26618126E-11
  -12.1999998      -1.22428083E-11
  -12.1899996      -1.14485097E-11
  -12.1800003      -1.01955649E-11
  -12.1700001      -8.41030284E-12
  -12.1599998      -6.03640185E-12
  -12.1499996      -3.04232225E-12
  -12.1400003       5.72457067E-13
  -12.1300001       4.77292728E-12
  -12.1199999       9.48691559E-12
  -12.1099997       1.46068435E-11
  -12.1000004       1.99950143E-11
  -12.0900002       2.54925022E-11
  -12.0799999       3.09305914E-11
  -12.0699997       3.61436783E-11
  -12.0600004       4.09818637E-11
  -12.0500002       4.53218227E-11
  -12.0400000       4.90742863E-11
  -12.0299997       5.21872788E-11
  -12.0200005       5.46448269E-11
  -12.0100002       5.64614848E-11
  -12.0000000       5.76736506E-11
  -11.9899998       5.83294454E-11
  -11.9799995       5.84783888E-11
  -11.9700003       5.81627420E-11
  -11.9600000       5.74111869E-11
  -11.9499998       5.62358701E-11
  -11.9399996       5.46322536E-11
  -11.9300003       5.25815988E-11
  -11.9200001       5.00551163E-11
  -11.9099998       4.70184308E-11
  -11.8999996       4.34362095E-11
  -11.8900003       3.92757493E-11
  -11.8800001       3.45099227E-11
  -11.8699999       2.91188497E-11
  -11.8599997       2.30911314E-11
  -11.8500004       1.64250349E-11
  -11.8400002       9.12935439E-12
  -11.8299999       1.22449154E-12
  -11.8199997      -7.25668484E-12
  -11.8100004      -1.62678933E-11
  -11.8000002      -2.57501555E-11
  -11.7900000      -3.56322472E-11
  -11.7799997      -4.58332018E-11
  -11.7700005      -5.62649476E-11
  -11.7600002      -6.68351277E-11
  -11.7500000      -7.74501435E-11
  -11.7399998      -8.80170173E-11
  -11.7299995      -9.84439960E-11
  -11.7200003      -1.08639792E-10
  -11.7100000      -1.18511853E-10
  -11.6999998      -1.27963917E-10
  -11.6899996      -1.36893732E-10
  -11.6800003      -1.45191970E-10
  -11.6700001      -1.52742485E-10
  -11.6599998      -1.59424862E-10
  -11.6499996      -1.65118641E-10
  -11.6400003      -1.69709122E-10
  -11.6300001      -1.73093553E-10
  -11.6199999      -1.75187129E-10
  -11.6099997      -1.75927495E-10
  -11.6000004      -1.75277473E-10
  -11.5900002      -1.73224754E-10
  -11.5799999      -1.69779954E-10
  -11.5699997      -1.64972064E-10
  -11.5600004      -1.58842953E-10
  -11.5500002      -1.51441179E-10
  -11.5400000      -1.42816328E-10
  -11.5299997      -1.33014225E-10
  -11.5200005      -1.22073490E-10
  -11.5100002      -1.10023345E-10
  -11.5000000      -9.68830086E-11
  -11.4899998      -8.26620924E-11
  -11.4799995      -6.73621853E-11
  -11.4700003      -5.09774792E-11
  -11.4600000      -3.34971946E-11
  -11.4499998      -1.49075422E-11
  -11.4399996       4.80535186E-12
  -11.4300003       2.56538957E-11
  -11.4200001       4.76459150E-11
  -11.4099998       7.07820885E-11
  -11.3999996       9.50538398E-11
  -11.3900003       1.20440893E-10
  -11.3800001       1.46910220E-10
  -11.3699999       1.74415010E-10
  -11.3599997       2.02894604E-10
  -11.3500004       2.32275199E-10
  -11.3400002       2.62470490E-10
  -11.3299999       2.93383540E-10
  -11.3199997       3.24907296E-10
  -11.3100004       3.56926988E-10
  -11.3000002       3.89320853E-10
  -11.2900000       4.21961993E-10
  -11.2799997       4.54720539E-10
  -11.2700005       4.87465956E-10
  -11.2600002       5.20070487E-10
  -11.2500000       5.52412449E-10
  -11.2399998       5.84381710E-10
  -11.2299995       6.15882789E-10
  -11.2200003       6.46840859E-10
  -11.2100000       6.77203182E-10
  -11.1999998       7.06943115E-10
  -11.1899996       7.36060324E-10
  -11.1800003       7.64579344E-10
  -11.1700001       7.92546251E-10
  -11.1599998       8.20025214E-10
  -11.1499996       8.47091841E-10
  -11.1400003       8.73824790E-10
  -11.1300001       9.00302666E-10
  -11.1199999       9.26592025E-10
  -11.1099997       9.52744328E-10
  -11.1000004       9.78789494E-10
  -11.0900002       1.00473163E-09
  -11.0799999       1.03054554E-09
  -11.0699997       1.05617737E-09
  -11.0600004       1.08154408E-09
  -11.0500002       1.10653620E-09
  -11.0400000       1.13102205E-09
  -11.0299997       1.15485488E-09
  -11.0200005       1.17788035E-09
  -11.0100002       1.19994037E-09
  -11.0000000       1.22088673E-09
  -10.9899998       1.24058575E-09
  -10.9799995       1.25892419E-09
  -10.9700003       1.27581679E-09
  -10.9600000       1.29120903E-09
  -10.9499998       1.30507727E-09
  -10.9399996       1.31742639E-09
  -10.9300003       1.32829236E-09
  -10.9200001       1.33773248E-09
  -10.9099998       1.34582512E-09
  -10.8999996       1.35265354E-09
  -10.8900003       1.35831546E-09
  -10.8800001       1.36290679E-09
  -10.8699999       1.36651834E-09
  -10.8599997       1.36922873E-09
  -10.8500004       1.37110689E-09
  -10.8400002       1.37220402E-09
  -10.8299999       1.37254785E-09
  -10.8199997       1.37214096E-09
  -10.8100004       1.37097278E-09
  -10.8000002       1.36900657E-09
  -10.7900000       1.36618949E-09
  -10.7799997       1.36245237E-09
  -10.7700005       1.35772371E-09
  -10.7600002       1.35192657E-09
  -10.7500000       1.34499134E-09
  -10.7399998       1.33685440E-09
  -10.7299995       1.32746580E-09
  -10.7200003       1.31679689E-09
  -10.7100000       1.30483002E-09
  -10.6999998       1.29157451E-09
  -10.6899996       1.27705768E-09
  -10.6800003       1.26132460E-09
  -10.6700001       1.24445054E-09
  -10.6599998       1.22652466E-09
  -10.6499996       1.20765453E-09
  -10.6400003       1.18796650E-09
  -10.6300001       1.16760546E-09
  -10.6199999       1.14672449E-09
  -10.6099997       1.12548615E-09
  -10.6000004       1.10405951E-09
  -10.5900002       1.08262099E-09
  -10.5799999       1.06134124E-09
  -10.5699997       1.04039088E-09
  -10.5600004       1.01993991E-09
  -10.5500002       1.00014841E-09
  -10.5400000       9.81169035E-10
  -10.5299997       9.63145230E-10
  -10.5200005       9.46222656E-10
  -10.5100002       9.30527655E-10
  -10.5000000       9.16178744E-10
  -10.4899998       9.03276287E-10
  -10.4799995       8.91899665E-10
  -10.4700003       8.82108497E-10
  -10.4600000       8.73927597E-10
  -10.4499998       8.67360350E-10
  -10.4399996       8.62376726E-10
  -10.4300003       8.58931593E-10
  -10.4200001       8.56934523E-10
  -10.4099998       8.56283489E-10
  -10.3999996       8.56859694E-10
  -10.3900003       8.58521976E-10
  -10.3800001       8.61125948E-10
  -10.3699999       8.64524063E-10
  -10.3599997       8.68564665E-10
  -10.3500004       8.73097261E-10
  -10.3400002       8.77989015E-10
  -10.3299999       8.83110252E-10
  -10.3199997       8.88351004E-10
  -10.3100004       8.93623675E-10
  -10.3000002       8.98859598E-10
  -10.2900000       9.04013475E-10
  -10.2799997       9.09066766E-10
  -10.2700005       9.14043119E-10
  -10.2600002       9.18976284E-10
  -10.2500000       9.23944921E-10
  -10.2399998       9.29033739E-10
  -10.2299995       9.34365585E-10
  -10.2200003       9.40055478E-10
  -10.2100000       9.46245637E-10
  -10.1999998       9.53073287E-10
  -10.1899996       9.60677093E-10
  -10.1800003       9.69180070E-10
  -10.1700001       9.78691350E-10
  -10.1599998       9.89301641E-10
  -10.1499996       1.00106412E-09
  -10.1400003       1.01402864E-09
  -10.1300001       1.02821274E-09
  -10.1199999       1.04361320E-09
  -10.1099997       1.06022280E-09
  -10.1000004       1.07801723E-09
  -10.0900002       1.09697418E-09
  -10.0799999       1.11707976E-09
  -10.0699997       1.13831822E-09
  -10.0600004       1.16068344E-09
  -10.0500002       1.18418375E-09
  -10.0400000       1.20882759E-09
  -10.0299997       1.23461608E-09
  -10.0200005       1.26157429E-09
  -10.0100002       1.28969213E-09
  -10.0000000       1.31897659E-09
  -9.98999977       1.34942346E-09
  -9.97999954       1.38099820E-09
  -9.97000027       1.41369005E-09
  -9.96000004       1.44746748E-09
  -9.94999981       1.48231072E-09
  -9.93999958       1.51819635E-09
  -9.93000031       1.55511426E-09
  -9.92000008       1.59305980E-09
  -9.90999985       1.63203628E-09
  -9.89999962       1.67205993E-09
  -9.89000034       1.71316439E-09
  -9.88000011       1.75539416E-09
  -9.86999989       1.79880943E-09
  -9.85999966       1.84346338E-09
  -9.85000038       1.88946125E-09
  -9.84000015       1.93689065E-09
  -9.82999992       1.98586347E-09
  -9.81999969       2.03651029E-09
  -9.81000042       2.08895656E-09
  -9.80000019       2.14332374E-09
  -9.78999996       2.19975838E-09
  -9.77999973       2.25837637E-09
  -9.77000046       2.31931274E-09
  -9.76000023       2.38265185E-09
  -9.75000000       2.44849296E-09
  -9.73999977       2.51689536E-09
  -9.72999954       2.58791899E-09
  -9.72000027       2.66155897E-09
  -9.71000004       2.73782685E-09
  -9.69999981       2.81665180E-09
  -9.68999958       2.89796365E-09
  -9.68000031       2.98162606E-09
  -9.67000008       3.06746961E-09
  -9.65999985       3.15530446E-09
  -9.64999962       3.24488081E-09
  -9.64000034       3.33593708E-09
  -9.63000011       3.42819728E-09
  -9.61999989       3.52135676E-09
  -9.60999966       3.61510799E-09
  -9.60000038       3.70912989E-09
  -9.59000015       3.80309340E-09
  -9.57999992       3.89668031E-09
  -9.56999969       3.98952205E-09
  -9.56000042       4.08129130E-09
  -9.55000019       4.17157420E-09
  -9.53999996       4.26002345E-09
  -9.52999973       4.34622560E-09
  -9.52000046       4.42981696E-09
  -9.51000023       4.51040671E-09
  -9.50000000       4.58762450E-09
  -9.48999977       4.66112260E-09
  -9.47999954       4.73058837E-09
  -9.47000027       4.79575890E-09
  -9.46000004       4.85638951E-09
  -9.44999981       4.91232877E-09
  -9.43999958       4.96347052E-09
  -9.43000031       5.00976638E-09
  -9.42000008       5.05127895E-09
  -9.40999985       5.08814413E-09
  -9.39999962       5.12056353E-09
  -9.39000034       5.14884846E-09
  -9.38000011       5.17338350E-09
  -9.36999989       5.19465715E-09
  -9.35999966       5.21325560E-09
  -9.35000038       5.22982457E-09
  -9.34000015       5.24508703E-09
  -9.32999992       5.25985300E-09
  -9.31999969       5.27493160E-09
  -9.31000042       5.29126298E-09
  -9.30000019       5.30974198E-09
  -9.28999996       5.33131495E-09
  -9.27999973       5.35696687E-09
  -9.27000046       5.38758327E-09
  -9.26000023       5.42408030E-09
  -9.25000000       5.46736301E-09
  -9.23999977       5.51821611E-09
  -9.22999954       5.57740298E-09
  -9.22000027       5.64563063E-09
  -9.21000004       5.72348524E-09
  -9.19999981       5.81148774E-09
  -9.18999958       5.91002225E-09
  -9.18000031       6.01933436E-09
  -9.17000008       6.13961415E-09
  -9.15999985       6.27088070E-09
  -9.14999962       6.41306785E-09
  -9.14000034       6.56592958E-09
  -9.13000011       6.72908884E-09
  -9.11999989       6.90209356E-09
  -9.10999966       7.08437797E-09
  -9.10000038       7.27518490E-09
  -9.09000015       7.47377893E-09
  -9.07999992       7.67917463E-09
  -9.06999969       7.89039944E-09
  -9.06000042       8.10639822E-09
  -9.05000019       8.32602076E-09
  -9.03999996       8.54811333E-09
  -9.02999973       8.77143247E-09
  -9.02000046       8.99475605E-09
  -9.01000023       9.21687437E-09
  -9.00000000       9.43656442E-09
  -8.98999977       9.65264846E-09
  -8.97999954       9.86395410E-09
  -8.97000027       1.00693169E-08
  -8.96000004       1.02676578E-08
  -8.94999981       1.04579465E-08
  -8.93999958       1.06391180E-08
  -8.93000031       1.08102371E-08
  -8.92000008       1.09703331E-08
  -8.90999985       1.11185585E-08
  -8.89999962       1.12540333E-08
  -8.89000034       1.13760326E-08
  -8.88000011       1.14838690E-08
  -8.86999989       1.15769465E-08
  -8.85999966       1.16547145E-08
  -8.85000038       1.17167396E-08
  -8.84000015       1.17626620E-08
  -8.82999992       1.17922294E-08
  -8.81999969       1.18053398E-08
  -8.81000042       1.18020003E-08
  -8.80000019       1.17823031E-08
  -8.78999996       1.17465238E-08
  -8.77999973       1.16949801E-08
  -8.77000046       1.16281065E-08
  -8.76000023       1.15465539E-08
  -8.75000000       1.14509575E-08
  -8.73999977       1.13421050E-08
  -8.72999954       1.12208776E-08
  -8.72000027       1.10881331E-08
  -8.71000004       1.09448512E-08
  -8.69999981       1.07920899E-08
  -8.68999958       1.06309557E-08
  -8.68000031       1.04625189E-08
  -8.67000008       1.02878976E-08
  -8.65999985       1.01081872E-08
  -8.64999962       9.92445237E-09
  -8.64000034       9.73773595E-09
  -8.63000011       9.54901935E-09
  -8.61999989       9.35926892E-09
  -8.60999966       9.16932397E-09
  -8.60000038       8.98006380E-09
  -8.59000015       8.79218565E-09
  -8.57999992       8.60633076E-09
  -8.56999969       8.42312176E-09
  -8.56000042       8.24302138E-09
  -8.55000019       8.06653855E-09
  -8.53999996       7.89398680E-09
  -8.52999973       7.72567965E-09
  -8.52000046       7.56182494E-09
  -8.51000023       7.40255368E-09
  -8.50000000       7.24800042E-09
  -8.48999977       7.09821890E-09
  -8.47999954       6.95316915E-09
  -8.47000027       6.81287515E-09
  -8.46000004       6.67721123E-09
  -8.44999981       6.54613030E-09
  -8.43999958       6.41965370E-09
  -8.43000031       6.29769970E-09
  -8.42000008       6.18025142E-09
  -8.40999985       6.06746475E-09
  -8.39999962       5.95919714E-09
  -8.39000034       5.85570659E-09
  -8.38000011       5.75712411E-09
  -8.36999989       5.66358249E-09
  -8.35999966       5.57528157E-09
  -8.35000038       5.49253798E-09
  -8.34000015       5.41557732E-09
  -8.32999992       5.34478772E-09
  -8.31999969       5.28052668E-09
  -8.31000042       5.22324006E-09
  -8.30000019       5.17344922E-09
  -8.28999996       5.13167508E-09
  -8.27999973       5.09836173E-09
  -8.27000046       5.07408338E-09
  -8.26000023       5.05936226E-09
  -8.25000000       5.05470288E-09
  -8.23999977       5.06071363E-09
  -8.22999954       5.07788434E-09
  -8.22000027       5.10676834E-09
  -8.21000004       5.14795451E-09
  -8.19999981       5.20205345E-09
  -8.18999958       5.26954480E-09
  -8.18000031       5.35100675E-09
  -8.17000008       5.44685497E-09
  -8.15999985       5.55757795E-09
  -8.14999962       5.68360115E-09
  -8.14000034       5.82513904E-09
  -8.13000011       5.98246519E-09
  -8.11999989       6.15598417E-09
  -8.10999966       6.34557784E-09
  -8.10000038       6.55136123E-09
  -8.09000015       6.77346357E-09
  -8.07999992       7.01176184E-09
  -8.06999969       7.26605753E-09
  -8.06000042       7.53611307E-09
  -8.05000019       7.82163045E-09
  -8.03999996       8.12241296E-09
  -8.02999973       8.43788950E-09
  -8.02000046       8.76762929E-09
  -8.01000023       9.11114295E-09
  -8.00000000       9.46773238E-09
  -7.98999977       9.83680160E-09
  -7.98000002       1.02175104E-08
  -7.96999979       1.06092006E-08
  -7.96000004       1.10110570E-08
  -7.94999981       1.14220153E-08
  -7.94000006       1.18412009E-08
  -7.92999983       1.22674937E-08
  -7.92000008       1.26999149E-08
  -7.90999985       1.31373472E-08
  -7.90000010       1.35787532E-08
  -7.88999987       1.40230911E-08
  -7.88000011       1.44691299E-08
  -7.86999989       1.49157433E-08
  -7.86000013       1.53618842E-08
  -7.84999990       1.58065774E-08
  -7.84000015       1.62487659E-08
  -7.82999992       1.66874692E-08
  -7.82000017       1.71217174E-08
  -7.80999994       1.75506738E-08
  -7.80000019       1.79736652E-08
  -7.78999996       1.83898674E-08
  -7.78000021       1.87987226E-08
  -7.76999998       1.91997369E-08
  -7.76000023       1.95924130E-08
  -7.75000000       1.99762304E-08
  -7.73999977       2.03511696E-08
  -7.73000002       2.07168398E-08
  -7.71999979       2.10731503E-08
  -7.71000004       2.14200675E-08
  -7.69999981       2.17576641E-08
  -7.69000006       2.20857892E-08
  -7.67999983       2.24047110E-08
  -7.67000008       2.27143655E-08
  -7.65999985       2.30151009E-08
  -7.65000010       2.33069759E-08
  -7.63999987       2.35902444E-08
  -7.63000011       2.38652316E-08
  -7.61999989       2.41321985E-08
  -7.61000013       2.43914737E-08
  -7.59999990       2.46434375E-08
  -7.59000015       2.48886494E-08
  -7.57999992       2.51273704E-08
  -7.57000017       2.53602881E-08
  -7.55999994       2.55879193E-08
  -7.55000019       2.58107971E-08
  -7.53999996       2.60296940E-08
  -7.53000021       2.62452655E-08
  -7.51999998       2.64580162E-08
  -7.51000023       2.66689586E-08
  -7.50000000       2.68788956E-08
  -7.48999977       2.70886140E-08
  -7.48000002       2.72990697E-08
  -7.46999979       2.75113443E-08
  -7.46000004       2.77260241E-08
  -7.44999981       2.79440808E-08
  -7.44000006       2.81665464E-08