  -16.0000000       0.00000000    
  -15.9899998       0.00000000    
  -15.9799995       0.00000000    
  -15.9700003       0.00000000    
  -15.9600000       0.00000000    
  -15.9499998       0.00000000    
  -15.9399996       0.00000000    
  -15.9300003       0.00000000    
  -15.9200001       0.00000000    
  -15.9099998       0.00000000    
  -15.8999996       0.00000000    
  -15.8900003       0.00000000    
  -15.8800001       0.00000000    
  -15.8699999       3.64337601E-44
  -15.8599997       1.32562835E-42
  -15.8500004       2.54685996E-41
  -15.8400002       3.24834997E-40
  -15.8299999       3.05960347E-39
  -15.8199997       2.26923303E-38
  -15.8100004       1.38277397E-37
  -15.8000002       7.13200786E-37
  -15.7900000       3.18169565E-36
  -15.7799997       1.24756957E-35
  -15.7700005       4.35141262E-35
  -15.7600002       1.36197161E-34
  -15.7500000       3.84869202E-34
  -15.7399998       9.85345742E-34
  -15.7299995       2.28725064E-33
  -15.7200003       4.80035195E-33
  -15.7100000       9.03459171E-33
  -15.6999998       1.49730430E-32
  -15.6899996       2.09583237E-32
  -15.6800003       2.19648848E-32
  -15.6700001       7.82710775E-33
  -15.6599998      -3.69047245E-32
  -15.6499996      -1.28483002E-31
  -15.6400003      -2.71309292E-31
  -15.6300001      -4.35614367E-31
  -15.6199999      -5.30651346E-31
  -15.6099997      -3.90306560E-31
  -15.6000004       1.99117552E-31
  -15.5900002       1.39569124E-30
  -15.5799999       3.11144722E-30
  -15.5699997       4.78191064E-30
  -15.5600004       5.23246014E-30
  -15.5500002       2.85655415E-30
  -15.5400000      -3.69363948E-30
  -15.5299997      -1.42996161E-29
  -15.5200005      -2.60492888E-29
  -15.5100002      -3.26660408E-29
  -15.5000000      -2.57999261E-29
  -15.4899998       1.15575874E-30
  -15.4799995       4.74158506E-29
  -15.4700003       9.99585748E-29
  -15.4600000       1.33528418E-28
  -15.4499998       1.18790817E-28
  -15.4399996       3.79861063E-29
  -15.4300003      -9.88152765E-29
  -15.4200001      -2.48512370E-28
  -15.4099998      -3.50281807E-28
  -15.3999996      -3.58394690E-28
  -15.3900003      -2.70984602E-28
  -15.3800001      -1.22729645E-28
  -15.3699999       7.41886752E-29
  -15.3599997       4.05406905E-28
  -15.3500004       1.04791765E-27
  -15.3400002       2.07098579E-27
  -15.3299999       3.04428646E-27
  -15.3199997       2.70541061E-27
  -15.3100004      -7.87015961E-28
  -15.3000002      -8.47803837E-27
  -15.2900000      -1.81713339E-26
  -15.2799997      -2.22447343E-26
  -15.2700005      -8.49330791E-27
  -15.2600002       3.29483658E-26
  -15.2500000       9.60769350E-26
  -15.2399998       1.44442503E-25
  -15.2299995       1.08852956E-25
  -15.2200003      -8.54380549E-26
  -15.2100000      -4.52953627E-25
  -15.1999998      -8.60322336E-25
  -15.1899996      -9.72651592E-25
  -15.1800003      -3.21701619E-25
  -15.1700001       1.42816266E-24
  -15.1599998       4.03120426E-24
  -15.1499996       6.21772987E-24
  -15.1400003       5.64128160E-24
  -15.1300001      -3.27445315E-25
  -15.1199999      -1.27323010E-23
  -15.1099997      -2.85048830E-23
  -15.1000004      -3.86389404E-23
  -15.0900002      -2.92111691E-23
  -15.0799999       1.27431439E-23
  -15.0699997       8.83066485E-23
  -15.0600004       1.74175288E-22
  -15.0500002       2.16468380E-22
  -15.0400000       1.41346734E-22
  -15.0299997      -1.09844792E-22
  -15.0200005      -5.24040173E-22
  -15.0100002      -9.59780936E-22
  -15.0000000      -1.13042904E-21
  -14.9899998      -6.74019469E-22
  -14.9799995       6.63540720E-22
  -14.9700003       2.76040652E-21
  -14.9600000       4.87581733E-21
  -14.9499998       5.61622759E-21
  -14.9399996       3.30585418E-21
  -14.9300003      -3.15155026E-21
  -14.9200001      -1.30838461E-20
  -14.9099998      -2.30393485E-20
  -14.8999996      -2.67384970E-20
  -14.8900003      -1.67696733E-20
  -14.8800001       1.16869788E-20
  -14.8699999       5.58691615E-20
  -14.8599997       1.01283658E-19
  -14.8500004       1.21548465E-19
  -14.8400002       8.52600648E-20
  -14.8299999      -2.90966790E-20
  -14.8199997      -2.13223044E-19
  -14.8100004      -4.12173966E-19
  -14.8000002      -5.22574816E-19
  -14.7900000      -4.17390607E-19
  -14.7799997      -1.38823818E-21
  -14.7700005       7.13204068E-19
  -14.7600002       1.53970138E-18
  -14.7500000       2.10167858E-18
  -14.7399998       1.91189067E-18
  -14.7299995       5.63553602E-19
  -14.7200003      -1.99746272E-18
  -14.7100000      -5.21455444E-18
  -14.6999998      -7.82315825E-18
  -14.6899996      -8.06618474E-18
  -14.6800003      -4.30161919E-18
  -14.6700001       4.07545353E-18
  -14.6599998       1.56840012E-17
  -14.6499996       2.66527619E-17
  -14.6400003       3.10800774E-17
  -14.6300001       2.27884007E-17
  -14.6199999      -1.75947706E-18
  -14.6099997      -4.01717783E-17
  -14.6000004      -8.18830125E-17
  -14.5900002      -1.08639605E-16
  -14.5799999      -9.89902855E-17
  -14.5699997      -3.68012721E-17
  -14.5600004       7.81147614E-17
  -14.5500002       2.21192622E-16
  -14.5400000       3.41268251E-16
  -14.5299997       3.70210202E-16
  -14.5200005       2.45488280E-16
  -14.5100002      -5.81419363E-17
  -14.5000000      -4.97792210E-16
  -14.4899998      -9.46950754E-16
  -14.4799995      -1.21000404E-15
  -14.4700003      -1.07497682E-15
  -14.4600000      -3.99465397E-16
  -14.4499998       7.92460573E-16
  -14.4399996       2.23992992E-15
  -14.4300003       3.44482201E-15
  -14.4200001       3.77388330E-15
  -14.4099998       2.66644553E-15
  -14.3999996      -9.33832847E-17
  -14.3900003      -4.12704945E-15
  -14.3800001      -8.35007282E-15
  -14.3699999      -1.11063121E-14
  -14.3599997      -1.05986725E-14
  -14.3500004      -5.56504416E-15
  -14.3400002       3.97470168E-15
  -14.3299999       1.61761406E-14
  -14.3199997       2.73371261E-14
  -14.3100004       3.25960504E-14
  -14.3000002       2.73779988E-14
  -14.2900000       9.31289940E-15
  -14.2799997      -1.99450679E-14
  -14.2700005      -5.37487806E-14
  -14.2600002      -8.10452169E-14
  -14.2500000      -8.88834159E-14
  -14.2399998      -6.66025327E-14
  -14.2299995      -1.07266211E-14
  -14.2200003       7.10283747E-14
  -14.2100000       1.58463574E-13
  -14.1999998       2.21773893E-13
  -14.1899996       2.28995642E-13
  -14.1800003       1.56871952E-13
  -14.1700001       2.33611454E-15
  -14.1599998      -2.09348150E-13
  -14.1499996      -4.23842737E-13
  -14.1400003      -5.67092001E-13
  -14.1300001      -5.64737113E-13
  -14.1199999      -3.67956750E-13
  -14.1099997       2.12967851E-14
  -14.1000004       5.34643564E-13
  -14.0900002       1.03956188E-12
  -14.0799999       1.36426374E-12
  -14.0699997       1.34341843E-12
  -14.0600004       8.75371661E-13
  -14.0500002      -2.50566593E-14
  -14.0400000      -1.19708919E-12
  -14.0299997      -2.34416132E-12
  -14.0200005      -3.09136874E-12
  -14.0100002      -3.08428456E-12
  -14.0000000      -2.10813702E-12
  -13.9899998      -1.94259485E-13
  -13.9799995       2.32360420E-12
  -13.9700003       4.83389370E-12
  -13.9600000       6.56526916E-12
  -13.9499998       6.78411277E-12
  -13.9399996       5.02916675E-12
  -13.9300003       1.31943783E-12
  -13.9200001      -3.73493424E-12
  -13.9099998      -8.97509844E-12
  -13.8999996      -1.29109752E-11
  -13.8900003      -1.40868697E-11
  -13.8800001      -1.15176957E-11
  -13.8699999      -5.08062559E-12
  -13.8599997       4.26326465E-12
  -13.8500004       1.45175061E-11
  -13.8400002       2.30086141E-11
  -13.8299999       2.70104442E-11
  -13.8199997       2.45041591E-11
  -13.8100004       1.48799653E-11
  -13.8000002      -6.31356024E-13
  -13.7900000      -1.89677683E-11
  -13.7799997      -3.57590312E-11
  -13.7700005      -4.63007375E-11
  -13.7600002      -4.67774187E-11
  -13.7500000      -3.54302976E-11
  -13.7399998      -1.33351481E-11
  -13.7299995       1.54819647E-11
  -13.7200003       4.47137015E-11
  -13.7100000       6.71416811E-11
  -13.6999998       7.64151659E-11
  -13.6899996       6.87939219E-11
  -13.6800003       4.43698273E-11
  -13.6700001       7.37730536E-12
  -13.6599998      -3.45764320E-11
  -13.6499996      -7.22360088E-11
  -13.6400003      -9.69634026E-11
  -13.6300001      -1.02937950E-10
  -13.6199999      -8.86572551E-11
  -13.6099997      -5.72716423E-11
  -13.6000004      -1.56134671E-11
  -13.5900002       2.78142058E-11
  -13.5799999       6.52693316E-11
  -13.5699997       9.18197116E-11
  -13.5600004       1.06279659E-10
  -13.5500002       1.10644709E-10
  -13.5400000       1.08161299E-10
  -13.5299997       1.00723187E-10
  -13.5200005       8.66750421E-11
  -13.5100002       6.01538541E-11
  -13.5000000       1.27249626E-11
  -13.4899998      -6.26821720E-11
  -13.4799995      -1.66472475E-10
  -13.4700003      -2.87484897E-10
  -13.4600000      -4.00658701E-10
  -13.4499998      -4.69153993E-10
  -13.4399996      -4.51783194E-10
  -13.4300003      -3.14995530E-10
  -13.4200001      -4.68572438E-11
  -13.4099998       3.30961897E-10
  -13.3999996       7.57691021E-10
  -13.3900003       1.13813448E-09
  -13.3800001       1.35903711E-09
  -13.3699999       1.31546951E-09
  -13.3599997       9.42140366E-10
  -13.3500004       2.41845072E-10
  -13.3400002      -6.97730318E-10
  -13.3299999      -1.70627013E-09
  -13.3199997      -2.55579380E-09
  -13.3100004      -3.00637870E-09
  -13.3000002      -2.86457125E-09
  -13.2900000      -2.04140749E-09
  -13.2799997      -5.94667204E-10
  -13.2700005       1.25848887E-09
  -13.2600002       3.16679505E-09
  -13.2500000       4.70770178E-09
  -13.2399998       5.47748558E-09
  -13.2299995       5.18981125E-09
  -13.2200003       3.75914677E-09
  -13.2100000       1.34627842E-09
  -13.1999998      -1.64991765E-09
  -13.1899996      -4.65836481E-09
  -13.1800003      -7.04907199E-09
  -13.1700001      -8.27049362E-09
  -13.1599998      -7.97944466E-09
  -13.1499996      -6.13130080E-09
  -13.1400003      -3.00583025E-09
  -13.1300001       8.41367587E-10
  -13.1199999       4.69348871E-09
  -13.1099997       7.82754750E-09
  -13.1000004       9.67252856E-09
  -13.0900002       9.93104710E-09
  -13.0799999       8.63323724E-09
  -13.0699997       6.10872464E-09
  -13.0600004       2.88457658E-09
  -13.0500002      -4.62117483E-10
  -13.0400000      -3.45467410E-09
  -13.0299997      -5.82574478E-09
  -13.0200005      -7.55105578E-09
  -13.0100002      -8.79582984E-09
  -13.0000000      -9.78855130E-09
  -12.9899998      -1.06613802E-08
  -12.9799995      -1.13113439E-08
  -12.9700003      -1.13363594E-08
  -12.9600000      -1.00833351E-08
  -12.9499998      -6.81554413E-09
  -12.9399996      -9.70084346E-10
  -12.9300003       7.55640617E-09
  -12.9200001       1.81751592E-08
  -12.9099998       2.95063245E-08
  -12.8999996       3.94710646E-08
  -12.8900003       4.55902871E-08
  -12.8800001       4.54543461E-08
  -12.8699999       3.72794027E-08
  -12.8599997       2.04333315E-08
  -12.8500004      -4.19382973E-09
  -12.8400002      -3.40780915E-08
  -12.8299999      -6.52639187E-08
  -12.8199997      -9.28716233E-08
  -12.8100004      -1.11834325E-07
  -12.8000002      -1.17735702E-07
  -12.7900000      -1.07593330E-07
  -12.7799997      -8.04395981E-08
  -12.7700005      -3.75922262E-08
  -12.7600002       1.74298620E-08
  -12.7500000       7.93161306E-08
  -12.7399998       1.41606407E-07
  -12.7299995       1.97431447E-07
  -12.7200003       2.40213382E-07
  -12.7100000       2.64215942E-07
  -12.6999998       2.64892748E-07
  -12.6899996       2.39051332E-07
  -12.6800003       1.84910846E-07
  -12.6700001       1.02167768E-07
  -12.6599998      -7.82072807E-09
  -12.6499996      -1.41672729E-07
  -12.6400003      -2.93451109E-07
  -12.6300001      -4.54074836E-07
  -12.6199999      -6.10859445E-07
  -12.6099997      -7.47420700E-07
  -12.6000004      -8.44162287E-07
  -12.5900002      -8.79499169E-07
  -12.5799999      -8.31846819E-07
  -12.5699997      -6.82254154E-07
  -12.5600004      -4.17415606E-07
  -12.5500002      -3.26908669E-08
  -12.5400000       4.65279072E-07
  -12.5299997       1.05673439E-06
  -12.5200005       1.70800683E-06
  -12.5100002       2.37189329E-06
  -12.5000000       2.98915393E-06
  -12.4899998       3.49096422E-06
  -12.4799995       3.80208212E-06
  -12.4700003       3.84449822E-06
  -12.4600000       3.54139479E-06
  -12.4499998       2.82132532E-06
  -12.4399996       1.62261574E-06
  -12.4300003      -1.02011604E-07
  -12.4200001      -2.38062376E-06
  -12.4099998      -5.21725269E-06
  -12.3999996      -8.58741623E-06
  -12.3900003      -1.24345033E-05
  -12.3800001      -1.66676691E-05
  -12.3699999      -2.11618644E-05
  -12.3599997      -2.57604697E-05
  -12.3500004      -3.02807621E-05
  -12.3400002      -3.45219851E-05
  -12.3299999      -3.82755643E-05
  -12.3199997      -4.13365560E-05
  -12.3100004      -4.35153597E-05
  -12.3000002      -4.46485974E-05
  -12.2900000      -4.46084268E-05
  -12.2799997      -4.33095556E-05
  -12.2700005      -4.07137886E-05
  -12.2600002      -3.68320143E-05
  -12.2500000      -3.17237973E-05
  -12.2399998      -2.54948063E-05
  -12.2299995      -1.82922377E-05
  -12.2200003      -1.02983358E-05
  -12.2100000      -1.72213845E-06
  -12.1999998       7.21043853E-06
  -12.1899996       1.62678116E-05
  -12.1800003       2.52246300E-05
  -12.1700001       3.38735117E-05
  -12.1599998       4.20354809E-05
  -12.1499996       4.95679997E-05
  -12.1400003       5.63696267E-05
  -12.1300001       6.23807209E-05
  -12.1199999       6.75801421E-05
  -12.1099997       7.19784730E-05
  -12.1000004       7.56088630E-05
  -12.0900002       7.85165830E-05
  -12.0799999       8.07490651E-05
  -12.0699997       8.23471128E-05
  -12.0600004       8.33384984E-05
  -12.0500002       8.37340049E-05
  -12.0400000       8.35260580E-05
  -12.0299997       8.26894466E-05
  -12.0200005       8.11838181E-05
  -12.0100002       7.89576516E-05
  -12.0000000       7.59531977E-05
  -11.9899998       7.21126125E-05
  -11.9799995       6.73847753E-05
  -11.9700003       6.17328697E-05
  -11.9600000       5.51418416E-05
  -11.9499998       4.76254463E-05
  -11.9399996       3.92314469E-05
  -11.9300003       3.00442371E-05
  -11.9200001       2.01840649E-05
  -11.9099998       9.80239020E-06
  -11.8999996      -9.26190637E-07
  -11.8900003      -1.18148309E-05
  -11.8800001      -2.26765460E-05
  -11.8699999      -3.33360476E-05
  -11.8599997      -4.36396767E-05
  -11.8500004      -5.34620121E-05
  -11.8400002      -6.27087138E-05
  -11.8299999      -7.13151894E-05
  -11.8199997      -7.92420542E-05
  -11.8100004      -8.64681133E-05
  -11.8000002      -9.29825765E-05
  -11.7900000      -9.87775493E-05
  -11.7799997      -1.03842191E-04
  -11.7700005      -1.08159104E-04
  -11.7600002      -1.11703455E-04
  -11.7500000      -1.14444570E-04
  -11.7399998      -1.16349329E-04
  -11.7299995      -1.17386771E-04
  -11.7200003      -1.17532902E-04
  -11.7100000      -1.16774558E-04
  -11.6999998      -1.15111987E-04
  -11.6899996      -1.12559261E-04
  -11.6800003      -1.09142828E-04
  -11.6700001      -1.04898296E-04
  -11.6599998      -9.98662726E-05
  -11.6499996      -9.40881437E-05
  -11.6400003      -8.76024933E-05
  -11.6300001      -8.04433002E-05
  -11.6199999      -7.26400176E-05
  -11.6099997      -6.42194063E-05
  -11.6000004      -5.52088313E-05
  -11.5900002      -4.56400558E-05
  -11.5799999      -3.55526499E-05
  -11.5699997      -2.49961304E-05
  -11.5600004      -1.40306056E-05
  -11.5500002      -2.72594775E-06
  -11.5400000       8.84011934E-06
  -11.5299997       2.05841370E-05
  -11.5200005       3.24184657E-05
  -11.5100002       4.42518613E-05
  -11.5000000       5.59889413E-05
  -11.4899998       6.75289994E-05
  -11.4799995       7.87649478E-05
  -11.4700003       8.95832563E-05
  -11.4600000       9.98659234E-05
  -11.4499998       1.09494249E-04
  -11.4399996       1.18354692E-04
  -11.4300003       1.26345432E-04
  -11.4200001       1.33382724E-04
  -11.4099998       1.39405878E-04
  -11.3999996       1.44379679E-04
  -11.3900003       1.48294275E-04
  -11.3800001       1.51162472E-04
  -11.3699999       1.53016008E-04
  -11.3599997       1.53901157E-04
  -11.3500004       1.53875313E-04
  -11.3400002       1.53005021E-04
  -11.3299999       1.51365370E-04
  -11.3199997       1.49040279E-04
  -11.3100004       1.46122606E-04
  -11.3000002       1.42712990E-04
  -11.2900000       1.38916599E-04
  -11.2799997       1.34837988E-04
  -11.2700005       1.30573870E-04
  -11.2600002       1.26205952E-04
  -11.2500000       1.21794510E-04
  -11.2399998       1.17374700E-04
  -11.2299995       1.12956026E-04
  -11.2200003       1.08525564E-04
  -11.2100000       1.04054532E-04
  -11.1999998       9.95060909E-05
  -11.1899996       9.48441811E-05
  -11.1800003       9.00411978E-05
  -11.1700001       8.50838551E-05
  -11.1599998       7.99771005E-05
  -11.1499996       7.47461891E-05
  -11.1400003       6.94374830E-05
  -11.1300001       6.41184452E-05
  -11.1199999       5.88771836E-05
  -11.1099997       5.38206623E-05
  -11.1000004       4.90714301E-05
  -11.0900002       4.47614584E-05
  -11.0799999       4.10228713E-05
  -11.0699997       3.79755620E-05
  -11.0600004       3.57134595E-05
  -11.0500002       3.42910716E-05
  -11.0400000       3.37136808E-05
  -11.0299997       3.39334074E-05
  -11.0200005       3.48531030E-05
  -11.0100002       3.63379986E-05
  -11.0000000       3.82336111E-05
  -10.9899998       4.03862978E-05
  -10.9799995       4.26625629E-05
  -10.9700003       4.49629006E-05
  -10.9600000       4.72270694E-05
  -10.9499998       4.94300439E-05
  -10.9399996       5.15700558E-05
  -10.9300003       5.36517000E-05
  -10.9200001       5.56687410E-05
  -10.9099998       5.75908743E-05
  -10.8999996       5.93575714E-05
  -10.8900003       6.08802366E-05
  -10.8800001       6.20516948E-05
  -10.8699999       6.27602494E-05
  -10.8599997       6.29045535E-05
  -10.8500004       6.24062304E-05
  -10.8400002       6.12173171E-05
  -10.8299999       5.93224831E-05
  -10.8199997       5.67362113E-05
  -10.8100004       5.34973515E-05
  -10.8000002       4.96628018E-05
  -10.7900000       4.53021712E-05
  -10.7799997       4.04939710E-05
  -10.7700005       3.53229734E-05
  -10.7600002       2.98779159E-05
  -10.7500000       2.42486331E-05
  -10.7399998       1.85219433E-05
  -10.7299995       1.27770127E-05
  -10.7200003       7.08103198E-06
  -10.7100000       1.48711126E-06
  -10.6999998      -3.96508631E-06
  -10.6899996      -9.24499909E-06
  -10.6800003      -1.43245397E-05
  -10.6700001      -1.91703894E-05
  -10.6599998      -2.37375243E-05
  -10.6499996      -2.79657652E-05
  -10.6400003      -3.17800332E-05
  -10.6300001      -3.50942282E-05
  -10.6199999      -3.78172808E-05
  -10.6099997      -3.98600750E-05
  -10.6000004      -4.11413530E-05
  -10.5900002      -4.15921459E-05
  -10.5799999      -4.11587243E-05
  -10.5699997      -3.98047487E-05
  -10.5600004      -3.75133786E-05
  -10.5500002      -3.42898857E-05
  -10.5400000      -3.01640612E-05
  -10.5299997      -2.51915608E-05
  -10.5200005      -1.94522418E-05
  -10.5100002      -1.30450480E-05
  -10.5000000      -6.07895890E-06
  -10.4899998       1.33814046E-06
  -10.4799995       9.11009010E-06
  -10.4700003       1.71596457E-05
  -10.4600000       2.54297447E-05
  -10.4499998       3.38782229E-05
  -10.4399996       4.24667851E-05
  -10.4300003       5.11479702E-05
  -10.4200001       5.98532533E-05
  -10.4099998       6.84866827E-05
  -10.3999996       7.69252365E-05
  -10.3900003       8.50266952E-05
  -10.3800001       9.26421853E-05
  -10.3699999       9.96303788E-05
  -10.3599997       1.05869753E-04
  -10.3500004       1.11266694E-04
  -10.3400002       1.15759198E-04
  -10.3299999       1.19317432E-04
  -10.3199997       1.21942874E-04
  -10.3100004       1.23668186E-04
  -10.3000002       1.24558486E-04
  -10.2900000       1.24712053E-04
  -10.2799997       1.24258499E-04
  -10.2700005       1.23351638E-04
  -10.2600002       1.22154845E-04
  -10.2500000       1.20821271E-04
  -10.2399998       1.19471100E-04
  -10.2299995       1.18172240E-04
  -10.2200003       1.16930023E-04
  -10.2100000       1.15689938E-04
  -10.1999998       1.14353781E-04
  -10.1899996       1.12806752E-04
  -10.1800003       1.10948356E-04
  -10.1700001       1.08720247E-04
  -10.1599998       1.06123691E-04
  -10.1499996       1.03222905E-04
  -10.1400003       1.00134559E-04
  -10.1300001       9.70074325E-05
  -10.1199999       9.39982419E-05
  -10.1099997       9.12501710E-05
  -10.1000004       8.88787690E-05
  -10.0900002       8.69665673E-05
  -10.0799999       8.55647304E-05
  -10.0699997       8.46992625E-05
  -10.0600004       8.43765956E-05
  -10.0500002       8.45872855E-05
  -10.0400000       8.53065358E-05
  -10.0299997       8.64941685E-05
  -10.0200005       8.80950029E-05
  -10.0100002       9.00432497E-05
  -10.0000000       9.22702457E-05
  -9.98999977       9.47142762E-05
  -9.97999954       9.73291098E-05
  -9.97000027       1.00088546E-04
  -9.96000004       1.02985243E-04
  -9.94999981       1.06023057E-04
  -9.93999958       1.09207700E-04
  -9.93000031       1.12537869E-04
  -9.92000008       1.16001560E-04
  -9.90999985       1.19579287E-04
  -9.89999962       1.23253238E-04
  -9.89000034       1.27019011E-04
  -9.88000011       1.30894288E-04
  -9.86999989       1.34920818E-04
  -9.85999966       1.39157637E-04
  -9.85000038       1.43667014E-04
  -9.84000015       1.48497013E-04
  -9.82999992       1.53667323E-04
  -9.81999969       1.59163188E-04
  -9.81000042       1.64939731E-04
  -9.80000019       1.70937143E-04
  -9.78999996       1.77099893E-04
  -9.77999973       1.83395750E-04
  -9.77000046       1.89826518E-04
  -9.76000023       1.96428082E-04
  -9.75000000       2.03259886E-04
  -9.73999977       2.10385551E-04
  -9.72999954       2.17852750E-04
  -9.72000027       2.25676587E-04
  -9.71000004       2.33831437E-04
  -9.69999981       2.42251597E-04
  -9.68999958       2.50839832E-04
  -9.68000031       2.59478344E-04
  -9.67000008       2.68039847E-04
  -9.65999985       2.76393548E-04
  -9.64999962       2.84408277E-04
  -9.64000034       2.91952601E-04
  -9.63000011       2.98894418E-04
  -9.61999989       3.05103080E-04
  -9.60999966       3.10454750E-04
  -9.60000038       3.14838806E-04
  -9.59000015       3.18163336E-04
  -9.57999992       3.20358289E-04
  -9.56999969       3.21371597E-04
  -9.56000042       3.21162399E-04
  -9.55000019       3.19691928E-04
  -9.53999996       3.16916878E-04
  -9.52999973       3.12788790E-04
  -9.52000046       3.07262264E-04
  -9.51000023       3.00307758E-04
  -9.50000000       2.91929668E-04
  -9.48999977       2.82180932E-04
  -9.47999954       2.71170225E-04
  -9.47000027       2.59060238E-04
  -9.46000004       2.46054609E-04
  -9.44999981       2.32379782E-04
  -9.43999958       2.18264948E-04
  -9.43000031       2.03927411E-04
  -9.42000008       1.89566505E-04
  -9.40999985       1.75365742E-04
  -9.39999962       1.61504126E-04
  -9.39000034       1.48167979E-04
  -9.38000011       1.35560796E-04
  -9.36999989       1.23906386E-04
  -9.35999966       1.13442256E-04
  -9.35000038       1.04406652E-04
  -9.34000015       9.70219335E-05
  -9.32999992       9.14781849E-05
  -9.31999969       8.79235813E-05
  -9.31000042       8.64617541E-05
  -9.30000019       8.71573211E-05
  -9.28999996       9.00459854E-05
  -9.27999973       9.51474722E-05
  -9.27000046       1.02473139E-04
  -9.26000023       1.12029498E-04
  -9.25000000       1.23812919E-04
  -9.23999977       1.37800031E-04
  -9.22999954       1.53933695E-04
  -9.22000027       1.72110333E-04
  -9.21000004       1.92171166E-04
  -9.19999981       2.13901949E-04
  -9.18999958       2.37038810E-04
  -9.18000031       2.61281646E-04
  -9.17000008       2.86311057E-04
  -9.15999985       3.11806332E-04
  -9.14999962       3.37459234E-04
  -9.14000034       3.62983526E-04
  -9.13000011       3.88117362E-04
  -9.11999989       4.12621157E-04
  -9.10999966       4.36271715E-04
  -9.10000038       4.58856113E-04
  -9.09000015       4.80167189E-04
  -9.07999992       5.00004098E-04
  -9.06999969       5.18175017E-04
  -9.06000042       5.34505583E-04
  -9.05000019       5.48845797E-04
  -9.03999996       5.61078195E-04
  -9.02999973       5.71120472E-04
  -9.02000046       5.78929728E-04
  -9.01000023       5.84497931E-04
  -9.00000000       5.87850867E-04
  -8.98999977       5.89044299E-04
  -8.97999954       5.88162220E-04
  -8.97000027       5.85316157E-04
  -8.96000004       5.80641907E-04
  -8.94999981       5.74299309E-04
  -8.93999958       5.66467235E-04
  -8.93000031       5.57336956E-04
  -8.92000008       5.47105737E-04
  -8.90999985       5.35968808E-04
  -8.89999962       5.24114701E-04
  -8.89000034       5.11720951E-04
  -8.88000011       4.98954731E-04
  -8.86999989       4.85971395E-04
  -8.85999966       4.72914660E-04
  -8.85000038       4.59914882E-04
  -8.84000015       4.47084865E-04
  -8.82999992       4.34516987E-04
  -8.81999969       4.22280718E-04
  -8.81000042       4.10426146E-04
  -8.80000019       3.98992095E-04
  -8.78999996       3.88018700E-04
  -8.77999973       3.77563410E-04
  -8.77000046       3.67713626E-04
  -8.76000023       3.58593708E-04
  -8.75000000       3.50364338E-04
  -8.73999977       3.43212567E-04
  -8.72999954       3.37338046E-04
  -8.72000027       3.32938798E-04
  -8.71000004       3.30199138E-04
  -8.69999981       3.29286646E-04
  -8.68999958       3.30353418E-04
  -8.68000031       3.33539036E-04
  -8.67000008       3.38973594E-04
  -8.65999985       3.46770306E-04
  -8.64999962       3.57010809E-04
  -8.64000034       3.69722780E-04
  -8.63000011       3.84855404E-04
  -8.61999989       4.02264239E-04
  -8.60999966       4.21707198E-04
  -8.60000038       4.42857563E-04
  -8.59000015       4.65332356E-04
  -8.57999992       4.88729973E-04
  -8.56999969       5.12662635E-04
  -8.56000042       5.36781212E-04
  -8.55000019       5.60781045E-04
  -8.53999996       5.84391993E-04
  -8.52999973       6.07356953E-04
  -8.52000046       6.29409857E-04
  -8.51000023       6.50264905E-04
  -8.50000000       6.69619127E-04
  -8.48999977       6.87174732E-04
  -8.47999954       7.02671008E-04
  -8.47000027       7.15919305E-04
  -8.46000004       7.26828468E-04
  -8.44999981       7.35414389E-04
  -8.43999958       7.41791271E-04
  -8.43000031       7.46148173E-04
  -8.42000008       7.48720020E-04
  -8.40999985       7.49765197E-04
  -8.39999962       7.49551633E-04
  -8.39000034       7.48359889E-04
  -8.38000011       7.46490899E-04
  -8.36999989       7.44280405E-04
  -8.35999966       7.42101693E-04
  -8.35000038       7.40356743E-04
  -8.34000015       7.39454466E-04
  -8.32999992       7.39778625E-04
  -8.31999969       7.41652853E-04
  -8.31000042       7.45320518E-04
  -8.30000019       7.50930631E-04
  -8.28999996       7.58546637E-04
  -8.27999973       7.68158643E-04
  -8.27000046       7.79706112E-04
  -8.26000023       7.93089683E-04
  -8.25000000       8.08176817E-04
  -8.23999977       8.24800285E-04
  -8.22999954       8.42749781E-04
  -8.22000027       8.61772569E-04
  -8.21000004       8.81581102E-04
  -8.19999981       9.01874504E-04
  -8.18999958       9.22371575E-04
  -8.18000031       9.42844083E-04
  -8.17000008       9.63143655E-04
  -8.15999985       9.83208301E-04
  -8.14999962       1.00305269E-03
  -8.14000034       1.02274213E-03
  -8.13000011       1.04235881E-03
  -8.11999989       1.06196897E-03
  -8.10999966       1.08160765E-03
  -8.10000038       1.10127626E-03
  -8.09000015       1.12095627E-03
  -8.07999992       1.14062766E-03
  -8.06999969       1.16028194E-03
  -8.06000042       1.17992493E-03
  -8.05000019       1.19956303E-03
  -8.03999996       1.21917727E-03
  -8.02999973       1.23870058E-03
  -8.02000046       1.25799782E-03
  -8.01000023       1.27686921E-03
  -8.00000000       1.29506865E-03
  -7.98999977       1.31233665E-03
  -7.98000002       1.32843573E-03
  -7.96999979       1.34317647E-03
  -7.96000004       1.35642348E-03
  -7.94999981       1.36808539E-03
  -7.94000006       1.37808931E-03
  -7.92999983       1.38635014E-03
  -7.92000008       1.39275799E-03
  -7.90999985       1.39717921E-03
  -7.90000010       1.39948004E-03
  -7.88999987       1.39956269E-03
  -7.88000011       1.39740086E-03
  -7.86999989       1.39306451E-03
  -7.86000013       1.38671603E-03
  -7.84999990       1.37859047E-03
  -7.84000015       1.36895094E-03
  -7.82999992       1.35804946E-03
  -7.82000017       1.34609907E-03
  -7.80999994       1.33326848E-03
  -7.80000019       1.31970167E-03
  -7.78999996       1.30555744E-03
  -7.78000021       1.29104266E-03
  -7.76999998       1.27644057E-03
  -7.76000023       1.26210588E-03
  -7.75000000       1.24843721E-03
  -7.73999977       1.23582757E-03
  -7.73000002       1.22461503E-03
  -7.71999979       1.21504220E-03
  -7.71000004       1.20724470E-03
  -7.69999981       1.20126933E-03
  -7.69000006       1.19711016E-03
  -7.67999983       1.19475473E-03
  -7.67000008       1.19422632E-03
  -7.65999985       1.19558966E-03
  -7.65000010       1.19894580E-03
  -7.63999987       1.20439602E-03
  -7.63000011       1.21200527E-03
  -7.61999989       1.22177030E-03
  -7.61000013       1.23361021E-03
  -7.59999990       1.24738412E-03
  -7.59000015       1.26292708E-03
  -7.57999992       1.28009485E-03
  -7.57000017       1.29879615E-03
  -7.55999994       1.31901272E-03
  -7.55000019       1.34079054E-03
  -7.53999996       1.36421015E-03
  -7.53000021       1.38934620E-03
  -7.51999998       1.41623593E-03
  -7.51000023       1.44485920E-03
  -7.50000000       1.47514045E-03
  -7.48999977       1.50697085E-03
  -7.48000002       1.54023105E-03
  -7.46999979       1.57482503E-03
  -7.46000004       1.61068712E-03
  -7.44999981       1.64777238E-03
  -7.44000006       1.68604241E-03