  -16.0000000       0.00000000    
  -15.9899998       0.00000000    
  -15.9799995       0.00000000    
  -15.9700003       0.00000000    
  -15.9600000       0.00000000    
  -15.9499998       0.00000000    
  -15.9399996       0.00000000    
  -15.9300003       0.00000000    
  -15.9200001       0.00000000    
  -15.9099998       0.00000000    
  -15.8999996       0.00000000    
  -15.8900003       0.00000000    
  -15.8800001       0.00000000    
  -15.8699999       0.00000000    
  -15.8599997       0.00000000    
  -15.8500004       0.00000000    
  -15.8400002       0.00000000    
  -15.8299999       1.40129846E-45
  -15.8199997       8.40779079E-45
  -15.8100004       4.76441478E-44
  -15.8000002       2.46628530E-43
  -15.7900000       1.10282189E-42
  -15.7799997       4.33701875E-42
  -15.7700005       1.51900754E-41
  -15.7600002       4.77632582E-41
  -15.7500000       1.35698941E-40
  -15.7399998       3.49426384E-40
  -15.7299995       8.15737875E-40
  -15.7200003       1.72042457E-39
  -15.7100000       3.24773620E-39
  -15.6999998       5.37737916E-39
  -15.6899996       7.44910085E-39
  -15.6800003       7.47501506E-39
  -15.6700001       1.40759029E-39
  -15.6599998      -1.70015633E-38
  -15.6499996      -5.45982596E-38
  -15.6400003      -1.14084809E-37
  -15.6300001      -1.85458242E-37
  -15.6199999      -2.35308325E-37
  -15.6099997      -1.99797875E-37
  -15.6000004       8.28437703E-39
  -15.5900002       4.66391859E-37
  -15.5799999       1.17711528E-36
  -15.5699997       1.98257752E-36
  -15.5600004       2.49650635E-36
  -15.5500002       2.11706396E-36
  -15.5400000       1.86982160E-37
  -15.5299997      -3.67072003E-36
  -15.5200005      -9.09886007E-36
  -15.5100002      -1.46015469E-35
  -15.5000000      -1.74382248E-35
  -15.4899998      -1.40574129E-35
  -15.4799995      -1.18354135E-36
  -15.4700003       2.25425249E-35
  -15.4600000       5.46807600E-35
  -15.4499998       8.73228606E-35
  -15.4399996       1.06216590E-34
  -15.4300003       9.15397399E-35
  -15.4200001       2.17113634E-35
  -15.4099998      -1.17894599E-34
  -15.3999996      -3.20097765E-34
  -15.3900003      -5.36917973E-34
  -15.3800001      -6.65048786E-34
  -15.3699999      -5.52466549E-34
  -15.3599997      -4.62761677E-35
  -15.3500004       9.08408259E-34
  -15.3400002       2.13931431E-33
  -15.3299999       3.15437076E-33
  -15.3199997       3.18966902E-33
  -15.3100004       1.49030946E-33
  -15.3000002      -2.18145597E-33
  -15.2900000      -6.99773109E-33
  -15.2799997      -1.08516665E-32
  -15.2700005      -1.08998331E-32
  -15.2600002      -5.02488864E-33
  -15.2500000       6.21658424E-33
  -15.2399998       1.83189789E-32
  -15.2299995       2.37309373E-32
  -15.2200003       1.58111748E-32
  -15.2100000      -5.16612025E-33
  -15.1999998      -2.74785793E-32
  -15.1899996      -2.99852064E-32
  -15.1800003       5.76001746E-33
  -15.1700001       7.57308356E-32
  -15.1599998       1.37215456E-31
  -15.1499996       1.13896516E-31
  -15.1400003      -6.35586798E-32
  -15.1300001      -3.86285593E-31
  -15.1199999      -7.01543163E-31
  -15.1099997      -7.16319832E-31
  -15.1000004      -1.29774600E-31
  -15.0900002       1.10507406E-30
  -15.0799999       2.50327597E-30
  -15.0699997       2.98282387E-30
  -15.0600004       1.26816120E-30
  -15.0500002      -3.15118720E-30
  -15.0400000      -8.81840665E-30
  -15.0299997      -1.16735211E-29
  -15.0200005      -6.07503944E-30
  -15.0100002       1.17933162E-29
  -15.0000000       3.86936810E-29
  -14.9899998       5.98728527E-29
  -14.9799995       4.97663909E-29
  -14.9700003      -1.77254061E-29
  -14.9600000      -1.48395274E-28
  -14.9499998      -3.02545178E-28
  -14.9399996      -3.80666818E-28
  -14.9300003      -2.40802632E-28
  -14.9200001       2.36114245E-28
  -14.9099998       1.03696902E-27
  -14.8999996       1.90165456E-27
  -14.8900003       2.27807237E-27
  -14.8800001       1.43839561E-27
  -14.8699999      -1.18461649E-27
  -14.8599997      -5.47964432E-27
  -14.8500004      -1.01454253E-26
  -14.8400002      -1.25200592E-26
  -14.8299999      -9.13101259E-27
  -14.8199997       2.80897268E-27
  -14.8100004       2.31468199E-26
  -14.8000002       4.65610358E-26
  -14.7900000       6.17124654E-26
  -14.7799997       5.32923921E-26
  -14.7700005       7.88711992E-27
  -14.7600002      -7.69762459E-26
  -14.7500000      -1.83485521E-25
  -14.7399998      -2.68931730E-25
  -14.7299995      -2.71616519E-25
  -14.7200003      -1.31149321E-25
  -14.7100000       1.78282244E-25
  -14.6999998       6.10963255E-25
  -14.6899996       1.02619247E-24
  -14.6800003       1.19916758E-24
  -14.6700001       8.82118069E-25
  -14.6599998      -8.45453294E-26
  -14.6499996      -1.63692345E-24
  -14.6400003      -3.38146489E-24
  -14.6300001      -4.58802646E-24
  -14.6199999      -4.34346459E-24
  -14.6099997      -1.88362373E-24
  -14.6000004       2.95470278E-24
  -14.5900002       9.31038095E-24
  -14.5799999       1.51188001E-23
  -14.5699997       1.73942252E-23
  -14.5600004       1.30914418E-23
  -14.5500002       4.58997239E-25
  -14.5400000      -1.94735127E-23
  -14.5299997      -4.18739138E-23
  -14.5200005      -5.82463464E-23
  -14.5100002      -5.82529665E-23
  -14.5000000      -3.32582811E-23
  -14.4899998       1.90952049E-23
  -14.4799995       9.07448030E-23
  -14.4700003       1.61470500E-22
  -14.4600000       2.01430356E-22
  -14.4499998       1.78898053E-22
  -14.4399996       7.23979305E-23
  -14.4300003      -1.15738895E-22
  -14.4200001      -3.49270223E-22
  -14.4099998      -5.56978915E-22
  -14.3999996      -6.45032402E-22
  -14.3900003      -5.23684693E-22
  -14.3800001      -1.43995363E-22
  -14.3699999       4.65459589E-22
  -14.3599997       1.17598396E-21
  -14.3500004       1.76471653E-21
  -14.3400002       1.95849894E-21
  -14.3299999       1.51454922E-21
  -14.3199997       3.22647190E-22
  -14.3100004      -1.50027632E-21
  -14.3000002      -3.56061874E-21
  -14.2900000      -5.21895915E-21
  -14.2799997      -5.72099518E-21
  -14.2700005      -4.41973385E-21
  -14.2600002      -1.04474456E-21
  -14.2500000       4.05851523E-21
  -14.2399998       9.81365544E-21
  -14.2299995       1.45074829E-20
  -14.2200003       1.61369302E-20
  -14.2100000       1.29807789E-20
  -14.1999998       4.28268440E-21
  -14.1899996      -9.14521838E-21
  -14.1800003      -2.46277744E-20
  -14.1700001      -3.78461400E-20
  -14.1599998      -4.36746937E-20
  -14.1499996      -3.75706210E-20
  -14.1400003      -1.72479307E-20
  -14.1300001       1.58132748E-20
  -14.1199999       5.55649206E-20
  -14.1099997       9.17861709E-20
  -14.1000004       1.11935825E-19
  -14.0900002       1.04339722E-19
  -14.0799999       6.21243918E-20
  -14.0699997      -1.31091365E-20
  -14.0600004      -1.09105123E-19
  -14.0500002      -2.03400145E-19
  -14.0400000      -2.67052107E-19
  -14.0299997      -2.71468967E-19
  -14.0200005      -1.97148547E-19
  -14.0100002      -4.22068520E-20
  -14.0000000       1.71952341E-19
  -13.9899998       4.00335823E-19
  -13.9799995       5.80985296E-19
  -13.9700003       6.48412562E-19
  -13.9600000       5.51662777E-19
  -13.9499998       2.72885824E-19
  -13.9399996      -1.58885563E-19
  -13.9300003      -6.63937139E-19
  -13.9200001      -1.12158381E-18
  -13.9099998      -1.39382952E-18
  -13.8999996      -1.35952521E-18
  -13.8900003      -9.51794545E-19
  -13.8800001      -1.89025737E-19
  -13.8699999       8.10578270E-19
  -13.8599997       1.83838678E-18
  -13.8500004       2.63114055E-18
  -13.8400002       2.92891896E-18
  -13.8299999       2.54421338E-18
  -13.8199997       1.42601409E-18
  -13.8100004      -2.98923376E-19
  -13.8000002      -2.32272399E-18
  -13.7900000      -4.19892885E-18
  -13.7799997      -5.42853614E-18
  -13.7700005      -5.57562457E-18
  -13.7600002      -4.38876804E-18
  -13.7500000      -1.89869880E-18
  -13.7399998       1.53630673E-18
  -13.7299995       5.25818780E-18
  -13.7200003       8.41621863E-18
  -13.7100000       1.01414485E-17
  -13.6999998       9.75750605E-18
  -13.6899996       6.98219598E-18
  -13.6800003       2.06831777E-18
  -13.6700001      -4.16296924E-18
  -13.6599998      -1.04246363E-17
  -13.6499996      -1.52021271E-17
  -13.6400003      -1.70929247E-17
  -13.6300001      -1.51799372E-17
  -13.6199999      -9.34884078E-18
  -13.6099997      -4.55709412E-19
  -13.6000004       9.72792773E-18
  -13.5900002       1.88214956E-17
  -13.5799999       2.43595575E-17
  -13.5699997       2.44341642E-17
  -13.5600004       1.83019881E-17
  -13.5500002       6.78171801E-18
  -13.5400000      -7.71011492E-18
  -13.5299997      -2.15650816E-17
  -13.5200005      -3.08010329E-17
  -13.5100002      -3.21380513E-17
  -13.5000000      -2.40718988E-17
  -13.4899998      -7.63254854E-18
  -13.4799995       1.34561920E-17
  -13.4700003       3.33809663E-17
  -13.4600000       4.55812119E-17
  -13.4499998       4.45805716E-17
  -13.4399996       2.78641844E-17
  -13.4300003      -2.74318899E-18
  -13.4200001      -4.07062594E-17
  -13.4099998      -7.57277300E-17
  -13.3999996      -9.60055399E-17
  -13.3900003      -9.14031334E-17
  -13.3800001      -5.67968745E-17
  -13.3699999       5.32903996E-18
  -13.3599997       8.39313499E-17
  -13.3500004       1.60690819E-16
  -13.3400002       2.13598495E-16
  -13.3299999       2.22280636E-16
  -13.3199997       1.73912540E-16
  -13.3100004       6.82067656E-17
  -13.3000002      -8.00451297E-17
  -13.2900000      -2.41989187E-16
  -13.2799997      -3.79618091E-16
  -13.2700005      -4.53915745E-16
  -13.2600002      -4.34626370E-16
  -13.2500000      -3.09349482E-16
  -13.2399998      -8.95214961E-17
  -13.2299995       1.88707969E-16
  -13.2200003       4.69642447E-16
  -13.2100000       6.88760553E-16
  -13.1999998       7.87024528E-16
  -13.1899996       7.25664296E-16
  -13.1800003       4.97828527E-16
  -13.1700001       1.33903349E-16
  -13.1599998      -3.01473425E-16
  -13.1499996      -7.20800633E-16
  -13.1400003      -1.03152763E-15
  -13.1300001      -1.15656589E-15
  -13.1199999      -1.05283019E-15
  -13.1099997      -7.23258458E-16
  -13.1000004      -2.19097645E-16
  -13.0900002       3.68595281E-16
  -13.0799999       9.26698196E-16
  -13.0699997       1.34317784E-15
  -13.0600004       1.53040505E-15
  -13.0500002       1.44325160E-15
  -13.0400000       1.08784208E-15
  -13.0299997       5.19175134E-16
  -13.0200005      -1.71380586E-16
  -13.0100002      -8.75176305E-16
  -13.0000000      -1.48690451E-15
  -12.9899998      -1.92160351E-15
  -12.9799995      -2.12429997E-15
  -12.9700003      -2.07100572E-15
  -12.9600000      -1.76261077E-15
  -12.9499998      -1.21547957E-15
  -12.9399996      -4.53571267E-16
  -12.9300003       4.93770710E-16
  -12.9200001       1.58644231E-15
  -12.9099998       2.76183965E-15
  -12.8999996       3.92109212E-15
  -12.8900003       4.91966053E-15
  -12.8800001       5.56888503E-15
  -12.8699999       5.65306697E-15
  -12.8599997       4.96291596E-15
  -12.8500004       3.34148590E-15
  -12.8400002       7.34351625E-16
  -12.8299999      -2.76692227E-15
  -12.8199997      -6.89931587E-15
  -12.8100004      -1.12296028E-14
  -12.8000002      -1.51863046E-14
  -12.7900000      -1.81202929E-14
  -12.7799997      -1.93862599E-14
  -12.7700005      -1.84331767E-14
  -12.7600002      -1.48900904E-14
  -12.7500000      -8.63522392E-15
  -12.7399998       1.60493460E-16
  -12.7299995       1.10190728E-14
  -12.7200003       2.31694428E-14
  -12.7100000       3.55855346E-14
  -12.6999998       4.70430749E-14
  -12.6899996       5.61906919E-14
  -12.6800003       6.16336138E-14
  -12.6700001       6.20306961E-14
  -12.6599998       5.62073242E-14
  -12.6499996       4.32854063E-14
  -12.6400003       2.28282901E-14
  -12.6300001      -5.00853038E-15
  -12.6199999      -3.93372909E-14
  -12.6099997      -7.84317747E-14
  -12.6000004      -1.19682476E-13
  -12.5900002      -1.59639066E-13
  -12.5799999      -1.94159603E-13
  -12.5699997      -2.18673238E-13
  -12.5600004      -2.28546836E-13
  -12.5500002      -2.19528199E-13
  -12.5400000      -1.88224450E-13
  -12.5299997      -1.32563367E-13
  -12.5200005      -5.21860624E-14
  -12.5100002       5.12733776E-14
  -12.5000000       1.74050065E-13
  -12.4899998       3.10258980E-13
  -12.4799995       4.52043540E-13
  -12.4700003       5.89831244E-13
  -12.4600000       7.12660887E-13
  -12.4499998       8.08545071E-13
  -12.4399996       8.64846118E-13
  -12.4300003       8.68655787E-13
  -12.4200001       8.07193071E-13
  -12.4099998       6.68238956E-13
  -12.3999996       4.40634237E-13
  -12.3900003       1.14859795E-13
  -12.3800001      -3.16315388E-13
  -12.3699999      -8.57138741E-13
  -12.3599997      -1.50819027E-12
  -12.3500004      -2.26579411E-12
  -12.3400002      -3.12158003E-12
  -12.3299999      -4.06227135E-12
  -12.3199997      -5.06972112E-12
  -12.3100004      -6.12120424E-12
  -12.3000002      -7.18991750E-12
  -12.2900000      -8.24563421E-12
  -12.2799997      -9.25542629E-12
  -12.2700005      -1.01844436E-11
  -12.2600002      -1.09966567E-11
  -12.2500000      -1.16556556E-11
  -12.2399998      -1.21254361E-11
  -12.2299995      -1.23713262E-11
  -12.2200003      -1.23609950E-11
  -12.2100000      -1.20656566E-11
  -12.1999998      -1.14613076E-11
  -12.1899996      -1.05299953E-11
  -12.1800003      -9.26099388E-12
  -12.1700001      -7.65166749E-12
  -12.1599998      -5.70799311E-12
  -12.1499996      -3.44456148E-12
  -12.1400003      -8.84174569E-13
  -12.1300001       1.94303016E-12
  -12.1199999       5.00079058E-12
  -12.1099997       8.24798650E-12
  -12.1000004       1.16399859E-11
  -12.0900002       1.51298540E-11
  -12.0799999       1.86693837E-11
  -12.0699997       2.22099422E-11
  -12.0600004       2.57031046E-11
  -12.0500002       2.91011937E-11
  -12.0400000       3.23577935E-11
  -12.0299997       3.54281812E-11
  -12.0200005       3.82697311E-11
  -12.0100002       4.08423191E-11
  -12.0000000       4.31084717E-11
  -11.9899998       4.50335498E-11
  -11.9799995       4.65856138E-11
  -11.9700003       4.77353608E-11
  -11.9600000       4.84558782E-11
  -11.9499998       4.87225225E-11
  -11.9399996       4.85129055E-11
  -11.9300003       4.78071367E-11
  -11.9200001       4.65880286E-11
  -11.9099998       4.48416790E-11
  -11.8999996       4.25578288E-11
  -11.8900003       3.97302642E-11
  -11.8800001       3.63570007E-11
  -11.8699999       3.24402276E-11
  -11.8599997       2.79862938E-11
  -11.8500004       2.30053112E-11
  -11.8400002       1.75112806E-11
  -11.8299999       1.15219284E-11
  -11.8199997       5.05935354E-12
  -11.8100004      -1.84941559E-12
  -11.8000002      -9.17149690E-12
  -11.7900000      -1.68671049E-11
  -11.7799997      -2.48887300E-11
  -11.7700005      -3.31806319E-11
  -11.7600002      -4.16788687E-11
  -11.7500000      -5.03118831E-11
  -11.7399998      -5.90016647E-11
  -11.7299995      -6.76653941E-11
  -11.7200003      -7.62175045E-11
  -11.7100000      -8.45717177E-11
  -11.6999998      -9.26429627E-11
  -11.6899996      -1.00348965E-10
  -11.6800003      -1.07611538E-10
  -11.6700001      -1.14357246E-10
  -11.6599998      -1.20517749E-10
  -11.6499996      -1.26029701E-10
  -11.6400003      -1.30834399E-10
  -11.6300001      -1.34877776E-10
  -11.6199999      -1.38109746E-10
  -11.6099997      -1.40484527E-10
  -11.6000004      -1.41960332E-10
  -11.5900002      -1.42499776E-10
  -11.5799999      -1.42069967E-10
  -11.5699997      -1.40642747E-10
  -11.5600004      -1.38194484E-10
  -11.5500002      -1.34705566E-10
  -11.5400000      -1.30159938E-10
  -11.5299997      -1.24543917E-10
  -11.5200005      -1.17845581E-10
  -11.5100002      -1.10053973E-10
  -11.5000000      -1.01158540E-10
  -11.4899998      -9.11499001E-11
  -11.4799995      -8.00200947E-11
  -11.4700003      -6.77645023E-11
  -11.4600000      -5.43836330E-11
  -11.4499998      -3.98846858E-11
  -11.4399996      -2.42838943E-11
  -11.4300003      -7.60705474E-12
  -11.4200001       1.01095833E-11
  -11.4099998       2.88202240E-11
  -11.3999996       4.84708038E-11
  -11.3900003       6.90002222E-11
  -11.3800001       9.03433162E-11
  -11.3699999       1.12432605E-10
  -11.3599997       1.35199990E-10
  -11.3500004       1.58578969E-10
  -11.3400002       1.82504400E-10
  -11.3299999       2.06913417E-10
  -11.3199997       2.31745179E-10
  -11.3100004       2.56940191E-10
  -11.3000002       2.82440238E-10
  -11.2900000       3.08187670E-10
  -11.2799997       3.34125755E-10
  -11.2700005       3.60198121E-10
  -11.2600002       3.86350008E-10
  -11.2500000       4.12527928E-10
  -11.2399998       4.38681119E-10
  -11.2299995       4.64761812E-10
  -11.2200003       4.90726182E-10
  -11.2100000       5.16534371E-10
  -11.1999998       5.42151657E-10
  -11.1899996       5.67547731E-10
  -11.1800003       5.92697003E-10
  -11.1700001       6.17577822E-10
  -11.1599998       6.42172204E-10
  -11.1499996       6.66465716E-10
  -11.1400003       6.90445645E-10
  -11.1300001       7.14101778E-10
  -11.1199999       7.37425565E-10
  -11.1099997       7.60409513E-10
  -11.1000004       7.83048848E-10
  -11.0900002       8.05339739E-10
  -11.0799999       8.27279134E-10
  -11.0699997       8.48865978E-10
  -11.0600004       8.70100159E-10
  -11.0500002       8.90980623E-10
  -11.0400000       9.11506703E-10
  -11.0299997       9.31674626E-10
  -11.0200005       9.51480339E-10
  -11.0100002       9.70915237E-10
  -11.0000000       9.89969440E-10
  -10.9899998       1.00863273E-09
  -10.9799995       1.02689190E-09
  -10.9700003       1.04473297E-09
  -10.9600000       1.06214149E-09
  -10.9499998       1.07910314E-09
  -10.9399996       1.09560128E-09
  -10.9300003       1.11162135E-09
  -10.9200001       1.12714527E-09
  -10.9099998       1.14215593E-09
  -10.8999996       1.15663601E-09
  -10.8900003       1.17057064E-09
  -10.8800001       1.18394938E-09
  -10.8699999       1.19676602E-09
  -10.8599997       1.20902410E-09
  -10.8500004       1.22073540E-09
  -10.8400002       1.23191379E-09
  -10.8299999       1.24258825E-09
  -10.8199997       1.25278665E-09
  -10.8100004       1.26254196E-09
  -10.8000002       1.27188093E-09
  -10.7900000       1.28083144E-09
  -10.7799997       1.28941302E-09
  -10.7700005       1.29763666E-09
  -10.7600002       1.30550748E-09
  -10.7500000       1.31302613E-09
  -10.7399998       1.32019151E-09
  -10.7299995       1.32700595E-09
  -10.7200003       1.33347389E-09
  -10.7100000       1.33961731E-09
  -10.6999998       1.34546330E-09
  -10.6899996       1.35106037E-09
  -10.6800003       1.35646205E-09
  -10.6700001       1.36173606E-09
  -10.6599998       1.36696487E-09
  -10.6499996       1.37223166E-09
  -10.6400003       1.37762834E-09
  -10.6300001       1.38324574E-09
  -10.6199999       1.38916978E-09
  -10.6099997       1.39549072E-09
  -10.6000004       1.40229051E-09
  -10.5900002       1.40965273E-09
  -10.5799999       1.41766310E-09
  -10.5699997       1.42639722E-09
  -10.5600004       1.43594159E-09
  -10.5500002       1.44638312E-09
  -10.5400000       1.45779977E-09
  -10.5299997       1.47027157E-09
  -10.5200005       1.48387058E-09
  -10.5100002       1.49866786E-09
  -10.5000000       1.51471846E-09
  -10.4899998       1.53207225E-09
  -10.4799995       1.55075996E-09
  -10.4700003       1.57080016E-09
  -10.4600000       1.59219937E-09
  -10.4499998       1.61494285E-09
  -10.4399996       1.63900815E-09
  -10.4300003       1.66434644E-09
  -10.4200001       1.69089176E-09
  -10.4099998       1.71856451E-09
  -10.3999996       1.74728065E-09
  -10.3900003       1.77693416E-09
  -10.3800001       1.80739956E-09
  -10.3699999       1.83855620E-09
  -10.3599997       1.87027194E-09
  -10.3500004       1.90242511E-09
  -10.3400002       1.93488270E-09
  -10.3299999       1.96752570E-09
  -10.3199997       2.00024086E-09
  -10.3100004       2.03292716E-09
  -10.3000002       2.06549999E-09
  -10.2900000       2.09788831E-09
  -10.2799997       2.13002882E-09
  -10.2700005       2.16187224E-09
  -10.2600002       2.19339902E-09
  -10.2500000       2.22458829E-09
  -10.2399998       2.25544228E-09
  -10.2299995       2.28596431E-09
  -10.2200003       2.31620056E-09
  -10.2100000       2.34619435E-09
  -10.1999998       2.37599873E-09
  -10.1899996       2.40570586E-09
  -10.1800003       2.43541343E-09
  -10.1700001       2.46522869E-09
  -10.1599998       2.49526755E-09
  -10.1499996       2.52564814E-09
  -10.1400003       2.55649701E-09
  -10.1300001       2.58792276E-09
  -10.1199999       2.62005018E-09
  -10.1099997       2.65298605E-09
  -10.1000004       2.68683875E-09
  -10.0900002       2.72171508E-09
  -10.0799999       2.75772871E-09
  -10.0699997       2.79498580E-09
  -10.0600004       2.83358936E-09
  -10.0500002       2.87365398E-09
  -10.0400000       2.91528468E-09
  -10.0299997       2.95858338E-09
  -10.0200005       3.00362868E-09
  -10.0100002       3.05048986E-09
  -10.0000000       3.09921999E-09
  -9.98999977       3.14985416E-09
  -9.97999954       3.20240079E-09
  -9.97000027       3.25684857E-09
  -9.96000004       3.31320038E-09
  -9.94999981       3.37142891E-09
  -9.93999958       3.43152795E-09
  -9.93000031       3.49348195E-09
  -9.92000008       3.55730423E-09
  -9.90999985       3.62301966E-09
  -9.89999962       3.69068487E-09
  -9.89000034       3.76037335E-09
  -9.88000011       3.83219323E-09
  -9.86999989       3.90626820E-09
  -9.85999966       3.98272082E-09
  -9.85000038       4.06172029E-09
  -9.84000015       4.14342427E-09
  -9.82999992       4.22799573E-09
  -9.81999969       4.31558300E-09
  -9.81000042       4.40635128E-09
  -9.80000019       4.50044890E-09
  -9.78999996       4.59802640E-09
  -9.77999973       4.69924011E-09
  -9.77000046       4.80423390E-09
  -9.76000023       4.91318275E-09
  -9.75000000       5.02623987E-09
  -9.73999977       5.14354026E-09
  -9.72999954       5.26523802E-09
  -9.72000027       5.39143441E-09
  -9.71000004       5.52224888E-09
  -9.69999981       5.65773561E-09
  -9.68999958       5.79791903E-09
  -9.68000031       5.94278449E-09
  -9.67000008       6.09225337E-09
  -9.65999985       6.24619378E-09
  -9.64999962       6.40440634E-09
  -9.64000034       6.56662857E-09
  -9.63000011       6.73251677E-09
  -9.61999989       6.90164548E-09
  -9.60999966       7.07351910E-09
  -9.60000038       7.24759941E-09
  -9.59000015       7.42326334E-09
  -9.57999992       7.59981944E-09
  -9.56999969       7.77656517E-09
  -9.56000042       7.95273891E-09
  -9.55000019       8.12757506E-09
  -9.53999996       8.30026803E-09
  -9.52999973       8.47002291E-09
  -9.52000046       8.63605631E-09
  -9.51000023       8.79760442E-09
  -9.50000000       8.95390340E-09
  -9.48999977       9.10427733E-09
  -9.47999954       9.24805654E-09
  -9.47000027       9.38470457E-09
  -9.46000004       9.51376933E-09
  -9.44999981       9.63488045E-09
  -9.43999958       9.74781322E-09
  -9.43000031       9.85247706E-09
  -9.42000008       9.94887284E-09
  -9.40999985       1.00371862E-08
  -9.39999962       1.01177307E-08
  -9.39000034       1.01909565E-08
  -9.38000011       1.02574464E-08
  -9.36999989       1.03179199E-08
  -9.35999966       1.03732321E-08
  -9.35000038       1.04243476E-08
  -9.34000015       1.04723785E-08
  -9.32999992       1.05185114E-08
  -9.31999969       1.05640448E-08
  -9.31000042       1.06103251E-08
  -9.30000019       1.06588063E-08
  -9.28999996       1.07109583E-08
  -9.27999973       1.07683258E-08
  -9.27000046       1.08324825E-08
  -9.26000023       1.09050236E-08
  -9.25000000       1.09875353E-08
  -9.23999977       1.10815916E-08
  -9.22999954       1.11887593E-08
  -9.22000027       1.13104903E-08
  -9.21000004       1.14481908E-08
  -9.19999981       1.16031087E-08
  -9.18999958       1.17763870E-08
  -9.18000031       1.19690302E-08
  -9.17000008       1.21818609E-08
  -9.15999985       1.24155344E-08
  -9.14999962       1.26705464E-08
  -9.14000034       1.29471331E-08
  -9.13000011       1.32454581E-08
  -9.11999989       1.35653870E-08
  -9.10999966       1.39066474E-08
  -9.10000038       1.42687284E-08
  -9.09000015       1.46509151E-08
  -9.07999992       1.50523078E-08
  -9.06999969       1.54717767E-08
  -9.06000042       1.59080269E-08
  -9.05000019       1.63595928E-08
  -9.03999996       1.68248473E-08
  -9.02999973       1.73019821E-08
  -9.02000046       1.77890769E-08
  -9.01000023       1.82840960E-08
  -9.00000000       1.87849292E-08
  -8.98999977       1.92893150E-08
  -8.97999954       1.97949728E-08
  -8.97000027       2.02995682E-08
  -8.96000004       2.08007318E-08
  -8.94999981       2.12960618E-08
  -8.93999958       2.17832117E-08
  -8.93000031       2.22597905E-08
  -8.92000008       2.27235066E-08
  -8.90999985       2.31720634E-08
  -8.89999962       2.36032900E-08
  -8.89000034       2.40150673E-08
  -8.88000011       2.44053435E-08
  -8.86999989       2.47722181E-08
  -8.85999966       2.51138914E-08
  -8.85000038       2.54287063E-08
  -8.84000015       2.57152113E-08
  -8.82999992       2.59721435E-08
  -8.81999969       2.61983502E-08
  -8.81000042       2.63929234E-08
  -8.80000019       2.65552469E-08
  -8.78999996       2.66846545E-08
  -8.77999973       2.67808087E-08
  -8.77000046       2.68436260E-08
  -8.76000023       2.68731366E-08
  -8.75000000       2.68695963E-08
  -8.73999977       2.68333871E-08
  -8.72999954       2.67651536E-08
  -8.72000027       2.66655658E-08
  -8.71000004       2.65355986E-08
  -8.69999981       2.63762683E-08
  -8.68999958       2.61887330E-08
  -8.68000031       2.59742894E-08
  -8.67000008       2.57342911E-08
  -8.65999985       2.54703014E-08
  -8.64999962       2.51838852E-08
  -8.64000034       2.48766572E-08
  -8.63000011       2.45504808E-08
  -8.61999989       2.42069458E-08
  -8.60999966       2.38479405E-08
  -8.60000038       2.34752129E-08
  -8.59000015       2.30905890E-08
  -8.57999992       2.26957919E-08
  -8.56999969       2.22925252E-08
  -8.56000042       2.18824958E-08
  -8.55000019       2.14672422E-08
  -8.53999996       2.10483364E-08
  -8.52999973       2.06270929E-08
  -8.52000046       2.02049524E-08
  -8.51000023       1.97830659E-08
  -8.50000000       1.93625471E-08
  -8.48999977       1.89445135E-08
  -8.47999954       1.85297306E-08
  -8.47000027       1.81190529E-08
  -8.46000004       1.77132495E-08
  -8.44999981       1.73129404E-08
  -8.43999958       1.69186194E-08
  -8.43000031       1.65308123E-08
  -8.42000008       1.61499170E-08
  -8.40999985       1.57763385E-08
  -8.39999962       1.54104054E-08
  -8.39000034       1.50523753E-08
  -8.38000011       1.47026427E-08
  -8.36999989       1.43615564E-08
  -8.35999966       1.40295322E-08
  -8.35000038       1.37068721E-08
  -8.34000015       1.33940965E-08
  -8.32999992       1.30916717E-08
  -8.31999969       1.28001876E-08
  -8.31000042       1.25202533E-08
  -8.30000019       1.22523938E-08
  -8.28999996       1.19972867E-08
  -8.27999973       1.17557386E-08
  -8.27000046       1.15285310E-08
  -8.26000023       1.13165282E-08
  -8.25000000       1.11204326E-08
  -8.23999977       1.09412968E-08
  -8.22999954       1.07800604E-08
  -8.22000027       1.06376508E-08
  -8.21000004       1.05151754E-08
  -8.19999981       1.04137676E-08
  -8.18999958       1.03345057E-08
  -8.18000031       1.02782804E-08
  -8.17000008       1.02464472E-08
  -8.15999985       1.02399671E-08
  -8.14999962       1.02598516E-08
  -8.14000034       1.03071880E-08
  -8.13000011       1.03829656E-08
  -8.11999989       1.04881499E-08
  -8.10999966       1.06235332E-08
  -8.10000038       1.07898712E-08
  -8.09000015       1.09878835E-08
  -8.07999992       1.12180469E-08
  -8.06999969       1.14808643E-08
  -8.06000042       1.17766215E-08
  -8.05000019       1.21056258E-08
  -8.03999996       1.24679254E-08
  -8.02999973       1.28634969E-08
  -8.02000046       1.32923192E-08
  -8.01000023       1.37541090E-08
  -8.00000000       1.42486094E-08
  -7.98999977       1.47753347E-08
  -7.98000002       1.53336064E-08
  -7.96999979       1.59229376E-08
  -7.96000004       1.65426233E-08
  -7.94999981       1.71916117E-08
  -7.94000006       1.78689969E-08
  -7.92999983       1.85736972E-08
  -7.92000008       1.93046130E-08
  -7.90999985       2.00604475E-08
  -7.90000010       2.08398721E-08
  -7.88999987       2.16415934E-08
  -7.88000011       2.24641088E-08
  -7.86999989       2.33059190E-08
  -7.86000013       2.41655798E-08
  -7.84999990       2.50412953E-08
  -7.84000015       2.59317137E-08
  -7.82999992       2.68352736E-08
  -7.82000017       2.77503496E-08
  -7.80999994       2.86753696E-08
  -7.80000019       2.96088274E-08
  -7.78999996       3.05492236E-08
  -7.78000021       3.14950164E-08
  -7.76999998       3.24447207E-08
  -7.76000023       3.33968657E-08
  -7.75000000       3.43501156E-08
  -7.73999977       3.53031986E-08
  -7.73000002       3.62547468E-08
  -7.71999979       3.72034812E-08
  -7.71000004       3.81482650E-08
  -7.69999981       3.90880537E-08
  -7.69000006       4.00217957E-08
  -7.67999983       4.09484286E-08
  -7.67000008       4.18673061E-08
  -7.65999985       4.27776143E-08
  -7.65000010       4.36787708E-08
  -7.63999987       4.45702781E-08
  -7.63000011       4.54518378E-08
  -7.61999989       4.63231622E-08
  -7.61000013       4.71842725E-08
  -7.59999990       4.80350160E-08
  -7.59000015       4.88755454E-08
  -7.57999992       4.97064221E-08
  -7.57000017       5.05278805E-08
  -7.55999994       5.13405674E-08
  -7.55000019       5.21451433E-08
  -7.53999996       5.29423261E-08
  -7.53000021       5.37330358E-08
  -7.51999998       5.45181464E-08
  -7.51000023       5.52987842E-08
  -7.50000000       5.60760860E-08
  -7.48999977       5.68512526E-08
  -7.48000002       5.76253782E-08
  -7.46999979       5.83995785E-08
  -7.46000004       5.91752745E-08
  -7.44999981       5.99536421E-08
  -7.44000006       6.07357791E-08