  -16.0000000       0.00000000    
  -15.9899998       0.00000000    
  -15.9799995       0.00000000    
  -15.9700003       0.00000000    
  -15.9600000       0.00000000    
  -15.9499998       0.00000000    
  -15.9399996       0.00000000    
  -15.9300003       0.00000000    
  -15.9200001       0.00000000    
  -15.9099998       0.00000000    
  -15.8999996       0.00000000    
  -15.8900003       0.00000000    
  -15.8800001       0.00000000    
  -15.8699999      -0.00000000    
  -15.8599997      -0.00000000    
  -15.8500004      -1.40129846E-45
  -15.8400002      -1.40129846E-45
  -15.8299999       3.92363570E-44
  -15.8199997       2.97075274E-43
  -15.8100004       1.21912966E-42
  -15.8000002       3.01139040E-42
  -15.7900000       2.34577363E-42
  -15.7799997      -1.71504919E-41
  -15.7700005      -1.00013474E-40
  -15.7600002      -3.20572247E-40
  -15.7500000      -7.15319426E-40
  -15.7399998      -1.05736937E-39
  -15.7299995      -4.09500049E-40
  -15.7200003       3.48919534E-39
  -15.7100000       1.48191727E-38
  -15.6999998       4.00807739E-38
  -15.6899996       8.78727306E-38
  -15.6800003       1.65085201E-37
  -15.6700001       2.58114289E-37
  -15.6599998       2.73596575E-37
  -15.6499996      -8.83724336E-38
  -15.6400003      -1.49213516E-36
  -15.6300001      -4.91671211E-36
  -15.6199999      -1.08168181E-35
  -15.6099997      -1.67038379E-35
  -15.6000004      -1.30354848E-35
  -15.5900002       2.00391065E-35
  -15.5799999       1.07518290E-34
  -15.5699997       2.53590843E-34
  -15.5600004       3.85758629E-34
  -15.5500002       2.83853922E-34
  -15.5400000      -4.37841983E-34
  -15.5299997      -2.15903727E-33
  -15.5200005      -4.73597821E-33
  -15.5100002      -6.62663194E-33
  -15.5000000      -4.07692371E-33
  -15.4899998       8.51854895E-33
  -15.4799995       3.53790474E-32
  -15.4700003       7.19045369E-32
  -15.4600000       9.42527651E-32
  -15.4499998       5.24471079E-32
  -15.4399996      -1.19728966E-31
  -15.4300003      -4.61583248E-31
  -15.4200001      -9.01563260E-31
  -15.4099998      -1.15478910E-30
  -15.3999996      -6.75598357E-31
  -15.3900003       1.20833136E-30
  -15.3800001       4.84678740E-30
  -15.3699999       9.47707319E-30
  -15.3599997       1.23433046E-29
  -15.3500004       8.38884227E-30
  -15.3400002      -8.45072857E-30
  -15.3299999      -4.13903440E-29
  -15.3199997      -8.43694478E-29
  -15.3100004      -1.15182576E-28
  -15.3000002      -9.32246871E-29
  -15.2900000       3.07904679E-29
  -15.2799997       2.86658567E-28
  -15.2700005       6.38501003E-28
  -15.2600002       9.35292344E-28
  -15.2500000       8.91592705E-28
  -15.2399998       1.46012826E-28
  -15.2299995      -1.56104104E-27
  -15.2200003      -4.09100184E-27
  -15.2100000      -6.57771713E-27
  -15.1999998      -7.26080982E-27
  -15.1899996      -3.76152222E-27
  -15.1800003       5.94467128E-27
  -15.1700001       2.18256966E-26
  -15.1599998       3.97799967E-26
  -15.1499996       5.03302101E-26
  -15.1400003       3.95265413E-26
  -15.1300001      -6.47437250E-27
  -15.1199999      -9.26870580E-26
  -15.1099997      -2.04127201E-25
  -15.1000004      -2.96875377E-25
  -15.0900002      -2.98724171E-25
  -15.0799999      -1.27233527E-25
  -15.0699997       2.70775692E-25
  -15.0600004       8.63523040E-25
  -15.0500002       1.48124481E-24
  -15.0400000       1.79829580E-24
  -15.0299997       1.38849084E-24
  -15.0200005      -1.19656641E-25
  -15.0100002      -2.79617605E-24
  -15.0000000      -6.13634348E-24
  -14.9899998      -8.88869614E-24
  -14.9799995      -9.15173392E-24
  -14.9700003      -4.88498250E-24
  -14.9600000       5.13409846E-24
  -14.9499998       2.00862256E-23
  -14.9399996       3.60606464E-23
  -14.9300003       4.58345888E-23
  -14.9200001       4.01599242E-23
  -14.9099998       1.09320084E-23
  -14.8999996      -4.40722451E-23
  -14.8900003      -1.16175318E-22
  -14.8800001      -1.82749146E-22
  -14.8699999      -2.08855368E-22
  -14.8599997      -1.55749794E-22
  -14.8500004       3.49158593E-24
  -14.8400002       2.64154908E-22
  -14.8299999       5.72510110E-22
  -14.8199997       8.20287306E-22
  -14.8100004       8.60483215E-22
  -14.8000002       5.49745023E-22
  -14.7900000      -1.86376757E-22
  -14.7799997      -1.28125965E-21
  -14.7700005      -2.47589132E-21
  -14.7600002      -3.32209971E-21
  -14.7500000      -3.26840244E-21
  -14.7399998      -1.83583043E-21
  -14.7299995       1.14340716E-21
  -14.7200003       5.29196794E-21
  -14.7100000       9.55775936E-21
  -14.6999998       1.22944517E-20
  -14.6899996       1.16232197E-20
  -14.6800003       6.06630431E-21
  -14.6700001      -4.67150938E-21
  -14.6599998      -1.90146334E-20
  -14.6499996      -3.32367891E-20
  -14.6400003      -4.18862484E-20
  -14.6300001      -3.90694529E-20
  -14.6199999      -2.04803764E-20
  -14.6099997       1.42728512E-20
  -14.6000004       5.97964858E-20
  -14.5900002       1.04389812E-19
  -14.5799999       1.31629445E-19
  -14.5699997       1.24336077E-19
  -14.5600004       7.04302609E-20
  -14.5500002      -3.07008149E-20
  -14.5400000      -1.63417996E-19
  -14.5299997      -2.94935047E-19
  -14.5200005      -3.80086519E-19
  -14.5100002      -3.72164300E-19
  -14.5000000      -2.38241768E-19
  -14.4899998       2.47163441E-20
  -14.4799995       3.78189613E-19
  -14.4700003       7.40345208E-19
  -14.4600000       9.98066821E-19
  -14.4499998       1.03323771E-18
  -14.4399996       7.59128050E-19
  -14.4300003       1.58113183E-19
  -14.4200001      -6.91108368E-19
  -14.4099998      -1.60865174E-18
  -14.3999996      -2.33893135E-18
  -14.3900003      -2.60696992E-18
  -14.3800001      -2.19633761E-18
  -14.3699999      -1.03031042E-18
  -14.3599997       7.67835677E-19
  -14.3500004       2.85893451E-18
  -14.3400002       4.73196362E-18
  -14.3299999       5.80885724E-18
  -14.3199997       5.59283778E-18
  -14.3100004       3.82636753E-18
  -14.3000002       6.15050868E-19
  -14.2900000      -3.52467201E-18
  -14.2799997      -7.72193120E-18
  -14.2700005      -1.09148335E-17
  -14.2600002      -1.20938206E-17
  -14.2500000      -1.05712971E-17
  -14.2399998      -6.20879617E-18
  -14.2299995       4.64406079E-19
  -14.2200003       8.28570276E-18
  -14.2100000       1.56545734E-17
  -14.1999998       2.08550083E-17
  -14.1899996       2.24348819E-17
  -14.1800003       1.95532328E-17
  -14.1700001       1.22109138E-17
  -14.1599998       1.30777369E-18
  -14.1499996      -1.14872656E-17
  -14.1400003      -2.40202612E-17
  -14.1300001      -3.40223323E-17
  -14.1199999      -3.94839081E-17
  -14.1099997      -3.89622483E-17
  -14.1000004      -3.17827077E-17
  -14.0900002      -1.81318354E-17
  -14.0799999       9.29773549E-19
  -14.0699997       2.34992169E-17
  -14.0600004       4.68889315E-17
  -14.0500002       6.77278346E-17
  -14.0400000       8.21615209E-17
  -14.0299997       8.62255188E-17
  -14.0200005       7.64458749E-17
  -14.0100002       5.06576293E-17
  -14.0000000       8.93392119E-18
  -13.9899998      -4.55857846E-17
  -13.9799995      -1.06251899E-16
  -13.9700003      -1.63131399E-16
  -13.9600000      -2.04101072E-16
  -13.9499998      -2.16821522E-16
  -13.9399996      -1.91365839E-16
  -13.9300003      -1.23035969E-16
  -13.9200001      -1.47275256E-17
  -13.9099998       1.21834493E-16
  -13.8999996       2.66535275E-16
  -13.8900003       3.93234887E-16
  -13.8800001       4.73897835E-16
  -13.8699999       4.83890017E-16
  -13.8599997       4.07491854E-16
  -13.8500004       2.42493754E-16
  -13.8400002       2.79946829E-18
  -13.8299999      -2.81735414E-16
  -13.8199997      -5.68511256E-16
  -13.8100004      -8.08131583E-16
  -13.8000002      -9.52227875E-16
  -13.7900000      -9.61898450E-16
  -13.7799997      -8.15322787E-16
  -13.7700005      -5.13214828E-16
  -13.7600002      -8.11091950E-17
  -13.7500000       4.32023199E-16
  -13.7399998       9.58774063E-16
  -13.7299995       1.42133124E-15
  -13.7200003       1.74156655E-15
  -13.7100000       1.85195008E-15
  -13.6999998       1.70598640E-15
  -13.6899996       1.28691198E-15
  -13.6800003       6.13548792E-16
  -13.6700001      -2.57587246E-16
  -13.6599998      -1.23456153E-15
  -13.6499996      -2.19699298E-15
  -13.6400003      -3.00763400E-15
  -13.6300001      -3.52795808E-15
  -13.6199999      -3.63657248E-15
  -13.6099997      -3.24862504E-15
  -13.6000004      -2.33380637E-15
  -13.5900002      -9.30173890E-16
  -13.5799999       8.49023157E-16
  -13.5699997       2.81794224E-15
  -13.5600004       4.73165183E-15
  -13.5500002       6.31066863E-15
  -13.5400000       7.27492797E-15
  -13.5299997       7.38379711E-15
  -13.5200005       6.47721267E-15
  -13.5100002       4.51194885E-15
  -13.5000000       1.58685609E-15
  -13.4899998      -2.04841112E-15
  -13.4799995      -6.00491387E-15
  -13.4700003      -9.78746486E-15
  -13.4600000      -1.28474891E-14
  -13.4499998      -1.46509171E-14
  -13.4399996      -1.47537012E-14
  -13.4300003      -1.28755496E-14
  -13.4200001      -8.96169921E-15
  -13.4099998      -3.22303469E-15
  -13.3999996       3.85362044E-15
  -13.3900003       1.15301360E-14
  -13.3800001       1.88781503E-14
  -13.3699999       2.48736443E-14
  -13.3599997       2.85176850E-14
  -13.3500004       2.89715151E-14
  -13.3400002       2.56908024E-14
  -13.3299999       1.85415106E-14
  -13.3199997       7.87926988E-15
  -13.3100004      -5.42401486E-15
  -13.3000002      -2.00183565E-14
  -13.2900000      -3.41839458E-14
  -13.2799997      -4.60059237E-14
  -13.2700005      -5.36018983E-14
  -13.2600002      -5.53786821E-14
  -13.2500000      -5.02866215E-14
  -13.2399998      -3.80352183E-14
  -13.2299995      -1.92342514E-14
  -13.2200003       4.56976731E-15
  -13.2100000       3.09801047E-14
  -13.1999998       5.69621526E-14
  -13.1899996       7.91663013E-14
  -13.1800003       9.43286112E-14
  -13.1700001       9.97021205E-14
  -13.1599998       9.34637160E-14
  -13.1499996       7.50402615E-14
  -13.1400003       4.53051970E-14
  -13.1300001       6.61060299E-15
  -13.1199999      -3.73607869E-14
  -13.1099997      -8.19173898E-14
  -13.1000004      -1.21827041E-13
  -13.0900002      -1.51886208E-13
  -13.0799999      -1.67531123E-13
  -13.0699997      -1.65425006E-13
  -13.0600004      -1.43954794E-13
  -13.0500002      -1.03576490E-13
  -13.0400000      -4.69591441E-14
  -13.0299997       2.11049169E-14
  -13.0200005       9.40366491E-14
  -13.0100002       1.64040914E-13
  -13.0000000       2.22872420E-13
  -12.9899998       2.62732056E-13
  -12.9799995       2.77205179E-13
  -12.9700003       2.62135799E-13
  -12.9600000       2.16326618E-13
  -12.9499998       1.41960621E-13
  -12.9399996       4.46635560E-14
  -12.9300003      -6.68360359E-14
  -12.9200001      -1.81444622E-13
  -12.9099998      -2.86782262E-13
  -12.8999996      -3.70494759E-13
  -12.8900003      -4.21655468E-13
  -12.8800001      -4.32090263E-13
  -12.8699999      -3.97464803E-13
  -12.8599997      -3.17994817E-13
  -12.8500004      -1.98685808E-13
  -12.8400002      -4.90633298E-14
  -12.8299999       1.17586306E-13
  -12.8199997       2.85390608E-13
  -12.8100004       4.37364852E-13
  -12.8000002       5.57044320E-13
  -12.7900000       6.30122419E-13
  -12.7799997       6.45950416E-13
  -12.7700005       5.98763660E-13
  -12.7600002       4.88526700E-13
  -12.7500000       3.21309033E-13
  -12.7399998       1.09134327E-13
  -12.7299995      -1.30724357E-13
  -12.7200003      -3.76990458E-13
  -12.7100000      -6.06113521E-13
  -12.6999998      -7.94372868E-13
  -12.6899996      -9.20192199E-13
  -12.6800003      -9.66453263E-13
  -12.6700001      -9.22564759E-13
  -12.6599998      -7.86038335E-13
  -12.6499996      -5.63345974E-13
  -12.6400003      -2.69899283E-13
  -12.6300001       7.09179826E-14
  -12.6199999       4.29622592E-13
  -12.6099997       7.73247894E-13
  -12.6000004       1.06844514E-12
  -12.5900002       1.28474130E-12
  -12.5799999       1.39759797E-12
  -12.5699997       1.39094183E-12
  -12.5600004       1.25890119E-12
  -12.5500002       1.00658577E-12
  -12.5400000       6.49853164E-13
  -12.5299997       2.14125660E-13
  -12.5200005      -2.67595597E-13
  -12.5100002      -7.57307736E-13
  -12.5000000      -1.21493885E-12
  -12.4899998      -1.60139447E-12
  -12.4799995      -1.88151209E-12
  -12.4700003      -2.02673989E-12
  -12.4600000      -2.01739081E-12
  -12.4499998      -1.84434889E-12
  -12.4399996      -1.51012059E-12
  -12.4300003      -1.02914617E-12
  -12.4200001      -4.27289633E-13
  -12.4099998       2.59521002E-13
  -12.3999996       9.87496109E-13
  -12.3900003       1.70793371E-12
  -12.3800001       2.37075572E-12
  -12.3699999       2.92835613E-12
  -12.3599997       3.33945545E-12
  -12.3500004       3.57257843E-12
  -12.3400002       3.60881615E-12
  -12.3299999       3.44355859E-12
  -12.3199997       3.08701762E-12
  -12.3100004       2.56344447E-12
  -12.3000002       1.90913171E-12
  -12.2900000       1.16938653E-12
  -12.2799997       3.94758770E-13
  -12.2700005      -3.63122889E-13
  -12.2600002      -1.05576116E-12
  -12.2500000      -1.64173254E-12
  -12.2399998      -2.09006727E-12
  -12.2299995      -2.38289293E-12
  -12.2200003      -2.51715727E-12
  -12.2100000      -2.50531453E-12
  -12.1999998      -2.37493185E-12
  -12.1899996      -2.16713886E-12
  -12.1800003      -1.93388057E-12
  -12.1700001      -1.73413898E-12
  -12.1599998      -1.62917488E-12
  -12.1499996      -1.67712773E-12
  -12.1400003      -1.92733069E-12
  -12.1300001      -2.41490313E-12
  -12.1199999      -3.15612055E-12
  -12.1099997      -4.14512999E-12
  -12.1000004      -5.35249536E-12
  -12.0900002      -6.72578659E-12
  -12.0799999      -8.19231835E-12
  -12.0699997      -9.66380014E-12
  -12.0600004      -1.10424586E-11
  -12.0500002      -1.22280597E-11
  -12.0400000      -1.31250791E-11
  -12.0299997      -1.36493976E-11
  -12.0200005      -1.37340261E-11
  -12.0100002      -1.33333067E-11
  -12.0000000      -1.24255918E-11
  -11.9899998      -1.10143552E-11
  -11.9799995      -9.12775498E-12
  -11.9700003      -6.81699575E-12
  -11.9600000      -4.15365225E-12
  -11.9499998      -1.22603262E-12
  -11.9399996       1.86518574E-12
  -11.9300003       5.01208753E-12
  -11.9200001       8.10510947E-12
  -11.9099998       1.10392849E-11
  -11.8999996       1.37202697E-11
  -11.8900003       1.60704366E-11
  -11.8800001       1.80338539E-11
  -11.8699999       1.95801483E-11
  -11.8599997       2.07064175E-11
  -11.8500004       2.14370414E-11
  -11.8400002       2.18212427E-11
  -11.8299999       2.19284955E-11
  -11.8199997       2.18424237E-11
  -11.8100004       2.16534325E-11
  -11.8000002       2.14510788E-11
  -11.7900000       2.13166793E-11
  -11.7799997       2.13168528E-11
  -11.7700005       2.14983639E-11
  -11.7600002       2.18844561E-11
  -11.7500000       2.24729280E-11
  -11.7399998       2.32356964E-11
  -11.7299995       2.41198728E-11
  -11.7200003       2.50502813E-11
  -11.7100000       2.59332191E-11
  -11.6999998       2.66613901E-11
  -11.6899996       2.71199729E-11
  -11.6800003       2.71935113E-11
  -11.6700001       2.67733283E-11
  -11.6599998       2.57650273E-11
  -11.6499996       2.40955311E-11
  -11.6400003       2.17189669E-11
  -11.6300001       1.86209607E-11
  -11.6199999       1.48206013E-11
  -11.6099997       1.03702628E-11
  -11.6000004       5.35268227E-12
  -11.5900002      -1.23677164E-13
  -11.5799999      -5.93134656E-12
  -11.5699997      -1.19313162E-11
  -11.5600004      -1.79809570E-11
  -11.5500002      -2.39417201E-11
  -11.5400000      -2.96859898E-11
  -11.5299997      -3.51024834E-11
  -11.5200005      -4.01008393E-11
  -11.5100002      -4.46141908E-11
  -11.5000000      -4.86003390E-11
  -11.4899998      -5.20419749E-11
  -11.4799995      -5.49453955E-11
  -11.4700003      -5.73379122E-11
  -11.4600000      -5.92650581E-11
  -11.4499998      -6.07862163E-11
  -11.4399996      -6.19699778E-11
  -11.4300003      -6.28891661E-11
  -11.4200001      -6.36154740E-11
  -11.4099998      -6.42143422E-11
  -11.3999996      -6.47406503E-11
  -11.3900003      -6.52348037E-11
  -11.3800001      -6.57206095E-11
  -11.3699999      -6.62038827E-11
  -11.3599997      -6.66730005E-11
  -11.3500004      -6.71004849E-11
  -11.3400002      -6.74456740E-11
  -11.3299999      -6.76583095E-11
  -11.3199997      -6.76820058E-11
  -11.3100004      -6.74577616E-11
  -11.3000002      -6.69266378E-11
  -11.2900000      -6.60321589E-11
  -11.2799997      -6.47212284E-11
  -11.2700005      -6.29449270E-11
  -11.2600002      -6.06584297E-11
  -11.2500000      -5.78214802E-11
  -11.2399998      -5.43985933E-11
  -11.2299995      -5.03600460E-11
  -11.2200003      -4.56839046E-11
  -11.2100000      -4.03576964E-11
  -11.1999998      -3.43812999E-11
  -11.1899996      -2.77684924E-11
  -11.1800003      -2.05491700E-11
  -11.1700001      -1.27681936E-11
  -11.1599998      -4.48583098E-12
  -11.1499996       4.22632112E-12
  -11.1400003       1.32881033E-11
  -11.1300001       2.26157357E-11
  -11.1199999       3.21262322E-11
  -11.1099997       4.17414679E-11
  -11.1000004       5.13911552E-11
  -11.0900002       6.10163378E-11
  -11.0799999       7.05689812E-11
  -11.0699997       8.00131419E-11
  -11.0600004       8.93257759E-11
  -11.0500002       9.84955797E-11
  -11.0400000       1.07522984E-10
  -11.0299997       1.16420942E-10
  -11.0200005       1.25214755E-10
  -11.0100002       1.33941080E-10
  -11.0000000       1.42649115E-10
  -10.9899998       1.51396007E-10
  -10.9799995       1.60246164E-10
  -10.9700003       1.69265796E-10
  -10.9600000       1.78519893E-10
  -10.9499998       1.88067492E-10
  -10.9399996       1.97957165E-10
  -10.9300003       2.08225867E-10
  -10.9200001       2.18897928E-10
  -10.9099998       2.29983046E-10
  -10.8999996       2.41480225E-10
  -10.8900003       2.53378790E-10
  -10.8800001       2.65660993E-10
  -10.8699999       2.78303297E-10
  -10.8599997       2.91278307E-10
  -10.8500004       3.04555797E-10
  -10.8400002       3.18101018E-10
  -10.8299999       3.31876138E-10
  -10.8199997       3.45837664E-10
  -10.8100004       3.59936858E-10
  -10.8000002       3.74121401E-10
  -10.7900000       3.88335503E-10
  -10.7799997       4.02522876E-10
  -10.7700005       4.16628426E-10
  -10.7600002       4.30601249E-10
  -10.7500000       4.44398102E-10
  -10.7399998       4.57985538E-10
  -10.7299995       4.71341244E-10
  -10.7200003       4.84454810E-10
  -10.7100000       4.97327346E-10
  -10.6999998       5.09972731E-10
  -10.6899996       5.22414112E-10
  -10.6800003       5.34683131E-10
  -10.6700001       5.46818202E-10
  -10.6599998       5.58863400E-10
  -10.6499996       5.70866188E-10
  -10.6400003       5.82875415E-10
  -10.6300001       5.94941096E-10
  -10.6199999       6.07110084E-10
  -10.6099997       6.19427676E-10
  -10.6000004       6.31932950E-10
  -10.5900002       6.44658937E-10
  -10.5799999       6.57630339E-10
  -10.5699997       6.70863254E-10
  -10.5600004       6.84364843E-10
  -10.5500002       6.98133218E-10
  -10.5400000       7.12159831E-10
  -10.5299997       7.26429195E-10
  -10.5200005       7.40920603E-10
  -10.5100002       7.55609686E-10
  -10.5000000       7.70466801E-10
  -10.4899998       7.85458087E-10
  -10.4799995       8.00542854E-10
  -10.4700003       8.15672807E-10
  -10.4600000       8.30789937E-10
  -10.4499998       8.45825299E-10
  -10.4399996       8.60698179E-10
  -10.4300003       8.75318151E-10
  -10.4200001       8.89585294E-10
  -10.4099998       9.03394526E-10
  -10.3999996       9.16640264E-10
  -10.3900003       9.29220700E-10
  -10.3800001       9.41042799E-10
  -10.3699999       9.52027901E-10
  -10.3599997       9.62114166E-10
  -10.3500004       9.71259517E-10
  -10.3400002       9.79443637E-10
  -10.3299999       9.86666415E-10
  -10.3199997       9.92946503E-10
  -10.3100004       9.98319649E-10
  -10.3000002       1.00283559E-09
  -10.2900000       1.00655484E-09
  -10.2799997       1.00954756E-09
  -10.2700005       1.01189279E-09
  -10.2600002       1.01367725E-09
  -10.2500000       1.01499775E-09
  -10.2399998       1.01595976E-09
  -10.2299995       1.01667941E-09
  -10.2200003       1.01728204E-09
  -10.2100000       1.01790298E-09
  -10.1999998       1.01868003E-09
  -10.1899996       1.01975350E-09
  -10.1800003       1.02125974E-09
  -10.1700001       1.02332465E-09
  -10.1599998       1.02605946E-09
  -10.1499996       1.02955988E-09
  -10.1400003       1.03389763E-09
  -10.1300001       1.03912168E-09
  -10.1199999       1.04525699E-09
  -10.1099997       1.05230746E-09
  -10.1000004       1.06025344E-09
  -10.0900002       1.06905640E-09
  -10.0799999       1.07865983E-09
  -10.0699997       1.08899134E-09
  -10.0600004       1.09996579E-09
  -10.0500002       1.11148679E-09
  -10.0400000       1.12344856E-09
  -10.0299997       1.13573950E-09
  -10.0200005       1.14824394E-09
  -10.0100002       1.16084797E-09
  -10.0000000       1.17343790E-09
  -9.98999977       1.18590882E-09
  -9.97999954       1.19816546E-09
  -9.97000027       1.21013111E-09
  -9.96000004       1.22174471E-09
  -9.94999981       1.23297128E-09
  -9.93999958       1.24380117E-09
  -9.93000031       1.25425448E-09
  -9.92000008       1.26437927E-09
  -9.90999985       1.27425792E-09
  -9.89999962       1.28399669E-09
  -9.89000034       1.29372779E-09
  -9.88000011       1.30360645E-09
  -9.86999989       1.31379940E-09
  -9.85999966       1.32448841E-09
  -9.85000038       1.33586142E-09
  -9.84000015       1.34810252E-09
  -9.82999992       1.36139666E-09
  -9.81999969       1.37591261E-09
  -9.81000042       1.39180767E-09
  -9.80000019       1.40921963E-09
  -9.78999996       1.42826406E-09
  -9.77999973       1.44903478E-09
  -9.77000046       1.47160062E-09
  -9.76000023       1.49601209E-09
  -9.75000000       1.52229185E-09
  -9.73999977       1.55044300E-09
  -9.72999954       1.58045121E-09
  -9.72000027       1.61228209E-09
  -9.71000004       1.64588043E-09
  -9.69999981       1.68117364E-09
  -9.68999958       1.71805992E-09
  -9.68000031       1.75640880E-09
  -9.67000008       1.79606197E-09
  -9.65999985       1.83681936E-09
  -9.64999962       1.87845051E-09
  -9.64000034       1.92068650E-09
  -9.63000011       1.96322869E-09
  -9.61999989       2.00575867E-09
  -9.60999966       2.04794848E-09
  -9.60000038       2.08946527E-09
  -9.59000015       2.12998486E-09
  -9.57999992       2.16919860E-09
  -9.56999969       2.20682339E-09
  -9.56000042       2.24260521E-09
  -9.55000019       2.27631625E-09
  -9.53999996       2.30775976E-09
  -9.52999973       2.33677833E-09
  -9.52000046       2.36324071E-09
  -9.51000023       2.38705677E-09
  -9.50000000       2.40816589E-09
  -9.48999977       2.42654408E-09
  -9.47999954       2.44221532E-09
  -9.47000027       2.45524112E-09
  -9.46000004       2.46573562E-09
  -9.44999981       2.47385756E-09
  -9.43999958       2.47980991E-09
  -9.43000031       2.48384335E-09
  -9.42000008       2.48625986E-09
  -9.40999985       2.48740006E-09
  -9.39999962       2.48764320E-09
  -9.39000034       2.48740939E-09
  -9.38000011       2.48714116E-09
  -9.36999989       2.48730636E-09
  -9.35999966       2.48838905E-09
  -9.35000038       2.49086995E-09
  -9.34000015       2.49522758E-09
  -9.32999992       2.50193533E-09
  -9.31999969       2.51144439E-09
  -9.31000042       2.52418175E-09
  -9.30000019       2.54054844E-09
  -9.28999996       2.56091304E-09
  -9.27999973       2.58560906E-09
  -9.27000046       2.61494004E-09
  -9.26000023       2.64917688E-09
  -9.25000000       2.68854450E-09
  -9.23999977       2.73323808E-09
  -9.22999954       2.78338952E-09
  -9.22000027       2.83910606E-09
  -9.21000004       2.90044366E-09
  -9.19999981       2.96740721E-09
  -9.18999958       3.03994097E-09
  -9.18000031       3.11794723E-09
  -9.17000008       3.20126969E-09
  -9.15999985       3.28969674E-09
  -9.14999962       3.38295636E-09
  -9.14000034       3.48073881E-09
  -9.13000011       3.58268437E-09
  -9.11999989       3.68838160E-09
  -9.10999966       3.79738507E-09
  -9.10000038       3.90923249E-09
  -9.09000015       4.02341227E-09
  -9.07999992       4.13941281E-09
  -9.06999969       4.25669100E-09
  -9.06000042       4.37469261E-09
  -9.05000019       4.49284432E-09
  -9.03999996       4.61058303E-09
  -9.02999973       4.72729811E-09
  -9.02000046       4.84241625E-09
  -9.01000023       4.95532637E-09
  -9.00000000       5.06544495E-09
  -8.98999977       5.17217913E-09
  -8.97999954       5.27493782E-09
  -8.97000027       5.37315614E-09
  -8.96000004       5.46628920E-09
  -8.94999981       5.55383206E-09
  -8.93999958       5.63530866E-09
  -8.93000031       5.71030823E-09
  -8.92000008       5.77845993E-09
  -8.90999985       5.83948356E-09
  -8.89999962       5.89314109E-09
  -8.89000034       5.93927663E-09
  -8.88000011       5.97780714E-09
  -8.86999989       6.00868777E-09
  -8.85999966       6.03193762E-09
  -8.85000038       6.04764061E-09
  -8.84000015       6.05592065E-09
  -8.82999992       6.05694428E-09
  -8.81999969       6.05094019E-09
  -8.81000042       6.03818506E-09
  -8.80000019       6.01898487E-09
  -8.78999996       5.99369088E-09
  -8.77999973       5.96271121E-09
  -8.77000046       5.92649041E-09
  -8.76000023       5.88548632E-09
  -8.75000000       5.84019411E-09
  -8.73999977       5.79111736E-09
  -8.72999954       5.73878145E-09
  -8.72000027       5.68371394E-09
  -8.71000004       5.62644331E-09
  -8.69999981       5.56746649E-09
  -8.68999958       5.50729951E-09
  -8.68000031       5.44641487E-09
  -8.67000008       5.38528333E-09
  -8.65999985       5.32431699E-09
  -8.64999962       5.26391197E-09
  -8.64000034       5.20441645E-09
  -8.63000011       5.14618215E-09
  -8.61999989       5.08949238E-09
  -8.60999966       5.03465092E-09
  -8.60000038       4.98187624E-09
  -8.59000015       4.93139707E-09
  -8.57999992       4.88343499E-09
  -8.56999969       4.83815787E-09
  -8.56000042       4.79571938E-09
  -8.55000019       4.75621986E-09
  -8.53999996       4.71975481E-09
  -8.52999973       4.68636729E-09
  -8.52000046       4.65608130E-09
  -8.51000023       4.62887506E-09
  -8.50000000       4.60470861E-09
  -8.48999977       4.58353089E-09
  -8.47999954       4.56524196E-09
  -8.47000027       4.54975124E-09
  -8.46000004       4.53694149E-09
  -8.44999981       4.52670079E-09
  -8.43999958       4.51891324E-09
  -8.43000031       4.51342252E-09
  -8.42000008       4.51009452E-09
  -8.40999985       4.50881199E-09
  -8.39999962       4.50943682E-09
  -8.39000034       4.51188642E-09
  -8.38000011       4.51603244E-09
  -8.36999989       4.52181714E-09
  -8.35999966       4.52921745E-09
  -8.35000038       4.53821913E-09
  -8.34000015       4.54888527E-09
  -8.32999992       4.56129579E-09
  -8.31999969       4.57557103E-09
  -8.31000042       4.59190330E-09
  -8.30000019       4.61049687E-09
  -8.28999996       4.63161198E-09
  -8.27999973       4.65552885E-09
  -8.27000046       4.68259387E-09
  -8.26000023       4.71316408E-09
  -8.25000000       4.74763517E-09
  -8.23999977       4.78641082E-09
  -8.22999954       4.82989693E-09
  -8.22000027       4.87849006E-09
  -8.21000004       4.93260899E-09
  -8.19999981       4.99258190E-09
  -8.18999958       5.05879383E-09
  -8.18000031       5.13154008E-09
  -8.17000008       5.21113064E-09
  -8.15999985       5.29780131E-09
  -8.14999962       5.39175993E-09
  -8.14000034       5.49319568E-09
  -8.13000011       5.60220981E-09
  -8.11999989       5.71889514E-09
  -8.10999966       5.84329962E-09
  -8.10000038       5.97540906E-09
  -8.09000015       6.11517548E-09
  -8.07999992       6.26250607E-09
  -8.06999969       6.41726539E-09
  -8.06000042       6.57930110E-09
  -8.05000019       6.74840983E-09
  -8.03999996       6.92432645E-09
  -8.02999973       7.10677650E-09
  -8.02000046       7.29544603E-09
  -8.01000023       7.49000506E-09
  -8.00000000       7.69005926E-09
  -7.98999977       7.89524179E-09
  -7.98000002       8.10516898E-09
  -7.96999979       8.31943936E-09
  -7.96000004       8.53768789E-09
  -7.94999981       8.75951045E-09
  -7.94000006       8.98452246E-09
  -7.92999983       9.21234733E-09
  -7.92000008       9.44258360E-09
  -7.90999985       9.67485647E-09
  -7.90000010       9.90875648E-09
  -7.88999987       1.01438635E-08
  -7.88000011       1.03797548E-08
  -7.86999989       1.06159845E-08
  -7.86000013       1.08521503E-08
  -7.84999990       1.10878116E-08
  -7.84000015       1.13225065E-08
  -7.82999992       1.15558105E-08
  -7.82000017       1.17872894E-08
  -7.80999994       1.20165415E-08
  -7.80000019       1.22431727E-08
  -7.78999996       1.24668382E-08
  -7.78000021       1.26872202E-08
  -7.76999998       1.29040343E-08
  -7.76000023       1.31170843E-08
  -7.75000000       1.33261588E-08
  -7.73999977       1.35311247E-08
  -7.73000002       1.37319169E-08
  -7.71999979       1.39285143E-08
  -7.71000004       1.41209489E-08
  -7.69999981       1.43093457E-08
  -7.69000006       1.44938124E-08
  -7.67999983       1.46745167E-08
  -7.67000008       1.48517261E-08
  -7.65999985       1.50256945E-08
  -7.65000010       1.51967114E-08
  -7.63999987       1.53651474E-08
  -7.63000011       1.55312918E-08
  -7.61999989       1.56955231E-08
  -7.61000013       1.58581983E-08
  -7.59999990       1.60196798E-08
  -7.59000015       1.61803495E-08
  -7.57999992       1.63405840E-08
  -7.57000017       1.65007208E-08
  -7.55999994       1.66611773E-08
  -7.55000019       1.68223426E-08
  -7.53999996       1.69845666E-08
  -7.53000021       1.71481762E-08
  -7.51999998       1.73134431E-08
  -7.51000023       1.74807173E-08
  -7.50000000       1.76502546E-08
  -7.48999977       1.78223036E-08
  -7.48000002       1.79970883E-08
  -7.46999979       1.81748057E-08
  -7.46000004       1.83555926E-08
  -7.44999981       1.85396747E-08
  -7.44000006       1.87271656E-08