  -16.0000000       0.00000000    
  -15.9899998       0.00000000    
  -15.9799995       0.00000000    
  -15.9700003       0.00000000    
  -15.9600000       0.00000000    
  -15.9499998       0.00000000    
  -15.9399996       0.00000000    
  -15.9300003       0.00000000    
  -15.9200001       0.00000000    
  -15.9099998       0.00000000    
  -15.8999996       0.00000000    
  -15.8900003       0.00000000    
  -15.8800001       0.00000000    
  -15.8699999       0.00000000    
  -15.8599997       0.00000000    
  -15.8500004       0.00000000    
  -15.8400002       0.00000000    
  -15.8299999       1.40129846E-45
  -15.8199997       1.96181785E-44
  -15.8100004       1.27518160E-43
  -15.8000002       7.14662217E-43
  -15.7900000       3.44579292E-42
  -15.7799997       1.45791092E-41
  -15.7700005       5.48215985E-41
  -15.7600002       1.85107323E-40
  -15.7500000       5.65639730E-40
  -15.7399998       1.57269688E-39
  -15.7299995       3.99156785E-39
  -15.7200003       9.25636249E-39
  -15.7100000       1.95759840E-38
  -15.6999998       3.75345613E-38
  -15.6899996       6.44180211E-38
  -15.6800003       9.63046630E-38
  -15.6700001       1.17353321E-37
  -15.6599998       9.14663773E-38
  -15.6499996      -4.27861683E-38
  -15.6400003      -3.63804883E-37
  -15.6300001      -9.30762170E-37
  -15.6199999      -1.70776984E-36
  -15.6099997      -2.45382257E-36
  -15.6000004      -2.62079726E-36
  -15.5900002      -1.35201697E-36
  -15.5799999       2.28913767E-36
  -15.5699997       8.75549719E-36
  -15.5600004       1.71497925E-35
  -15.5500002       2.43533329E-35
  -15.5400000       2.47633468E-35
  -15.5299997       1.14247310E-35
  -15.5200005      -2.08958456E-35
  -15.5100002      -7.09774452E-35
  -15.5000000      -1.26349686E-34
  -15.4899998      -1.61269089E-34
  -15.4799995      -1.40598078E-34
  -15.4700003      -3.13676822E-35
  -15.4600000       1.79093682E-34
  -15.4499998       4.62862656E-34
  -15.4399996       7.35462734E-34
  -15.4300003       8.51408262E-34
  -15.4200001       6.19888681E-34
  -15.4099998      -1.45027419E-34
  -15.3999996      -1.51665247E-33
  -15.3900003      -3.27042181E-33
  -15.3800001      -4.64608154E-33
  -15.3699999      -4.19814950E-33
  -15.3599997      -4.59416368E-35
  -15.3500004       9.05897734E-33
  -15.3400002       2.16281145E-32
  -15.3299999       3.08447073E-32
  -15.3199997       2.34096893E-32
  -15.3100004      -1.68571591E-32
  -15.3000002      -9.73623591E-32
  -15.2900000      -1.97124831E-31
  -15.2799997      -2.47262862E-31
  -15.2700005      -1.30461817E-31
  -15.2600002       2.74697631E-31
  -15.2500000       9.86930763E-31
  -15.2399998       1.77021870E-30
  -15.2299995       2.01617330E-30
  -15.2200003       8.07544401E-31
  -15.2100000      -2.67166826E-30
  -15.1999998      -8.31582545E-30
  -15.1899996      -1.40759193E-29
  -15.1800003      -1.53517365E-29
  -15.1700001      -5.76531981E-30
  -15.1599998       1.97626442E-29
  -15.1499996       5.95417492E-29
  -15.1400003       9.89345036E-29
  -15.1300001       1.07485271E-28
  -15.1199999       4.50071381E-29
  -15.1099997      -1.18693955E-28
  -15.1000004      -3.71204291E-28
  -15.0900002      -6.22940644E-28
  -15.0799999      -6.93686070E-28
  -15.0699997      -3.50354029E-28
  -15.0600004       5.81510328E-28
  -15.0500002       2.04044574E-27
  -15.0400000       3.54673943E-27
  -15.0299997       4.13451052E-27
  -15.0200005       2.54774223E-27
  -15.0100002      -2.19399436E-27
  -15.0000000      -9.90615780E-27
  -14.9899998      -1.83235194E-26
  -14.9799995      -2.27258501E-26
  -14.9700003      -1.68037234E-26
  -14.9600000       4.74232438E-27
  -14.9499998       4.20590282E-26
  -14.9399996       8.57564096E-26
  -14.9300003       1.14775354E-25
  -14.9200001       9.95979048E-26
  -14.9099998       1.30809670E-26
  -14.8999996      -1.51604090E-25
  -14.8900003      -3.61045834E-25
  -14.8800001      -5.29824030E-25
  -14.8699999      -5.29845527E-25
  -14.8599997      -2.31096753E-25
  -14.8500004       4.26327452E-25
  -14.8400002       1.34685585E-24
  -14.8299999       2.21891072E-24
  -14.8199997       2.53037450E-24
  -14.8100004       1.70481697E-24
  -14.8000002      -6.32086633E-25
  -14.7900000      -4.31069295E-24
  -14.7799997      -8.33215793E-24
  -14.7700005      -1.08292995E-23
  -14.7600002      -9.45713669E-24
  -14.7500000      -2.29041622E-24
  -14.7399998       1.09088253E-23
  -14.7299995       2.74683576E-23
  -14.7200003       4.12794630E-23
  -14.7100000       4.36696989E-23
  -14.6999998       2.61031455E-23
  -14.6899996      -1.55168703E-23
  -14.6800003      -7.60972968E-23
  -14.6700001      -1.38217026E-22
  -14.6599998      -1.73081220E-22
  -14.6499996      -1.47505958E-22
  -14.6400003      -3.70833351E-23
  -14.6300001       1.57185420E-22
  -14.6199999       3.94663350E-22
  -14.6099997       5.91260715E-22
  -14.6000004       6.33565874E-22
  -14.5900002       4.14250551E-22
  -14.5799999      -1.15907535E-22
  -14.5699997      -8.94082682E-22
  -14.5600004      -1.71281074E-21
  -14.5500002      -2.23449514E-21
  -14.5400000      -2.07097429E-21
  -14.5299997      -9.26438247E-22
  -14.5200005       1.22666503E-21
  -14.5100002       3.99851030E-21
  -14.5000000       6.53699108E-21
  -14.4899998       7.65721658E-21
  -14.4799995       6.17481240E-21
  -14.4700003       1.40015677E-21
  -14.4600000      -6.33693253E-21
  -14.4499998      -1.53354536E-20
  -14.4399996      -2.25691109E-20
  -14.4300003      -2.42924027E-20
  -14.4200001      -1.72136092E-20
  -14.4099998      -1.47207898E-23
  -14.3999996       2.52366924E-20
  -14.3900003       5.23910900E-20
  -14.3800001       7.18179017E-20
  -14.3699999       7.26195495E-20
  -14.3599997       4.62750846E-20
  -14.3500004      -9.09872744E-21
  -14.3400002      -8.52474051E-20
  -14.3299999      -1.62677669E-19
  -14.3199997      -2.13327760E-19
  -14.3100004      -2.07496344E-19
  -14.3000002      -1.24111200E-19
  -14.2900000       3.81699586E-20
  -14.2799997       2.52779261E-19
  -14.2700005       4.64051012E-19
  -14.2600002       5.96042103E-19
  -14.2500000       5.71850378E-19
  -14.2399998       3.40334235E-19
  -14.2299995      -9.65855504E-20
  -14.2200003      -6.65425237E-19
  -14.2100000      -1.22093823E-18
  -14.1999998      -1.57054384E-18
  -14.1899996      -1.52328660E-18
  -14.1800003      -9.54776324E-19
  -14.1700001       1.28665140E-19
  -14.1599998       1.54850806E-18
  -14.1499996       2.95627279E-18
  -14.1400003       3.89257506E-18
  -14.1300001       3.90110536E-18
  -14.1199999       2.67703688E-18
  -14.1099997       2.11958608E-19
  -14.1000004      -3.11253010E-18
  -14.0900002      -6.52764865E-18
  -14.0799999      -9.00365583E-18
  -14.0699997      -9.49458587E-18
  -14.0600004      -7.25774142E-18
  -14.0500002      -2.16866822E-18
  -14.0400000       5.06739860E-18
  -14.0299997       1.29006650E-17
  -14.0200005       1.91748175E-17
  -14.0100002       2.16110663E-17
  -14.0000000       1.84543234E-17
  -13.9899998       9.12769818E-18
  -13.9799995      -5.29855091E-18
  -13.9700003      -2.20081312E-17
  -13.9600000      -3.68274937E-17
  -13.9499998      -4.51021420E-17
  -13.9399996      -4.29163305E-17
  -13.9300003      -2.83790514E-17
  -13.9200001      -2.61882094E-18
  -13.9099998       2.98623186E-17
  -13.8999996       6.17132654E-17
  -13.8900003       8.41706036E-17
  -13.8800001       8.91864614E-17
  -13.8699999       7.17846923E-17
  -13.8599997       3.20282546E-17
  -13.8500004      -2.40269746E-17
  -13.8400002      -8.48456955E-17
  -13.8299999      -1.35517013E-16
  -13.8199997      -1.61147105E-16
  -13.8100004      -1.50825982E-16
  -13.8000002      -1.01174400E-16
  -13.7900000      -1.84310399E-17
  -13.7799997       8.17180793E-17
  -13.7700005       1.76861988E-16
  -13.7600002       2.42768060E-16
  -13.7500000       2.59437563E-16
  -13.7399998       2.16820370E-16
  -13.7299995       1.18590039E-16
  -13.7200003      -1.72900038E-17
  -13.7100000      -1.61743390E-16
  -13.6999998      -2.81052652E-16
  -13.6899996      -3.45201131E-16
  -13.6800003      -3.35968683E-16
  -13.6700001      -2.52502269E-16
  -13.6599998      -1.12559680E-16
  -13.6499996       5.13168459E-17
  -13.6400003       2.00039880E-16
  -13.6300001       2.98605054E-16
  -13.6199999       3.26163271E-16
  -13.6099997       2.82452057E-16
  -13.6000004       1.88281819E-16
  -13.5900002       7.93573389E-17
  -13.5799999      -5.27905426E-18
  -13.5699997      -3.70282339E-17
  -13.5600004      -9.45137230E-18
  -13.5500002       5.63036233E-17
  -13.5400000       1.15189599E-16
  -13.5299997       1.11367243E-16
  -13.5200005      -1.97822270E-18
  -13.5100002      -2.41478135E-16
  -13.5000000      -5.77873511E-16
  -13.4899998      -9.32106395E-16
  -13.4799995      -1.18707072E-15
  -13.4700003      -1.21477156E-15
  -13.4600000      -9.13878352E-16
  -13.4499998      -2.48541278E-16
  -13.4399996       7.22798201E-16
  -13.4300003       1.83910991E-15
  -13.4200001       2.85556067E-15
  -13.4099998       3.48951274E-15
  -13.3999996       3.48632027E-15
  -13.3900003       2.69083817E-15
  -13.3800001       1.10670572E-15
  -13.3699999      -1.07408712E-15
  -13.3599997      -3.48365847E-15
  -13.3500004      -5.63588449E-15
  -13.3400002      -7.02123186E-15
  -13.3299999      -7.22035279E-15
  -13.3199997      -6.01108789E-15
  -13.3100004      -3.44237938E-15
  -13.3000002       1.45942347E-16
  -13.2900000       4.16726149E-15
  -13.2799997       7.89118001E-15
  -13.2700005       1.05858502E-14
  -13.2600002       1.16691960E-14
  -13.2500000       1.08348380E-14
  -13.2399998       8.12296041E-15
  -13.2299995       3.91857050E-15
  -13.2200003      -1.12325314E-15
  -13.2100000      -6.20783163E-15
  -13.1999998      -1.05559397E-14
  -13.1899996      -1.35464277E-14
  -13.1800003      -1.48132069E-14
  -13.1700001      -1.42762304E-14
  -13.1599998      -1.21046632E-14
  -13.1499996      -8.62965637E-15
  -13.1400003      -4.23842200E-15
  -13.1300001       7.13831087E-16
  -13.1199999       5.94402957E-15
  -13.1099997       1.12200542E-14
  -13.1000004       1.62871950E-14
  -13.0900002       2.07726767E-14
  -13.0799999       2.41124513E-14
  -13.0699997       2.55449399E-14
  -13.0600004       2.42020437E-14
  -13.0500002       1.93003555E-14
  -13.0400000       1.04023422E-14
  -13.0299997      -2.31346742E-15
  -13.0200005      -1.78521426E-14
  -13.0100002      -3.43492833E-14
  -13.0000000      -4.92186248E-14
  -12.9899998      -5.95111661E-14
  -12.9799995      -6.24438991E-14
  -12.9700003      -5.60058286E-14
  -12.9600000      -3.95151881E-14
  -12.9499998      -1.39940558E-14
  -12.9399996       1.77490486E-14
  -12.9300003       5.13852504E-14
  -12.9200001       8.16654009E-14
  -12.9099998       1.03265154E-13
  -12.8999996       1.11726451E-13
  -12.8900003       1.04316627E-13
  -12.8800001       8.06342433E-14
  -12.8699999       4.28353608E-14
  -12.8599997      -4.57255024E-15
  -12.8500004      -5.53380617E-14
  -12.8400002      -1.02366446E-13
  -12.8299999      -1.38753877E-13
  -12.8199997      -1.58779931E-13
  -12.8100004      -1.58704281E-13
  -12.8000002      -1.37264955E-13
  -12.7900000      -9.58408564E-14
  -12.7799997      -3.83031992E-14
  -12.7700005       2.93770576E-14
  -12.7600002       9.96843938E-14
  -12.7500000       1.64208070E-13
  -12.7399998       2.14348667E-13
  -12.7299995       2.42077300E-13
  -12.7200003       2.40759967E-13
  -12.7100000       2.06048720E-13
  -12.6999998       1.36800415E-13
  -12.6899996       3.59208513E-14
  -12.6800003      -8.90342623E-14
  -12.6700001      -2.25710780E-13
  -12.6599998      -3.57467203E-13
  -12.6499996      -4.64688292E-13
  -12.6400003      -5.26917106E-13
  -12.6300001      -5.25658347E-13
  -12.6199999      -4.47524288E-13
  -12.6099997      -2.87253565E-13
  -12.6000004      -5.00588476E-14
  -12.5900002       2.47213112E-13
  -12.5799999       5.76485637E-13
  -12.5699997       9.00570796E-13
  -12.5600004       1.17687208E-12
  -12.5500002       1.36225373E-12
  -12.5400000       1.41844262E-12
  -12.5299997       1.31721088E-12
  -12.5200005       1.04461155E-12
  -12.5100002       6.03680517E-13
  -12.5000000       1.52742199E-14
  -12.4899998      -6.82991099E-13
  -12.4799995      -1.43945153E-12
  -12.4700003      -2.19229756E-12
  -12.4600000      -2.87410699E-12
  -12.4499998      -3.41646264E-12
  -12.4399996      -3.75421872E-12
  -12.4300003      -3.82916051E-12
  -12.4200001      -3.59297076E-12
  -12.4099998      -3.00954465E-12
  -12.3999996      -2.05675190E-12
  -12.3900003      -7.27698175E-13
  -12.3800001       9.68506633E-13
  -12.3699999       3.00663943E-12
  -12.3599997       5.34606257E-12
  -12.3500004       7.93243422E-12
  -12.3400002       1.07004449E-11
  -12.3299999       1.35774942E-11
  -12.3199997       1.64878909E-11
  -12.3100004       1.93569917E-11
  -12.3000002       2.21146365E-11
  -12.2900000       2.46970916E-11
  -12.2799997       2.70471805E-11
  -12.2700005       2.91124208E-11
  -12.2600002       3.08414787E-11
  -12.2500000       3.21796860E-11
  -12.2399998       3.30647905E-11
  -12.2299995       3.34238262E-11
  -12.2200003       3.31725203E-11
  -12.2100000       3.22175238E-11
  -12.1999998       3.04618657E-11
  -12.1899996       2.78130366E-11
  -12.1800003       2.41928179E-11
  -12.1700001       1.95472510E-11
  -12.1599998       1.38555695E-11
  -12.1499996       7.13642773E-12
  -12.1400003      -5.49256333E-13
  -12.1300001      -9.09952148E-12
  -12.1199999      -1.83761530E-11
  -12.1099997      -2.82125243E-11
  -12.1000004      -3.84232993E-11
  -12.0900002      -4.88147300E-11
  -12.0799999      -5.91945104E-11
  -12.0699997      -6.93802515E-11
  -12.0600004      -7.92056906E-11
  -12.0500002      -8.85249929E-11
  -12.0400000      -9.72146807E-11
  -12.0299997      -1.05173766E-10
  -12.0200005      -1.12322110E-10
  -12.0100002      -1.18597632E-10
  -12.0000000      -1.23952348E-10
  -11.9899998      -1.28347624E-10
  -11.9799995      -1.31748890E-10
  -11.9700003      -1.34120159E-10
  -11.9600000      -1.35418732E-10
  -11.9499998      -1.35591524E-10
  -11.9399996      -1.34572298E-10
  -11.9300003      -1.32281477E-10
  -11.9200001      -1.28628663E-10
  -11.9099998      -1.23517530E-10
  -11.8999996      -1.16852722E-10
  -11.8900003      -1.08548559E-10
  -11.8800001      -9.85379625E-11
  -11.8699999      -8.67798264E-11
  -11.8599997      -7.32654631E-11
  -11.8500004      -5.80221947E-11
  -11.8400002      -4.11130609E-11
  -11.8299999      -2.26351837E-11
  -11.8199997      -2.71526660E-12
  -11.8100004       1.84959738E-11
  -11.8000002       4.08302593E-11
  -11.7900000       6.41065950E-11
  -11.7799997       8.81361442E-11
  -11.7700005       1.12724691E-10
  -11.7600002       1.37674872E-10
  -11.7500000       1.62786784E-10
  -11.7399998       1.87858035E-10
  -11.7299995       2.12683926E-10
  -11.7200003       2.37057068E-10
  -11.7100000       2.60768102E-10
  -11.6999998       2.83605528E-10
  -11.6899996       3.05355935E-10
  -11.6800003       3.25804800E-10
  -11.6700001       3.44736212E-10
  -11.6599998       3.61933983E-10
  -11.6499996       3.77182424E-10
  -11.6400003       3.90268956E-10
  -11.6300001       4.00986661E-10
  -11.6199999       4.09139000E-10
  -11.6099997       4.14545204E-10
  -11.6000004       4.17045065E-10
  -11.5900002       4.16503776E-10
  -11.5799999       4.12815115E-10
  -11.5699997       4.05902839E-10
  -11.5600004       3.95719207E-10
  -11.5500002       3.82240489E-10
  -11.5400000       3.65462410E-10
  -11.5299997       3.45392825E-10
  -11.5200005       3.22046084E-10
  -11.5100002       2.95438174E-10
  -11.5000000       2.65583805E-10
  -11.4899998       2.32498049E-10
  -11.4799995       1.96199862E-10
  -11.4700003       1.56715960E-10
  -11.4600000       1.14088475E-10
  -11.4499998       6.83789136E-11
  -11.4399996       1.96745762E-11
  -11.4300003      -3.19110294E-11
  -11.4200001      -8.62372673E-11
  -11.4099998      -1.43140680E-10
  -11.3999996      -2.02437789E-10
  -11.3900003      -2.63932598E-10
  -11.3800001      -3.27419897E-10
  -11.3699999      -3.92691019E-10
  -11.3599997      -4.59536798E-10
  -11.3500004      -5.27750454E-10
  -11.3400002      -5.97127792E-10
  -11.3299999      -6.67470024E-10
  -11.3199997      -7.38582029E-10
  -11.3100004      -8.10275291E-10
  -11.3000002      -8.82367346E-10
  -11.2900000      -9.54683999E-10
  -11.2799997      -1.02705855E-09
  -11.2700005      -1.09933196E-09
  -11.2600002      -1.17135224E-09
  -11.2500000      -1.24297128E-09
  -11.2399998      -1.31404421E-09
  -11.2299995      -1.38442591E-09
  -11.2200003      -1.45396939E-09
  -11.2100000      -1.52252622E-09
  -11.1999998      -1.58994828E-09
  -11.1899996      -1.65609015E-09
  -11.1800003      -1.72081416E-09
  -11.1700001      -1.78399584E-09
  -11.1599998      -1.84552817E-09
  -11.1499996      -1.90532656E-09
  -11.1400003      -1.96333261E-09
  -11.1300001      -2.01951655E-09
  -11.1199999      -2.07387352E-09
  -11.1099997      -2.12642504E-09
  -11.1000004      -2.17721685E-09
  -11.0900002      -2.22631358E-09
  -11.0799999      -2.27379293E-09
  -11.0699997      -2.31974639E-09
  -11.0600004      -2.36426190E-09
  -11.0500002      -2.40743536E-09
  -11.0400000      -2.44934717E-09
  -11.0299997      -2.49006571E-09
  -11.0200005      -2.52963606E-09
  -11.0100002      -2.56808375E-09
  -11.0000000      -2.60540012E-09
  -10.9899998      -2.64155542E-09
  -10.9799995      -2.67649014E-09
  -10.9700003      -2.71012923E-09
  -10.9600000      -2.74237522E-09
  -10.9499998      -2.77313261E-09
  -10.9399996      -2.80230705E-09
  -10.9300003      -2.82980506E-09
  -10.9200001      -2.85554758E-09
  -10.9099998      -2.87947843E-09
  -10.8999996      -2.90155255E-09
  -10.8900003      -2.92174107E-09
  -10.8800001      -2.94003333E-09
  -10.8699999      -2.95643110E-09
  -10.8599997      -2.97094438E-09
  -10.8500004      -2.98359581E-09
  -10.8400002      -2.99440250E-09
  -10.8299999      -3.00339198E-09
  -10.8199997      -3.01058090E-09
  -10.8100004      -3.01599856E-09
  -10.8000002      -3.01964698E-09
  -10.7900000      -3.02152103E-09
  -10.7799997      -3.02160874E-09
  -10.7700005      -3.01988101E-09
  -10.7600002      -3.01627812E-09
  -10.7500000      -3.01075498E-09
  -10.7399998      -3.00321923E-09
  -10.7299995      -2.99360203E-09
  -10.7200003      -2.98180369E-09
  -10.7100000      -2.96774627E-09
  -10.6999998      -2.95134517E-09
  -10.6899996      -2.93254376E-09
  -10.6800003      -2.91129698E-09
  -10.6700001      -2.88758151E-09
  -10.6599998      -2.86138802E-09
  -10.6499996      -2.83274715E-09
  -10.6400003      -2.80170309E-09
  -10.6300001      -2.76831735E-09
  -10.6199999      -2.73269118E-09
  -10.6099997      -2.69492983E-09
  -10.6000004      -2.65517830E-09
  -10.5900002      -2.61361266E-09
  -10.5799999      -2.57041055E-09
  -10.5699997      -2.52581556E-09
  -10.5600004      -2.48006815E-09
  -10.5500002      -2.43344878E-09
  -10.5400000      -2.38625431E-09
  -10.5299997      -2.33877429E-09
  -10.5200005      -2.29131847E-09
  -10.5100002      -2.24418284E-09
  -10.5000000      -2.19762741E-09
  -10.4899998      -2.15190199E-09
  -10.4799995      -2.10719731E-09
  -10.4700003      -2.06368345E-09
  -10.4600000      -2.02146500E-09
  -10.4499998      -1.98061945E-09
  -10.4399996      -1.94118166E-09
  -10.4300003      -1.90315141E-09
  -10.4200001      -1.86649785E-09
  -10.4099998      -1.83117288E-09
  -10.3999996      -1.79711079E-09
  -10.3900003      -1.76423065E-09
  -10.3800001      -1.73246828E-09
  -10.3699999      -1.70176306E-09
  -10.3599997      -1.67204894E-09
  -10.3500004      -1.64329772E-09
  -10.3400002      -1.61548541E-09
  -10.3299999      -1.58860403E-09
  -10.3199997      -1.56268054E-09
  -10.3100004      -1.53773450E-09
  -10.3000002      -1.51381219E-09
  -10.2900000      -1.49095958E-09
  -10.2799997      -1.46924239E-09
  -10.2700005      -1.44871160E-09
  -10.2600002      -1.42943368E-09
  -10.2500000      -1.41146661E-09
  -10.2399998      -1.39486622E-09
  -10.2299995      -1.37968037E-09
  -10.2200003      -1.36594158E-09
  -10.2100000      -1.35368960E-09
  -10.1999998      -1.34296518E-09
  -10.1899996      -1.33381117E-09
  -10.1800003      -1.32623668E-09
  -10.1700001      -1.32030420E-09
  -10.1599998      -1.31604572E-09
  -10.1499996      -1.31349354E-09
  -10.1400003      -1.31271882E-09
  -10.1300001      -1.31377542E-09
  -10.1199999      -1.31671440E-09
  -10.1099997      -1.32160805E-09
  -10.1000004      -1.32850475E-09
  -10.0900002      -1.33745304E-09
  -10.0799999      -1.34850386E-09
  -10.0699997      -1.36168998E-09
  -10.0600004      -1.37705403E-09
  -10.0500002      -1.39462786E-09
  -10.0400000      -1.41444889E-09
  -10.0299997      -1.43654399E-09
  -10.0200005      -1.46094004E-09
  -10.0100002      -1.48767243E-09
  -10.0000000      -1.51678603E-09
  -9.98999977      -1.54829860E-09
  -9.97999954      -1.58227698E-09
  -9.97000027      -1.61874936E-09
  -9.96000004      -1.65777014E-09
  -9.94999981      -1.69937042E-09
  -9.93999958      -1.74358172E-09
  -9.93000031      -1.79042337E-09
  -9.92000008      -1.83993443E-09
  -9.90999985      -1.89215066E-09
  -9.89999962      -1.94706962E-09
  -9.89000034      -2.00473149E-09
  -9.88000011      -2.06516582E-09
  -9.86999989      -2.12840723E-09
  -9.85999966      -2.19447993E-09
  -9.85000038      -2.26339414E-09
  -9.84000015      -2.33518560E-09
  -9.82999992      -2.40987119E-09
  -9.81999969      -2.48743048E-09
  -9.81000042      -2.56789323E-09
  -9.80000019      -2.65126832E-09
  -9.78999996      -2.73755729E-09
  -9.77999973      -2.82680124E-09
  -9.77000046      -2.91900615E-09
  -9.76000023      -3.01422598E-09
  -9.75000000      -3.11246984E-09
  -9.73999977      -3.21378169E-09
  -9.72999954      -3.31817973E-09
  -9.72000027      -3.42567086E-09
  -9.71000004      -3.53622087E-09
  -9.69999981      -3.64979758E-09
  -9.68999958      -3.76632991E-09
  -9.68000031      -3.88570109E-09
  -9.67000008      -4.00778122E-09
  -9.65999985      -4.13239931E-09
  -9.64999962      -4.25933511E-09
  -9.64000034      -4.38834036E-09
  -9.63000011      -4.51915660E-09
  -9.61999989      -4.65148675E-09
  -9.60999966      -4.78500572E-09
  -9.60000038      -4.91935559E-09
  -9.59000015      -5.05423259E-09
  -9.57999992      -5.18925170E-09
  -9.56999969      -5.32408162E-09
  -9.56000042      -5.45841949E-09
  -9.55000019      -5.59195357E-09
  -9.53999996      -5.72443115E-09
  -9.52999973      -5.85563864E-09
  -9.52000046      -5.98538064E-09
  -9.51000023      -6.11350837E-09
  -9.50000000      -6.23988283E-09
  -9.48999977      -6.36439434E-09
  -9.47999954      -6.48697229E-09
  -9.47000027      -6.60751009E-09
  -9.46000004      -6.72595224E-09
  -9.44999981      -6.84220813E-09
  -9.43999958      -6.95621249E-09
  -9.43000031      -7.06792536E-09
  -9.42000008      -7.17730542E-09
  -9.40999985      -7.28432070E-09
  -9.39999962      -7.38896899E-09
  -9.39000034      -7.49125117E-09
  -9.38000011      -7.59121122E-09
  -9.36999989      -7.68891795E-09
  -9.35999966      -7.78443265E-09
  -9.35000038      -7.87788768E-09
  -9.34000015      -7.96944466E-09
  -9.32999992      -8.05931766E-09
  -9.31999969      -8.14772516E-09
  -9.31000042      -8.23496382E-09
  -9.30000019      -8.32138980E-09
  -9.28999996      -8.40732994E-09
  -9.27999973      -8.49314485E-09
  -9.27000046      -8.57929638E-09
  -9.26000023      -8.66617000E-09
  -9.25000000      -8.75419737E-09
  -9.23999977      -8.84378260E-09
  -9.22999954      -8.93529783E-09
  -9.22000027      -9.02917385E-09
  -9.21000004      -9.12572684E-09
  -9.19999981      -9.22530763E-09
  -9.18999958      -9.32819422E-09
  -9.18000031      -9.43468503E-09
  -9.17000008      -9.54497015E-09
  -9.15999985      -9.65923963E-09
  -9.14999962      -9.77760273E-09
  -9.14000034      -9.90016158E-09
  -9.13000011      -1.00269464E-08
  -9.11999989      -1.01579438E-08
  -9.10999966      -1.02931024E-08
  -9.10000038      -1.04323750E-08
  -9.09000015      -1.05755937E-08
  -9.07999992      -1.07225846E-08
  -9.06999969      -1.08732463E-08
  -9.06000042      -1.10272511E-08
  -9.05000019      -1.11843805E-08
  -9.03999996      -1.13444134E-08
  -9.02999973      -1.15069598E-08
  -9.02000046      -1.16717258E-08
  -9.01000023      -1.18383525E-08
  -9.00000000      -1.20064936E-08
  -8.98999977      -1.21756871E-08
  -8.97999954      -1.23455441E-08
  -8.97000027      -1.25156676E-08
  -8.96000004      -1.26856357E-08
  -8.94999981      -1.28550282E-08
  -8.93999958      -1.30235094E-08
  -8.93000031      -1.31906397E-08
  -8.92000008      -1.33561580E-08
  -8.90999985      -1.35197480E-08
  -8.89999962      -1.36810989E-08
  -8.89000034      -1.38399745E-08
  -8.88000011      -1.39961571E-08
  -8.86999989      -1.41494318E-08
  -8.85999966      -1.42996477E-08
  -8.85000038      -1.44466386E-08
  -8.84000015      -1.45902792E-08
  -8.82999992      -1.47304906E-08
  -8.81999969      -1.48672461E-08
  -8.81000042      -1.50005519E-08
  -8.80000019      -1.51304445E-08
  -8.78999996      -1.52570081E-08
  -8.77999973      -1.53804027E-08
  -8.77000046      -1.55008468E-08
  -8.76000023      -1.56186264E-08
  -8.75000000      -1.57339084E-08
  -8.73999977      -1.58471245E-08
  -8.72999954      -1.59586797E-08
  -8.72000027      -1.60690181E-08
  -8.71000004      -1.61786691E-08
  -8.69999981      -1.62882063E-08
  -8.68999958      -1.63982072E-08
  -8.68000031      -1.65093237E-08
  -8.67000008      -1.66221348E-08
  -8.65999985      -1.67373368E-08
  -8.64999962      -1.68554912E-08
  -8.64000034      -1.69771859E-08
  -8.63000011      -1.71030052E-08
  -8.61999989      -1.72334271E-08
  -8.60999966      -1.73689472E-08
  -8.60000038      -1.75099384E-08
  -8.59000015      -1.76569053E-08
  -8.57999992      -1.78100592E-08
  -8.56999969      -1.79696880E-08
  -8.56000042      -1.81359763E-08
  -8.55000019      -1.83090521E-08
  -8.53999996      -1.84890148E-08
  -8.52999973      -1.86758005E-08
  -8.52000046      -1.88693807E-08
  -8.51000023      -1.90696188E-08
  -8.50000000      -1.92763991E-08
  -8.48999977      -1.94896366E-08
  -8.47999954      -1.97090113E-08
  -8.47000027      -1.99344647E-08
  -8.46000004      -2.01657464E-08
  -8.44999981      -2.04026946E-08
  -8.43999958      -2.06451052E-08
  -8.43000031      -2.08928732E-08
  -8.42000008      -2.11457944E-08
  -8.40999985      -2.14038014E-08
  -8.39999962      -2.16665992E-08
  -8.39000034      -2.19341185E-08
  -8.38000011      -2.22063061E-08
  -8.36999989      -2.24830572E-08
  -8.35999966      -2.27642953E-08
  -8.35000038      -2.30499335E-08
  -8.34000015      -2.33399415E-08
  -8.32999992      -2.36342057E-08
  -8.31999969      -2.39326905E-08
  -8.31000042      -2.42353018E-08
  -8.30000019      -2.45419081E-08
  -8.28999996      -2.48525716E-08
  -8.27999973      -2.51672105E-08
  -8.27000046      -2.54858463E-08
  -8.26000023      -2.58084256E-08
  -8.25000000      -2.61349520E-08
  -8.23999977      -2.64654414E-08
  -8.22999954      -2.67998690E-08
  -8.22000027      -2.71380518E-08
  -8.21000004      -2.74800591E-08
  -8.19999981      -2.78257950E-08
  -8.18999958      -2.81751085E-08
  -8.18000031      -2.85279800E-08
  -8.17000008      -2.88842124E-08
  -8.15999985      -2.92437896E-08
  -8.14999962      -2.96065785E-08
  -8.14000034      -2.99723872E-08
  -8.13000011      -3.03409529E-08
  -8.11999989      -3.07121191E-08
  -8.10999966      -3.10856123E-08
  -8.10000038      -3.14612336E-08
  -8.09000015      -3.18385638E-08
  -8.07999992      -3.22173896E-08
  -8.06999969      -3.25973843E-08
  -8.06000042      -3.29781571E-08
  -8.05000019      -3.33594592E-08
  -8.03999996      -3.37408750E-08
  -8.02999973      -3.41220137E-08
  -8.02000046      -3.45022748E-08
  -8.01000023      -3.48812996E-08
  -8.00000000      -3.52586937E-08
  -7.98999977      -3.56336329E-08
  -7.98000002      -3.60056163E-08
  -7.96999979      -3.63740291E-08
  -7.96000004      -3.67383812E-08
  -7.94999981      -3.70979407E-08
  -7.94000006      -3.74521605E-08
  -7.92999983      -3.78004827E-08
  -7.92000008      -3.81422147E-08
  -7.90999985      -3.84767596E-08
  -7.90000010      -3.88036057E-08
  -7.88999987      -3.91221313E-08
  -7.88000011      -3.94319137E-08
  -7.86999989      -3.97325479E-08
  -7.86000013      -4.00238100E-08
  -7.84999990      -4.03051175E-08
  -7.84000015      -4.05765732E-08
  -7.82999992      -4.08378220E-08
  -7.82000017      -4.10888781E-08
  -7.80999994      -4.13296029E-08
  -7.80000019      -4.15601065E-08
  -7.78999996      -4.17802966E-08
  -7.78000021      -4.19905604E-08
  -7.76999998      -4.21908872E-08
  -7.76000023      -4.23818065E-08
  -7.75000000      -4.25637943E-08
  -7.73999977      -4.27375149E-08
  -7.73000002      -4.29032987E-08
  -7.71999979      -4.30617995E-08
  -7.71000004      -4.32134257E-08
  -7.69999981      -4.33591332E-08
  -7.69000006      -4.34996004E-08
  -7.67999983      -4.36356622E-08
  -7.67000008      -4.37680754E-08
  -7.65999985      -4.38976819E-08
  -7.65000010      -4.40255370E-08
  -7.63999987      -4.41526637E-08
  -7.63000011      -4.42801031E-08
  -7.61999989      -4.44090063E-08
  -7.61000013      -4.45404318E-08
  -7.59999990      -4.46753461E-08
  -7.59000015      -4.48145236E-08
  -7.57999992      -4.49591298E-08
  -7.57000017      -4.51100206E-08
  -7.55999994      -4.52682229E-08
  -7.55000019      -4.54346463E-08
  -7.53999996      -4.56102320E-08
  -7.53000021      -4.57962308E-08
  -7.51999998      -4.59933212E-08
  -7.51000023      -4.62025440E-08
  -7.50000000      -4.64245957E-08
  -7.48999977      -4.66601620E-08
  -7.48000002      -4.69102588E-08
  -7.46999979      -4.71756607E-08
  -7.46000004      -4.74568971E-08
  -7.44999981      -4.77550302E-08
  -7.44000006      -4.80707527E-08