  -16.0000000       0.00000000    
  -15.9899998       0.00000000    
  -15.9799995       0.00000000    
  -15.9700003       0.00000000    
  -15.9600000       0.00000000    
  -15.9499998       0.00000000    
  -15.9399996       0.00000000    
  -15.9300003       0.00000000    
  -15.9200001       0.00000000    
  -15.9099998       0.00000000    
  -15.8999996       0.00000000    
  -15.8900003       0.00000000    
  -15.8800001       0.00000000    
  -15.8699999       0.00000000    
  -15.8599997       0.00000000    
  -15.8500004       0.00000000    
  -15.8400002       0.00000000    
  -15.8299999       2.80259693E-45
  -15.8199997       1.68155816E-44
  -15.8100004       1.06498683E-43
  -15.8000002       5.59118087E-43
  -15.7900000       2.53074503E-42
  -15.7799997       9.99826454E-42
  -15.7700005       3.50282577E-41
  -15.7600002       1.09868806E-40
  -15.7500000       3.10543154E-40
  -15.7399998       7.93720674E-40
  -15.7299995       1.83499193E-39
  -15.7200003       3.82267495E-39
  -15.7100000       7.10225566E-39
  -15.6999998       1.14999787E-38
  -15.6899996       1.53441397E-38
  -15.6800003       1.39753191E-38
  -15.6700001      -1.75147454E-39
  -15.6599998      -4.55559917E-38
  -15.6499996      -1.31935546E-37
  -15.6400003      -2.65610160E-37
  -15.6300001      -4.23003533E-37
  -15.6199999      -5.29719608E-37
  -15.6099997      -4.46842063E-37
  -15.6000004       1.13835364E-38
  -15.5900002       1.00242112E-36
  -15.5799999       2.50995433E-36
  -15.5699997       4.15388810E-36
  -15.5600004       5.04507984E-36
  -15.5500002       3.84154660E-36
  -15.5400000      -8.10409062E-37
  -15.5299997      -9.34350911E-36
  -15.5200005      -1.99770386E-35
  -15.5100002      -2.76081006E-35
  -15.5000000      -2.39253321E-35
  -15.4899998      -1.09541866E-37
  -15.4799995       4.68126592E-35
  -15.4700003       1.04424042E-34
  -15.4600000       1.35886837E-34
  -15.4499998       7.98393467E-35
  -15.4399996      -1.28192790E-34
  -15.4300003      -5.01292137E-34
  -15.4200001      -9.15224841E-34
  -15.4099998      -1.02447997E-33
  -15.3999996      -2.61538631E-34
  -15.3900003       1.95699238E-33
  -15.3800001       5.70605125E-33
  -15.3699999       9.73405272E-33
  -15.3599997       1.06853759E-32
  -15.3500004       3.13783744E-33
  -15.3400002      -1.84264294E-32
  -15.3299999      -5.48011764E-32
  -15.3199997      -9.47788223E-32
  -15.3100004      -1.08518265E-31
  -15.3000002      -4.82135032E-32
  -15.2900000       1.34915166E-31
  -15.2799997       4.50656981E-31
  -15.2700005       8.11245515E-31
  -15.2600002       9.79576870E-31
  -15.2500000       5.75222377E-31
  -15.2399998      -7.96095838E-31
  -15.2299995      -3.24509115E-30
  -15.2200003      -6.17069459E-30
  -15.2100000      -7.88450818E-30
  -15.1999998      -5.64057522E-30
  -15.1899996       3.49084094E-30
  -15.1800003       2.06214916E-29
  -15.1700001       4.21704810E-29
  -15.1599998       5.73013089E-29
  -15.1499996       4.78960360E-29
  -15.1400003      -6.20551292E-30
  -15.1300001      -1.14933216E-28
  -15.1199999      -2.60127485E-28
  -15.1099997      -3.78985144E-28
  -15.1000004      -3.61739646E-28
  -15.0900002      -7.94847297E-29
  -15.0799999       5.47056597E-28
  -15.0699997       1.44447548E-27
  -15.0600004       2.28557521E-27
  -15.0500002       2.45964615E-27
  -15.0400000       1.20144604E-27
  -15.0299997      -2.05707923E-27
  -15.0200005      -7.13451658E-27
  -15.0100002      -1.25191894E-26
  -15.0000000      -1.51044784E-26
  -14.9899998      -1.06905467E-26
  -14.9799995       4.38376399E-27
  -14.9700003       3.05032020E-26
  -14.9600000       6.16605669E-26
  -14.9499998       8.35408876E-26
  -14.9399996       7.49782585E-26
  -14.9300003       1.47336907E-26
  -14.9200001      -1.06032261E-25
  -14.9099998      -2.68279588E-25
  -14.8999996      -4.13209656E-25
  -14.8900003      -4.43745550E-25
  -14.8800001      -2.49088821E-25
  -14.8699999       2.43575127E-25
  -14.8599997       9.98406225E-25
  -14.8500004       1.80632601E-24
  -14.8400002       2.26697522E-24
  -14.8299999       1.86197798E-24
  -14.8199997       1.47048800E-25
  -14.8100004      -2.95413933E-24
  -14.8000002      -6.83857918E-24
  -14.7900000      -1.00484676E-23
  -14.7799997      -1.04205670E-23
  -14.7700005      -5.70946837E-24
  -14.7600002       5.31161150E-24
  -14.7500000       2.15139045E-23
  -14.7399998       3.83649753E-23
  -14.7299995       4.78956583E-23
  -14.7200003       4.03705248E-23
  -14.7100000       7.94130890E-24
  -14.6999998      -5.02473473E-23
  -14.6899996      -1.23086851E-22
  -14.6800003      -1.85184832E-22
  -14.6700001      -1.99983989E-22
  -14.6599998      -1.30183784E-22
  -14.6499996       4.50493630E-23
  -14.6400003       3.10141712E-22
  -14.6300001       5.98210163E-22
  -14.6199999       7.91147920E-22
  -14.6099997       7.43436401E-22
  -14.6000004       3.32437673E-22
  -14.5900002      -4.72708527E-22
  -14.5799999      -1.54435832E-21
  -14.5699997      -2.56313868E-21
  -14.5600004      -3.05164518E-21
  -14.5500002      -2.49665424E-21
  -14.5400000      -5.53715883E-22
  -14.5299997       2.71157701E-21
  -14.5200005       6.63138863E-21
  -14.5100002       9.90122269E-21
  -14.5000000       1.07995150E-20
  -14.4899998       7.69712320E-21
  -14.4799995      -2.12983180E-22
  -14.4700003      -1.21630616E-20
  -14.4600000      -2.53382159E-20
  -14.4499998      -3.50164843E-20
  -14.4399996      -3.55580841E-20
  -14.4300003      -2.22421144E-20
  -14.4200001       6.39856556E-21
  -14.4099998       4.64561983E-20
  -14.3999996       8.76890355E-20
  -14.3900003       1.14632111E-19
  -14.3800001       1.10261806E-19
  -14.3699999       6.18996248E-20
  -14.3599997      -3.19747991E-20
  -14.3500004      -1.56253810E-19
  -14.3400002      -2.77751430E-19
  -14.3299999      -3.50010826E-19
  -14.3199997      -3.25127605E-19
  -14.3100004      -1.70985264E-19
  -14.3000002       1.10387279E-19
  -14.2900000       4.69732554E-19
  -14.2799997       8.09665425E-19
  -14.2700005       1.00099442E-18
  -14.2600002       9.16857848E-19
  -14.2500000       4.78972161E-19
  -14.2399998      -2.96213403E-19
  -14.2299995      -1.26802425E-18
  -14.2200003      -2.17522983E-18
  -14.2100000      -2.68332800E-18
  -14.1999998      -2.47404799E-18
  -14.1899996      -1.36032747E-18
  -14.1800003       6.04508658E-19
  -14.1700001       3.06295923E-18
  -14.1599998       5.37168815E-18
  -14.1499996       6.72227929E-18
  -14.1400003       6.35610049E-18
  -14.1300001       3.83043353E-18
  -14.1199999      -7.37288517E-19
  -14.1099997      -6.53481163E-18
  -14.1000004      -1.21069546E-17
  -14.0900002      -1.56314570E-17
  -14.0799999      -1.53930520E-17
  -14.0699997      -1.03579862E-17
  -14.0600004      -6.91741988E-19
  -14.0500002       1.19610532E-17
  -14.0400000       2.45867625E-17
  -14.0299997       3.33696670E-17
  -14.0200005       3.46541362E-17
  -14.0100002       2.61000679E-17
  -14.0000000       7.72016186E-18
  -13.9899998      -1.75499999E-17
  -13.9799995      -4.40333816E-17
  -13.9700003      -6.43612426E-17
  -13.9600000      -7.12664934E-17
  -13.9499998      -5.97410220E-17
  -13.9399996      -2.89861259E-17
  -13.9300003       1.64705672E-17
  -13.9200001       6.69930799E-17
  -13.9099998       1.09588448E-16
  -13.8999996       1.30969280E-16
  -13.8900003       1.21272870E-16
  -13.8800001       7.74678797E-17
  -13.8699999       5.40123876E-18
  -13.8599997      -8.03413199E-17
  -13.8500004      -1.59082198E-16
  -13.8400002      -2.08843676E-16
  -13.8299999      -2.12237591E-16
  -13.8199997      -1.61923980E-16
  -13.8100004      -6.40109416E-17
  -13.8000002       6.18670747E-17
  -13.7900000       1.86263286E-16
  -13.7799997       2.76852851E-16
  -13.7700005       3.07002274E-16
  -13.7600002       2.63707641E-16
  -13.7500000       1.52538206E-16
  -13.7399998      -2.18734058E-18
  -13.7299995      -1.62572000E-16
  -13.7200003      -2.86727323E-16
  -13.7100000      -3.40425665E-16
  -13.6999998      -3.07581512E-16
  -13.6899996      -1.96306384E-16
  -13.6800003      -3.82438354E-17
  -13.6700001       1.19337890E-16
  -13.6599998       2.27068119E-16
  -13.6499996       2.49065644E-16
  -13.6400003       1.75979314E-16
  -13.6300001       3.10584813E-17
  -13.6199999      -1.33581940E-16
  -13.6099997      -2.50672360E-16
  -13.6000004      -2.58566866E-16
  -13.5900002      -1.23566305E-16
  -13.5799999       1.43031955E-16
  -13.5699997       4.79381526E-16
  -13.5600004       7.82690948E-16
  -13.5500002       9.33606385E-16
  -13.5400000       8.30476365E-16
  -13.5299997       4.24885544E-16
  -13.5200005      -2.51888355E-16
  -13.5100002      -1.08078799E-15
  -13.5000000      -1.87068052E-15
  -13.4899998      -2.39728324E-15
  -13.4799995      -2.45811142E-15
  -13.4700003      -1.93076459E-15
  -13.4600000      -8.19183933E-16
  -13.4499998       7.26195174E-16
  -13.4399996       2.42322912E-15
  -13.4300003       3.90833411E-15
  -13.4200001       4.81344768E-15
  -13.4099998       4.85298549E-15
  -13.3999996       3.89989258E-15
  -13.3900003       2.03080808E-15
  -13.3800001      -4.73294535E-16
  -13.3699999      -3.17420091E-15
  -13.3599997      -5.56259157E-15
  -13.3500004      -7.16411319E-15
  -13.3400002      -7.64043793E-15
  -13.3299999      -6.86081568E-15
  -13.3199997      -4.92673241E-15
  -13.3100004      -2.14422388E-15
  -13.3000002       1.04788246E-15
  -13.2900000       4.17379212E-15
  -13.2799997       6.81452109E-15
  -13.2700005       8.67480831E-15
  -13.2600002       9.60714933E-15
  -13.2500000       9.59080414E-15
  -13.2399998       8.67848443E-15
  -13.2299995       6.93473243E-15
  -13.2200003       4.39366408E-15
  -13.2100000       1.05815644E-15
  -13.1999998      -3.05163397E-15
  -13.1899996      -7.81135732E-15
  -13.1800003      -1.28960470E-14
  -13.1700001      -1.77140932E-14
  -13.1599998      -2.14108719E-14
  -13.1499996      -2.29673627E-14
  -13.1400003      -2.13942870E-14
  -13.1300001      -1.59919888E-14
  -13.1199999      -6.61936216E-15
  -13.1099997       6.10066756E-15
  -13.1000004       2.07092593E-14
  -13.0900002       3.50215903E-14
  -13.0799999       4.64283661E-14
  -13.0699997       5.23515998E-14
  -13.0600004       5.07734757E-14
  -13.0500002       4.07286374E-14
  -13.0400000       2.26447262E-14
  -13.0299997      -1.56082433E-15
  -13.0200005      -2.86730343E-14
  -13.0100002      -5.46444197E-14
  -13.0000000      -7.52549810E-14
  -12.9899998      -8.68424459E-14
  -12.9799995      -8.69583404E-14
  -12.9700003      -7.48186032E-14
  -12.9600000      -5.14608362E-14
  -12.9499998      -1.95842149E-14
  -12.9399996       1.68840382E-14
  -12.9300003       5.33960998E-14
  -12.9200001       8.54364729E-14
  -12.9099998       1.09095831E-13
  -12.8999996       1.21476830E-13
  -12.8900003       1.20897568E-13
  -12.8800001       1.06916524E-13
  -12.8699999       8.02463226E-14
  -12.8599997       4.26386323E-14
  -12.8500004      -3.19552433E-15
  -12.8400002      -5.36106871E-14
  -12.8299999      -1.04036510E-13
  -12.8199997      -1.49060194E-13
  -12.8100004      -1.82691915E-13
  -12.8000002      -1.98901496E-13
  -12.7900000      -1.92451523E-13
  -12.7799997      -1.59956616E-13
  -12.7700005      -1.00995343E-13
  -12.7600002      -1.90217359E-14
  -12.7500000       7.82032249E-14
  -12.7399998       1.78899796E-13
  -12.7299995       2.68401051E-13
  -12.7200003       3.31085880E-13
  -12.7100000       3.52881244E-13
  -12.6999998       3.23937979E-13
  -12.6899996       2.40985590E-13
  -12.6800003       1.08868792E-13
  -12.6700001      -5.91245464E-14
  -12.6599998      -2.42337644E-13
  -12.6499996      -4.15161612E-13
  -12.6400003      -5.50478608E-13
  -12.6300001      -6.23612598E-13
  -12.6199999      -6.16159142E-13
  -12.6099997      -5.19080167E-13
  -12.6000004      -3.34581782E-13
  -12.5900002      -7.64995841E-14
  -12.5799999       2.30821737E-13
  -12.5699997       5.54942323E-13
  -12.5600004       8.58648276E-13
  -12.5500002       1.10372215E-12
  -12.5400000       1.25472657E-12
  -12.5299997       1.28246057E-12
  -12.5200005       1.16687790E-12
  -12.5100002       8.99378445E-13
  -12.5000000       4.84449828E-13
  -12.4899998      -5.93463606E-14
  -12.4799995      -6.99108198E-13
  -12.4700003      -1.38816747E-12
  -12.4600000      -2.06769107E-12
  -12.4499998      -2.66948204E-12
  -12.4399996      -3.12005435E-12
  -12.4300003      -3.34587631E-12
  -12.4200001      -3.27943922E-12
  -12.4099998      -2.86554461E-12
  -12.3999996      -2.06705378E-12
  -12.3900003      -8.69259525E-13
  -12.3800001       7.17845705E-13
  -12.3699999       2.65985888E-12
  -12.3599997       4.90088872E-12
  -12.3500004       7.36874537E-12
  -12.3400002       9.98162143E-12
  -12.3299999       1.26552059E-11
  -12.3199997       1.53091654E-11
  -12.3100004       1.78719158E-11
  -12.3000002       2.02830842E-11
  -12.2900000       2.24934342E-11
  -12.2799997       2.44624199E-11
  -12.2700005       2.61542107E-11
  -12.2600002       2.75328770E-11
  -12.2500000       2.85580466E-11
  -12.2399998       2.91815669E-11
  -12.2299995       2.93459840E-11
  -12.2200003       2.89850661E-11
  -12.2100000       2.80261057E-11
  -12.1999998       2.63939686E-11
  -12.1899996       2.40160270E-11
  -12.1800003       2.08274838E-11
  -12.1700001       1.67769323E-11
  -12.1599998       1.18314976E-11
  -12.1499996       5.98148657E-12
  -12.1400003      -7.55771856E-13
  -12.1300001      -8.33269998E-12
  -12.1199999      -1.66697246E-11
  -12.1099997      -2.56548654E-11
  -12.1000004      -3.51452270E-11
  -12.0900002      -4.49708153E-11
  -12.0799999      -5.49406597E-11
  -12.0699997      -6.48509926E-11
  -12.0600004      -7.44951947E-11
  -12.0500002      -8.36741024E-11
  -12.0400000      -9.22059512E-11
  -12.0299997      -9.99343108E-11
  -12.0200005      -1.06733268E-10
  -12.0100002      -1.12508988E-10
  -12.0000000      -1.17197529E-10
  -11.9899998      -1.20759625E-10
  -11.9799995      -1.23173208E-10
  -11.9700003      -1.24424970E-10
  -11.9600000      -1.24503061E-10
  -11.9499998      -1.23391034E-10
  -11.9399996      -1.21065019E-10
  -11.9300003      -1.17493390E-10
  -11.9200001      -1.12639086E-10
  -11.9099998      -1.06464081E-10
  -11.8999996      -9.89343676E-11
  -11.8900003      -9.00249736E-11
  -11.8800001      -7.97242064E-11
  -11.8699999      -6.80358131E-11
  -11.8599997      -5.49812973E-11
  -11.8500004      -4.05995862E-11
  -11.8400002      -2.49469334E-11
  -11.8299999      -8.09654600E-12
  -11.8199997       9.86146755E-12
  -11.8100004       2.88207427E-11
  -11.8000002       4.86586153E-11
  -11.7900000       6.92366928E-11
  -11.7799997       9.04022274E-11
  -11.7700005       1.11990438E-10
  -11.7600002       1.33826991E-10
  -11.7500000       1.55732038E-10
  -11.7399998       1.77523246E-10
  -11.7299995       1.99018607E-10
  -11.7200003       2.20037835E-10
  -11.7100000       2.40402226E-10
  -11.6999998       2.59933242E-10
  -11.6899996       2.78449597E-10
  -11.6800003       2.95765218E-10
  -11.6700001       3.11686565E-10
  -11.6599998       3.26013216E-10
  -11.6499996       3.38538808E-10
  -11.6400003       3.49055951E-10
  -11.6300001       3.57362279E-10
  -11.6199999       3.63267610E-10
  -11.6099997       3.66601915E-10
  -11.6000004       3.67221170E-10
  -11.5900002       3.65013103E-10
  -11.5799999       3.59899055E-10
  -11.5699997       3.51833229E-10
  -11.5600004       3.40800888E-10
  -11.5500002       3.26813104E-10
  -11.5400000       3.09901937E-10
  -11.5299997       2.90115321E-10
  -11.5200005       2.67511124E-10
  -11.5100002       2.42154963E-10
  -11.5000000       2.14115364E-10
  -11.4899998       1.83462606E-10
  -11.4799995       1.50268020E-10
  -11.4700003       1.14602591E-10
  -11.4600000       7.65371239E-11
  -11.4499998       3.61421899E-11
  -11.4399996      -6.51088601E-12
  -11.4300003      -5.13485539E-11
  -11.4200001      -9.82941992E-11
  -11.4099998      -1.47266352E-10
  -11.3999996      -1.98176489E-10
  -11.3900003      -2.50927279E-10
  -11.3800001      -3.05411751E-10
  -11.3699999      -3.61513874E-10
  -11.3599997      -4.19107360E-10
  -11.3500004      -4.78058149E-10
  -11.3400002      -5.38225631E-10
  -11.3299999      -5.99464145E-10
  -11.3199997      -6.61624144E-10
  -11.3100004      -7.24552585E-10
  -11.3000002      -7.88092758E-10
  -11.2900000      -8.52083293E-10
  -11.2799997      -9.16357878E-10
  -11.2700005      -9.80744375E-10
  -11.2600002      -1.04506703E-09
  -11.2500000      -1.10914722E-09
  -11.2399998      -1.17280763E-09
  -11.2299995      -1.23587673E-09
  -11.2200003      -1.29819322E-09
  -11.2100000      -1.35961264E-09
  -11.1999998      -1.42000978E-09
  -11.1899996      -1.47928370E-09
  -11.1800003      -1.53735891E-09
  -11.1700001      -1.59418434E-09
  -11.1599998      -1.64973479E-09
  -11.1499996      -1.70400860E-09
  -11.1400003      -1.75702153E-09
  -11.1300001      -1.80880688E-09
  -11.1199999      -1.85940452E-09
  -11.1099997      -1.90886507E-09
  -11.1000004      -1.95723726E-09
  -11.0900002      -2.00456518E-09
  -11.0799999      -2.05087991E-09
  -11.0699997      -2.09619744E-09
  -11.0600004      -2.14050910E-09
  -11.0500002      -2.18378116E-09
  -11.0400000      -2.22595209E-09
  -11.0299997      -2.26693175E-09
  -11.0200005      -2.30660402E-09
  -11.0100002      -2.34483166E-09
  -11.0000000      -2.38146636E-09
  -10.9899998      -2.41635401E-09
  -10.9799995      -2.44934539E-09
  -10.9700003      -2.48030152E-09
  -10.9600000      -2.50910648E-09
  -10.9499998      -2.53566346E-09
  -10.9399996      -2.55991206E-09
  -10.9300003      -2.58180499E-09
  -10.9200001      -2.60133515E-09
  -10.9099998      -2.61850719E-09
  -10.8999996      -2.63334377E-09
  -10.8900003      -2.64587574E-09
  -10.8800001      -2.65614664E-09
  -10.8699999      -2.66418976E-09
  -10.8599997      -2.67003575E-09
  -10.8500004      -2.67371769E-09
  -10.8400002      -2.67524958E-09
  -10.8299999      -2.67463918E-09
  -10.8199997      -2.67187938E-09
  -10.8100004      -2.66694733E-09
  -10.8000002      -2.65979216E-09
  -10.7900000      -2.65037459E-09
  -10.7799997      -2.63861777E-09
  -10.7700005      -2.62444710E-09
  -10.7600002      -2.60777022E-09
  -10.7500000      -2.58848831E-09
  -10.7399998      -2.56652988E-09
  -10.7299995      -2.54181409E-09
  -10.7200003      -2.51427412E-09
  -10.7100000      -2.48387155E-09
  -10.6999998      -2.45059040E-09
  -10.6899996      -2.41444376E-09
  -10.6800003      -2.37546294E-09
  -10.6700001      -2.33373254E-09
  -10.6599998      -2.28934427E-09
  -10.6499996      -2.24245156E-09
  -10.6400003      -2.19321006E-09
  -10.6300001      -2.14183604E-09
  -10.6199999      -2.08856532E-09
  -10.6099997      -2.03365835E-09
  -10.6000004      -1.97740047E-09
  -10.5900002      -1.92010208E-09
  -10.5799999      -1.86207283E-09
  -10.5699997      -1.80363979E-09
  -10.5600004      -1.74511894E-09
  -10.5500002      -1.68681447E-09
  -10.5400000      -1.62902913E-09
  -10.5299997      -1.57202262E-09
  -10.5200005      -1.51605084E-09
  -10.5100002      -1.46133439E-09
  -10.5000000      -1.40805700E-09
  -10.4899998      -1.35638722E-09
  -10.4799995      -1.30645406E-09
  -10.4700003      -1.25835764E-09
  -10.4600000      -1.21217569E-09
  -10.4499998      -1.16795618E-09
  -10.4399996      -1.12572240E-09
  -10.4300003      -1.08548981E-09
  -10.4200001      -1.04725462E-09
  -10.4099998      -1.01100395E-09
  -10.3999996      -9.76715375E-10
  -10.3900003      -9.44376466E-10
  -10.3800001      -9.13951581E-10
  -10.3699999      -8.85430340E-10
  -10.3599997      -8.58788707E-10
  -10.3500004      -8.34012526E-10
  -10.3400002      -8.11092582E-10
  -10.3299999      -7.90018495E-10
  -10.3199997      -7.70786324E-10
  -10.3100004      -7.53390128E-10
  -10.3000002      -7.37829020E-10
  -10.2900000      -7.24109162E-10
  -10.2799997      -7.12237491E-10
  -10.2700005      -7.02217007E-10
  -10.2600002      -6.94054036E-10
  -10.2500000      -6.87753021E-10
  -10.2399998      -6.83312740E-10
  -10.2299995      -6.80736412E-10
  -10.2200003      -6.80019985E-10
  -10.2100000      -6.81147527E-10
  -10.1999998      -6.84106161E-10
  -10.1899996      -6.88881563E-10
  -10.1800003      -6.95453917E-10
  -10.1700001      -7.03817893E-10
  -10.1599998      -7.13959447E-10
  -10.1499996      -7.25850713E-10
  -10.1400003      -7.39479533E-10
  -10.1300001      -7.54817986E-10
  -10.1199999      -7.71850917E-10
  -10.1099997      -7.90531529E-10
  -10.1000004      -8.10846223E-10
  -10.0900002      -8.32766522E-10
  -10.0799999      -8.56254623E-10
  -10.0699997      -8.81312079E-10
  -10.0600004      -9.07927677E-10
  -10.0500002      -9.36121847E-10
  -10.0400000      -9.65936331E-10
  -10.0299997      -9.97421923E-10
  -10.0200005      -1.03066577E-09
  -10.0100002      -1.06575049E-09
  -10.0000000      -1.10275200E-09
  -9.98999977      -1.14178100E-09
  -9.97999954      -1.18292054E-09
  -9.97000027      -1.22625421E-09
  -9.96000004      -1.27183530E-09
  -9.94999981      -1.31969380E-09
  -9.93999958      -1.36982803E-09
  -9.93000031      -1.42222523E-09
  -9.92000008      -1.47685009E-09
  -9.90999985      -1.53362933E-09
  -9.89999962      -1.59246405E-09
  -9.89000034      -1.65324587E-09
  -9.88000011      -1.71587156E-09
  -9.86999989      -1.78022153E-09
  -9.85999966      -1.84620297E-09
  -9.85000038      -1.91370009E-09
  -9.84000015      -1.98264072E-09
  -9.82999992      -2.05299289E-09
  -9.81999969      -2.12472684E-09
  -9.81000042      -2.19784924E-09
  -9.80000019      -2.27237540E-09
  -9.78999996      -2.34833397E-09
  -9.77999973      -2.42576781E-09
  -9.77000046      -2.50472332E-09
  -9.76000023      -2.58523292E-09
  -9.75000000      -2.66733147E-09
  -9.73999977      -2.75103718E-09
  -9.72999954      -2.83635471E-09
  -9.72000027      -2.92324898E-09
  -9.71000004      -3.01170511E-09
  -9.69999981      -3.10164916E-09
  -9.68999958      -3.19300519E-09
  -9.68000031      -3.28568239E-09
  -9.67000008      -3.37954575E-09
  -9.65999985      -3.47450313E-09
  -9.64999962      -3.57043151E-09
  -9.64000034      -3.66720498E-09
  -9.63000011      -3.76468812E-09
  -9.61999989      -3.86278831E-09
  -9.60999966      -3.96135480E-09
  -9.60000038      -4.06027301E-09
  -9.59000015      -4.15941726E-09
  -9.57999992      -4.25863034E-09
  -9.56999969      -4.35777414E-09
  -9.56000042      -4.45672033E-09
  -9.55000019      -4.55532234E-09
  -9.53999996      -4.65341321E-09
  -9.52999973      -4.75086770E-09
  -9.52000046      -4.84752283E-09
  -9.51000023      -4.94325736E-09
  -9.50000000      -5.03797626E-09
  -9.48999977      -5.13157028E-09
  -9.47999954      -5.22395149E-09
  -9.47000027      -5.31503286E-09
  -9.46000004      -5.40478062E-09
  -9.44999981      -5.49311618E-09
  -9.43999958      -5.58003199E-09
  -9.43000031      -5.66549030E-09
  -9.42000008      -5.74944714E-09
  -9.40999985      -5.83191850E-09
  -9.39999962      -5.91286708E-09
  -9.39000034      -5.99233685E-09
  -9.38000011      -6.07032780E-09
  -9.36999989      -6.14690698E-09
  -9.35999966      -6.22213392E-09
  -9.35000038      -6.29614005E-09
  -9.34000015      -6.36903952E-09
  -9.32999992      -6.44097620E-09
  -9.31999969      -6.51216059E-09
  -9.31000042      -6.58278143E-09
  -9.30000019      -6.65303679E-09
  -9.28999996      -6.72319578E-09
  -9.27999973      -6.79350443E-09
  -9.27000046      -6.86424251E-09
  -9.26000023      -6.93565116E-09
  -9.25000000      -7.00801639E-09
  -9.23999977      -7.08160197E-09
  -9.22999954      -7.15668813E-09
  -9.22000027      -7.23352178E-09
  -9.21000004      -7.31230942E-09
  -9.19999981      -7.39326023E-09
  -9.18999958      -7.47651274E-09
  -9.18000031      -7.56218199E-09
  -9.17000008      -7.65032038E-09
  -9.15999985      -7.74101316E-09
  -9.14999962      -7.83420884E-09
  -9.14000034      -7.92990473E-09
  -9.13000011      -8.02799960E-09
  -9.11999989      -8.12841616E-09
  -9.10999966      -8.23096347E-09
  -9.10000038      -8.33551717E-09
  -9.09000015      -8.44184456E-09
  -9.07999992      -8.54974846E-09
  -9.06999969      -8.65892780E-09
  -9.06000042      -8.76913475E-09
  -9.05000019      -8.88010465E-09
  -9.03999996      -8.99155594E-09
  -9.02999973      -9.10324971E-09
  -9.02000046      -9.21493726E-09
  -9.01000023      -9.32639210E-09
  -9.00000000      -9.43739398E-09
  -8.98999977      -9.54770574E-09
  -8.97999954      -9.65721281E-09
  -8.97000027      -9.76565318E-09
  -8.96000004      -9.87290161E-09
  -8.94999981      -9.97878669E-09
  -8.93999958      -1.00831166E-08
  -8.93000031      -1.01857811E-08
  -8.92000008      -1.02865618E-08
  -8.90999985      -1.03853397E-08
  -8.89999962      -1.04820499E-08
  -8.89000034      -1.05765272E-08
  -8.88000011      -1.06687645E-08
  -8.86999989      -1.07586349E-08
  -8.85999966      -1.08461133E-08
  -8.85000038      -1.09311653E-08
  -8.84000015      -1.10138698E-08
  -8.82999992      -1.10942766E-08
  -8.81999969      -1.11724692E-08
  -8.81000042      -1.12486438E-08
  -8.80000019      -1.13229790E-08
  -8.78999996      -1.13957475E-08
  -8.77999973      -1.14672440E-08
  -8.77000046      -1.15378631E-08
  -8.76000023      -1.16079582E-08
  -8.75000000      -1.16778907E-08
  -8.73999977      -1.17481376E-08
  -8.72999954      -1.18192496E-08
  -8.72000027      -1.18916672E-08
  -8.71000004      -1.19659598E-08
  -8.69999981      -1.20426717E-08
  -8.68999958      -1.21224986E-08
  -8.68000031      -1.22059403E-08
  -8.67000008      -1.22937038E-08
  -8.65999985      -1.23862769E-08
  -8.64999962      -1.24842092E-08
  -8.64000034      -1.25880453E-08
  -8.63000011      -1.26981581E-08
  -8.61999989      -1.28149713E-08
  -8.60999966      -1.29387496E-08
  -8.60000038      -1.30697710E-08
  -8.59000015      -1.32081901E-08
  -8.57999992      -1.33540592E-08
  -8.56999969      -1.35075089E-08
  -8.56000042      -1.36684379E-08
  -8.55000019      -1.38368259E-08
  -8.53999996      -1.40124978E-08
  -8.52999973      -1.41952370E-08
  -8.52000046      -1.43848657E-08
  -8.51000023      -1.45811443E-08
  -8.50000000      -1.47838009E-08
  -8.48999977      -1.49925405E-08
  -8.47999954      -1.52070285E-08
  -8.47000027      -1.54270072E-08
  -8.46000004      -1.56521160E-08
  -8.44999981      -1.58820352E-08
  -8.43999958      -1.61164806E-08
  -8.43000031      -1.63550844E-08
  -8.42000008      -1.65975926E-08
  -8.40999985      -1.68436820E-08
  -8.39999962      -1.70931997E-08
  -8.39000034      -1.73459327E-08
  -8.38000011      -1.76016890E-08
  -8.36999989      -1.78603106E-08
  -8.35999966      -1.81216731E-08
  -8.35000038      -1.83856752E-08
  -8.34000015      -1.86522300E-08
  -8.32999992      -1.89212788E-08
  -8.31999969      -1.91925640E-08
  -8.31000042      -1.94661780E-08
  -8.30000019      -1.97420977E-08
  -8.28999996      -2.00202166E-08
  -8.27999973      -2.03007495E-08
  -8.27000046      -2.05836912E-08
  -8.26000023      -2.08689244E-08
  -8.25000000      -2.11564810E-08
  -8.23999977      -2.14463061E-08
  -8.22999954      -2.17383054E-08
  -8.22000027      -2.20324008E-08
  -8.21000004      -2.23285390E-08
  -8.19999981      -2.26266046E-08
  -8.18999958      -2.29264892E-08
  -8.18000031      -2.32279849E-08
  -8.17000008      -2.35310313E-08
  -8.15999985      -2.38353604E-08
  -8.14999962      -2.41408973E-08
  -8.14000034      -2.44472851E-08
  -8.13000011      -2.47542289E-08
  -8.11999989      -2.50613752E-08
  -8.10999966      -2.53684131E-08
  -8.10000038      -2.56749839E-08
  -8.09000015      -2.59806718E-08
  -8.07999992      -2.62850133E-08
  -8.06999969      -2.65878128E-08
  -8.06000042      -2.68886833E-08
  -8.05000019      -2.71870544E-08
  -8.03999996      -2.74826135E-08
  -8.02999973      -2.77748207E-08
  -8.02000046      -2.80632246E-08
  -8.01000023      -2.83473547E-08
  -8.00000000      -2.86267436E-08
  -7.98999977      -2.89008746E-08
  -7.98000002      -2.91692448E-08
  -7.96999979      -2.94315576E-08
  -7.96000004      -2.96872305E-08
  -7.94999981      -2.99358724E-08
  -7.94000006      -3.01771443E-08
  -7.92999983      -3.04104297E-08
  -7.92000008      -3.06352206E-08
  -7.90999985      -3.08512540E-08
  -7.90000010      -3.10581392E-08
  -7.88999987      -3.12554249E-08
  -7.88000011      -3.14426778E-08
  -7.86999989      -3.16197983E-08
  -7.86000013      -3.17863851E-08
  -7.84999990      -3.19423314E-08
  -7.84000015      -3.20875344E-08
  -7.82999992      -3.22218909E-08
  -7.82000017      -3.23454685E-08
  -7.80999994      -3.24582565E-08
  -7.80000019      -3.25604610E-08
  -7.78999996      -3.26524017E-08
  -7.78000021      -3.27343948E-08
  -7.76999998      -3.28070051E-08
  -7.76000023      -3.28709859E-08
  -7.75000000      -3.29269696E-08
  -7.73999977      -3.29755885E-08
  -7.73000002      -3.30179262E-08
  -7.71999979      -3.30547536E-08
  -7.71000004      -3.30870087E-08
  -7.69999981      -3.31155228E-08
  -7.69000006      -3.31414860E-08
  -7.67999983      -3.31657155E-08
  -7.67000008      -3.31891421E-08
  -7.65999985      -3.32128529E-08
  -7.65000010      -3.32378711E-08
  -7.63999987      -3.32649890E-08
  -7.63000011      -3.32952901E-08
  -7.61999989      -3.33294494E-08
  -7.61000013      -3.33685080E-08
  -7.59999990      -3.34131407E-08
  -7.59000015      -3.34641328E-08
  -7.57999992      -3.35222587E-08
  -7.57000017      -3.35883641E-08
  -7.55999994      -3.36632944E-08
  -7.55000019      -3.37476322E-08
  -7.53999996      -3.38422232E-08
  -7.53000021      -3.39477957E-08
  -7.51999998      -3.40653692E-08
  -7.51000023      -3.41954909E-08
  -7.50000000      -3.43388393E-08
  -7.48999977      -3.44961961E-08
  -7.48000002      -3.46680018E-08
  -7.46999979      -3.48550167E-08
  -7.46000004      -3.50577984E-08
  -7.44999981      -3.52770151E-08
  -7.44000006      -3.55133984E-08