  -16.0000000       0.00000000    
  -15.9899998       0.00000000    
  -15.9799995       0.00000000    
  -15.9700003       0.00000000    
  -15.9600000       0.00000000    
  -15.9499998       0.00000000    
  -15.9399996       0.00000000    
  -15.9300003       0.00000000    
  -15.9200001       0.00000000    
  -15.9099998       0.00000000    
  -15.8999996       0.00000000    
  -15.8900003       0.00000000    
  -15.8800001       0.00000000    
  -15.8699999       0.00000000    
  -15.8599997       0.00000000    
  -15.8500004      -0.00000000    
  -15.8400002      -0.00000000    
  -15.8299999       0.00000000    
  -15.8199997       4.20389539E-45
  -15.8100004       2.94272678E-44
  -15.8000002       1.65353219E-43
  -15.7900000       8.14154408E-43
  -15.7799997       3.44999682E-42
  -15.7700005       1.28162758E-41
  -15.7600002       4.21202292E-41
  -15.7500000       1.23385731E-40
  -15.7399998       3.23855489E-40
  -15.7299995       7.63486258E-40
  -15.7200003       1.61485075E-39
  -15.7100000       3.04444283E-39
  -15.6999998       5.03058301E-39
  -15.6899996       6.98698204E-39
  -15.6800003       7.16151937E-39
  -15.6700001       1.89595122E-39
  -15.6599998      -1.49573883E-38
  -15.6499996      -5.18406836E-38
  -15.6400003      -1.17394956E-37
  -15.6300001      -2.14558884E-37
  -15.6199999      -3.27981932E-37
  -15.6099997      -4.01693258E-37
  -15.6000004      -3.07623778E-37
  -15.5900002       1.81325992E-37
  -15.5799999       1.37186573E-36
  -15.5699997       3.50300151E-36
  -15.5600004       6.36626905E-36
  -15.5500002       8.65032259E-36
  -15.5400000       7.20939639E-36
  -15.5299997      -3.06295235E-36
  -15.5200005      -2.74816201E-35
  -15.5100002      -6.64637879E-35
  -15.5000000      -1.06708829E-34
  -15.4899998      -1.11746419E-34
  -15.4799995      -2.07759859E-35
  -15.4700003       2.29501703E-34
  -15.4600000       6.45948931E-34
  -15.4499998       1.08507083E-33
  -15.4399996       1.16502611E-33
  -15.4300003       2.79734801E-34
  -15.4200001      -2.14876988E-33
  -15.4099998      -6.08046604E-33
  -15.3999996      -1.00161141E-32
  -15.3900003      -1.03503901E-32
  -15.3800001      -1.79149417E-33
  -15.3699999       2.00999454E-32
  -15.3599997       5.37544280E-32
  -15.3500004       8.50493026E-32
  -15.3400002       8.34308409E-32
  -15.3299999       7.51816726E-33
  -15.3199997      -1.72813057E-31
  -15.3100004      -4.36545970E-31
  -15.3000002      -6.66146677E-31
  -15.2900000      -6.28333093E-31
  -15.2799997      -2.79811501E-32
  -15.2700005       1.32373999E-30
  -15.2600002       3.23213099E-30
  -15.2500000       4.83153080E-30
  -15.2399998       4.50473171E-30
  -15.2299995       3.01417440E-31
  -15.2200003      -8.92460138E-30
  -15.2100000      -2.17583365E-29
  -15.1999998      -3.25217857E-29
  -15.1899996      -3.09623452E-29
  -15.1800003      -5.00141249E-30
  -15.1700001       5.23481060E-29
  -15.1599998       1.32712558E-28
  -15.1499996       2.02770547E-28
  -15.1400003       2.02820669E-28
  -15.1300001       6.24114210E-29
  -15.1199999      -2.61499012E-28
  -15.1099997      -7.28790380E-28
  -15.1000004      -1.16432393E-27
  -15.0900002      -1.24843083E-27
  -15.0799999      -5.94533755E-28
  -15.0699997       1.05906560E-27
  -15.0600004       3.56714196E-27
  -15.0500002       6.10827055E-27
  -15.0400000       7.11130989E-27
  -15.0299997       4.59097325E-27
  -15.0200005      -2.97319961E-27
  -15.0100002      -1.53076148E-26
  -15.0000000      -2.90115647E-26
  -14.9899998      -3.70277288E-26
  -14.9799995      -2.98790035E-26
  -14.9700003       6.68996466E-28
  -14.9600000       5.57891060E-26
  -14.9499998       1.23360910E-25
  -14.9399996       1.74628820E-25
  -14.9300003       1.67849534E-25
  -14.9200001       6.20542332E-26
  -14.9099998      -1.59410670E-25
  -14.8999996      -4.61642043E-25
  -14.8900003      -7.39707771E-25
  -14.8800001      -8.25336404E-25
  -14.8699999      -5.32766679E-25
  -14.8599997       2.53914949E-25
  -14.8500004       1.47040350E-24
  -14.8400002       2.78191818E-24
  -14.8299999       3.57416034E-24
  -14.8199997       3.08390676E-24
  -14.8100004       6.92688752E-25
  -14.8000002      -3.66238930E-24
  -14.7900000      -9.09578239E-24
  -14.7799997      -1.36090308E-23
  -14.7700005      -1.43797352E-23
  -14.7600002      -8.63918102E-24
  -14.7500000       4.93720904E-24
  -14.7399998       2.47007701E-23
  -14.7299995       4.50242015E-23
  -14.7200003       5.66136694E-23
  -14.7100000       4.87536140E-23
  -14.6999998       1.35249492E-23
  -14.6899996      -4.88771559E-23
  -14.6800003      -1.25602269E-22
  -14.6700001      -1.89922655E-22
  -14.6599998      -2.05709580E-22
  -14.6499996      -1.38634643E-22
  -14.6400003       2.74087386E-23
  -14.6300001       2.73324148E-22
  -14.6199999       5.34587382E-22
  -14.6099997       7.05799986E-22
  -14.6000004       6.65516432E-22
  -14.5900002       3.20633159E-22
  -14.5799999      -3.39279483E-22
  -14.5699997      -1.19630269E-21
  -14.5600004      -1.99090862E-21
  -14.5500002      -2.36220872E-21
  -14.5400000      -1.94987513E-21
  -14.5299997      -5.43619625E-22
  -14.5200005       1.76022843E-21
  -14.5100002       4.45658459E-21
  -14.5000000       6.65013146E-21
  -14.4899998       7.24006876E-21
  -14.4799995       5.26848700E-21
  -14.4700003       3.62425924E-22
  -14.4600000      -6.86725991E-21
  -14.4499998      -1.46463120E-20
  -14.4399996      -2.02374858E-20
  -14.4300003      -2.05965436E-20
  -14.4200001      -1.34109314E-20
  -14.4099998       1.72874669E-21
  -14.3999996       2.24215690E-20
  -14.3900003       4.32594102E-20
  -14.3800001       5.66818859E-20
  -14.3699999       5.49521284E-20
  -14.3599997       3.29261052E-20
  -14.3500004      -9.12478605E-21
  -14.3400002      -6.36567762E-20
  -14.3299999      -1.15977236E-19
  -14.3199997      -1.46982343E-19
  -14.3100004      -1.38403007E-19
  -14.3000002      -7.95120255E-20
  -14.2900000       2.66189241E-20
  -14.2799997       1.59669097E-19
  -14.2700005       2.83523212E-19
  -14.2600002       3.53644191E-19
  -14.2500000       3.29608752E-19
  -14.2399998       1.90028060E-19
  -14.2299995      -5.45580544E-20
  -14.2200003      -3.55794008E-19
  -14.2100000      -6.32611189E-19
  -14.1999998      -7.88667135E-19
  -14.1899996      -7.39662060E-19
  -14.1800003      -4.44097968E-19
  -14.1700001       7.17905142E-20
  -14.1599998       7.04646109E-19
  -14.1499996       1.28716365E-18
  -14.1400003       1.62517467E-18
  -14.1300001       1.55249269E-18
  -14.1199999       9.90123406E-19
  -14.1099997      -8.09959585E-21
  -14.1000004      -1.24115256E-18
  -14.0900002      -2.38940074E-18
  -14.0799999      -3.08668525E-18
  -14.0699997      -3.02280851E-18
  -14.0600004      -2.05089031E-18
  -14.0500002      -2.67183655E-19
  -14.0400000       1.96715730E-18
  -14.0299997       4.08097868E-18
  -14.0200005       5.42327816E-18
  -14.0100002       5.44364914E-18
  -14.0000000       3.87776315E-18
  -13.9899998       8.82398951E-19
  -13.9799995      -2.93055512E-18
  -13.9700003      -6.59045317E-18
  -13.9600000      -8.98987913E-18
  -13.9499998      -9.18880118E-18
  -13.9399996      -6.72487912E-18
  -13.9300003      -1.83848998E-18
  -13.9200001       4.46979989E-18
  -13.9099998       1.05962581E-17
  -13.8999996       1.46972012E-17
  -13.8900003       1.51878301E-17
  -13.8800001       1.12541479E-17
  -13.8699999       3.23055264E-18
  -13.8599997      -7.29018014E-18
  -13.8500004      -1.76926075E-17
  -13.8400002      -2.49112588E-17
  -13.8299999      -2.62327543E-17
  -13.8199997      -2.01363190E-17
  -13.8100004      -6.93928516E-18
  -13.8000002       1.09681155E-17
  -13.7900000       2.94324759E-17
  -13.7799997       4.33923167E-17
  -13.7700005       4.81259404E-17
  -13.7600002       4.06058992E-17
  -13.7500000       2.06008438E-17
  -13.7399998      -8.81646982E-18
  -13.7299995      -4.15803345E-17
  -13.7200003      -6.97918422E-17
  -13.7100000      -8.55264255E-17
  -13.6999998      -8.28839540E-17
  -13.6899996      -5.97594185E-17
  -13.6800003      -1.88283265E-17
  -13.6700001       3.25998993E-17
  -13.6599998       8.39319918E-17
  -13.6499996       1.23591901E-16
  -13.6400003       1.41736485E-16
  -13.6300001       1.32692277E-16
  -13.6199999       9.64502851E-17
  -13.6099997       3.87807153E-17
  -13.6000004      -3.00978235E-17
  -13.5900002      -9.79433726E-17
  -13.5799999      -1.53320746E-16
  -13.5699997      -1.88005765E-16
  -13.5600004      -1.98250510E-16
  -13.5500002      -1.84558712E-16
  -13.5400000      -1.50134724E-16
  -13.5299997      -9.86711658E-17
  -13.5200005      -3.24540674E-17
  -13.5100002       4.82499514E-17
  -13.5000000       1.43949901E-16
  -13.4899998       2.52946008E-16
  -13.4799995       3.67513805E-16
  -13.4700003       4.70800711E-16
  -13.4600000       5.36187155E-16
  -13.4499998       5.30478630E-16
  -13.4399996       4.21315009E-16
  -13.4300003       1.87800135E-16
  -13.4200001      -1.68061581E-16
  -13.4099998      -6.12527323E-16
  -13.3999996      -1.07744846E-15
  -13.3900003      -1.46644114E-15
  -13.3800001      -1.67064205E-15
  -13.3699999      -1.59222818E-15
  -13.3599997      -1.17127684E-15
  -13.3500004      -4.09657665E-16
  -13.3400002       6.14857299E-16
  -13.3299999       1.74983126E-15
  -13.3199997       2.78736711E-15
  -13.3100004       3.49977327E-15
  -13.3000002       3.68583507E-15
  -13.2900000       3.21835441E-15
  -13.2799997       2.08204743E-15
  -13.2700005       3.91850994E-16
  -13.2600002      -1.61475524E-15
  -13.2500000      -3.61233209E-15
  -13.2399998      -5.24366461E-15
  -13.2299995      -6.18679387E-15
  -13.2200003      -6.21896164E-15
  -13.2100000      -5.26344706E-15
  -13.1999998      -3.40869690E-15
  -13.1899996      -8.95251145E-16
  -13.1800003       1.92665797E-15
  -13.1700001       4.65909668E-15
  -13.1599998       6.92382349E-15
  -13.1499996       8.42009534E-15
  -13.1400003       8.96107326E-15
  -13.1300001       8.48334413E-15
  -13.1199999       7.03190532E-15
  -13.1099997       4.72995310E-15
  -13.1000004       1.74685383E-15
  -13.0900002      -1.72267030E-15
  -13.0799999      -5.46008110E-15
  -13.0699997      -9.20551850E-15
  -13.0600004      -1.26307800E-14
  -13.0500002      -1.53195124E-14
  -13.0400000      -1.67737037E-14
  -13.0299997      -1.64615686E-14
  -13.0200005      -1.39114565E-14
  -13.0100002      -8.84183897E-15
  -13.0000000      -1.30228213E-15
  -12.9899998       8.21088328E-15
  -12.9799995       1.87036394E-14
  -12.9700003       2.87303716E-14
  -12.9600000       3.65519348E-14
  -12.9499998       4.03959432E-14
  -12.9399996       3.87833788E-14
  -12.9300003       3.08635292E-14
  -12.9200001       1.66885226E-14
  -12.9099998      -2.63796002E-15
  -12.8999996      -2.49843023E-14
  -12.8900003      -4.74025184E-14
  -12.8800001      -6.65068247E-14
  -12.8699999      -7.89638063E-14
  -12.8599997      -8.20149816E-14
  -12.8500004      -7.39438418E-14
  -12.8400002      -5.44093985E-14
  -12.8299999      -2.45927258E-14
  -12.8199997       1.28631253E-14
  -12.8100004       5.41039991E-14
  -12.8000002       9.44626931E-14
  -12.7900000       1.28944612E-13
  -12.7799997       1.52740572E-13
  -12.7700005       1.61716750E-13
  -12.7600002       1.52849697E-13
  -12.7500000       1.24589981E-13
  -12.7399998       7.71474695E-14
  -12.7299995       1.26897546E-14
  -12.7200003      -6.45660893E-14
  -12.7100000      -1.48402680E-13
  -12.6999998      -2.30839761E-13
  -12.6899996      -3.02604214E-13
  -12.6800003      -3.53859140E-13
  -12.6700001      -3.75180437E-13
  -12.6599998      -3.58715445E-13
  -12.6499996      -2.99403487E-13
  -12.6400003      -1.96091692E-13
  -12.6300001      -5.23591011E-14
  -12.6199999       1.23127311E-13
  -12.6099997       3.16849709E-13
  -12.6000004       5.11314895E-13
  -12.5900002       6.86514647E-13
  -12.5799999       8.21820856E-13
  -12.5699997       8.98088028E-13
  -12.5600004       8.99699965E-13
  -12.5500002       8.16304110E-13
  -12.5400000       6.44031486E-13
  -12.5299997       3.86090980E-13
  -12.5200005       5.27238436E-14
  -12.5100002      -3.39390679E-13
  -12.5000000      -7.68124876E-13
  -12.4899998      -1.20710169E-12
  -12.4799995      -1.62693470E-12
  -12.4700003      -1.99638439E-12
  -12.4600000      -2.28337813E-12
  -12.4499998      -2.45591329E-12
  -12.4399996      -2.48290429E-12
  -12.4300003      -2.33504969E-12
  -12.4200001      -1.98578307E-12
  -12.4099998      -1.41230940E-12
  -12.3999996      -5.96688877E-13
  -12.3900003       4.73137480E-13
  -12.3800001       1.80248785E-12
  -12.3699999       3.38934501E-12
  -12.3599997       5.22408549E-12
  -12.3500004       7.28946764E-12
  -12.3400002       9.56079400E-12
  -12.3299999       1.20060802E-11
  -12.3199997       1.45860390E-11
  -12.3100004       1.72537627E-11
  -12.3000002       1.99540662E-11
  -12.2900000       2.26226485E-11
  -12.2799997       2.51852636E-11
  -12.2700005       2.75572117E-11
  -12.2600002       2.96435897E-11
  -12.2500000       3.13406280E-11
  -12.2399998       3.25382360E-11
  -12.2299995       3.31238717E-11
  -12.2200003       3.29874184E-11
  -12.2100000       3.20268395E-11
  -12.1999998       3.01540425E-11
  -12.1899996       2.73002766E-11
  -12.1800003       2.34207723E-11
  -12.1700001       1.84980746E-11
  -12.1599998       1.25438921E-11
  -12.1499996       5.59954687E-12
  -12.1400003      -2.26503104E-12
  -12.1300001      -1.09534638E-11
  -12.1199999      -2.03458864E-11
  -12.1099997      -3.03025313E-11
  -12.1000004      -4.06677782E-11
  -12.0900002      -5.12743320E-11
  -12.0799999      -6.19476345E-11
  -12.0699997      -7.25102131E-11
  -12.0600004      -8.27859725E-11
  -12.0500002      -9.26040702E-11
  -12.0400000      -1.01802435E-10
  -12.0299997      -1.10230318E-10
  -12.0200005      -1.17750240E-10
  -12.0100002      -1.24238689E-10
  -12.0000000      -1.29586064E-10
  -11.9899998      -1.33695818E-10
  -11.9799995      -1.36483227E-10
  -11.9700003      -1.37874309E-10
  -11.9600000      -1.37804629E-10
  -11.9499998      -1.36219161E-10
  -11.9399996      -1.33072567E-10
  -11.9300003      -1.28330083E-10
  -11.9200001      -1.21968893E-10
  -11.9099998      -1.13979624E-10
  -11.8999996      -1.04367355E-10
  -11.8900003      -9.31524580E-11
  -11.8800001      -8.03706338E-11
  -11.8699999      -6.60722241E-11
  -11.8599997      -5.03212506E-11
  -11.8500004      -3.31947213E-11
  -11.8400002      -1.47814191E-11
  -11.8299999       4.81816757E-12
  -11.8199997       2.54917372E-11
  -11.8100004       4.71144582E-11
  -11.8000002       6.95480132E-11
  -11.7900000       9.26395280E-11
  -11.7799997       1.16221040E-10
  -11.7700005       1.40109369E-10
  -11.7600002       1.64107034E-10
  -11.7500000       1.88003613E-10
  -11.7399998       2.11577825E-10
  -11.7299995       2.34600200E-10
  -11.7200003       2.56835553E-10
  -11.7100000       2.78045559E-10
  -11.6999998       2.97991271E-10
  -11.6899996       3.16435211E-10
  -11.6800003       3.33143985E-10
  -11.6700001       3.47890883E-10
  -11.6599998       3.60458968E-10
  -11.6499996       3.70644654E-10
  -11.6400003       3.78261755E-10
  -11.6300001       3.83145349E-10
  -11.6199999       3.85155879E-10
  -11.6099997       3.84182158E-10
  -11.6000004       3.80143000E-10
  -11.5900002       3.72987613E-10
  -11.5799999       3.62694597E-10
  -11.5699997       3.49269641E-10
  -11.5600004       3.32741695E-10
  -11.5500002       3.13159360E-10
  -11.5400000       2.90586721E-10
  -11.5299997       2.65100386E-10
  -11.5200005       2.36786785E-10
  -11.5100002       2.05740439E-10
  -11.5000000       1.72063516E-10
  -11.4899998       1.35865499E-10
  -11.4799995       9.72638775E-11
  -11.4700003       5.63832453E-11
  -11.4600000       1.33559830E-11
  -11.4499998      -3.16777576E-11
  -11.4399996      -7.85719476E-11
  -11.4300003      -1.27174729E-10
  -11.4200001      -1.77329554E-10
  -11.4099998      -2.28876876E-10
  -11.3999996      -2.81653589E-10
  -11.3900003      -3.35494799E-10
  -11.3800001      -3.90233457E-10
  -11.3699999      -4.45700976E-10
  -11.3599997      -5.01727659E-10
  -11.3500004      -5.58143476E-10
  -11.3400002      -6.14779505E-10
  -11.3299999      -6.71469380E-10
  -11.3199997      -7.28051452E-10
  -11.3100004      -7.84371179E-10
  -11.3000002      -8.40283954E-10
  -11.2900000      -8.95657548E-10
  -11.2799997      -9.50375445E-10
  -11.2700005      -1.00434006E-09
  -11.2600002      -1.05747500E-09
  -11.2500000      -1.10972831E-09
  -11.2399998      -1.16107535E-09
  -11.2299995      -1.21151966E-09
  -11.2200003      -1.26109512E-09
  -11.2100000      -1.30986455E-09
  -11.1999998      -1.35792033E-09
  -11.1899996      -1.40537981E-09
  -11.1800003      -1.45238288E-09
  -11.1700001      -1.49908519E-09
  -11.1599998      -1.54565261E-09
  -11.1499996      -1.59225710E-09
  -11.1400003      -1.63906888E-09
  -11.1300001      -1.68625003E-09
  -11.1199999      -1.73395043E-09
  -11.1099997      -1.78230453E-09
  -11.1000004      -1.83142668E-09
  -11.0900002      -1.88141058E-09
  -11.0799999      -1.93232519E-09
  -11.0699997      -1.98421901E-09
  -11.0600004      -2.03711403E-09
  -11.0500002      -2.09101403E-09
  -11.0400000      -2.14590412E-09
  -11.0299997      -2.20175322E-09
  -11.0200005      -2.25852426E-09
  -11.0100002      -2.31617303E-09
  -11.0000000      -2.37465758E-09
  -10.9899998      -2.43394460E-09
  -10.9799995      -2.49400478E-09
  -10.9700003      -2.55482102E-09
  -10.9600000      -2.61638644E-09
  -10.9499998      -2.67869993E-09
  -10.9399996      -2.74176370E-09
  -10.9300003      -2.80557622E-09
  -10.9200001      -2.87012547E-09
  -10.9099998      -2.93538571E-09
  -10.8999996      -3.00130831E-09
  -10.8900003      -3.06782377E-09
  -10.8800001      -3.13483284E-09
  -10.8699999      -3.20220717E-09
  -10.8599997      -3.26979177E-09
  -10.8500004      -3.33740346E-09
  -10.8400002      -3.40482664E-09
  -10.8299999      -3.47181395E-09
  -10.8199997      -3.53809537E-09
  -10.8100004      -3.60337049E-09
  -10.8000002      -3.66731712E-09
  -10.7900000      -3.72959219E-09
  -10.7799997      -3.78984044E-09
  -10.7700005      -3.84770438E-09
  -10.7600002      -3.90283184E-09
  -10.7500000      -3.95488220E-09
  -10.7399998      -4.00354017E-09
  -10.7299995      -4.04851708E-09
  -10.7200003      -4.08957002E-09
  -10.7100000      -4.12649204E-09
  -10.6999998      -4.15911838E-09
  -10.6899996      -4.18733004E-09
  -10.6800003      -4.21105328E-09
  -10.6700001      -4.23025215E-09
  -10.6599998      -4.24493285E-09
  -10.6499996      -4.25513313E-09
  -10.6400003      -4.26093472E-09
  -10.6300001      -4.26243751E-09
  -10.6199999      -4.25978275E-09
  -10.6099997      -4.25312763E-09
  -10.6000004      -4.24266400E-09
  -10.5900002      -4.22858193E-09
  -10.5799999      -4.21110125E-09
  -10.5699997      -4.19043822E-09
  -10.5600004      -4.16681400E-09
  -10.5500002      -4.14045376E-09
  -10.5400000      -4.11156575E-09
  -10.5299997      -4.08036316E-09
  -10.5200005      -4.04703737E-09
  -10.5100002      -4.01177225E-09
  -10.5000000      -3.97473476E-09
  -10.4899998      -3.93607769E-09
  -10.4799995      -3.89593469E-09
  -10.4700003      -3.85442078E-09
  -10.4600000      -3.81162701E-09
  -10.4499998      -3.76762399E-09
  -10.4399996      -3.72246678E-09
  -10.4300003      -3.67617869E-09
  -10.4200001      -3.62876418E-09
  -10.4099998      -3.58021102E-09
  -10.3999996      -3.53049479E-09
  -10.3900003      -3.47957729E-09
  -10.3800001      -3.42740636E-09
  -10.3699999      -3.37393091E-09
  -10.3599997      -3.31909411E-09
  -10.3500004      -3.26284666E-09
  -10.3400002      -3.20513238E-09
  -10.3299999      -3.14590842E-09
  -10.3199997      -3.08513282E-09
  -10.3100004      -3.02278180E-09
  -10.3000002      -2.95882896E-09
  -10.2900000      -2.89327029E-09
  -10.2799997      -2.82610779E-09
  -10.2700005      -2.75735945E-09
  -10.2600002      -2.68706435E-09
  -10.2500000      -2.61528066E-09
  -10.2399998      -2.54208432E-09
  -10.2299995      -2.46758147E-09
  -10.2200003      -2.39189912E-09
  -10.2100000      -2.31519515E-09
  -10.1999998      -2.23764540E-09
  -10.1899996      -2.15945128E-09
  -10.1800003      -2.08083062E-09
  -10.1700001      -2.00201300E-09
  -10.1599998      -1.92323579E-09
  -10.1499996      -1.84474447E-09
  -10.1400003      -1.76677928E-09
  -10.1300001      -1.68958414E-09
  -10.1199999      -1.61339531E-09
  -10.1099997      -1.53845470E-09
  -10.1000004      -1.46500057E-09
  -10.0900002      -1.39327949E-09
  -10.0799999      -1.32354105E-09
  -10.0699997      -1.25604371E-09
  -10.0600004      -1.19104471E-09
  -10.0500002      -1.12879961E-09
  -10.0400000      -1.06956088E-09
  -10.0299997      -1.01356934E-09
  -10.0200005      -9.61041802E-10
  -10.0100002      -9.12175668E-10
  -10.0000000      -8.67139804E-10
  -9.98999977      -8.26075541E-10
  -9.97999954      -7.89089460E-10
  -9.97000027      -7.56265994E-10
  -9.96000004      -7.27665261E-10
  -9.94999981      -7.03325842E-10
  -9.93999958      -6.83275436E-10
  -9.93000031      -6.67531252E-10
  -9.92000008      -6.56109167E-10
  -9.90999985      -6.49020060E-10
  -9.89999962      -6.46273979E-10
  -9.89000034      -6.47879805E-10
  -9.88000011      -6.53831711E-10
  -9.86999989      -6.64121702E-10
  -9.85999966      -6.78724354E-10
  -9.85000038      -6.97596980E-10
  -9.84000015      -7.20676796E-10
  -9.82999992      -7.47882534E-10
  -9.81999969      -7.79113829E-10
  -9.81000042      -8.14248502E-10
  -9.80000019      -8.53152604E-10
  -9.78999996      -8.95670760E-10
  -9.77999973      -9.41625777E-10
  -9.77000046      -9.90822979E-10
  -9.76000023      -1.04304543E-09
  -9.75000000      -1.09805065E-09
  -9.73999977      -1.15557519E-09
  -9.72999954      -1.21533683E-09
  -9.72000027      -1.27703803E-09
  -9.71000004      -1.34037770E-09
  -9.69999981      -1.40505452E-09
  -9.68999958      -1.47077517E-09
  -9.68000031      -1.53725010E-09
  -9.67000008      -1.60421221E-09
  -9.65999985      -1.67140168E-09
  -9.64999962      -1.73857839E-09
  -9.64000034      -1.80552662E-09
  -9.63000011      -1.87204696E-09
  -9.61999989      -1.93797600E-09
  -9.60999966      -2.00318495E-09
  -9.60000038      -2.06759654E-09
  -9.59000015      -2.13118567E-09
  -9.57999992      -2.19398744E-09
  -9.56999969      -2.25609376E-09
  -9.56000042      -2.31765163E-09
  -9.55000019      -2.37886533E-09
  -9.53999996      -2.43998044E-09
  -9.52999973      -2.50127274E-09
  -9.52000046      -2.56304067E-09
  -9.51000023      -2.62559907E-09
  -9.50000000      -2.68926215E-09
  -9.48999977      -2.75434653E-09
  -9.47999954      -2.82115531E-09
  -9.47000027      -2.88998114E-09
  -9.46000004      -2.96109315E-09
  -9.44999981      -3.03474290E-09
  -9.43999958      -3.11114379E-09
  -9.43000031      -3.19047921E-09
  -9.42000008      -3.27288352E-09
  -9.40999985      -3.35844486E-09
  -9.39999962      -3.44720164E-09
  -9.39000034      -3.53913165E-09
  -9.38000011      -3.63415475E-09
  -9.36999989      -3.73212261E-09
  -9.35999966      -3.83282339E-09
  -9.35000038      -3.93597821E-09
  -9.34000015      -4.04124822E-09
  -9.32999992      -4.14823198E-09
  -9.31999969      -4.25647162E-09
  -9.31000042      -4.36545511E-09
  -9.30000019      -4.47463400E-09
  -9.28999996      -4.58341942E-09
  -9.27999973      -4.69118921E-09
  -9.27000046      -4.79731721E-09
  -9.26000023      -4.90115504E-09
  -9.25000000      -5.00206720E-09
  -9.23999977      -5.09942044E-09
  -9.22999954      -5.19260190E-09
  -9.22000027      -5.28101696E-09
  -9.21000004      -5.36410605E-09
  -9.19999981      -5.44134471E-09
  -9.18999958      -5.51225821E-09
  -9.18000031      -5.57641266E-09
  -9.17000008      -5.63345015E-09
  -9.15999985      -5.68306824E-09
  -9.14999962      -5.72506442E-09
  -9.14000034      -5.75928905E-09
  -9.13000011      -5.78569415E-09
  -9.11999989      -5.80430459E-09
  -9.10999966      -5.81523718E-09
  -9.10000038      -5.81869175E-09
  -9.09000015      -5.81495163E-09
  -9.07999992      -5.80437076E-09
  -9.06999969      -5.78738968E-09
  -9.06000042      -5.76452486E-09
  -9.05000019      -5.73637138E-09
  -9.03999996      -5.70359582E-09
  -9.02999973      -5.66692426E-09
  -9.02000046      -5.62713920E-09
  -9.01000023      -5.58508884E-09
  -9.00000000      -5.54165780E-09
  -8.98999977      -5.49777557E-09
  -8.97999954      -5.45440848E-09
  -8.97000027      -5.41255574E-09
  -8.96000004      -5.37324407E-09
  -8.94999981      -5.33751887E-09
  -8.93999958      -5.30644551E-09
  -8.93000031      -5.28109290E-09
  -8.92000008      -5.26252641E-09
  -8.90999985      -5.25178034E-09
  -8.89999962      -5.24987032E-09
  -8.89000034      -5.25778798E-09
  -8.88000011      -5.27649258E-09
  -8.86999989      -5.30690514E-09
  -8.85999966      -5.34993472E-09
  -8.85000038      -5.40645750E-09
  -8.84000015      -5.47732215E-09
  -8.82999992      -5.56334534E-09
  -8.81999969      -5.66529357E-09
  -8.81000042      -5.78386805E-09
  -8.80000019      -5.91968830E-09
  -8.78999996      -6.07330586E-09
  -8.77999973      -6.24519059E-09
  -8.77000046      -6.43572662E-09
  -8.76000023      -6.64522526E-09
  -8.75000000      -6.87393831E-09
  -8.73999977      -7.12203940E-09
  -8.72999954      -7.38964712E-09
  -8.72000027      -7.67682096E-09
  -8.71000004      -7.98353028E-09
  -8.69999981      -8.30968094E-09
  -8.68999958      -8.65507488E-09
  -8.68000031      -9.01944830E-09
  -8.67000008      -9.40242906E-09
  -8.65999985      -9.80358461E-09
  -8.64999962      -1.02224096E-08
  -8.64000034      -1.06583204E-08
  -8.63000011      -1.11106822E-08
  -8.61999989      -1.15788001E-08
  -8.60999966      -1.20619061E-08
  -8.60000038      -1.25591866E-08
  -8.59000015      -1.30697666E-08
  -8.57999992      -1.35927296E-08
  -8.56999969      -1.41271004E-08
  -8.56000042      -1.46719028E-08
  -8.55000019      -1.52261510E-08
  -8.53999996      -1.57888742E-08
  -8.52999973      -1.63591078E-08
  -8.52000046      -1.69359566E-08
  -8.51000023      -1.75185590E-08
  -8.50000000      -1.81061015E-08
  -8.48999977      -1.86978237E-08
  -8.47999954      -1.92930418E-08
  -8.47000027      -1.98911412E-08
  -8.46000004      -2.04915622E-08
  -8.44999981      -2.10938254E-08
  -8.43999958      -2.16975486E-08
  -8.43000031      -2.23024106E-08
  -8.42000008      -2.29081891E-08
  -8.40999985      -2.35147191E-08
  -8.39999962      -2.41219187E-08
  -8.39000034      -2.47297756E-08
  -8.38000011      -2.53383163E-08
  -8.36999989      -2.59476405E-08
  -8.35999966      -2.65578706E-08
  -8.35000038      -2.71691718E-08
  -8.34000015      -2.77817449E-08
  -8.32999992      -2.83958155E-08
  -8.31999969      -2.90115985E-08
  -8.31000042      -2.96293052E-08
  -8.30000019      -3.02491401E-08
  -8.28999996      -3.08712380E-08
  -8.27999973      -3.14957092E-08
  -8.27000046      -3.21225748E-08
  -8.26000023      -3.27518030E-08
  -8.25000000      -3.33832197E-08
  -8.23999977      -3.40166153E-08
  -8.22999954      -3.46516416E-08
  -8.22000027      -3.52879077E-08
  -8.21000004      -3.59248702E-08
  -8.19999981      -3.65619073E-08
  -8.18999958      -3.71983084E-08
  -8.18000031      -3.78332174E-08
  -8.17000008      -3.84657213E-08
  -8.15999985      -3.90947861E-08
  -8.14999962      -3.97193212E-08
  -8.14000034      -4.03381257E-08
  -8.13000011      -4.09499030E-08
  -8.11999989      -4.15533563E-08
  -8.10999966      -4.21471000E-08
  -8.10000038      -4.27297273E-08
  -8.09000015      -4.32998171E-08
  -8.07999992      -4.38558985E-08
  -8.06999969      -4.43965682E-08
  -8.06000042      -4.49203732E-08
  -8.05000019      -4.54258782E-08
  -8.03999996      -4.59117224E-08
  -8.02999973      -4.63765808E-08
  -8.02000046      -4.68191672E-08
  -8.01000023      -4.72382986E-08
  -8.00000000      -4.76328630E-08
  -7.98999977      -4.80019047E-08
  -7.98000002      -4.83444751E-08
  -7.96999979      -4.86597749E-08
  -7.96000004      -4.89471077E-08
  -7.94999981      -4.92059051E-08
  -7.94000006      -4.94356911E-08
  -7.92999983      -4.96361281E-08
  -7.92000008      -4.98070030E-08
  -7.90999985      -4.99482447E-08
  -7.90000010      -5.00599064E-08
  -7.88999987      -5.01421873E-08
  -7.88000011      -5.01954247E-08
  -7.86999989      -5.02200770E-08
  -7.86000013      -5.02165634E-08
  -7.84999990      -5.01855411E-08
  -7.84000015      -5.01278059E-08
  -7.82999992      -5.00441395E-08
  -7.82000017      -4.99354904E-08
  -7.80999994      -4.98028463E-08
  -7.80000019      -4.96473476E-08
  -7.78999996      -4.94702945E-08
  -7.78000021      -4.92730017E-08
  -7.76999998      -4.90569114E-08
  -7.76000023      -4.88235408E-08
  -7.75000000      -4.85744991E-08
  -7.73999977      -4.83114171E-08
  -7.73000002      -4.80359894E-08
  -7.71999979      -4.77499214E-08
  -7.71000004      -4.74549964E-08
  -7.69999981      -4.71529837E-08
  -7.69000006      -4.68456847E-08
  -7.67999983      -4.65349004E-08
  -7.67000008      -4.62224072E-08
  -7.65999985      -4.59100669E-08
  -7.65000010      -4.55996343E-08
  -7.63999987      -4.52927509E-08
  -7.63000011      -4.49911184E-08
  -7.61999989      -4.46963000E-08
  -7.61000013      -4.44097559E-08
  -7.59999990      -4.41329071E-08
  -7.59000015      -4.38670256E-08
  -7.57999992      -4.36134471E-08
  -7.57000017      -4.33732410E-08
  -7.55999994      -4.31474945E-08
  -7.55000019      -4.29371809E-08
  -7.53999996      -4.27431495E-08
  -7.53000021      -4.25661604E-08
  -7.51999998      -4.24067856E-08
  -7.51000023      -4.22655724E-08
  -7.50000000      -4.21428901E-08
  -7.48999977      -4.20390265E-08
  -7.48000002      -4.19541415E-08
  -7.46999979      -4.18883452E-08
  -7.46000004      -4.18416803E-08
  -7.44999981      -4.18140864E-08
  -7.44000006      -4.18053965E-08