  -16.0000000       0.00000000    
  -15.9899998       0.00000000    
  -15.9799995       0.00000000    
  -15.9700003       0.00000000    
  -15.9600000       0.00000000    
  -15.9499998       0.00000000    
  -15.9399996       0.00000000    
  -15.9300003       0.00000000    
  -15.9200001       0.00000000    
  -15.9099998       0.00000000    
  -15.8999996       0.00000000    
  -15.8900003       0.00000000    
  -15.8800001       0.00000000    
  -15.8699999      -1.96181785E-44
  -15.8599997      -6.67018069E-43
  -15.8500004      -1.71827218E-41
  -15.8400002      -2.63085379E-40
  -15.8299999      -2.93049204E-39
  -15.8199997      -2.50510967E-38
  -15.8100004      -1.71639197E-37
  -15.8000002      -9.74866974E-37
  -15.7900000      -4.71246315E-36
  -15.7799997      -1.97860021E-35
  -15.7700005      -7.33015146E-35
  -15.7600002      -2.42460197E-34
  -15.7500000      -7.22251831E-34
  -15.7399998      -1.94888441E-33
  -15.7299995      -4.77817662E-33
  -15.7200003      -1.06445826E-32
  -15.7100000      -2.14631589E-32
  -15.6999998      -3.87787240E-32
  -15.6899996      -6.14212843E-32
  -15.6800003      -8.10045970E-32
  -15.6700001      -7.55587903E-32
  -15.6599998      -3.97950756E-33
  -15.6499996       1.92212887E-31
  -15.6400003       5.69672069E-31
  -15.6300001       1.13684381E-30
  -15.6199999       1.78050738E-30
  -15.6099997       2.18812650E-30
  -15.6000004       1.82026090E-30
  -15.5900002       9.21846106E-33
  -15.5799999      -3.75622994E-30
  -15.5699997      -9.38000782E-30
  -15.5600004      -1.56949613E-29
  -15.5500002      -2.02580747E-29
  -15.5400000      -1.96637899E-29
  -15.5299997      -1.04063524E-29
  -15.5200005       1.00512824E-29
  -15.5100002       4.25402295E-29
  -15.5000000       8.58875861E-29
  -15.4899998       1.35938202E-28
  -15.4799995       1.81496713E-28
  -15.4700003       1.95369608E-28
  -15.4600000       1.23498476E-28
  -15.4499998      -1.15356487E-28
  -15.4399996      -5.97443354E-28
  -15.4300003      -1.30921530E-27
  -15.4200001      -2.01717145E-27
  -15.4099998      -2.15836003E-27
  -15.3999996      -8.88263350E-28
  -15.3900003       2.54965699E-27
  -15.3800001       8.06346731E-27
  -15.3699999       1.37651375E-26
  -15.3599997       1.54433389E-26
  -15.3500004       7.38515248E-27
  -15.3400002      -1.46592373E-26
  -15.3299999      -4.85216602E-26
  -15.3199997      -8.06205430E-26
  -15.3100004      -8.48781917E-26
  -15.3000002      -3.02984587E-26
  -15.2900000       1.00241868E-25
  -15.2799997       2.83680520E-25
  -15.2700005       4.35763411E-25
  -15.2600002       4.15844674E-25
  -15.2500000       7.72195479E-26
  -15.2399998      -6.33155688E-25
  -15.2299995      -1.55370445E-24
  -15.2200003      -2.23273392E-24
  -15.2100000      -1.98850101E-24
  -15.1999998      -1.75264420E-25
  -15.1899996       3.35657594E-24
  -15.1800003       7.75496024E-24
  -15.1700001       1.09064051E-23
  -15.1599998       9.77323878E-24
  -15.1499996       1.56315352E-24
  -15.1400003      -1.43743394E-23
  -15.1300001      -3.45388264E-23
  -15.1199999      -5.02582715E-23
  -15.1099997      -4.89285833E-23
  -15.1000004      -1.83499081E-23
  -15.0900002       4.61631620E-23
  -15.0799999       1.33920473E-22
  -15.0699997       2.13929864E-22
  -15.0600004       2.37365722E-22
  -15.0500002       1.50922432E-22
  -15.0400000      -7.86854296E-23
  -15.0299997      -4.34052172E-22
  -15.0200005      -8.21272057E-22
  -15.0100002      -1.06469626E-21
  -15.0000000      -9.38451450E-22
  -14.9899998      -2.44309415E-22
  -14.9799995       1.06997943E-21
  -14.9700003       2.78140854E-21
  -14.9600000       4.30773610E-21
  -14.9499998       4.74406459E-21
  -14.9399996       3.09076197E-21
  -14.9300003      -1.30210497E-21
  -14.9200001      -8.14290489E-21
  -14.9099998      -1.56630316E-20
  -14.8999996      -2.04669590E-20
  -14.8900003      -1.81424264E-20
  -14.8800001      -4.86930692E-21
  -14.8699999       2.01094069E-20
  -14.8599997       5.18786807E-20
  -14.8500004       7.84499515E-20
  -14.8400002       8.22261473E-20
  -14.8299999       4.55886184E-20
  -14.8199997      -3.95601325E-20
  -14.8100004      -1.60809714E-19
  -14.8000002      -2.77909240E-19
  -14.7900000      -3.25680627E-19
  -14.7799997      -2.32578786E-19
  -14.7700005       4.47671375E-20
  -14.7600002       4.79346254E-19
  -14.7500000       9.41966191E-19
  -14.7399998       1.20407636E-18
  -14.7299995       9.96165547E-19
  -14.7200003       1.25822650E-19
  -14.7100000      -1.37020959E-18
  -14.6999998      -3.10014596E-18
  -14.6899996      -4.30093304E-18
  -14.6800003      -4.00810242E-18
  -14.6700001      -1.43607312E-18
  -14.6599998       3.50288904E-18
  -14.6499996       9.72780117E-18
  -14.6400003       1.48384671E-17
  -14.6300001       1.55506299E-17
  -14.6199999       8.83593338E-18
  -14.6099997      -6.40488140E-18
  -14.6000004      -2.76710262E-17
  -14.5900002      -4.80280453E-17
  -14.5799999      -5.69877480E-17
  -14.5699997      -4.36146529E-17
  -14.5600004      -1.55744843E-18
  -14.5500002       6.53865628E-17
  -14.5400000       1.39552675E-16
  -14.5299997       1.90269262E-16
  -14.5200005       1.81260961E-16
  -14.5100002       8.44878175E-17
  -14.5000000      -1.02740901E-16
  -14.4899998      -3.43594150E-16
  -14.4799995      -5.58391012E-16
  -14.4700003      -6.38875289E-16
  -14.4600000      -4.82124113E-16
  -14.4499998      -3.83138876E-17
  -14.4399996       6.42257915E-16
  -14.4300003       1.38375252E-15
  -14.4200001       1.90179183E-15
  -14.4099998       1.87448899E-15
  -14.3999996       1.06102449E-15
  -14.3900003      -5.61801961E-16
  -14.3800001      -2.69462843E-15
  -14.3699999      -4.69928924E-15
  -14.3599997      -5.71475215E-15
  -14.3500004      -4.91184623E-15
  -14.3400002      -1.83901356E-15
  -14.3299999       3.24434858E-15
  -14.3199997       9.18554461E-15
  -14.3100004       1.40380159E-14
  -14.3000002       1.55101389E-14
  -14.2900000       1.17182612E-14
  -14.2799997       2.06237975E-15
  -14.2700005      -1.20688846E-14
  -14.2600002      -2.70964078E-14
  -14.2500000      -3.78048253E-14
  -14.2399998      -3.87054484E-14
  -14.2299995      -2.59708365E-14
  -14.2200003       5.89453669E-16
  -14.2100000       3.62298285E-14
  -14.1999998       7.13457749E-14
  -14.1899996       9.33382400E-14
  -14.1800003       9.01494116E-14
  -14.1700001       5.47149877E-14
  -14.1599998      -1.09877292E-14
  -14.1499996      -9.38533715E-14
  -14.1400003      -1.70843970E-13
  -14.1300001      -2.13995325E-13
  -14.1199999      -1.98575694E-13
  -14.1099997      -1.12452758E-13
  -14.1000004       3.62240687E-14
  -14.0900002       2.16109221E-13
  -14.0799999       3.76784677E-13
  -14.0699997       4.60359127E-13
  -14.0600004       4.18600782E-13
  -14.0500002       2.31277047E-13
  -14.0400000      -8.00510306E-14
  -14.0299997      -4.48451253E-13
  -14.0200005      -7.71852038E-13
  -14.0100002      -9.37064987E-13
  -14.0000000      -8.53025278E-13
  -13.9899998      -4.84737142E-13
  -13.9799995       1.22736700E-13
  -13.9700003       8.39972785E-13
  -13.9600000       1.47419511E-12
  -13.9499998       1.81441017E-12
  -13.9399996       1.69169377E-12
  -13.9300003       1.03925343E-12
  -13.9200001      -6.61208284E-14
  -13.9099998      -1.39740324E-12
  -13.8999996      -2.61414176E-12
  -13.8900003      -3.33994854E-12
  -13.8800001      -3.26516310E-12
  -13.8699999      -2.24908113E-12
  -13.8599997      -3.91825434E-13
  -13.8500004       1.95016919E-12
  -13.8400002       4.21897283E-12
  -13.8299999       5.77611656E-12
  -13.8199997       6.06588304E-12
  -13.8100004       4.78172493E-12
  -13.8000002       1.98969964E-12
  -13.7900000      -1.83131938E-12
  -13.7799997      -5.85528544E-12
  -13.7700005      -9.07672201E-12
  -13.7600002      -1.05480260E-11
  -13.7500000      -9.63122811E-12
  -13.7399998      -6.19876893E-12
  -13.7299995      -7.25173936E-13
  -13.7200003       5.76451907E-12
  -13.7100000       1.18881311E-11
  -13.6999998       1.62016962E-11
  -13.6899996       1.75275992E-11
  -13.6800003       1.52346764E-11
  -13.6700001       9.39979691E-12
  -13.6599998       8.14034387E-13
  -13.6499996      -9.16299415E-12
  -13.6400003      -1.88509972E-11
  -13.6300001      -2.65287549E-11
  -13.6199999      -3.06736581E-11
  -13.6099997      -3.01201598E-11
  -13.6000004      -2.41434078E-11
  -13.5900002      -1.25201793E-11
  -13.5799999       4.35937137E-12
  -13.5699997       2.52790688E-11
  -13.5600004       4.79008083E-11
  -13.5500002       6.85048823E-11
  -13.5400000       8.19797424E-11
  -13.5299997       8.23115326E-11
  -13.5200005       6.37571176E-11
  -13.5100002       2.27006417E-11
  -13.5000000      -4.01012938E-11
  -13.4899998      -1.17493446E-10
  -13.4799995      -1.94960451E-10
  -13.4700003      -2.51588167E-10
  -13.4600000      -2.63527367E-10
  -13.4499998      -2.09909159E-10
  -13.4399996      -8.03182867E-11
  -13.4300003       1.17970383E-10
  -13.4200001       3.55368623E-10
  -13.4099998       5.80401671E-10
  -13.3999996       7.26877003E-10
  -13.3900003       7.27917338E-10
  -13.3800001       5.34918609E-10
  -13.3699999       1.37342304E-10
  -13.3599997      -4.22285373E-10
  -13.3500004      -1.04400477E-09
  -13.3400002      -1.58107416E-09
  -13.3299999      -1.86683269E-09
  -13.3199997      -1.75452053E-09
  -13.3100004      -1.16230070E-09
  -13.3000002      -1.12191499E-10
  -13.2900000       1.24933019E-09
  -13.2799997       2.65899858E-09
  -13.2700005       3.77712839E-09
  -13.2600002       4.25700364E-09
  -13.2500000       3.83105503E-09
  -13.2399998       2.39464693E-09
  -13.2299995       6.53742338E-11
  -13.2200003      -2.80172907E-09
  -13.2100000      -5.65464520E-09
  -13.1999998      -7.83947574E-09
  -13.1899996      -8.73549322E-09
  -13.1800003      -7.90315458E-09
  -13.1700001      -5.21178611E-09
  -13.1599998      -9.14230303E-10
  -13.1499996       4.35464775E-09
  -13.1400003       9.66354197E-09
  -13.1300001       1.39432386E-08
  -13.1199999       1.61902101E-08
  -13.1099997       1.56751145E-08
  -13.1000004       1.21135457E-08
  -13.0900002       5.76243986E-09
  -13.0799999      -2.58007171E-09
  -13.0699997      -1.16748122E-08
  -13.0600004      -2.00261709E-08
  -13.0500002      -2.61202935E-08
  -13.0400000      -2.86770874E-08
  -13.0299997      -2.68755436E-08
  -13.0200005      -2.05159623E-08
  -13.0100002      -1.00941664E-08
  -13.0000000       3.22627369E-09
  -12.9899998       1.77430515E-08
  -12.9799995       3.14327018E-08
  -12.9700003       4.22301767E-08
  -12.9600000       4.83334865E-08
  -12.9499998       4.84871912E-08
  -12.9399996       4.21949693E-08
  -12.9300003       2.98176559E-08
  -12.9200001       1.25281314E-08
  -12.9099998      -7.87798804E-09
  -12.8999996      -2.92821927E-08
  -12.8900003      -4.95870935E-08
  -12.8800001      -6.70151579E-08
  -12.8699999      -8.02744111E-08
  -12.8599997      -8.85294753E-08
  -12.8500004      -9.11750604E-08
  -12.8400002      -8.74785115E-08
  -12.8299999      -7.62281189E-08
  -12.8199997      -5.55634863E-08
  -12.8100004      -2.31561081E-08
  -12.8000002       2.31607942E-08
  -12.7900000       8.43365342E-08
  -12.7799997       1.58796695E-07
  -12.7700005       2.41204219E-07
  -12.7600002       3.21688816E-07
  -12.7500000       3.85945100E-07
  -12.7399998       4.16464445E-07
  -12.7299995       3.94964843E-07
  -12.7200003       3.05782748E-07
  -12.7100000       1.39724705E-07
  -12.6999998      -1.02309642E-07
  -12.6899996      -4.06724865E-07
  -12.6800003      -7.46296962E-07
  -12.6700001      -1.08132383E-06
  -12.6599998      -1.36294534E-06
  -12.6499996      -1.53829387E-06
  -12.6400003      -1.55689270E-06
  -12.6300001      -1.37748293E-06
  -12.6199999      -9.74480713E-07
  -12.6099997      -3.43381998E-07
  -12.6000004       4.95386359E-07
  -12.5900002       1.49442531E-06
  -12.5799999       2.57924330E-06
  -12.5699997       3.65017286E-06
  -12.5600004       4.58643581E-06
  -12.5500002       5.25254472E-06
  -12.5400000       5.50733921E-06
  -12.5299997       5.21586253E-06
  -12.5200005       4.26375345E-06
  -12.5100002       2.57389866E-06
  -12.5000000       1.23847911E-07
  -12.4899998      -3.03744946E-06
  -12.4799995      -6.77572370E-06
  -12.4700003      -1.08624363E-05
  -12.4600000      -1.49726666E-05
  -12.4499998      -1.86909201E-05
  -12.4399996      -2.15256405E-05
  -12.4300003      -2.29315028E-05
  -12.4200001      -2.23386905E-05
  -12.4099998      -1.91866911E-05
  -12.3999996      -1.29611954E-05
  -12.3900003      -3.23125869E-06
  -12.3800001       1.03143957E-05
  -12.3699999       2.78348725E-05
  -12.3599997       4.93095249E-05
  -12.3500004       7.45150537E-05
  -12.3400002       1.03013561E-04
  -12.3299999       1.34145215E-04
  -12.3199997       1.67037462E-04
  -12.3100004       2.00620168E-04
  -12.3000002       2.33656756E-04
  -12.2900000       2.64784147E-04
  -12.2799997       2.92564509E-04
  -12.2700005       3.15543875E-04
  -12.2600002       3.32312629E-04
  -12.2500000       3.41574807E-04
  -12.2399998       3.42205603E-04
  -12.2299995       3.33308533E-04
  -12.2200003       3.14262114E-04
  -12.2100000       2.84756039E-04
  -12.1999998       2.44806259E-04
  -12.1899996       1.94762091E-04
  -12.1800003       1.35286187E-04
  -12.1700001       6.73150716E-05
  -12.1599998      -7.98854489E-06
  -12.1499996      -8.93095566E-05
  -12.1400003      -1.75254696E-04
  -12.1300001      -2.64428963E-04
  -12.1199999      -3.55502299E-04
  -12.1099997      -4.47260129E-04
  -12.1000004      -5.38628781E-04
  -12.0900002      -6.28680282E-04
  -12.0799999      -7.16603477E-04
  -12.0699997      -8.01662740E-04
  -12.0600004      -8.83144734E-04
  -12.0500002      -9.60303587E-04
  -12.0400000      -1.03231892E-03
  -12.0299997      -1.09826599E-03
  -12.0200005      -1.15710974E-03
  -12.0100002      -1.20771793E-03
  -12.0000000      -1.24888436E-03
  -11.9899998      -1.27937214E-03
  -11.9799995      -1.29794853E-03
  -11.9700003      -1.30342145E-03
  -11.9600000      -1.29467843E-03
  -11.9499998      -1.27070607E-03
  -11.9399996      -1.23062287E-03
  -11.9300003      -1.17370556E-03
  -11.9200001      -1.09940884E-03
  -11.9099998      -1.00740127E-03
  -11.8999996      -8.97598860E-04
  -11.8900003      -7.70176295E-04
  -11.8800001      -6.25603716E-04
  -11.8699999      -4.64634912E-04
  -11.8599997      -2.88308976E-04
  -11.8500004      -9.79333709E-05
  -11.8400002       1.04955594E-04
  -11.8299999       3.18625564E-04
  -11.8199997       5.41186600E-04
  -11.8100004       7.70640792E-04
  -11.8000002       1.00491568E-03
  -11.7900000       1.24190515E-03
  -11.7799997       1.47951522E-03
  -11.7700005       1.71569327E-03
  -11.7600002       1.94846664E-03
  -11.7500000       2.17596535E-03
  -11.7399998       2.39644083E-03
  -11.7299995       2.60826363E-03
  -11.7200003       2.80989846E-03
  -11.7100000       2.99987290E-03
  -11.6999998       3.17672384E-03
  -11.6899996       3.33894696E-03
  -11.6800003       3.48494109E-03
  -11.6700001       3.61298234E-03
  -11.6599998       3.72120785E-03
  -11.6499996       3.80763155E-03
  -11.6400003       3.87018942E-03
  -11.6300001       3.90679576E-03
  -11.6199999       3.91541934E-03
  -11.6099997       3.89416143E-03
  -11.6000004       3.84133402E-03
  -11.5900002       3.75552336E-03
  -11.5799999       3.63565958E-03
  -11.5699997       3.48105188E-03
  -11.5600004       3.29142343E-03
  -11.5500002       3.06692859E-03
  -11.5400000       2.80813966E-03
  -11.5299997       2.51602312E-03
  -11.5200005       2.19187164E-03
  -11.5100002       1.83722749E-03
  -11.5000000       1.45376602E-03
  -11.4899998       1.04319293E-03
  -11.4799995       6.07127498E-04
  -11.4700003       1.47026993E-04
  -11.4600000      -3.35865392E-04
  -11.4499998      -8.40510067E-04
  -11.4399996      -1.36601040E-03
  -11.4300003      -1.91153144E-03
  -11.4200001      -2.47615296E-03
  -11.4099998      -3.05874948E-03
  -11.3999996      -3.65788047E-03
  -11.3900003      -4.27171495E-03
  -11.3800001      -4.89800284E-03
  -11.3699999      -5.53413155E-03
  -11.3599997      -6.17719535E-03
  -11.3500004      -6.82414277E-03
  -11.3400002      -7.47191301E-03
  -11.3299999      -8.11759662E-03
  -11.3199997      -8.75855330E-03
  -11.3100004      -9.39249620E-03
  -11.3000002      -1.00175375E-02
  -11.2900000      -1.06321685E-02
  -11.2799997      -1.12352008E-02
  -11.2700005      -1.18256509E-02
  -11.2600002      -1.24026490E-02
  -11.2500000      -1.29652964E-02
  -11.2399998      -1.35125676E-02
  -11.2299995      -1.40432641E-02
  -11.2200003      -1.45559637E-02
  -11.2100000      -1.50490794E-02
  -11.1999998      -1.55209098E-02
  -11.1899996      -1.59697756E-02
  -11.1800003      -1.63941048E-02
  -11.1700001      -1.67925898E-02
  -11.1599998      -1.71642210E-02
  -11.1499996      -1.75083857E-02
  -11.1400003      -1.78248398E-02
  -11.1300001      -1.81136653E-02
  -11.1199999      -1.83752105E-02
  -11.1099997      -1.86100043E-02
  -11.1000004      -1.88186523E-02
  -11.0900002      -1.90017801E-02
  -11.0799999      -1.91599745E-02
  -11.0699997      -1.92937665E-02
  -11.0600004      -1.94036439E-02
  -11.0500002      -1.94900464E-02
  -11.0400000      -1.95533838E-02
  -11.0299997      -1.95940696E-02
  -11.0200005      -1.96125004E-02
  -11.0100002      -1.96090713E-02
  -11.0000000      -1.95841473E-02
  -10.9899998      -1.95380971E-02
  -10.9799995      -1.94712710E-02
  -10.9700003      -1.93840023E-02
  -10.9600000      -1.92766450E-02
  -10.9499998      -1.91495605E-02
  -10.9399996      -1.90031324E-02
  -10.9300003      -1.88377462E-02
  -10.9200001      -1.86537746E-02
  -10.9099998      -1.84515230E-02
  -10.8999996      -1.82312392E-02
  -10.8900003      -1.79930106E-02
  -10.8800001      -1.77368261E-02
  -10.8699999      -1.74625162E-02
  -10.8599997      -1.71698201E-02
  -10.8500004      -1.68584026E-02
  -10.8400002      -1.65279079E-02
  -10.8299999      -1.61780063E-02
  -10.8199997      -1.58084389E-02
  -10.8100004      -1.54190008E-02
  -10.8000002      -1.50096025E-02
  -10.7900000      -1.45802265E-02
  -10.7799997      -1.41309230E-02
  -10.7700005      -1.36617683E-02
  -10.7600002      -1.31728780E-02
  -10.7500000      -1.26643023E-02
  -10.7399998      -1.21360552E-02
  -10.7299995      -1.15880435E-02
  -10.7200003      -1.10200504E-02
  -10.7100000      -1.04317171E-02
  -10.6999998      -9.82256699E-03
  -10.6899996      -9.19208582E-03
  -10.6800003      -8.53972882E-03
  -10.6700001      -7.86508434E-03
  -10.6599998      -7.16793956E-03
  -10.6499996      -6.44841976E-03
  -10.6400003      -5.70700644E-03
  -10.6300001      -4.94457223E-03
  -10.6199999      -4.16232320E-03
  -10.6099997      -3.36174807E-03
  -10.6000004      -2.54445244E-03
  -10.5900002      -1.71210268E-03
  -10.5799999      -8.66300426E-04
  -10.5699997      -8.59358261E-06
  -10.5600004       8.59543099E-04
  -10.5500002       1.73662370E-03
  -10.5400000       2.62106559E-03
  -10.5299997       3.51113454E-03
  -10.5200005       4.40486334E-03
  -10.5100002       5.30005991E-03
  -10.5000000       6.19435171E-03
  -10.4899998       7.08522974E-03
  -10.4799995       7.97011238E-03
  -10.4700003       8.84643756E-03
  -10.4600000       9.71162785E-03
  -10.4499998       1.05631212E-02
  -10.4399996       1.13983518E-02
  -10.4300003       1.22147044E-02
  -10.4200001       1.30095305E-02
  -10.4099998       1.37801943E-02
  -10.3999996       1.45241208E-02
  -10.3900003       1.52389361E-02
  -10.3800001       1.59225203E-02
  -10.3699999       1.65730976E-02
  -10.3599997       1.71892438E-02
  -10.3500004       1.77698433E-02
  -10.3400002       1.83139928E-02
  -10.3299999       1.88208725E-02
  -10.3199997       1.92896761E-02
  -10.3100004       1.97194908E-02
  -10.3000002       2.01093201E-02
  -10.2900000       2.04581115E-02
  -10.2799997       2.07648706E-02
  -10.2700005       2.10287347E-02
  -10.2600002       2.12491285E-02
  -10.2500000       2.14258377E-02
  -10.2399998       2.15590503E-02
  -10.2299995       2.16493849E-02
  -10.2200003       2.16978621E-02
  -10.2100000       2.17058677E-02
  -10.1999998       2.16751229E-02
  -10.1899996       2.16076095E-02
  -10.1800003       2.15055421E-02
  -10.1700001       2.13712938E-02
  -10.1599998       2.12073289E-02
  -10.1499996       2.10161731E-02
  -10.1400003       2.08003409E-02
  -10.1300001       2.05623507E-02
  -10.1199999       2.03046836E-02
  -10.1099997       2.00298540E-02
  -10.1000004       1.97404157E-02
  -10.0900002       1.94390286E-02
  -10.0799999       1.91284493E-02
  -10.0699997       1.88114792E-02
  -10.0600004       1.84909087E-02
  -10.0500002       1.81694161E-02
  -10.0400000       1.78494528E-02
  -10.0299997       1.75331943E-02
  -10.0200005       1.72225349E-02
  -10.0100002       1.69190764E-02
  -10.0000000       1.66242700E-02
  -9.98999977       1.63394790E-02
  -9.97999954       1.60660502E-02
  -9.97000027       1.58053916E-02
  -9.96000004       1.55588780E-02
  -9.94999981       1.53278047E-02
  -9.93999958       1.51133258E-02
  -9.93000031       1.49163296E-02
  -9.92000008       1.47374542E-02
  -9.90999985       1.45771289E-02
  -9.89999962       1.44356219E-02
  -9.89000034       1.43131893E-02
  -9.88000011       1.42101021E-02
  -9.86999989       1.41267069E-02
  -9.85999966       1.40633592E-02
  -9.85000038       1.40203349E-02
  -9.84000015       1.39977019E-02
  -9.82999992       1.39952460E-02
  -9.81999969       1.40124736E-02
  -9.81000042       1.40486658E-02
  -9.80000019       1.41030671E-02
  -9.78999996       1.41750509E-02
  -9.77999973       1.42643414E-02
  -9.77000046       1.43710822E-02
  -9.76000023       1.44959176E-02
  -9.75000000       1.46398973E-02
  -9.73999977       1.48043195E-02
  -9.72999954       1.49906091E-02
  -9.72000027       1.52001251E-02
  -9.71000004       1.54340835E-02
  -9.69999981       1.56935155E-02
  -9.68999958       1.59792248E-02
  -9.68000031       1.62917878E-02
  -9.67000008       1.66315120E-02
  -9.65999985       1.69983264E-02
  -9.64999962       1.73916258E-02
  -9.64000034       1.78101640E-02
  -9.63000011       1.82518139E-02
  -9.61999989       1.87135693E-02
  -9.60999966       1.91915054E-02
  -9.60000038       1.96808465E-02
  -9.59000015       2.01761629E-02
  -9.57999992       2.06715167E-02
  -9.56999969       2.11606529E-02
  -9.56000042       2.16371603E-02
  -9.55000019       2.20945552E-02
  -9.53999996       2.25263461E-02
  -9.52999973       2.29260419E-02
  -9.52000046       2.32872125E-02
  -9.51000023       2.36034635E-02
  -9.50000000       2.38685366E-02
  -9.48999977       2.40763929E-02
  -9.47999954       2.42212676E-02
  -9.47000027       2.42978930E-02
  -9.46000004       2.43016016E-02
  -9.44999981       2.42285654E-02
  -9.43999958       2.40760278E-02
  -9.43000031       2.38425285E-02
  -9.42000008       2.35281419E-02
  -9.40999985       2.31346749E-02
  -9.39999962       2.26657707E-02
  -9.39000034       2.21269298E-02
  -9.38000011       2.15254351E-02
  -9.36999989       2.08701529E-02
  -9.35999966       2.01713312E-02
  -9.35000038       1.94403380E-02
  -9.34000015       1.86894033E-02
  -9.32999992       1.79314334E-02
  -9.31999969       1.71798989E-02
  -9.31000042       1.64486002E-02
  -9.30000019       1.57516003E-02
  -9.28999996       1.51030105E-02
  -9.27999973       1.45167746E-02
  -9.27000046       1.40064452E-02
  -9.26000023       1.35849332E-02
  -9.25000000       1.32642761E-02
  -9.23999977       1.30554354E-02
  -9.22999954       1.29683316E-02
  -9.22000027       1.30116902E-02
  -9.21000004       1.31931752E-02
  -9.19999981       1.35193579E-02
  -9.18999958       1.39958123E-02
  -9.18000031       1.46270795E-02
  -9.17000008       1.54165868E-02
  -9.15999985       1.63665470E-02
  -9.14999962       1.74778625E-02
  -9.14000034       1.87499505E-02
  -9.13000011       2.01806370E-02
  -9.11999989       2.17661485E-02
  -9.10999966       2.35009771E-02
  -9.10000038       2.53779627E-02
  -9.09000015       2.73883846E-02
  -9.07999992       2.95219310E-02
  -9.06999969       3.17669436E-02
  -9.06000042       3.41103896E-02
  -9.05000019       3.65381315E-02
  -9.03999996       3.90349329E-02
  -9.02999973       4.15845439E-02
  -9.02000046       4.41698767E-02
  -9.01000023       4.67729717E-02
  -9.00000000       4.93751913E-02
  -8.98999977       5.19573539E-02
  -8.97999954       5.44998720E-02
  -8.97000027       5.69831207E-02
  -8.96000004       5.93876876E-02
  -8.94999981       6.16946518E-02
  -8.93999958       6.38858154E-02
  -8.93000031       6.59440383E-02
  -8.92000008       6.78532198E-02
  -8.90999985       6.95983618E-02
  -8.89999962       7.11656213E-02
  -8.89000034       7.25423023E-02
  -8.88000011       7.37168938E-02
  -8.86999989       7.46791139E-02
  -8.85999966       7.54201338E-02
  -8.85000038       7.59326965E-02
  -8.84000015       7.62111396E-02
  -8.82999992       7.62515590E-02
  -8.81999969       7.60517269E-02
  -8.81000042       7.56109655E-02
  -8.80000019       7.49299154E-02
  -8.78999996       7.40105137E-02
  -8.77999973       7.28556514E-02
  -8.77000046       7.14693069E-02
  -8.76000023       6.98562786E-02
  -8.75000000       6.80223629E-02
  -8.73999977       6.59742653E-02
  -8.72999954       6.37195110E-02
  -8.72000027       6.12662882E-02
  -8.71000004       5.86232841E-02
  -8.69999981       5.57995513E-02
  -8.68999958       5.28042577E-02
  -8.68000031       4.96466719E-02
  -8.67000008       4.63362001E-02
  -8.65999985       4.28823866E-02
  -8.64999962       3.92950512E-02
  -8.64000034       3.55842933E-02
  -8.63000011       3.17606293E-02
  -8.61999989       2.78347060E-02
  -8.60999966       2.38174014E-02
  -8.60000038       1.97194424E-02
  -8.59000015       1.55513743E-02
  -8.57999992       1.13234902E-02
  -8.56999969       7.04573421E-03
  -8.56000042       2.72778375E-03
  -8.55000019      -1.62095856E-03
  -8.53999996      -5.99134481E-03
  -8.52999973      -1.03744771E-02
  -8.52000046      -1.47618279E-02
  -8.51000023      -1.91454422E-02
  -8.50000000      -2.35177390E-02
  -8.48999977      -2.78719086E-02
  -8.47999954      -3.22017483E-02
  -8.47000027      -3.65015492E-02
  -8.46000004      -4.07662019E-02
  -8.44999981      -4.49909493E-02
  -8.43999958      -4.91714776E-02
  -8.43000031      -5.33038676E-02
  -8.42000008      -5.73845282E-02
  -8.40999985      -6.14103936E-02
  -8.39999962      -6.53788298E-02
  -8.39000034      -6.92875683E-02
  -8.38000011      -7.31345713E-02
  -8.36999989      -7.69178569E-02
  -8.35999966      -8.06353539E-02
  -8.35000038      -8.42846110E-02
  -8.34000015      -8.78628939E-02
  -8.32999992      -9.13669541E-02
  -8.31999969      -9.47932526E-02
  -8.31000042      -9.81380343E-02
  -8.30000019     -0.101397127    
  -8.28999996     -0.104566388    
  -8.27999973     -0.107641384    
  -8.27000046     -0.110617436    
  -8.26000023     -0.113489434    
  -8.25000000     -0.116251856    
  -8.23999977     -0.118898608    
  -8.22999954     -0.121422984    
  -8.22000027     -0.123817809    
  -8.21000004     -0.126075312    
  -8.19999981     -0.128187463    
  -8.18999958     -0.130145729    
  -8.18000031     -0.131941348    
  -8.17000008     -0.133565247    
  -8.15999985     -0.135008112    
  -8.14999962     -0.136260435    
  -8.14000034     -0.137312666    
  -8.13000011     -0.138155162    
  -8.11999989     -0.138778612    
  -8.10999966     -0.139174029    
  -8.10000038     -0.139333010    
  -8.09000015     -0.139247894    
  -8.07999992     -0.138911992    
  -8.06999969     -0.138319537    
  -8.06000042     -0.137465879    
  -8.05000019     -0.136347532    
  -8.03999996     -0.134962231    
  -8.02999973     -0.133309051    
  -8.02000046     -0.131388500    
  -8.01000023     -0.129202530    
  -8.00000000     -0.126754656    
  -7.98999977     -0.124049872    
  -7.98000002     -0.121094659    
  -7.96999979     -0.117896751    
  -7.96000004     -0.114465117    
  -7.94999981     -0.110809781    
  -7.94000006     -0.106941558    
  -7.92999983     -0.102872096    
  -7.92000008      -9.86137837E-02
  -7.90999985      -9.41797793E-02
  -7.90000010      -8.95839259E-02
  -7.88999987      -8.48409012E-02
  -7.88000011      -7.99659938E-02
  -7.86999989      -7.49749318E-02
  -7.86000013      -6.98837861E-02
  -7.84999990      -6.47085831E-02
  -7.84000015      -5.94651774E-02
  -7.82999992      -5.41689135E-02
  -7.82000017      -4.88347113E-02
  -7.80999994      -4.34769019E-02
  -7.80000019      -3.81093621E-02
  -7.78999996      -3.27456221E-02
  -7.78000021      -2.73988321E-02
  -7.76999998      -2.20819227E-02
  -7.76000023      -1.68074016E-02
  -7.75000000      -1.15873376E-02
  -7.73999977      -6.43321732E-03
  -7.73000002      -1.35585887E-03
  -7.71999979       3.63477040E-03
  -7.71000004       8.52919929E-03
  -7.69999981       1.33188860E-02
  -7.69000006       1.79957114E-02
  -7.67999983       2.25522220E-02
  -7.67000008       2.69816536E-02
  -7.65999985       3.12781110E-02
  -7.65000010       3.54365781E-02
  -7.63999987       3.94532122E-02
  -7.63000011       4.33254130E-02
  -7.61999989       4.70518246E-02
  -7.61000013       5.06322347E-02
  -7.59999990       5.40676080E-02
  -7.59000015       5.73595986E-02
  -7.57999992       6.05108626E-02
  -7.57000017       6.35246709E-02
  -7.55999994       6.64049983E-02
  -7.55000019       6.91566169E-02
  -7.53999996       7.17851818E-02
  -7.53000021       7.42969662E-02
  -7.51999998       7.66991228E-02
  -7.51000023       7.89992511E-02
  -7.50000000       8.12053904E-02
  -7.48999977       8.33256319E-02
  -7.48000002       8.53682160E-02
  -7.46999979       8.73411968E-02
  -7.46000004       8.92527550E-02
  -7.44999981       9.11108106E-02
  -7.44000006       9.29236114E-02