  -16.0000000       0.00000000    
  -15.9899998       0.00000000    
  -15.9799995       0.00000000    
  -15.9700003       0.00000000    
  -15.9600000       0.00000000    
  -15.9499998       0.00000000    
  -15.9399996       0.00000000    
  -15.9300003       0.00000000    
  -15.9200001       0.00000000    
  -15.9099998       0.00000000    
  -15.8999996       0.00000000    
  -15.8900003       0.00000000    
  -15.8800001       0.00000000    
  -15.8699999      -0.00000000    
  -15.8599997      -7.00649232E-45
  -15.8500004      -1.33123354E-43
  -15.8400002      -1.68295946E-42
  -15.8299999      -1.50429390E-41
  -15.8199997      -1.03665258E-40
  -15.8100004      -5.79476151E-40
  -15.8000002      -2.71688511E-39
  -15.7900000      -1.09300159E-38
  -15.7799997      -3.83093448E-38
  -15.7700005      -1.18062265E-37
  -15.7600002      -3.20952212E-37
  -15.7500000      -7.66360758E-37
  -15.7399998      -1.58036548E-36
  -15.7299995      -2.68778552E-36
  -15.7200003      -3.23971093E-36
  -15.7100000      -4.55779343E-37
  -15.6999998       1.20947363E-35
  -15.6899996       4.59205462E-35
  -15.6800003       1.16260857E-34
  -15.6700001       2.33472716E-34
  -15.6599998       3.82161134E-34
  -15.6499996       4.87779049E-34
  -15.6400003       3.84429701E-34
  -15.6300001      -1.79581363E-34
  -15.6199999      -1.44315193E-33
  -15.6099997      -3.40116911E-33
  -15.6000004      -5.48918503E-33
  -15.5900002      -6.40042421E-33
  -15.5799999      -4.41386264E-33
  -15.5699997       1.45212270E-33
  -15.5600004       9.72175485E-33
  -15.5500002       1.55960359E-32
  -15.5400000       1.34789676E-32
  -15.5299997       4.91353039E-33
  -15.5200005       9.64796466E-33
  -15.5100002       6.88243890E-32
  -15.5000000       2.20292343E-31
  -15.4899998       4.28419872E-31
  -15.4799995       4.80975378E-31
  -15.4700003      -6.78319427E-32
  -15.4600000      -1.74907353E-30
  -15.4499998      -4.64919827E-30
  -15.4399996      -7.48987535E-30
  -15.4300003      -6.75902556E-30
  -15.4200001       3.00954164E-30
  -15.4099998       2.62705481E-29
  -15.3999996       5.98638490E-29
  -15.3900003       8.43142819E-29
  -15.3800001       5.91056585E-29
  -15.3699999      -6.72313676E-29
  -15.3599997      -3.20889684E-28
  -15.3500004      -6.39248552E-28
  -15.3400002      -8.04099778E-28
  -15.3299999      -4.31706201E-28
  -15.3199997       8.93525953E-28
  -15.3100004       3.27437827E-27
  -15.3000002       5.98378653E-27
  -15.2900000       7.01886679E-27
  -15.2799997       3.21218691E-27
  -15.2700005      -8.49896090E-27
  -15.2600002      -2.83087666E-26
  -15.2500000      -4.98094140E-26
  -15.2399998      -5.72394206E-26
  -15.2299995      -2.71240763E-26
  -15.2200003       6.19360889E-26
  -15.2100000       2.09839072E-25
  -15.1999998       3.70347417E-25
  -15.1899996       4.34547481E-25
  -15.1800003       2.43827883E-25
  -15.1700001      -3.45731382E-25
  -15.1599998      -1.34103060E-24
  -15.1499996      -2.46094014E-24
  -15.1400003      -3.03634337E-24
  -15.1300001      -2.08421350E-24
  -15.1199999       1.32290721E-24
  -15.1099997       7.35867281E-24
  -15.1000004       1.45771635E-23
  -15.0900002       1.93073912E-23
  -15.0799999       1.59600508E-23
  -15.0699997      -1.10821783E-24
  -15.0600004      -3.39657694E-23
  -15.0500002      -7.64665405E-23
  -15.0400000      -1.10671821E-22
  -15.0299997      -1.07537948E-22
  -15.0200005      -3.51522036E-23
  -15.0100002       1.24107523E-22
  -15.0000000       3.50455736E-22
  -14.9899998       5.66679405E-22
  -14.9799995       6.35814216E-22
  -14.9700003       3.92342432E-22
  -14.9600000      -2.84447490E-22
  -14.9499998      -1.36417259E-21
  -14.9399996      -2.56163639E-21
  -14.9300003      -3.29699248E-21
  -14.9200001      -2.79132623E-21
  -14.9099998      -3.46597537E-22
  -14.8999996       4.20771389E-21
  -14.8900003       1.00239249E-20
  -14.8800001       1.49368850E-20
  -14.8699999       1.56558633E-20
  -14.8599997       8.69473937E-21
  -14.8500004      -7.93341978E-21
  -14.8400002      -3.26169982E-20
  -14.8299999      -5.84576294E-20
  -14.8199997      -7.31443439E-20
  -14.8100004      -6.15022615E-20
  -14.8000002      -1.11942449E-20
  -14.7900000       7.92295821E-20
  -14.7799997       1.92432054E-19
  -14.7700005       2.88542492E-19
  -14.7600002       3.10024062E-19
  -14.7500000       1.98162270E-19
  -14.7399998      -7.96150612E-20
  -14.7299995      -4.98058268E-19
  -14.7200003      -9.50463921E-19
  -14.7100000      -1.24899537E-18
  -14.6999998      -1.16287770E-18
  -14.6899996      -4.98763957E-19
  -14.6800003       7.89459729E-19
  -14.6700001       2.49478004E-18
  -14.6599998       4.10512946E-18
  -14.6499996       4.85853342E-18
  -14.6400003       3.93926072E-18
  -14.6300001       8.04431802E-19
  -14.6199999      -4.43245724E-18
  -14.6099997      -1.06978259E-17
  -14.6000004      -1.59065409E-17
  -14.5900002      -1.73141095E-17
  -14.5799999      -1.23275016E-17
  -14.5699997       3.37649801E-19
  -14.5600004       1.94662548E-17
  -14.5500002       4.05971543E-17
  -14.5400000       5.62419818E-17
  -14.5299997       5.74388394E-17
  -14.5200005       3.66361536E-17
  -14.5100002      -8.63849943E-18
  -14.5000000      -7.24325468E-17
  -14.4899998      -1.38818125E-16
  -14.4799995      -1.83546044E-16
  -14.4700003      -1.79662901E-16
  -14.4600000      -1.06626837E-16
  -14.4499998       3.90960994E-17
  -14.4399996       2.35381403E-16
  -14.4300003       4.31831664E-16
  -14.4200001       5.56650730E-16
  -14.4099998       5.34261055E-16
  -14.3999996       3.11392367E-16
  -14.3900003      -1.14654142E-16
  -14.3800001      -6.75068424E-16
  -14.3699999      -1.22630550E-15
  -14.3599997      -1.57235785E-15
  -14.3500004      -1.51395016E-15
  -14.3400002      -9.16934447E-16
  -14.3299999       2.17386890E-16
  -14.3199997       1.70395956E-15
  -14.3100004       3.17210006E-15
  -14.3000002       4.12646119E-15
  -14.2900000       4.07093140E-15
  -14.2799997       2.67397756E-15
  -14.2700005      -6.70527626E-17
  -14.2600002      -3.71810152E-15
  -14.2500000      -7.41053201E-15
  -14.2399998      -9.98609493E-15
  -14.2299995      -1.02799586E-14
  -14.2200003      -7.49018699E-15
  -14.2100000      -1.53899798E-15
  -14.1999998       6.69257884E-15
  -14.1899996       1.53665244E-14
  -14.1800003       2.19896834E-14
  -14.1700001       2.40002855E-14
  -14.1599998       1.95297896E-14
  -14.1499996       8.14826891E-15
  -14.1400003      -8.64024598E-15
  -14.1300001      -2.73644988E-14
  -14.1199999      -4.31338992E-14
  -14.1099997      -5.07359420E-14
  -14.1000004      -4.60775318E-14
  -14.0900002      -2.76163132E-14
  -14.0799999       2.64308966E-15
  -14.0699997       3.89700310E-14
  -14.0600004       7.27611195E-14
  -14.0500002       9.43781796E-14
  -14.0400000       9.56256829E-14
  -14.0299997       7.22740688E-14
  -14.0200005       2.59191421E-14
  -14.0100002      -3.54597502E-14
  -14.0000000      -9.86093667E-14
  -13.9899998      -1.47726707E-13
  -13.9799995      -1.68277583E-13
  -13.9700003      -1.51005564E-13
  -13.9600000      -9.50500597E-14
  -13.9499998      -9.20370500E-15
  -13.9399996       8.92578315E-14
  -13.9300003       1.78126231E-13
  -13.9200001       2.35471202E-13
  -13.9099998       2.45251465E-13
  -13.8999996       2.01830401E-13
  -13.8900003       1.12070245E-13
  -13.8800001      -5.75250356E-15
  -13.8699999      -1.26128491E-13
  -13.8599997      -2.22621387E-13
  -13.8500004      -2.74644944E-13
  -13.8400002      -2.72806842E-13
  -13.8299999      -2.21208739E-13
  -13.8199997      -1.35895405E-13
  -13.8100004      -3.97571990E-14
  -13.8000002       4.46955705E-14
  -13.7900000       1.02494510E-13
  -13.7799997       1.30962989E-13
  -13.7700005       1.40273345E-13
  -13.7600002       1.49229194E-13
  -13.7500000       1.77213902E-13
  -13.7399998       2.34652521E-13
  -13.7299995       3.15173099E-13
  -13.7200003       3.92581448E-13
  -13.7100000       4.24688225E-13
  -13.6999998       3.64138000E-13
  -13.6899996       1.74152942E-13
  -13.6800003      -1.54840428E-13
  -13.6700001      -5.92766938E-13
  -13.6599998      -1.06638353E-12
  -13.6499996      -1.46764816E-12
  -13.6400003      -1.67402116E-12
  -13.6300001      -1.57736628E-12
  -13.6199999      -1.11517729E-12
  -13.6099997      -2.96243851E-13
  -13.6000004       7.86819286E-13
  -13.5900002       1.96336328E-12
  -13.5799999       3.00995838E-12
  -13.5699997       3.69146857E-12
  -13.5600004       3.81001480E-12
  -13.5500002       3.25120811E-12
  -13.5400000       2.01689230E-12
  -13.5299997       2.36119907E-13
  -13.5200005      -1.84917945E-12
  -13.5100002      -3.92161520E-12
  -13.5000000      -5.64128431E-12
  -13.4899998      -6.70317621E-12
  -13.4799995      -6.88728805E-12
  -13.4700003      -6.09204484E-12
  -13.4600000      -4.34624602E-12
  -13.4499998      -1.80043361E-12
  -13.4399996       1.29658784E-12
  -13.4300003       4.62771661E-12
  -13.4200001       7.83614753E-12
  -13.4099998       1.05481752E-11
  -13.3999996       1.23908991E-11
  -13.3900003       1.30105215E-11
  -13.3800001       1.20995245E-11
  -13.3699999       9.43982392E-12
  -13.3599997       4.96346020E-12
  -13.3500004      -1.17627501E-12
  -13.3400002      -8.53990576E-12
  -13.3299999      -1.63665869E-11
  -13.3199997      -2.35937311E-11
  -13.3100004      -2.89501791E-11
  -13.3000002      -3.11276803E-11
  -13.2900000      -2.90158331E-11
  -13.2799997      -2.19651346E-11
  -13.2700005      -1.00259809E-11
  -13.2600002       5.89519579E-12
  -13.2500000       2.40152620E-11
  -13.2399998       4.18215775E-11
  -13.2299995       5.63880297E-11
  -13.2200003       6.48242640E-11
  -13.2100000       6.47890491E-11
  -13.1999998       5.49759474E-11
  -13.1899996       3.54745365E-11
  -13.1800003       7.92581886E-12
  -13.1700001      -2.45758223E-11
  -13.1599998      -5.78360207E-11
  -13.1499996      -8.71221706E-11
  -13.1400003      -1.07845975E-10
  -13.1300001      -1.16255290E-10
  -13.1199999      -1.10021797E-10
  -13.1099997      -8.86314008E-11
  -13.1000004      -5.35217530E-11
  -13.0900002      -7.95679581E-12
  -13.0799999       4.33283409E-11
  -13.0699997       9.46476994E-11
  -13.0600004       1.39971146E-10
  -13.0500002       1.73543374E-10
  -13.0400000       1.90458538E-10
  -13.0299997       1.87157873E-10
  -13.0200005       1.61836974E-10
  -13.0100002       1.14757842E-10
  -13.0000000       4.84558990E-11
  -12.9899998      -3.21853551E-11
  -12.9799995      -1.20039478E-10
  -12.9700003      -2.06081208E-10
  -12.9600000      -2.80024115E-10
  -12.9499998      -3.31274952E-10
  -12.9399996      -3.50171281E-10
  -12.9300003      -3.29397953E-10
  -12.9200001      -2.65403838E-10
  -12.9099998      -1.59585942E-10
  -12.8999996      -1.89896519E-11
  -12.8900003       1.43694542E-10
  -12.8800001       3.10972581E-10
  -12.8699999       4.62236610E-10
  -12.8599997       5.76164838E-10
  -12.8500004       6.33549990E-10
  -12.8400002       6.20169527E-10
  -12.8299999       5.29265576E-10
  -12.8199997       3.63225561E-10
  -12.8100004       1.34155756E-10
  -12.8000002      -1.36806733E-10
  -12.7900000      -4.21414209E-10
  -12.7799997      -6.87255031E-10
  -12.7700005      -9.01369590E-10
  -12.7600002      -1.03409437E-09
  -12.7500000      -1.06267373E-09
  -12.7399998      -9.74220260E-10
  -12.7299995      -7.67700570E-10
  -12.7200003      -4.54742993E-10
  -12.7100000      -5.91956623E-11
  -12.6999998       3.84529603E-10
  -12.6899996       8.34189440E-10
  -12.6800003       1.24331612E-09
  -12.6700001       1.56544055E-09
  -12.6599998       1.75862058E-09
  -12.6499996       1.78992898E-09
  -12.6400003       1.63950520E-09
  -12.6300001       1.30375610E-09
  -12.6199999       7.97289845E-10
  -12.6099997       1.53228846E-10
  -12.6000004      -5.78343040E-10
  -12.5900002      -1.33386269E-09
  -12.5799999      -2.04152917E-09
  -12.5699997      -2.62789057E-09
  -12.5600004      -3.02512859E-09
  -12.5500002      -3.17824034E-09
  -12.5400000      -3.05124770E-09
  -12.5299997      -2.63165312E-09
  -12.5200005      -1.93254346E-09
  -12.5100002      -9.92063209E-10
  -12.5000000       1.29682695E-10
  -12.4899998       1.35587364E-09
  -12.4799995       2.59965360E-09
  -12.4700003       3.77137832E-09
  -12.4600000       4.78550355E-09
  -12.4499998       5.56630964E-09
  -12.4399996       6.05186923E-09
  -12.4300003       6.19593399E-09
  -12.4200001       5.96773075E-09
  -12.4099998       5.34988276E-09
  -12.3999996       4.33489511E-09
  -12.3900003       2.92070190E-09
  -12.3800001       1.10583309E-09
  -12.3699999      -1.11529008E-09
  -12.3599997      -3.75647780E-09
  -12.3500004      -6.84288093E-09
  -12.3400002      -1.04127391E-08
  -12.3299999      -1.45174264E-08
  -12.3199997      -1.92195042E-08
  -12.3100004      -2.45885410E-08
  -12.3000002      -3.06946930E-08
  -12.2900000      -3.76001772E-08
  -12.2799997      -4.53490010E-08
  -12.2700005      -5.39557412E-08
  -12.2600002      -6.33944452E-08
  -12.2500000      -7.35885806E-08
  -12.2399998      -8.44035526E-08
  -12.2299995      -9.56426263E-08
  -12.2200003      -1.07047200E-07
  -12.2100000      -1.18301656E-07
  -12.1999998      -1.29042704E-07
  -12.1899996      -1.38872409E-07
  -12.1800003      -1.47373711E-07
  -12.1700001      -1.54127520E-07
  -12.1599998      -1.58729435E-07
  -12.1499996      -1.60805200E-07
  -12.1400003      -1.60023887E-07
  -12.1300001      -1.56107888E-07
  -12.1199999      -1.48840144E-07
  -12.1099997      -1.38068160E-07
  -12.1000004      -1.23705647E-07
  -12.0900002      -1.05731765E-07
  -12.0799999      -8.41888692E-08
  -12.0699997      -5.91787028E-08
  -12.0600004      -3.08575814E-08
  -12.0500002       5.69438607E-10
  -12.0400000       3.48551730E-08
  -12.0299997       7.17175368E-08
  -12.0200005       1.10846791E-07
  -12.0100002       1.51912957E-07
  -12.0000000       1.94571911E-07
  -11.9899998       2.38470591E-07
  -11.9799995       2.83250415E-07
  -11.9700003       3.28548538E-07
  -11.9600000       3.73997239E-07
  -11.9499998       4.19221635E-07
  -11.9399996       4.63835960E-07
  -11.9300003       5.07439779E-07
  -11.9200001       5.49613446E-07
  -11.9099998       5.89915146E-07
  -11.8999996       6.27878649E-07
  -11.8900003       6.63012088E-07
  -11.8800001       6.94800008E-07
  -11.8699999       7.22704726E-07
  -11.8599997       7.46171111E-07
  -11.8500004       7.64632318E-07
  -11.8400002       7.77516561E-07
  -11.8299999       7.84255292E-07
  -11.8199997       7.84293661E-07
  -11.8100004       7.77100354E-07
  -11.8000002       7.62180662E-07
  -11.7900000       7.39088023E-07
  -11.7799997       7.07437550E-07
  -11.7700005       6.66918822E-07
  -11.7600002       6.17307023E-07
  -11.7500000       5.58473687E-07
  -11.7399998       4.90394655E-07
  -11.7299995       4.13155504E-07
  -11.7200003       3.26954137E-07
  -11.7100000       2.32101144E-07
  -11.6999998       1.29016485E-07
  -11.6899996       1.82241475E-08
  -11.6800003      -9.96553027E-08
  -11.6700001      -2.23914057E-07
  -11.6599998      -3.53767660E-07
  -11.6499996      -4.88366481E-07
  -11.6400003      -6.26807036E-07
  -11.6300001      -7.68144218E-07
  -11.6199999      -9.11402310E-07
  -11.6099997      -1.05558377E-06
  -11.6000004      -1.19967945E-06
  -11.5900002      -1.34267339E-06
  -11.5799999      -1.48354695E-06
  -11.5699997      -1.62128242E-06
  -11.5600004      -1.75486070E-06
  -11.5500002      -1.88325976E-06
  -11.5400000      -2.00545037E-06
  -11.5299997      -2.12039049E-06
  -11.5200005      -2.22702215E-06
  -11.5100002      -2.32426419E-06
  -11.5000000      -2.41101247E-06
  -11.4899998      -2.48613355E-06
  -11.4799995      -2.54847032E-06
  -11.4700003      -2.59684134E-06
  -11.4600000      -2.63004927E-06
  -11.4499998      -2.64688765E-06
  -11.4399996      -2.64615323E-06
  -11.4300003      -2.62665799E-06
  -11.4200001      -2.58724526E-06
  -11.4099998      -2.52680752E-06
  -11.3999996      -2.44430134E-06
  -11.3900003      -2.33876881E-06
  -11.3800001      -2.20935408E-06
  -11.3699999      -2.05531819E-06
  -11.3599997      -1.87605485E-06
  -11.3500004      -1.67110068E-06
  -11.3400002      -1.44014280E-06
  -11.3299999      -1.18301944E-06
  -11.3199997      -8.99719907E-07
  -11.3100004      -5.90375350E-07
  -11.3000002      -2.55248523E-07
  -11.2900000       1.05281934E-07
  -11.2799997       4.90739694E-07
  -11.2700005       9.00570456E-07
  -11.2600002       1.33416199E-06
  -11.2500000       1.79086476E-06
  -11.2399998       2.27000896E-06
  -11.2299995       2.77092249E-06
  -11.2200003       3.29294085E-06
  -11.2100000       3.83542056E-06
  -11.1999998       4.39773976E-06
  -11.1899996       4.97930296E-06
  -11.1800003       5.57954081E-06
  -11.1700001       6.19789898E-06
  -11.1599998       6.83383541E-06
  -11.1499996       7.48680804E-06
  -11.1400003       8.15625572E-06
  -11.1300001       8.84159454E-06
  -11.1199999       9.54219104E-06
  -11.1099997       1.02573640E-05
  -11.1000004       1.09863558E-05
  -11.0900002       1.17283435E-05
  -11.0799999       1.24824164E-05
  -11.0699997       1.32475870E-05
  -11.0600004       1.40227894E-05
  -11.0500002       1.48068993E-05
  -11.0400000       1.55987345E-05
  -11.0299997       1.63970781E-05
  -11.0200005       1.72007040E-05
  -11.0100002       1.80083862E-05
  -11.0000000       1.88189260E-05
  -10.9899998       1.96311630E-05
  -10.9799995       2.04439948E-05
  -10.9700003       2.12564046E-05
  -10.9600000       2.20674410E-05
  -10.9499998       2.28762492E-05
  -10.9399996       2.36820688E-05
  -10.9300003       2.44842049E-05
  -10.9200001       2.52820664E-05
  -10.9099998       2.60751149E-05
  -10.8999996       2.68628901E-05
  -10.8900003       2.76449773E-05
  -10.8800001       2.84209891E-05
  -10.8699999       2.91905744E-05
  -10.8599997       2.99533622E-05
  -10.8500004       3.07090013E-05
  -10.8400002       3.14570934E-05
  -10.8299999       3.21972184E-05
  -10.8199997       3.29289178E-05
  -10.8100004       3.36516568E-05
  -10.8000002       3.43648753E-05
  -10.7900000       3.50679547E-05
  -10.7799997       3.57602294E-05
  -10.7700005       3.64410043E-05
  -10.7600002       3.71095630E-05
  -10.7500000       3.77651886E-05
  -10.7399998       3.84071827E-05
  -10.7299995       3.90348541E-05
  -10.7200003       3.96475771E-05
  -10.7100000       4.02447731E-05
  -10.6999998       4.08259220E-05
  -10.6899996       4.13905946E-05
  -10.6800003       4.19384487E-05
  -10.6700001       4.24692043E-05
  -10.6599998       4.29827160E-05
  -10.6499996       4.34788853E-05
  -10.6400003       4.39577634E-05
  -10.6300001       4.44194520E-05
  -10.6199999       4.48641622E-05
  -10.6099997       4.52921922E-05
  -10.6000004       4.57039132E-05
  -10.5900002       4.60998017E-05
  -10.5799999       4.64803416E-05
  -10.5699997       4.68461330E-05
  -10.5600004       4.71977983E-05
  -10.5500002       4.75360212E-05
  -10.5400000       4.78615184E-05
  -10.5299997       4.81750794E-05
  -10.5200005       4.84775046E-05
  -10.5100002       4.87696598E-05
  -10.5000000       4.90524289E-05
  -10.4899998       4.93267507E-05
  -10.4799995       4.95935637E-05
  -10.4700003       4.98538466E-05
  -10.4600000       5.01085560E-05
  -10.4499998       5.03586707E-05
  -10.4399996       5.06051329E-05
  -10.4300003       5.08488592E-05
  -10.4200001       5.10907266E-05
  -10.4099998       5.13315572E-05
  -10.3999996       5.15721185E-05
  -10.3900003       5.18131019E-05
  -10.3800001       5.20551548E-05
  -10.3699999       5.22988303E-05
  -10.3599997       5.25446194E-05
  -10.3500004       5.27929151E-05
  -10.3400002       5.30440775E-05
  -10.3299999       5.32983577E-05
  -10.3199997       5.35559375E-05
  -10.3100004       5.38169297E-05
  -10.3000002       5.40814035E-05
  -10.2900000       5.43493479E-05
  -10.2799997       5.46207084E-05
  -10.2700005       5.48953903E-05
  -10.2600002       5.51732664E-05
  -10.2500000       5.54541766E-05
  -10.2399998       5.57379208E-05
  -10.2299995       5.60243352E-05
  -10.2200003       5.63132198E-05
  -10.2100000       5.66043454E-05
  -10.1999998       5.68975411E-05
  -10.1899996       5.71926248E-05
  -10.1800003       5.74894329E-05
  -10.1700001       5.77878673E-05
  -10.1599998       5.80878295E-05
  -10.1499996       5.83892834E-05
  -10.1400003       5.86922652E-05
  -10.1300001       5.89968295E-05
  -10.1199999       5.93030891E-05
  -10.1099997       5.96112295E-05
  -10.1000004       5.99214472E-05
  -10.0900002       6.02340187E-05
  -10.0799999       6.05491987E-05
  -10.0699997       6.08672781E-05
  -10.0600004       6.11886135E-05
  -10.0500002       6.15135359E-05
  -10.0400000       6.18424092E-05
  -10.0299997       6.21755898E-05
  -10.0200005       6.25134708E-05
  -10.0100002       6.28564521E-05
  -10.0000000       6.32049196E-05
  -9.98999977       6.35593242E-05
  -9.97999954       6.39200807E-05
  -9.97000027       6.42876694E-05
  -9.96000004       6.46625340E-05
  -9.94999981       6.50452348E-05
  -9.93999958       6.54363394E-05
  -9.93000031       6.58364515E-05
  -9.92000008       6.62462844E-05
  -9.90999985       6.66666165E-05
  -9.89999962       6.70983281E-05
  -9.89000034       6.75423871E-05
  -9.88000011       6.79998993E-05
  -9.86999989       6.84720362E-05
  -9.85999966       6.89601075E-05
  -9.85000038       6.94655173E-05
  -9.84000015       6.99897791E-05
  -9.82999992       7.05344355E-05
  -9.81999969       7.11011671E-05
  -9.81000042       7.16916693E-05
  -9.80000019       7.23077101E-05
  -9.78999996       7.29510793E-05
  -9.77999973       7.36235816E-05
  -9.77000046       7.43270211E-05
  -9.76000023       7.50631734E-05
  -9.75000000       7.58337483E-05
  -9.73999977       7.66404628E-05
  -9.72999954       7.74849614E-05
  -9.72000027       7.83687719E-05
  -9.71000004       7.92933279E-05
  -9.69999981       8.02600116E-05
  -9.68999958       8.12700382E-05
  -9.68000031       8.23245646E-05
  -9.67000008       8.34245729E-05
  -9.65999985       8.45709146E-05
  -9.64999962       8.57643172E-05
  -9.64000034       8.70053191E-05
  -9.63000011       8.82943204E-05
  -9.61999989       8.96315105E-05
  -9.60999966       9.10169401E-05
  -9.60000038       9.24504420E-05
  -9.59000015       9.39316742E-05
  -9.57999992       9.54601055E-05
  -9.56999969       9.70349720E-05
  -9.56000042       9.86553714E-05
  -9.55000019       1.00320147E-04
  -9.53999996       1.02027981E-04
  -9.52999973       1.03777325E-04
  -9.52000046       1.05566491E-04
  -9.51000023       1.07393615E-04
  -9.50000000       1.09256551E-04
  -9.48999977       1.11153073E-04
  -9.47999954       1.13080816E-04
  -9.47000027       1.15037190E-04
  -9.46000004       1.17019546E-04
  -9.44999981       1.19025157E-04
  -9.43999958       1.21051169E-04
  -9.43000031       1.23094840E-04
  -9.42000008       1.25153354E-04
  -9.40999985       1.27224062E-04
  -9.39999962       1.29304302E-04
  -9.39000034       1.31391702E-04
  -9.38000011       1.33484093E-04
  -9.36999989       1.35579423E-04
  -9.35999966       1.37675976E-04
  -9.35000038       1.39772310E-04
  -9.34000015       1.41867320E-04
  -9.32999992       1.43960249E-04
  -9.31999969       1.46050661E-04
  -9.31000042       1.48138439E-04
  -9.30000019       1.50223932E-04
  -9.28999996       1.52307752E-04
  -9.27999973       1.54390931E-04
  -9.27000046       1.56474911E-04
  -9.26000023       1.58561335E-04
  -9.25000000       1.60652358E-04
  -9.23999977       1.62750308E-04
  -9.22999954       1.64857920E-04
  -9.22000027       1.66978265E-04
  -9.21000004       1.69114588E-04
  -9.19999981       1.71270411E-04
  -9.18999958       1.73449487E-04
  -9.18000031       1.75655761E-04
  -9.17000008       1.77893307E-04
  -9.15999985       1.80166360E-04
  -9.14999962       1.82479125E-04
  -9.14000034       1.84835953E-04
  -9.13000011       1.87241109E-04
  -9.11999989       1.89698796E-04
  -9.10999966       1.92213105E-04
  -9.10000038       1.94787950E-04
  -9.09000015       1.97427100E-04
  -9.07999992       2.00134004E-04
  -9.06999969       2.02911891E-04
  -9.06000042       2.05763499E-04
  -9.05000019       2.08691403E-04
  -9.03999996       2.11697668E-04
  -9.02999973       2.14783853E-04
  -9.02000046       2.17951165E-04
  -9.01000023       2.21200302E-04
  -9.00000000       2.24531323E-04
  -8.98999977       2.27943936E-04
  -8.97999954       2.31437269E-04
  -8.97000027       2.35009909E-04
  -8.96000004       2.38659806E-04
  -8.94999981       2.42384544E-04
  -8.93999958       2.46181095E-04
  -8.93000031       2.50045967E-04
  -8.92000008       2.53975129E-04
  -8.90999985       2.57964159E-04
  -8.89999962       2.62008136E-04
  -8.89000034       2.66101852E-04
  -8.88000011       2.70239660E-04
  -8.86999989       2.74415506E-04
  -8.85999966       2.78623367E-04
  -8.85000038       2.82856781E-04
  -8.84000015       2.87109171E-04
  -8.82999992       2.91373872E-04
  -8.81999969       2.95644160E-04
  -8.81000042       2.99913256E-04
  -8.80000019       3.04174551E-04
  -8.78999996       3.08421353E-04
  -8.77999973       3.12647288E-04
  -8.77000046       3.16845952E-04
  -8.76000023       3.21011525E-04
  -8.75000000       3.25138215E-04
  -8.73999977       3.29220609E-04
  -8.72999954       3.33253585E-04
  -8.72000027       3.37232603E-04
  -8.71000004       3.41153354E-04
  -8.69999981       3.45011940E-04
  -8.68999958       3.48805042E-04
  -8.68000031       3.52529692E-04
  -8.67000008       3.56183446E-04
  -8.65999985       3.59764206E-04
  -8.64999962       3.63270257E-04
  -8.64000034       3.66700493E-04
  -8.63000011       3.70054244E-04
  -8.61999989       3.73330957E-04
  -8.60999966       3.76530865E-04
  -8.60000038       3.79654259E-04
  -8.59000015       3.82702070E-04
  -8.57999992       3.85675317E-04
  -8.56999969       3.88575456E-04
  -8.56000042       3.91404144E-04
  -8.55000019       3.94163391E-04
  -8.53999996       3.96855496E-04
  -8.52999973       3.99482902E-04
  -8.52000046       4.02048143E-04
  -8.51000023       4.04554303E-04
  -8.50000000       4.07004030E-04
  -8.48999977       4.09400760E-04
  -8.47999954       4.11747780E-04
  -8.47000027       4.14048292E-04
  -8.46000004       4.16305877E-04
  -8.44999981       4.18523938E-04
  -8.43999958       4.20706201E-04
  -8.43000031       4.22855985E-04
  -8.42000008       4.24976955E-04
  -8.40999985       4.27072548E-04
  -8.39999962       4.29146399E-04
  -8.39000034       4.31202119E-04
  -8.38000011       4.33242996E-04
  -8.36999989       4.35272610E-04
  -8.35999966       4.37294482E-04
  -8.35000038       4.39311872E-04
  -8.34000015       4.41328477E-04
  -8.32999992       4.43347613E-04
  -8.31999969       4.45372891E-04
  -8.31000042       4.47407743E-04
  -8.30000019       4.49455838E-04
  -8.28999996       4.51520900E-04
  -8.27999973       4.53606743E-04
  -8.27000046       4.55717498E-04
  -8.26000023       4.57856688E-04
  -8.25000000       4.60028677E-04
  -8.23999977       4.62237833E-04
  -8.22999954       4.64488461E-04
  -8.22000027       4.66784957E-04
  -8.21000004       4.69132065E-04
  -8.19999981       4.71534528E-04
  -8.18999958       4.73997294E-04
  -8.18000031       4.76525078E-04
  -8.17000008       4.79123351E-04
  -8.15999985       4.81797091E-04
  -8.14999962       4.84551623E-04
  -8.14000034       4.87392303E-04
  -8.13000011       4.90324397E-04
  -8.11999989       4.93353349E-04
  -8.10999966       4.96484456E-04
  -8.10000038       4.99723013E-04
  -8.09000015       5.03074203E-04
  -8.07999992       5.06543147E-04
  -8.06999969       5.10134734E-04
  -8.06000042       5.13853738E-04
  -8.05000019       5.17704641E-04
  -8.03999996       5.21691923E-04
  -8.02999973       5.25819662E-04
  -8.02000046       5.30091464E-04
  -8.01000023       5.34510938E-04
  -8.00000000       5.39081404E-04
  -7.98999977       5.43805771E-04
  -7.98000002       5.48686599E-04
  -7.96999979       5.53725986E-04
  -7.96000004       5.58925734E-04
  -7.94999981       5.64287242E-04
  -7.94000006       5.69811615E-04
  -7.92999983       5.75499434E-04
  -7.92000008       5.81350643E-04
  -7.90999985       5.87365241E-04
  -7.90000010       5.93542529E-04
  -7.88999987       5.99881692E-04
  -7.88000011       6.06381218E-04
  -7.86999989       6.13039359E-04
  -7.86000013       6.19853730E-04
  -7.84999990       6.26821944E-04
  -7.84000015       6.33940974E-04
  -7.82999992       6.41207676E-04
  -7.82000017       6.48618385E-04
  -7.80999994       6.56169315E-04
  -7.80000019       6.63856510E-04
  -7.78999996       6.71675662E-04
  -7.78000021       6.79622288E-04
  -7.76999998       6.87692256E-04
  -7.76000023       6.95880677E-04
  -7.75000000       7.04182952E-04
  -7.73999977       7.12594599E-04
  -7.73000002       7.21110788E-04
  -7.71999979       7.29727035E-04
  -7.71000004       7.38438801E-04
  -7.69999981       7.47241953E-04
  -7.69000006       7.56132067E-04
  -7.67999983       7.65105244E-04
  -7.67000008       7.74157816E-04
  -7.65999985       7.83286290E-04
  -7.65000010       7.92487233E-04
  -7.63999987       8.01757851E-04
  -7.63000011       8.11095117E-04
  -7.61999989       8.20496760E-04
  -7.61000013       8.29960278E-04
  -7.59999990       8.39484390E-04
  -7.59000015       8.49067583E-04
  -7.57999992       8.58708518E-04
  -7.57000017       8.68406845E-04
  -7.55999994       8.78161867E-04
  -7.55000019       8.87973874E-04
  -7.53999996       8.97843041E-04
  -7.53000021       9.07770242E-04
  -7.51999998       9.17756348E-04
  -7.51000023       9.27803281E-04
  -7.50000000       9.37912730E-04
  -7.48999977       9.48086497E-04
  -7.48000002       9.58327379E-04
  -7.46999979       9.68638225E-04
  -7.46000004       9.79022356E-04
  -7.44999981       9.89482971E-04
  -7.44000006       1.00002345E-03