  -16.0000000       0.00000000    
  -15.9899998       0.00000000    
  -15.9799995       0.00000000    
  -15.9700003       0.00000000    
  -15.9600000       0.00000000    
  -15.9499998       0.00000000    
  -15.9399996       0.00000000    
  -15.9300003       0.00000000    
  -15.9200001       0.00000000    
  -15.9099998       0.00000000    
  -15.8999996       0.00000000    
  -15.8900003       0.00000000    
  -15.8800001       0.00000000    
  -15.8699999       0.00000000    
  -15.8599997       0.00000000    
  -15.8500004       0.00000000    
  -15.8400002       0.00000000    
  -15.8299999      -0.00000000    
  -15.8199997      -0.00000000    
  -15.8100004      -1.40129846E-45
  -15.8000002      -9.80908925E-45
  -15.7900000      -5.04467447E-44
  -15.7799997      -2.18602560E-43
  -15.7700005      -8.32371288E-43
  -15.7600002      -2.80119563E-42
  -15.7500000      -8.40358689E-42
  -15.7399998      -2.25777209E-41
  -15.7299995      -5.43815908E-41
  -15.7200003      -1.17029441E-40
  -15.7100000      -2.22414092E-40
  -15.6999998      -3.62737318E-40
  -15.6899996      -4.69733462E-40
  -15.6800003      -3.46218812E-40
  -15.6700001       4.16116980E-40
  -15.6599998       2.47608598E-39
  -15.6499996       6.61655300E-39
  -15.6400003       1.32646464E-38
  -15.6300001       2.14768286E-38
  -15.6199999       2.74006174E-38
  -15.6099997       2.27356654E-38
  -15.6000004      -5.42010615E-39
  -15.5900002      -7.09904640E-38
  -15.5799999      -1.78926700E-37
  -15.5699997      -3.07722497E-37
  -15.5600004      -3.88368233E-37
  -15.5500002      -2.92720891E-37
  -15.5400000       1.44797314E-37
  -15.5299997       1.04238588E-36
  -15.5200005       2.30522593E-36
  -15.5100002       3.40688310E-36
  -15.5000000       3.23330074E-36
  -15.4899998       2.16937504E-37
  -15.4799995      -6.94133217E-36
  -15.4700003      -1.77641633E-35
  -15.4600000      -2.79316743E-35
  -15.4499998      -2.77231188E-35
  -15.4399996      -3.09724789E-36
  -15.4300003       5.78360153E-35
  -15.4200001       1.51248379E-34
  -15.4099998       2.39338915E-34
  -15.3999996       2.37440285E-34
  -15.3900003       2.54503653E-35
  -15.3800001      -4.93786239E-34
  -15.3699999      -1.27863746E-33
  -15.3599997      -2.00260285E-33
  -15.3500004      -1.96770665E-33
  -15.3400002      -2.29687257E-34
  -15.3299999       3.90602410E-33
  -15.3199997       9.98367997E-33
  -15.3100004       1.53665955E-32
  -15.3000002       1.47953567E-32
  -15.2900000       1.61016516E-33
  -15.2799997      -2.84269916E-32
  -15.2700005      -7.08649767E-32
  -15.2600002      -1.06209523E-31
  -15.2500000      -9.85675758E-32
  -15.2399998      -5.94578928E-33
  -15.2299995       1.93271407E-31
  -15.2200003       4.61216916E-31
  -15.2100000       6.66190453E-31
  -15.1999998       5.85002490E-31
  -15.1899996      -2.15172419E-32
  -15.1800003      -1.24265100E-30
  -15.1700001      -2.79643504E-30
  -15.1599998      -3.86504687E-30
  -15.1499996      -3.16762362E-30
  -15.1400003       5.49816794E-31
  -15.1300001       7.56394993E-30
  -15.1199999       1.60185281E-29
  -15.1099997       2.12118208E-29
  -15.1000004       1.62627285E-29
  -15.0900002      -5.03238987E-30
  -15.0799999      -4.31589044E-29
  -15.0699997      -8.72204260E-29
  -15.0600004      -1.12059439E-28
  -15.0500002      -8.26684003E-29
  -15.0400000       3.06608198E-29
  -15.0299997       2.27345317E-28
  -15.0200005       4.50033109E-28
  -15.0100002       5.73147844E-28
  -15.0000000       4.26921035E-28
  -14.9899998      -1.28947606E-28
  -14.9799995      -1.08868727E-27
  -14.9700003      -2.18099568E-27
  -14.9600000      -2.82120021E-27
  -14.9499998      -2.22359667E-27
  -14.9399996       2.68534049E-28
  -14.9300003       4.66917025E-27
  -14.9200001       9.82676480E-27
  -14.9099998       1.32072017E-26
  -14.8999996       1.13498950E-26
  -14.8900003       1.23287231E-27
  -14.8800001      -1.75882378E-26
  -14.8699999      -4.07636909E-26
  -14.8599997      -5.81057440E-26
  -14.8500004      -5.51820344E-26
  -14.8400002      -1.85221521E-26
  -14.8299999       5.59819394E-26
  -14.8199997       1.54022318E-25
  -14.8100004       2.37836854E-25
  -14.8000002       2.50786277E-25
  -14.7900000       1.35566535E-25
  -14.7799997      -1.34792823E-25
  -14.7700005      -5.21585611E-25
  -14.7600002      -8.97091044E-25
  -14.7500000      -1.05369394E-24
  -14.7399998      -7.61608029E-25
  -14.7299995       1.24320276E-25
  -14.7200003       1.53391459E-24
  -14.7100000       3.08047975E-24
  -14.6999998       4.06000084E-24
  -14.6899996       3.61284292E-24
  -14.6800003       1.06403018E-24
  -14.6700001      -3.62319238E-24
  -14.6599998      -9.44167107E-24
  -14.6499996      -1.42136705E-23
  -14.6400003      -1.49687840E-23
  -14.6300001      -8.93125992E-24
  -14.6199999       5.01847236E-24
  -14.6099997       2.48499989E-23
  -14.6000004       4.45590228E-23
  -14.5900002       5.47780911E-23
  -14.5799999       4.53164839E-23
  -14.5699997       9.47574907E-24
  -14.5600004      -5.09290809E-23
  -14.5500002      -1.21802421E-22
  -14.5400000      -1.76650569E-22
  -14.5299997      -1.82059100E-22
  -14.5200005      -1.09143728E-22
  -14.5100002       5.11656603E-23
  -14.5000000       2.73934259E-22
  -14.4899998       4.93980559E-22
  -14.4799995       6.14240978E-22
  -14.4700003       5.32159357E-22
  -14.4600000       1.81262237E-22
  -14.4499998      -4.22838003E-22
  -14.4399996      -1.14967574E-21
  -14.4300003      -1.75448603E-21
  -14.4200001      -1.92712504E-21
  -14.4099998      -1.39074648E-21
  -14.3999996      -3.14138454E-23
  -14.3900003       1.98126074E-21
  -14.3800001       4.13589822E-21
  -14.3699999       5.63427773E-21
  -14.3599997       5.58553789E-21
  -14.3500004       3.32048130E-21
  -14.3400002      -1.24920398E-21
  -14.3299999      -7.35039397E-21
  -14.3199997      -1.32889094E-20
  -14.3100004      -1.67228891E-20
  -14.3000002      -1.52956746E-20
  -14.2900000      -7.52622316E-21
  -14.2799997       6.28261527E-21
  -14.2700005       2.34547612E-20
  -14.2600002       3.90123095E-20
  -14.2500000       4.66275507E-20
  -14.2399998       4.04277771E-20
  -14.2299995       1.73003274E-20
  -14.2200003      -2.09624062E-20
  -14.2100000      -6.65104071E-20
  -14.1999998      -1.06036263E-19
  -14.1899996      -1.23519688E-19
  -14.1800003      -1.04876149E-19
  -14.1700001      -4.35193517E-20
  -14.1599998       5.47957590E-20
  -14.1499996       1.69757495E-19
  -14.1400003       2.68517328E-19
  -14.1300001       3.12607011E-19
  -14.1199999       2.68956871E-19
  -14.1099997       1.22596025E-19
  -14.1000004      -1.12673955E-19
  -14.0900002      -3.89764480E-19
  -14.0799999      -6.33255356E-19
  -14.0699997      -7.54990544E-19
  -14.0600004      -6.78366995E-19
  -14.0500002      -3.66023389E-19
  -14.0400000       1.56906507E-19
  -14.0299997       7.92541390E-19
  -14.0200005       1.37977262E-18
  -14.0100002       1.72594192E-18
  -14.0000000       1.65681433E-18
  -13.9899998       1.07435541E-18
  -13.9799995       6.76788232E-21
  -13.9700003      -1.36628182E-18
  -13.9600000      -2.72705814E-18
  -13.9499998      -3.67736252E-18
  -13.9399996      -3.83414179E-18
  -13.9300003      -2.94419202E-18
  -13.9200001      -9.89037421E-19
  -13.9099998       1.75265262E-18
  -13.8999996       4.71281687E-18
  -13.8900003       7.12556044E-18
  -13.8800001       8.19511656E-18
  -13.8699999       7.30953286E-18
  -13.8599997       4.24998202E-18
  -13.8500004      -6.63460580E-19
  -13.8400002      -6.54295150E-18
  -13.8299999      -1.20523706E-17
  -13.8199997      -1.56717275E-17
  -13.8100004      -1.60625869E-17
  -13.8000002      -1.24549652E-17
  -13.7900000      -4.95605512E-18
  -13.7799997       5.31511024E-18
  -13.7700005       1.63323503E-17
  -13.7600002       2.55184838E-17
  -13.7500000       3.03002346E-17
  -13.7399998       2.87488409E-17
  -13.7299995       2.01545633E-17
  -13.7200003       5.37983795E-18
  -13.7100000      -1.31270246E-17
  -13.6999998      -3.17025870E-17
  -13.6899996      -4.61751739E-17
  -13.6800003      -5.27694247E-17
  -13.6700001      -4.90070301E-17
  -13.6599998      -3.43867087E-17
  -13.6499996      -1.06661367E-17
  -13.6400003       1.83430229E-17
  -13.6300001       4.74397710E-17
  -13.6199999       7.10179025E-17
  -13.6099997       8.41500631E-17
  -13.6000004       8.35312261E-17
  -13.5900002       6.80838135E-17
  -13.5799999       3.91226750E-17
  -13.5699997       9.67838475E-20
  -13.5600004      -4.39708567E-17
  -13.5500002      -8.71682731E-17
  -13.5400000      -1.23339697E-16
  -13.5299997      -1.46601696E-16
  -13.5200005      -1.51750995E-16
  -13.5100002      -1.34681997E-16
  -13.5000000      -9.29700981E-17
  -13.4899998      -2.67214443E-17
  -13.4799995       6.03597465E-17
  -13.4700003       1.59940401E-16
  -13.4600000       2.58511306E-16
  -13.4499998       3.37861881E-16
  -13.4399996       3.77033767E-16
  -13.4300003       3.55919909E-16
  -13.4200001       2.60207383E-16
  -13.4099998       8.68167544E-17
  -13.3999996      -1.51485688E-16
  -13.3900003      -4.23848458E-16
  -13.3800001      -6.82857845E-16
  -13.3699999      -8.70599521E-16
  -13.3599997      -9.29036324E-16
  -13.3500004      -8.13272384E-16
  -13.3400002      -5.05147368E-16
  -13.3299999      -2.38917968E-17
  -13.3199997       5.69453315E-16
  -13.3100004       1.17631923E-15
  -13.3000002       1.67443072E-15
  -13.2900000       1.93983674E-15
  -13.2799997       1.87357780E-15
  -13.2700005       1.42764989E-15
  -13.2600002       6.24173126E-16
  -13.2500000      -4.37712746E-16
  -13.2399998      -1.59068192E-15
  -13.2299995      -2.62407504E-15
  -13.2200003      -3.32141354E-15
  -13.2100000      -3.50388774E-15
  -13.1999998      -3.07098931E-15
  -13.1899996      -2.02915573E-15
  -13.1800003      -5.01101727E-16
  -13.1700001       1.28779925E-15
  -13.1599998       3.04489540E-15
  -13.1499996       4.46131237E-15
  -13.1400003       5.26878252E-15
  -13.1300001       5.29066859E-15
  -13.1199999       4.47651915E-15
  -13.1099997       2.91295012E-15
  -13.1000004       8.08829061E-16
  -13.0900002      -1.54155115E-15
  -13.0799999      -3.80883103E-15
  -13.0699997      -5.68140192E-15
  -13.0600004      -6.90979197E-15
  -13.0500002      -7.33472595E-15
  -13.0400000      -6.89589809E-15
  -13.0299997      -5.62387017E-15
  -13.0200005      -3.62189340E-15
  -13.0100002      -1.04630486E-15
  -13.0000000       1.90695577E-15
  -12.9899998       5.00611253E-15
  -12.9799995       7.97947896E-15
  -12.9700003       1.05107243E-14
  -12.9600000       1.22438189E-14
  -12.9499998       1.28075769E-14
  -12.9399996       1.18652468E-14
  -12.9300003       9.18690071E-15
  -12.9200001       4.73319512E-15
  -12.9099998      -1.26886975E-15
  -12.8999996      -8.28159020E-15
  -12.8900003      -1.54652631E-14
  -12.8800001      -2.17534476E-14
  -12.8699999      -2.59947008E-14
  -12.8599997      -2.71447073E-14
  -12.8500004      -2.44775513E-14
  -12.8400002      -1.77750101E-14
  -12.8299999      -7.45081775E-15
  -12.8199997       5.42514311E-15
  -12.8100004       1.92213782E-14
  -12.8000002       3.19539283E-14
  -12.7900000       4.15823212E-14
  -12.7799997       4.63445878E-14
  -12.7700005       4.50722630E-14
  -12.7600002       3.74267369E-14
  -12.7500000       2.40103246E-14
  -12.7399998       6.32750298E-15
  -12.7299995      -1.34012369E-14
  -12.7200003      -3.25437987E-14
  -12.7100000      -4.84294950E-14
  -12.6999998      -5.87309877E-14
  -12.6899996      -6.17966914E-14
  -12.6800003      -5.68877424E-14
  -12.6700001      -4.42927115E-14
  -12.6599998      -2.53146859E-14
  -12.6499996      -2.14351153E-15
  -12.6400003       2.23630268E-14
  -12.6300001       4.49619488E-14
  -12.6199999       6.23483470E-14
  -12.6099997       7.15029639E-14
  -12.6000004       7.00526470E-14
  -12.5900002       5.66319215E-14
  -12.5799999       3.12255240E-14
  -12.5699997      -4.54286555E-15
  -12.5600004      -4.72288597E-14
  -12.5500002      -9.15570991E-14
  -12.5400000      -1.30649289E-13
  -12.5299997      -1.56541596E-13
  -12.5200005      -1.61006408E-13
  -12.5100002      -1.36643680E-13
  -12.5000000      -7.81483168E-14
  -12.4899998       1.63947191E-14
  -12.4799995       1.44372185E-13
  -12.4700003       2.97855273E-13
  -12.4600000       4.63331901E-13
  -12.4499998       6.22068532E-13
  -12.4399996       7.51127838E-13
  -12.4300003       8.24974041E-13
  -12.4200001       8.17510122E-13
  -12.4099998       7.04322397E-13
  -12.3999996       4.64884262E-13
  -12.3900003       8.44752396E-14
  -12.3800001      -4.44375033E-13
  -12.3699999      -1.12104174E-12
  -12.3599997      -1.93658566E-12
  -12.3500004      -2.87412195E-12
  -12.3400002      -3.90967120E-12
  -12.3299999      -5.01335952E-12
  -12.3199997      -6.15081900E-12
  -12.3100004      -7.28468154E-12
  -12.3000002      -8.37607934E-12
  -12.2900000      -9.38606918E-12
  -12.2799997      -1.02769650E-11
  -12.2700005      -1.10135330E-11
  -12.2600002      -1.15639902E-11
  -12.2500000      -1.19008076E-11
  -12.2399998      -1.20011960E-11
  -12.2299995      -1.18472593E-11
  -12.2200003      -1.14258394E-11
  -12.2100000      -1.07280287E-11
  -12.1999998      -9.74847199E-12
  -12.1899996      -8.48463313E-12
  -12.1800003      -6.93614133E-12
  -12.1700001      -5.10444681E-12
  -12.1599998      -2.99290172E-12
  -12.1499996      -6.07282996E-13
  -12.1400003       2.04324925E-12
  -12.1300001       4.94495070E-12
  -12.1199999       8.07820477E-12
  -12.1099997       1.14165023E-11
  -12.1000004       1.49257811E-11
  -12.0900002       1.85644052E-11
  -12.0799999       2.22838050E-11
  -12.0699997       2.60296333E-11
  -12.0600004       2.97433848E-11
  -12.0500002       3.33642385E-11
  -12.0400000       3.68307607E-11
  -12.0299997       4.00824963E-11
  -12.0200005       4.30611692E-11
  -12.0100002       4.57114901E-11
  -12.0000000       4.79816707E-11
  -11.9899998       4.98237493E-11
  -11.9799995       5.11937992E-11
  -11.9700003       5.20521543E-11
  -11.9600000       5.23637314E-11
  -11.9499998       5.20983222E-11
  -11.9399996       5.12310090E-11
  -11.9300003       4.97423769E-11
  -11.9200001       4.76187596E-11
  -11.9099998       4.48523441E-11
  -11.8999996       4.14411491E-11
  -11.8900003       3.73891994E-11
  -11.8800001       3.27066499E-11
  -11.8699999       2.74101141E-11
  -11.8599997       2.15230906E-11
  -11.8500004       1.50766431E-11
  -11.8400002       8.10952520E-12
  -11.8299999       6.68518789E-13
  -11.8199997      -7.19215746E-12
  -11.8100004      -1.54116910E-11
  -11.8000002      -2.39243243E-11
  -11.7900000      -3.26614395E-11
  -11.7799997      -4.15537708E-11
  -11.7700005      -5.05337126E-11
  -11.7600002      -5.95370073E-11
  -11.7500000      -6.85037305E-11
  -11.7399998      -7.73782566E-11
  -11.7299995      -8.61083982E-11
  -11.7200003      -9.46432863E-11
  -11.7100000      -1.02930921E-10
  -11.6999998      -1.10915360E-10
  -11.6899996      -1.18534127E-10
  -11.6800003      -1.25716382E-10
  -11.6700001      -1.32382022E-10
  -11.6599998      -1.38442161E-10
  -11.6499996      -1.43800818E-10
  -11.6400003      -1.48357729E-10
  -11.6300001      -1.52011875E-10
  -11.6199999      -1.54665503E-10
  -11.6099997      -1.56227808E-10
  -11.6000004      -1.56618579E-10
  -11.5900002      -1.55770438E-10
  -11.5799999      -1.53630664E-10
  -11.5699997      -1.50161952E-10
  -11.5600004      -1.45342308E-10
  -11.5500002      -1.39164208E-10
  -11.5400000      -1.31633635E-10
  -11.5299997      -1.22768226E-10
  -11.5200005      -1.12595440E-10
  -11.5100002      -1.01150338E-10
  -11.5000000      -8.84727083E-11
  -11.4899998      -7.46043574E-11
  -11.4799995      -5.95862942E-11
  -11.4700003      -4.34563531E-11
  -11.4600000      -2.62472336E-11
  -11.4499998      -7.98619504E-12
  -11.4399996       1.13042856E-11
  -11.4300003       3.16036503E-11
  -11.4200001       5.28895573E-11
  -11.4099998       7.51332746E-11
  -11.3999996       9.82952955E-11
  -11.3900003       1.22321098E-10
  -11.3800001       1.47138995E-10
  -11.3699999       1.72659623E-10
  -11.3599997       1.98777578E-10
  -11.3500004       2.25374747E-10
  -11.3400002       2.52324911E-10
  -11.3299999       2.79498896E-10
  -11.3199997       3.06769860E-10
  -11.3100004       3.34017397E-10
  -11.3000002       3.61131486E-10
  -11.2900000       3.88014315E-10
  -11.2799997       4.14582368E-10
  -11.2700005       4.40766479E-10
  -11.2600002       4.66511552E-10
  -11.2500000       4.91775787E-10
  -11.2399998       5.16528931E-10
  -11.2299995       5.40749667E-10
  -11.2200003       5.64422620E-10
  -11.2100000       5.87535132E-10
  -11.1999998       6.10073991E-10
  -11.1899996       6.32022545E-10
  -11.1800003       6.53358090E-10
  -11.1700001       6.74052258E-10
  -11.1599998       6.94071634E-10
  -11.1499996       7.13379689E-10
  -11.1400003       7.31940120E-10
  -11.1300001       7.49718954E-10
  -11.1199999       7.66690100E-10
  -11.1099997       7.82835685E-10
  -11.1000004       7.98148880E-10
  -11.0900002       8.12634016E-10
  -11.0799999       8.26306357E-10
  -11.0699997       8.39190994E-10
  -11.0600004       8.51320681E-10
  -11.0500002       8.62734162E-10
  -11.0400000       8.73472406E-10
  -11.0299997       8.83577322E-10
  -11.0200005       8.93087437E-10
  -11.0100002       9.02036890E-10
  -11.0000000       9.10451048E-10
  -10.9899998       9.18349397E-10
  -10.9799995       9.25741428E-10
  -10.9700003       9.32631639E-10
  -10.9600000       9.39018974E-10
  -10.9499998       9.44896938E-10
  -10.9399996       9.50259760E-10
  -10.9300003       9.55099888E-10
  -10.9200001       9.59408775E-10
  -10.9099998       9.63180091E-10
  -10.8999996       9.66406954E-10
  -10.8900003       9.69083258E-10
  -10.8800001       9.71206005E-10
  -10.8699999       9.72771752E-10
  -10.8599997       9.73781611E-10
  -10.8500004       9.74237024E-10
  -10.8400002       9.74136771E-10
  -10.8299999       9.73475522E-10
  -10.8199997       9.72239511E-10
  -10.8100004       9.70399872E-10
  -10.8000002       9.67911973E-10
  -10.7900000       9.64712088E-10
  -10.7799997       9.60722613E-10
  -10.7700005       9.55856061E-10
  -10.7600002       9.50018508E-10
  -10.7500000       9.43122691E-10
  -10.7399998       9.35094113E-10
  -10.7299995       9.25877985E-10
  -10.7200003       9.15438780E-10
  -10.7100000       9.03766006E-10
  -10.6999998       8.90870988E-10
  -10.6899996       8.76782591E-10
  -10.6800003       8.61544669E-10
  -10.6700001       8.45214732E-10
  -10.6599998       8.27861446E-10
  -10.6499996       8.09564693E-10
  -10.6400003       7.90413512E-10
  -10.6300001       7.70500053E-10
  -10.6199999       7.49926454E-10
  -10.6099997       7.28794969E-10
  -10.6000004       7.07210124E-10
  -10.5900002       6.85272505E-10
  -10.5799999       6.63084587E-10
  -10.5699997       6.40746067E-10
  -10.5600004       6.18353868E-10
  -10.5500002       5.96009131E-10
  -10.5400000       5.73805170E-10
  -10.5299997       5.51828361E-10
  -10.5200005       5.30153699E-10
  -10.5100002       5.08839082E-10
  -10.5000000       4.87922813E-10
  -10.4899998       4.67412220E-10
  -10.4799995       4.47288678E-10
  -10.4700003       4.27513747E-10
  -10.4600000       4.08026946E-10
  -10.4499998       3.88761023E-10
  -10.4399996       3.69639069E-10
  -10.4300003       3.50586699E-10
  -10.4200001       3.31533301E-10
  -10.4099998       3.12413651E-10
  -10.3999996       2.93166186E-10
  -10.3900003       2.73739309E-10
  -10.3800001       2.54084781E-10
  -10.3699999       2.34166520E-10
  -10.3599997       2.13954576E-10
  -10.3500004       1.93432478E-10
  -10.3400002       1.72586875E-10
  -10.3299999       1.51409621E-10
  -10.3199997       1.29891084E-10
  -10.3100004       1.08015853E-10
  -10.3000002       8.57585669E-11
  -10.2900000       6.30791253E-11
  -10.2799997       3.99316899E-11
  -10.2700005       1.62591260E-11
  -10.2600002      -7.99354766E-12
  -10.2500000      -3.28755460E-11
  -10.2399998      -5.84244528E-11
  -10.2299995      -8.46650527E-11
  -10.2200003      -1.11612608E-10
  -10.2100000      -1.39269415E-10
  -10.1999998      -1.67636308E-10
  -10.1899996      -1.96705000E-10
  -10.1800003      -2.26467900E-10
  -10.1700001      -2.56910826E-10
  -10.1599998      -2.88009672E-10
  -10.1499996      -3.19728993E-10
  -10.1400003      -3.52018747E-10
  -10.1300001      -3.84815874E-10
  -10.1199999      -4.18038382E-10
  -10.1099997      -4.51599230E-10
  -10.1000004      -4.85397722E-10
  -10.0900002      -5.19329468E-10
  -10.0799999      -5.53277202E-10
  -10.0699997      -5.87112414E-10
  -10.0600004      -6.20692053E-10
  -10.0500002      -6.53851417E-10
  -10.0400000      -6.86406931E-10
  -10.0299997      -7.18157478E-10
  -10.0200005      -7.48886120E-10
  -10.0100002      -7.78371256E-10
  -10.0000000      -8.06395117E-10
  -9.98999977      -8.32744318E-10
  -9.97999954      -8.57221349E-10
  -9.97000027      -8.79642525E-10
  -9.96000004      -8.99838759E-10
  -9.94999981      -9.17656784E-10
  -9.93999958      -9.32957711E-10
  -9.93000031      -9.45620360E-10
  -9.92000008      -9.55542201E-10
  -9.90999985      -9.62645519E-10
  -9.89999962      -9.66880909E-10
  -9.89000034      -9.68231384E-10
  -9.88000011      -9.66712377E-10
  -9.86999989      -9.62370295E-10
  -9.85999966      -9.55280965E-10
  -9.85000038      -9.45544532E-10
  -9.84000015      -9.33281563E-10
  -9.82999992      -9.18631671E-10
  -9.81999969      -9.01749508E-10
  -9.81000042      -8.82805273E-10
  -9.80000019      -8.61982763E-10
  -9.78999996      -8.39476155E-10
  -9.77999973      -8.15485901E-10
  -9.77000046      -7.90214505E-10
  -9.76000023      -7.63858865E-10
  -9.75000000      -7.36605998E-10
  -9.73999977      -7.08628378E-10
  -9.72999954      -6.80083045E-10
  -9.72000027      -6.51112442E-10
  -9.71000004      -6.21848018E-10
  -9.69999981      -5.92412952E-10
  -9.68999958      -5.62925040E-10
  -9.68000031      -5.33496858E-10
  -9.67000008      -5.04232545E-10
  -9.65999985      -4.75223472E-10
  -9.64999962      -4.46541443E-10
  -9.64000034      -4.18232310E-10
  -9.63000011      -3.90311616E-10
  -9.61999989      -3.62762154E-10
  -9.60999966      -3.35535350E-10
  -9.60000038      -3.08555181E-10
  -9.59000015      -2.81723894E-10
  -9.57999992      -2.54928856E-10
  -9.56999969      -2.28048996E-10
  -9.56000042      -2.00960582E-10
  -9.55000019      -1.73542555E-10
  -9.53999996      -1.45680565E-10
  -9.52999973      -1.17271151E-10
  -9.52000046      -8.82260445E-11
  -9.51000023      -5.84766957E-11
  -9.50000000      -2.79775647E-11
  -9.48999977       3.29025132E-12
  -9.47999954       3.53176828E-11
  -9.47000027       6.80666148E-11
  -9.46000004       1.01471644E-10
  -9.44999981       1.35441283E-10
  -9.43999958       1.69859765E-10
  -9.43000031       2.04587361E-10
  -9.42000008       2.39460340E-10
  -9.40999985       2.74289952E-10
  -9.39999962       3.08861520E-10
  -9.39000034       3.42934348E-10
  -9.38000011       3.76243814E-10
  -9.36999989       4.08505035E-10
  -9.35999966       4.39417586E-10
  -9.35000038       4.68670991E-10
  -9.34000015       4.95947949E-10
  -9.32999992       5.20924914E-10
  -9.31999969       5.43269763E-10
  -9.31000042       5.62635827E-10
  -9.30000019       5.78655401E-10
  -9.28999996       5.90934190E-10
  -9.27999973       5.99048144E-10
  -9.27000046       6.02547345E-10
  -9.26000023       6.00963224E-10
  -9.25000000       5.93820049E-10
  -9.23999977       5.80650472E-10
  -9.22999954       5.61010294E-10
  -9.22000027       5.34491618E-10
  -9.21000004       5.00732955E-10
  -9.19999981       4.59425581E-10
  -9.18999958       4.10317696E-10
  -9.18000031       3.53217372E-10
  -9.17000008       2.87995267E-10
  -9.15999985       2.14587847E-10
  -9.14999962       1.33001180E-10
  -9.14000034       4.33141613E-11
  -9.13000011      -5.43186676E-11
  -9.11999989      -1.59667252E-10
  -9.10999966      -2.72428413E-10
  -9.10000038      -3.92228056E-10
  -9.09000015      -5.18625198E-10
  -9.07999992      -6.51116328E-10
  -9.06999969      -7.89135257E-10
  -9.06000042      -9.32056543E-10
  -9.05000019      -1.07919518E-09
  -9.03999996      -1.22980903E-09
  -9.02999973      -1.38310441E-09
  -9.02000046      -1.53824242E-09
  -9.01000023      -1.69434955E-09
  -9.00000000      -1.85052618E-09
  -8.98999977      -2.00585526E-09
  -8.97999954      -2.15941531E-09
  -8.97000027      -2.31027530E-09
  -8.96000004      -2.45750553E-09
  -8.94999981      -2.60017741E-09
  -8.93999958      -2.73736256E-09
  -8.93000031      -2.86813640E-09
  -8.92000008      -2.99159053E-09
  -8.90999985      -3.10683257E-09
  -8.89999962      -3.21299876E-09
  -8.89000034      -3.30926064E-09
  -8.88000011      -3.39483108E-09
  -8.86999989      -3.46896512E-09
  -8.85999966      -3.53096352E-09
  -8.85000038      -3.58016838E-09
  -8.84000015      -3.61596930E-09
  -8.82999992      -3.63779473E-09
  -8.81999969      -3.64512220E-09
  -8.81000042      -3.63747810E-09
  -8.80000019      -3.61443853E-09
  -8.78999996      -3.57563312E-09
  -8.77999973      -3.52074503E-09
  -8.77000046      -3.44951312E-09
  -8.76000023      -3.36172046E-09
  -8.75000000      -3.25720317E-09
  -8.73999977      -3.13586068E-09
  -8.72999954      -2.99764835E-09
  -8.72000027      -2.84258506E-09
  -8.71000004      -2.67076739E-09
  -8.69999981      -2.48236609E-09
  -8.68999958      -2.27761654E-09
  -8.68000031      -2.05682960E-09
  -8.67000008      -1.82035742E-09
  -8.65999985      -1.56860458E-09
  -8.64999962      -1.30201805E-09
  -8.64000034      -1.02106446E-09
  -8.63000011      -7.26254668E-10
  -8.61999989      -4.18133222E-10
  -8.60999966      -9.72925213E-11
  -8.60000038       2.35631514E-10
  -8.59000015       5.79960635E-10
  -8.57999992       9.34968880E-10
  -8.56999969       1.29989863E-09
  -8.56000042       1.67397796E-09
  -8.55000019       2.05641726E-09
  -8.53999996       2.44643195E-09
  -8.52999973       2.84322588E-09
  -8.52000046       3.24602500E-09
  -8.51000023       3.65405350E-09
  -8.50000000       4.06654310E-09
  -8.48999977       4.48273774E-09
  -8.47999954       4.90189356E-09
  -8.47000027       5.32328581E-09
  -8.46000004       5.74621151E-09
  -8.44999981       6.16999252E-09
  -8.43999958       6.59397292E-09
  -8.43000031       7.01752612E-09
  -8.42000008       7.44004547E-09
  -8.40999985       7.86094478E-09
  -8.39999962       8.27966140E-09
  -8.39000034       8.69566197E-09
  -8.38000011       9.10843578E-09
  -8.36999989       9.51750945E-09
  -8.35999966       9.92244242E-09
  -8.35000038       1.03228199E-08
  -8.34000015       1.07182574E-08
  -8.32999992       1.11083747E-08
  -8.31999969       1.14928067E-08
  -8.31000042       1.18711734E-08
  -8.30000019       1.22430848E-08
  -8.28999996       1.26081288E-08
  -8.27999973       1.29658799E-08
  -8.27000046       1.33158888E-08
  -8.26000023       1.36576839E-08
  -8.25000000       1.39907632E-08
  -8.23999977       1.43145931E-08
  -8.22999954       1.46286023E-08
  -8.22000027       1.49321728E-08
  -8.21000004       1.52246500E-08
  -8.19999981       1.55053463E-08
  -8.18999958       1.57735407E-08
  -8.18000031       1.60285119E-08
  -8.17000008       1.62695386E-08
  -8.15999985       1.64959015E-08
  -8.14999962       1.67069061E-08
  -8.14000034       1.69018701E-08
  -8.13000011       1.70801275E-08
  -8.11999989       1.72410175E-08
  -8.10999966       1.73838863E-08
  -8.10000038       1.75081016E-08
  -8.09000015       1.76130364E-08
  -8.07999992       1.76981061E-08
  -8.06999969       1.77627424E-08
  -8.06000042       1.78064106E-08
  -8.05000019       1.78286470E-08
  -8.03999996       1.78289863E-08
  -8.02999973       1.78070092E-08
  -8.02000046       1.77623036E-08
  -8.01000023       1.76944965E-08
  -8.00000000       1.76032131E-08
  -7.98999977       1.74881229E-08
  -7.98000002       1.73489454E-08
  -7.96999979       1.71854406E-08
  -7.96000004       1.69974665E-08
  -7.94999981       1.67849343E-08
  -7.94000006       1.65478600E-08
  -7.92999983       1.62863572E-08
  -7.92000008       1.60006319E-08
  -7.90999985       1.56909667E-08
  -7.90000010       1.53577631E-08
  -7.88999987       1.50015111E-08
  -7.88000011       1.46228274E-08
  -7.86999989       1.42224472E-08
  -7.86000013       1.38012357E-08
  -7.84999990       1.33601743E-08
  -7.84000015       1.29003608E-08
  -7.82999992       1.24229640E-08
  -7.82000017       1.19292425E-08
  -7.80999994       1.14205143E-08
  -7.80000019       1.08981171E-08
  -7.78999996       1.03634488E-08
  -7.78000021       9.81792514E-09
  -7.76999998       9.26297972E-09
  -7.76000023       8.70009220E-09
  -7.75000000       8.13074408E-09
  -7.73999977       7.55647189E-09
  -7.73000002       6.97877267E-09
  -7.71999979       6.39916298E-09
  -7.71000004       5.81912118E-09
  -7.69999981       5.24010346E-09
  -7.69000006       4.66353844E-09
  -7.67999983       4.09080991E-09
  -7.67000008       3.52330320E-09
  -7.65999985       2.96235436E-09
  -7.65000010       2.40929809E-09
  -7.63999987       1.86540050E-09
  -7.63000011       1.33190459E-09
  -7.61999989       8.09931455E-10
  -7.61000013       3.00546255E-10
  -7.59999990      -1.95292879E-10
  -7.59000015      -6.76737943E-10
  -7.57999992      -1.14302656E-09
  -7.57000017      -1.59347968E-09
  -7.55999994      -2.02746953E-09
  -7.55000019      -2.44443554E-09
  -7.53999996      -2.84386559E-09
  -7.53000021      -3.22531091E-09
  -7.51999998      -3.58839558E-09
  -7.51000023      -3.93282074E-09
  -7.50000000      -4.25836300E-09
  -7.48999977      -4.56488580E-09
  -7.48000002      -4.85231411E-09
  -7.46999979      -5.12062481E-09
  -7.46000004      -5.36982725E-09
  -7.44999981      -5.59996005E-09
  -7.44000006      -5.81108228E-09