  -16.0000000       0.00000000    
  -15.9899998       0.00000000    
  -15.9799995       0.00000000    
  -15.9700003       0.00000000    
  -15.9600000       0.00000000    
  -15.9499998       0.00000000    
  -15.9399996       0.00000000    
  -15.9300003       0.00000000    
  -15.9200001       0.00000000    
  -15.9099998       0.00000000    
  -15.8999996       0.00000000    
  -15.8900003       0.00000000    
  -15.8800001       0.00000000    
  -15.8699999       0.00000000    
  -15.8599997      -0.00000000    
  -15.8500004      -1.40129846E-45
  -15.8400002      -5.60519386E-45
  -15.8299999      -1.40129846E-44
  -15.8199997      -2.80259693E-44
  -15.8100004      -1.17709071E-43
  -15.8000002      -9.41672568E-43
  -15.7900000      -5.65283801E-42
  -15.7799997      -2.42186414E-41
  -15.7700005      -7.76151193E-41
  -15.7600002      -1.86881367E-40
  -15.7500000      -3.09530015E-40
  -15.7399998      -1.70744014E-40
  -15.7299995       1.02485925E-39
  -15.7200003       4.88382923E-39
  -15.7100000       1.38493859E-38
  -15.6999998       3.07989960E-38
  -15.6899996       5.86175815E-38
  -15.6800003       1.00270932E-37
  -15.6700001       1.56042532E-37
  -15.6599998       2.01058349E-37
  -15.6499996       1.02761297E-37
  -15.6400003      -5.71382790E-37
  -15.6300001      -2.83052981E-36
  -15.6199999      -8.32844563E-36
  -15.6099997      -1.84260490E-35
  -15.6000004      -3.09719630E-35
  -15.5900002      -3.39309056E-35
  -15.5799999       2.23984497E-36
  -15.5699997       1.25216299E-34
  -15.5600004       3.77615369E-34
  -15.5500002       7.29567997E-34
  -15.5400000       9.62766148E-34
  -15.5299997       5.54801696E-34
  -15.5200005      -1.29442949E-33
  -15.5100002      -5.26008596E-33
  -15.5000000      -1.08966725E-32
  -15.4899998      -1.51258896E-32
  -15.4799995      -1.09831000E-32
  -15.4700003       1.16066439E-32
  -15.4600000       6.05480095E-32
  -15.4499998       1.30077149E-31
  -15.4399996       1.84969972E-31
  -15.4300003       1.49474369E-31
  -15.4200001      -8.14431093E-32
  -15.4099998      -5.86981505E-31
  -15.3999996      -1.31059091E-30
  -15.3900003      -1.91925220E-30
  -15.3800001      -1.71554147E-30
  -15.3699999       2.50616994E-31
  -15.3599997       4.70681781E-30
  -15.3500004       1.12572080E-29
  -15.3400002       1.72703344E-29
  -15.3299999       1.72040990E-29
  -15.3199997       3.43704129E-30
  -15.3100004      -3.02660252E-29
  -15.3000002      -8.22828772E-29
  -15.2900000      -1.35173981E-28
  -15.2799997      -1.50562390E-28
  -15.2700005      -7.37940762E-29
  -15.2600002       1.44403471E-28
  -15.2500000       5.06720883E-28
  -15.2399998       9.17274018E-28
  -15.2299995       1.14410774E-27
  -15.2200003       8.36869813E-28
  -15.2100000      -3.57130799E-28
  -15.1999998      -2.55955666E-27
  -15.1899996      -5.35144634E-27
  -15.1800003      -7.51740686E-27
  -15.1700001      -7.05970729E-27
  -15.1599998      -1.72352703E-27
  -15.1499996       9.83109737E-27
  -15.1400003       2.63589582E-26
  -15.1300001       4.24469167E-26
  -15.1199999       4.80576344E-26
  -15.1099997       3.04434920E-26
  -15.1000004      -2.06948291E-26
  -15.0900002      -1.05118649E-25
  -15.0799999      -2.03307131E-25
  -15.0699997      -2.71540468E-25
  -15.0600004      -2.46665095E-25
  -15.0500002      -6.55139491E-26
  -15.0400000       3.00371264E-25
  -15.0299997       8.02012350E-25
  -15.0200005       1.27937393E-24
  -15.0100002       1.46169802E-24
  -15.0000000       1.02661204E-24
  -14.9899998      -2.70364301E-25
  -14.9799995      -2.41281746E-24
  -14.9700003      -4.94331561E-24
  -14.9600000      -6.87987052E-24
  -14.9499998      -6.83742350E-24
  -14.9399996      -3.43271206E-24
  -14.9300003       4.03810758E-24
  -14.9200001       1.48004600E-23
  -14.9099998       2.59888348E-23
  -14.8999996       3.26339008E-23
  -14.8900003       2.86341930E-23
  -14.8800001       8.87016738E-24
  -14.8699999      -2.78206976E-23
  -14.8599997      -7.56561027E-23
  -14.8500004      -1.20264609E-22
  -14.8400002      -1.39919186E-22
  -14.8299999      -1.10771003E-22
  -14.8199997      -1.60553957E-23
  -14.8100004       1.42525507E-22
  -14.8000002       3.34984091E-22
  -14.7900000       4.99878866E-22
  -14.7799997       5.52750368E-22
  -14.7700005       4.08788579E-22
  -14.7600002       1.77241252E-23
  -14.7500000      -5.97197695E-22
  -14.7399998      -1.31008920E-21
  -14.7299995      -1.88995785E-21
  -14.7200003      -2.03911290E-21
  -14.7100000      -1.47704821E-21
  -14.6999998      -5.84779497E-23
  -14.6899996       2.10460254E-21
  -14.6800003       4.56234779E-21
  -14.6700001       6.53805172E-21
  -14.6599998       7.06782455E-21
  -14.6499996       5.27348845E-21
  -14.6400003       7.24795302E-22
  -14.6300001      -6.20465593E-21
  -14.6199999      -1.41211718E-20
  -14.6099997      -2.06710109E-20
  -14.6000004      -2.29681415E-20
  -14.5900002      -1.83851021E-20
  -14.5799999      -5.57108283E-21
  -14.5699997       1.45701322E-20
  -14.5600004       3.82963621E-20
  -14.5500002       5.91845854E-20
  -14.5400000       6.92486722E-20
  -14.5299997       6.09878779E-20
  -14.5200005       3.00139383E-20
  -14.5100002      -2.24064374E-20
  -14.5000000      -8.77499819E-20
  -14.4899998      -1.50404596E-19
  -14.4799995      -1.90129273E-19
  -14.4700003      -1.86760399E-19
  -14.4600000      -1.26400216E-19
  -14.4499998      -7.63247225E-21
  -14.4399996       1.54122386E-19
  -14.4300003       3.25958740E-19
  -14.4200001       4.61796635E-19
  -14.4099998       5.11755810E-19
  -14.3999996       4.35244861E-19
  -14.3900003       2.14991880E-19
  -14.3800001      -1.31705752E-19
  -14.3699999      -5.48351728E-19
  -14.3599997      -9.44116447E-19
  -14.3500004      -1.20913002E-18
  -14.3400002      -1.23850713E-18
  -14.3299999      -9.60722822E-19
  -14.3199997      -3.63920101E-19
  -14.3100004       4.86999691E-19
  -14.3000002       1.44867573E-18
  -14.2900000       2.31645127E-18
  -14.2799997       2.85986178E-18
  -14.2700005       2.87141956E-18
  -14.2600002       2.21970919E-18
  -14.2500000       8.95356735E-19
  -14.2399998      -9.61681938E-19
  -14.2299995      -3.06269826E-18
  -14.2200003      -5.00317547E-18
  -14.2100000      -6.32636335E-18
  -14.1999998      -6.60927773E-18
  -14.1899996      -5.55718878E-18
  -14.1800003      -3.08908470E-18
  -14.1700001       6.04092586E-19
  -14.1599998       5.04412173E-18
  -14.1499996       9.50308101E-18
  -14.1400003       1.30957175E-17
  -14.1300001       1.49188492E-17
  -14.1199999       1.42205764E-17
  -14.1099997       1.05736595E-17
  -14.1000004       4.02237335E-18
  -14.0900002      -4.82886163E-18
  -14.0799999      -1.48123216E-17
  -14.0699997      -2.42965346E-17
  -14.0600004      -3.13909252E-17
  -14.0500002      -3.42393481E-17
  -14.0400000      -3.13673241E-17
  -14.0299997      -2.20308786E-17
  -14.0200005      -6.50426426E-18
  -14.0100002       1.37572122E-17
  -14.0000000       3.61333700E-17
  -13.9899998       5.70666346E-17
  -13.9799995       7.25015535E-17
  -13.9700003       7.84992615E-17
  -13.9600000       7.19535033E-17
  -13.9499998       5.13013776E-17
  -13.9399996       1.71057261E-17
  -13.9300003      -2.76150327E-17
  -13.9200001      -7.74130542E-17
  -13.9099998      -1.24854867E-16
  -13.8999996      -1.61384129E-16
  -13.8900003      -1.78537552E-16
  -13.8800001      -1.69376493E-16
  -13.8699999      -1.29937303E-16
  -13.8599997      -6.04656190E-17
  -13.8500004       3.38052007E-17
  -13.8400002       1.42542992E-16
  -13.8299999       2.51009744E-16
  -13.8199997       3.41593379E-16
  -13.8100004       3.96083856E-16
  -13.8000002       3.98464336E-16
  -13.7900000       3.37864793E-16
  -13.7799997       2.11244220E-16
  -13.7700005       2.53312929E-17
  -13.7600002      -2.02604299E-16
  -13.7500000      -4.45470509E-16
  -13.7399998      -6.68707577E-16
  -13.7299995      -8.34197592E-16
  -13.7200003      -9.05400929E-16
  -13.7100000      -8.53158213E-16
  -13.6999998      -6.61406789E-16
  -13.6899996      -3.31954621E-16
  -13.6800003       1.12549357E-16
  -13.6700001       6.28183509E-16
  -13.6599998       1.15235127E-15
  -13.6499996       1.60955276E-15
  -13.6400003       1.92003650E-15
  -13.6300001       2.01059808E-15
  -13.6199999       1.82633644E-15
  -13.6099997       1.34186610E-15
  -13.6000004       5.70294472E-16
  -13.5900002      -4.31717897E-16
  -13.5799999      -1.56419541E-15
  -13.5699997      -2.69030348E-15
  -13.5600004      -3.64914287E-15
  -13.5500002      -4.27422947E-15
  -13.5400000      -4.41596053E-15
  -13.5299997      -3.96562234E-15
  -13.5200005      -2.87779550E-15
  -13.5100002      -1.18776519E-15
  -13.5000000       9.79350187E-16
  -13.4899998       3.41040007E-15
  -13.4799995       5.81846752E-15
  -13.4700003       7.86969248E-15
  -13.4600000       9.22098023E-15
  -13.4499998       9.56519579E-15
  -13.4399996       8.67893675E-15
  -13.4300003       6.46673360E-15
  -13.4200001       2.99524424E-15
  -13.4099998      -1.48882208E-15
  -13.3999996      -6.56193248E-15
  -13.3900003      -1.16511474E-14
  -13.3800001      -1.60857249E-14
  -13.3699999      -1.91700293E-14
  -13.3599997      -2.02713179E-14
  -13.3500004      -1.89132242E-14
  -13.3400002      -1.48634699E-14
  -13.3299999      -8.20336332E-15
  -13.3199997       6.32847961E-16
  -13.3100004       1.08586447E-14
  -13.3000002       2.13819881E-14
  -13.2900000       3.08990436E-14
  -13.2799997       3.80299159E-14
  -13.2700005       4.14848684E-14
  -13.2600002       4.02440193E-14
  -13.2500000       3.37290959E-14
  -13.2399998       2.19439115E-14
  -13.2299995       5.56066584E-15
  -13.2200003      -1.40668913E-14
  -13.2100000      -3.49752880E-14
  -13.1999998      -5.47511662E-14
  -13.1899996      -7.07706463E-14
  -13.1800003      -8.04986232E-14
  -13.1700001      -8.18180024E-14
  -13.1599998      -7.33510949E-14
  -13.1499996      -5.47318267E-14
  -13.1400003      -2.67878676E-14
  -13.1300001       8.40112688E-15
  -13.1199999       4.75922639E-14
  -13.1099997       8.66222377E-14
  -13.1000004       1.20793092E-13
  -13.0900002       1.45371101E-13
  -13.0799999       1.56151147E-13
  -13.0699997       1.50026259E-13
  -13.0600004       1.25494382E-13
  -13.0500002       8.30341926E-14
  -13.0400000       2.52904980E-14
  -13.0299997      -4.29741827E-14
  -13.0200005      -1.15182847E-13
  -13.0100002      -1.83494184E-13
  -13.0000000      -2.39563740E-13
  -12.9899998      -2.75449639E-13
  -12.9799995      -2.84574827E-13
  -12.9700003      -2.62640170E-13
  -12.9600000      -2.08377667E-13
  -12.9499998      -1.24039857E-13
  -12.9399996      -1.55411301E-14
  -12.9300003       1.07803388E-13
  -12.9200001       2.33953698E-13
  -12.9099998       3.49202655E-13
  -12.8999996       4.39533203E-13
  -12.8900003       4.92154223E-13
  -12.8800001       4.97055468E-13
  -12.8699999       4.48409891E-13
  -12.8599997       3.45647881E-13
  -12.8500004       1.94053188E-13
  -12.8400002       4.76733055E-15
  -12.8299999      -2.05850473E-13
  -12.8199997      -4.17495276E-13
  -12.8100004      -6.07732560E-13
  -12.8000002      -7.54207027E-13
  -12.7900000      -8.37033730E-13
  -12.7799997      -8.41127949E-13
  -12.7700005      -7.58219984E-13
  -12.7600002      -5.88315041E-13
  -12.7500000      -3.40405140E-13
  -12.7399998      -3.23047050E-14
  -12.7299995       3.10436491E-13
  -12.7200003       6.56490487E-13
  -12.7100000       9.71443629E-13
  -12.6999998       1.22099336E-12
  -12.6899996       1.37436612E-12
  -12.6800003       1.40762705E-12
  -12.6700001       1.30654645E-12
  -12.6599998       1.06870816E-12
  -12.6499996       7.04614969E-13
  -12.6400003       2.37610604E-13
  -12.6300001      -2.97432922E-13
  -12.6199999      -8.56610735E-13
  -12.6099997      -1.39048766E-12
  -12.6000004      -1.84831902E-12
  -12.5900002      -2.18262886E-12
  -12.5799999      -2.35372182E-12
  -12.5699997      -2.33370311E-12
  -12.5600004      -2.10961110E-12
  -12.5500002      -1.68533796E-12
  -12.5400000      -1.08212907E-12
  -12.5299997      -3.37570656E-13
  -12.5200005       4.96868443E-13
  -12.5100002       1.35955234E-12
  -12.5000000       2.18332991E-12
  -12.4899998       2.90073412E-12
  -12.4799995       3.44925499E-12
  -12.4700003       3.77624321E-12
  -12.4600000       3.84301098E-12
  -12.4499998       3.62776107E-12
  -12.4399996       3.12711771E-12
  -12.4300003       2.35610555E-12
  -12.4200001       1.34660143E-12
  -12.4099998       1.44374367E-13
  -12.3999996      -1.19500048E-12
  -12.3900003      -2.61100581E-12
  -12.3800001      -4.04341144E-12
  -12.3699999      -5.43737494E-12
  -12.3599997      -6.74798325E-12
  -12.3500004      -7.94380534E-12
  -12.3400002      -9.00914413E-12
  -12.3299999      -9.94472473E-12
  -12.3199997      -1.07667738E-11
  -12.3100004      -1.15044771E-11
  -12.3000002      -1.21960194E-11
  -12.2900000      -1.28835545E-11
  -12.2799997      -1.36074216E-11
  -12.2700005      -1.44001408E-11
  -12.2600002      -1.52806899E-11
  -12.2500000      -1.62495330E-11
  -12.2399998      -1.72848836E-11
  -12.2299995      -1.83405652E-11
  -12.2200003      -1.93457125E-11
  -12.2100000      -2.02064858E-11
  -12.1999998      -2.08097619E-11
  -12.1899996      -2.10286077E-11
  -12.1800003      -2.07293245E-11
  -12.1700001      -1.97795252E-11
  -12.1599998      -1.80567644E-11
  -12.1499996      -1.54572310E-11
  -12.1400003      -1.19037289E-11
  -12.1300001      -7.35251356E-12
  -12.1199999      -1.79841938E-12
  -12.1099997       4.72209034E-12
  -12.1000004       1.21302395E-11
  -12.0900002       2.03067285E-11
  -12.0799999       2.90958750E-11
  -12.0699997       3.83118676E-11
  -12.0600004       4.77468724E-11
  -12.0500002       5.71803091E-11
  -12.0400000       6.63887209E-11
  -12.0299997       7.51558885E-11
  -12.0200005       8.32820271E-11
  -12.0100002       9.05919714E-11
  -12.0000000       9.69415659E-11
  -11.9899998       1.02221946E-10
  -11.9799995       1.06361413E-10
  -11.9700003       1.09324980E-10
  -11.9600000       1.11111509E-10
  -11.9499998       1.11748687E-10
  -11.9399996       1.11286404E-10
  -11.9300003       1.09788831E-10
  -11.9200001       1.07325912E-10
  -11.9099998       1.03964629E-10
  -11.8999996       9.97612548E-11
  -11.8900003       9.47543502E-11
  -11.8800001       8.89598464E-11
  -11.8699999       8.23679180E-11
  -11.8599997       7.49424967E-11
  -11.8500004       6.66231514E-11
  -11.8400002       5.73293496E-11
  -11.8299999       4.69669546E-11
  -11.8199997       3.54364246E-11
  -11.8100004       2.26422388E-11
  -11.8000002       8.50293533E-12
  -11.7900000      -7.03920299E-12
  -11.7799997      -2.40088834E-11
  -11.7700005      -4.23902718E-11
  -11.7600002      -6.21213081E-11
  -11.7500000      -8.30901320E-11
  -11.7399998      -1.05134235E-10
  -11.7299995      -1.28041855E-10
  -11.7200003      -1.51556129E-10
  -11.7100000      -1.75381223E-10
  -11.6999998      -1.99190428E-10
  -11.6899996      -2.22635715E-10
  -11.6800003      -2.45358539E-10
  -11.6700001      -2.67000616E-10
  -11.6599998      -2.87215640E-10
  -11.6499996      -3.05679371E-10
  -11.6400003      -3.22099319E-10
  -11.6300001      -3.36223022E-10
  -11.6199999      -3.47843448E-10
  -11.6099997      -3.56802921E-10
  -11.6000004      -3.62993968E-10
  -11.5900002      -3.66358055E-10
  -11.5799999      -3.66881581E-10
  -11.5699997      -3.64589609E-10
  -11.5600004      -3.59538010E-10
  -11.5500002      -3.51804696E-10
  -11.5400000      -3.41479872E-10
  -11.5299997      -3.28656630E-10
  -11.5200005      -3.13422011E-10
  -11.5100002      -2.95849317E-10
  -11.5000000      -2.75992090E-10
  -11.4899998      -2.53880361E-10
  -11.4799995      -2.29518030E-10
  -11.4700003      -2.02883460E-10
  -11.4600000      -1.73931633E-10
  -11.4499998      -1.42598058E-10
  -11.4399996      -1.08804431E-10
  -11.4300003      -7.24653046E-11
  -11.4200001      -3.34954078E-11
  -11.4099998       8.18251109E-12
  -11.3999996       5.26301364E-11
  -11.3900003       9.98865782E-11
  -11.3800001       1.49961890E-10
  -11.3699999       2.02832071E-10
  -11.3599997       2.58434607E-10
  -11.3500004       3.16666526E-10
  -11.3400002       3.77382181E-10
  -11.3299999       4.40394471E-10
  -11.3199997       5.05475883E-10
  -11.3100004       5.72362491E-10
  -11.3000002       6.40758391E-10
  -11.2900000       7.10340453E-10
  -11.2799997       7.80767950E-10
  -11.2700005       8.51688053E-10
  -11.2600002       9.22746268E-10
  -11.2500000       9.93594873E-10
  -11.2399998       1.06390063E-09
  -11.2299995       1.13335596E-09
  -11.2200003       1.20168309E-09
  -11.2100000       1.26864208E-09
  -11.1999998       1.33403488E-09
  -11.1899996       1.39770839E-09
  -11.1800003       1.45955426E-09
  -11.1700001       1.51950919E-09
  -11.1599998       1.57754898E-09
  -11.1499996       1.63368596E-09
  -11.1400003       1.68796099E-09
  -11.1300001       1.74043335E-09
  -11.1199999       1.79117432E-09
  -11.1099997       1.84025706E-09
  -11.1000004       1.88774507E-09
  -11.0900002       1.93368765E-09
  -11.0799999       1.97810990E-09
  -11.0699997       2.02100958E-09
  -11.0600004       2.06235407E-09
  -11.0500002       2.10207785E-09
  -11.0400000       2.14008722E-09
  -11.0299997       2.17626073E-09
  -11.0200005       2.21045515E-09
  -11.0100002       2.24251351E-09
  -11.0000000       2.27226704E-09
  -10.9899998       2.29954611E-09
  -10.9799995       2.32418329E-09
  -10.9700003       2.34602004E-09
  -10.9600000       2.36491249E-09
  -10.9499998       2.38073117E-09
  -10.9399996       2.39336750E-09
  -10.9300003       2.40273312E-09
  -10.9200001       2.40876141E-09
  -10.9099998       2.41140352E-09
  -10.8999996       2.41063058E-09
  -10.8900003       2.40642906E-09
  -10.8800001       2.39879649E-09
  -10.8699999       2.38774356E-09
  -10.8599997       2.37328512E-09
  -10.8500004       2.35544295E-09
  -10.8400002       2.33424058E-09
  -10.8299999       2.30970287E-09
  -10.8199997       2.28185693E-09
  -10.8100004       2.25072738E-09
  -10.8000002       2.21634333E-09
  -10.7900000       2.17873142E-09
  -10.7799997       2.13791918E-09
  -10.7700005       2.09393214E-09
  -10.7600002       2.04679540E-09
  -10.7500000       1.99652850E-09
  -10.7399998       1.94314387E-09
  -10.7299995       1.88664617E-09
  -10.7200003       1.82702475E-09
  -10.7100000       1.76425663E-09
  -10.6999998       1.69829995E-09
  -10.6899996       1.62909253E-09
  -10.6800003       1.55655322E-09
  -10.6700001       1.48057844E-09
  -10.6599998       1.40104495E-09
  -10.6499996       1.31780920E-09
  -10.6400003       1.23071031E-09
  -10.6300001       1.13957233E-09
  -10.6199999       1.04420750E-09
  -10.6099997       9.44419876E-10
  -10.6000004       8.40009118E-10
  -10.5900002       7.30776051E-10
  -10.5799999       6.16524942E-10
  -10.5699997       4.97071218E-10
  -10.5600004       3.72245734E-10
  -10.5500002       2.41901804E-10
  -10.5400000       1.05920342E-10
  -10.5299997      -3.57814438E-11
  -10.5200005      -1.83243934E-10
  -10.5100002      -3.36458028E-10
  -10.5000000      -4.95358088E-10
  -10.4899998      -6.59817589E-10
  -10.4799995      -8.29644076E-10
  -10.4700003      -1.00457798E-09
  -10.4600000      -1.18429211E-09
  -10.4499998      -1.36839551E-09
  -10.4399996      -1.55643654E-09
  -10.4300003      -1.74791159E-09
  -10.4200001      -1.94227368E-09
  -10.4099998      -2.13894191E-09
  -10.3999996      -2.33731412E-09
  -10.3900003      -2.53677856E-09
  -10.3800001      -2.73672551E-09
  -10.3699999      -2.93656144E-09
  -10.3599997      -3.13571746E-09
  -10.3500004      -3.33366312E-09
  -10.3400002      -3.52991059E-09
  -10.3299999      -3.72402731E-09
  -10.3199997      -3.91563937E-09
  -10.3100004      -4.10443679E-09
  -10.3000002      -4.29017266E-09
  -10.2900000      -4.47266668E-09
  -10.2799997      -4.65180472E-09
  -10.2700005      -4.82753482E-09
  -10.2600002      -4.99986408E-09
  -10.2500000      -5.16885823E-09
  -10.2399998      -5.33463318E-09
  -10.2299995      -5.49735324E-09
  -10.2200003      -5.65722003E-09
  -10.2100000      -5.81446979E-09
  -10.1999998      -5.96936767E-09
  -10.1899996      -6.12218987E-09
  -10.1800003      -6.27322683E-09
  -10.1700001      -6.42276321E-09
  -10.1599998      -6.57107524E-09
  -10.1499996      -6.71842404E-09
  -10.1400003      -6.86504364E-09
  -10.1300001      -7.01114056E-09
  -10.1199999      -7.15688575E-09
  -10.1099997      -7.30241734E-09
  -10.1000004      -7.44783479E-09
  -10.0900002      -7.59320251E-09
  -10.0799999      -7.73854847E-09
  -10.0699997      -7.88387045E-09
  -10.0600004      -8.02913203E-09
  -10.0500002      -8.17427281E-09
  -10.0400000      -8.31921199E-09
  -10.0299997      -8.46385273E-09
  -10.0200005      -8.60808846E-09
  -10.0100002      -8.75180994E-09
  -10.0000000      -8.89491680E-09
  -9.98999977      -9.03732467E-09
  -9.97999954      -9.17897847E-09
  -9.97000027      -9.31985777E-09
  -9.96000004      -9.45999101E-09
  -9.94999981      -9.59946789E-09
  -9.93999958      -9.73844294E-09
  -9.93000031      -9.87714799E-09
  -9.92000008      -1.00158948E-08
  -9.90999985      -1.01550812E-08
  -9.89999962      -1.02951789E-08
  -9.89000034      -1.04367439E-08
  -9.88000011      -1.05804068E-08
  -9.86999989      -1.07268514E-08
  -9.85999966      -1.08768203E-08
  -9.85000038      -1.10310880E-08
  -9.84000015      -1.11904681E-08
  -9.82999992      -1.13557670E-08
  -9.81999969      -1.15278018E-08
  -9.81000042      -1.17073755E-08
  -9.80000019      -1.18952608E-08
  -9.78999996      -1.20921833E-08
  -9.77999973      -1.22988340E-08
  -9.77000046      -1.25158302E-08
  -9.76000023      -1.27437225E-08
  -9.75000000      -1.29829800E-08
  -9.73999977      -1.32339775E-08
  -9.72999954      -1.34969937E-08
  -9.72000027      -1.37721878E-08
  -9.71000004      -1.40596015E-08
  -9.69999981      -1.43591485E-08
  -9.68999958      -1.46705990E-08
  -9.68000031      -1.49935904E-08
  -9.67000008      -1.53275934E-08
  -9.65999985      -1.56719473E-08
  -9.64999962      -1.60258278E-08
  -9.64000034      -1.63882827E-08
  -9.63000011      -1.67582126E-08
  -9.61999989      -1.71344023E-08
  -9.60999966      -1.75155321E-08
  -9.60000038      -1.79001738E-08
  -9.59000015      -1.82868600E-08
  -9.57999992      -1.86740472E-08
  -9.56999969      -1.90601757E-08
  -9.56000042      -1.94436769E-08
  -9.55000019      -1.98230072E-08
  -9.53999996      -2.01966799E-08
  -9.52999973      -2.05632613E-08
  -9.52000046      -2.09214051E-08
  -9.51000023      -2.12699121E-08
  -9.50000000      -2.16076685E-08
  -9.48999977      -2.19337437E-08
  -9.47999954      -2.22473719E-08
  -9.47000027      -2.25479617E-08
  -9.46000004      -2.28351080E-08
  -9.44999981      -2.31086297E-08
  -9.43999958      -2.33685391E-08
  -9.43000031      -2.36150779E-08
  -9.42000008      -2.38487061E-08
  -9.40999985      -2.40700828E-08
  -9.39999962      -2.42800979E-08
  -9.39000034      -2.44798422E-08
  -9.38000011      -2.46706175E-08
  -9.36999989      -2.48538878E-08
  -9.35999966      -2.50313068E-08
  -9.35000038      -2.52046828E-08
  -9.34000015      -2.53759609E-08
  -9.32999992      -2.55472123E-08
  -9.31999969      -2.57206239E-08
  -9.31000042      -2.58984478E-08
  -9.30000019      -2.60830042E-08
  -9.28999996      -2.62766591E-08
  -9.27999973      -2.64817945E-08
  -9.27000046      -2.67007874E-08
  -9.26000023      -2.69359930E-08
  -9.25000000      -2.71897047E-08
  -9.23999977      -2.74641447E-08
  -9.22999954      -2.77614287E-08
  -9.22000027      -2.80835657E-08
  -9.21000004      -2.84323960E-08
  -9.19999981      -2.88096107E-08
  -9.18999958      -2.92167126E-08
  -9.18000031      -2.96549878E-08
  -9.17000008      -3.01255199E-08
  -9.15999985      -3.06291668E-08
  -9.14999962      -3.11665218E-08
  -9.14000034      -3.17379332E-08
  -9.13000011      -3.23435145E-08
  -9.11999989      -3.29830812E-08
  -9.10999966      -3.36561961E-08
  -9.10000038      -3.43621522E-08
  -9.09000015      -3.50999976E-08
  -9.07999992      -3.58684531E-08
  -9.06999969      -3.66660302E-08
  -9.06000042      -3.74909526E-08
  -9.05000019      -3.83411880E-08
  -9.03999996      -3.92144770E-08
  -9.02999973      -4.01083291E-08
  -9.02000046      -4.10200194E-08
  -9.01000023      -4.19466488E-08
  -9.00000000      -4.28851266E-08
  -8.98999977      -4.38321770E-08
  -8.97999954      -4.47844570E-08
  -8.97000027      -4.57384743E-08
  -8.96000004      -4.66906940E-08
  -8.94999981      -4.76375455E-08
  -8.93999958      -4.85754441E-08
  -8.93000031      -4.95008479E-08
  -8.92000008      -5.04102999E-08
  -8.90999985      -5.13004075E-08
  -8.89999962      -5.21679411E-08
  -8.89000034      -5.30097921E-08
  -8.88000011      -5.38230687E-08
  -8.86999989      -5.46050387E-08
  -8.85999966      -5.53532260E-08
  -8.85000038      -5.60653959E-08
  -8.84000015      -5.67395020E-08
  -8.82999992      -5.73738568E-08
  -8.81999969      -5.79669468E-08
  -8.81000042      -5.85175997E-08
  -8.80000019      -5.90248810E-08
  -8.78999996      -5.94881548E-08
  -8.77999973      -5.99070233E-08
  -8.77000046      -6.02813657E-08
  -8.76000023      -6.06112991E-08
  -8.75000000      -6.08972073E-08
  -8.73999977      -6.11396729E-08
  -8.72999954      -6.13394988E-08
  -8.72000027      -6.14976656E-08
  -8.71000004      -6.16153528E-08
  -8.69999981      -6.16938536E-08
  -8.68999958      -6.17345819E-08
  -8.68000031      -6.17390938E-08
  -8.67000008      -6.17089668E-08
  -8.65999985      -6.16459346E-08
  -8.64999962      -6.15516740E-08
  -8.64000034      -6.14279259E-08
  -8.63000011      -6.12764666E-08
  -8.61999989      -6.10989730E-08
  -8.60999966      -6.08972002E-08
  -8.60000038      -6.06728108E-08
  -8.59000015      -6.04273680E-08
  -8.57999992      -6.01624706E-08
  -8.56999969      -5.98795964E-08
  -8.56000042      -5.95801275E-08
  -8.55000019      -5.92653819E-08
  -8.53999996      -5.89365641E-08
  -8.52999973      -5.85948037E-08
  -8.52000046      -5.82411062E-08
  -8.51000023      -5.78763526E-08
  -8.50000000      -5.75013317E-08
  -8.48999977      -5.71167611E-08
  -8.47999954      -5.67231986E-08
  -8.47000027      -5.63211593E-08
  -8.46000004      -5.59110767E-08
  -8.44999981      -5.54933415E-08
  -8.43999958      -5.50682699E-08
  -8.43000031      -5.46361996E-08
  -8.42000008      -5.41974146E-08
  -8.40999985      -5.37523057E-08
  -8.39999962      -5.33011750E-08
  -8.39000034      -5.28445021E-08
  -8.38000011      -5.23827808E-08
  -8.36999989      -5.19165972E-08
  -8.35999966      -5.14466869E-08
  -8.35000038      -5.09739166E-08
  -8.34000015      -5.04992208E-08
  -8.32999992      -5.00237469E-08
  -8.31999969      -4.95486923E-08
  -8.31000042      -4.90754921E-08
  -8.30000019      -4.86056528E-08
  -8.28999996      -4.81408158E-08
  -8.27999973      -4.76827573E-08
  -8.27000046      -4.72333745E-08
  -8.26000023      -4.67946677E-08
  -8.25000000      -4.63687257E-08
  -8.23999977      -4.59577407E-08
  -8.22999954      -4.55640183E-08
  -8.22000027      -4.51898714E-08
  -8.21000004      -4.48376980E-08
  -8.19999981      -4.45099353E-08
  -8.18999958      -4.42090382E-08
  -8.18000031      -4.39374901E-08
  -8.17000008      -4.36977530E-08
  -8.15999985      -4.34922605E-08
  -8.14999962      -4.33234462E-08
  -8.14000034      -4.31936833E-08
  -8.13000011      -4.31052598E-08
  -8.11999989      -4.30604103E-08
  -8.10999966      -4.30612417E-08
  -8.10000038      -4.31097327E-08
  -8.09000015      -4.32077947E-08
  -8.07999992      -4.33571223E-08
  -8.06999969      -4.35592717E-08
  -8.06000042      -4.38156320E-08
  -8.05000019      -4.41274288E-08
  -8.03999996      -4.44956889E-08
  -8.02999973      -4.49211903E-08
  -8.02000046      -4.54046116E-08
  -8.01000023      -4.59463152E-08
  -8.00000000      -4.65464787E-08
  -7.98999977      -4.72051411E-08
  -7.98000002      -4.79220219E-08
  -7.96999979      -4.86967444E-08
  -7.96000004      -4.95287011E-08
  -7.94999981      -5.04170892E-08
  -7.94000006      -5.13609528E-08
  -7.92999983      -5.23591872E-08
  -7.92000008      -5.34105133E-08
  -7.90999985      -5.45135066E-08
  -7.90000010      -5.56666571E-08
  -7.88999987      -5.68682346E-08
  -7.88000011      -5.81164770E-08
  -7.86999989      -5.94094587E-08
  -7.86000013      -6.07451938E-08
  -7.84999990      -6.21216145E-08
  -7.84000015      -6.35365893E-08
  -7.82999992      -6.49879794E-08
  -7.82000017      -6.64735680E-08
  -7.80999994      -6.79911381E-08
  -7.80000019      -6.95384799E-08
  -7.78999996      -7.11133552E-08
  -7.78000021      -7.27136467E-08
  -7.76999998      -7.43372013E-08
  -7.76000023      -7.59819798E-08
  -7.75000000      -7.76460212E-08
  -7.73999977      -7.93274992E-08
  -7.73000002      -8.10245595E-08
  -7.71999979      -8.27356459E-08
  -7.71000004      -8.44591952E-08
  -7.69999981      -8.61938432E-08
  -7.69000006      -8.79383464E-08
  -7.67999983      -8.96915395E-08
  -7.67000008      -9.14524705E-08
  -7.65999985      -9.32203434E-08
  -7.65000010      -9.49945473E-08
  -7.63999987      -9.67745848E-08
  -7.63000011      -9.85601787E-08
  -7.61999989      -1.00351244E-07
  -7.61000013      -1.02147808E-07
  -7.59999990      -1.03950150E-07
  -7.59000015      -1.05758566E-07
  -7.57999992      -1.07573690E-07
  -7.57000017      -1.09396176E-07
  -7.55999994      -1.11226882E-07
  -7.55000019      -1.13066712E-07
  -7.53999996      -1.14916801E-07
  -7.53000021      -1.16778317E-07
  -7.51999998      -1.18652473E-07
  -7.51000023      -1.20540690E-07
  -7.50000000      -1.22444433E-07
  -7.48999977      -1.24365116E-07
  -7.48000002      -1.26304329E-07
  -7.46999979      -1.28263608E-07
  -7.46000004      -1.30244416E-07
  -7.44999981      -1.32248374E-07
  -7.44000006      -1.34276974E-07