  -16.0000000       0.00000000    
  -15.9899998       0.00000000    
  -15.9799995       0.00000000    
  -15.9700003       0.00000000    
  -15.9600000       0.00000000    
  -15.9499998       0.00000000    
  -15.9399996       0.00000000    
  -15.9300003       0.00000000    
  -15.9200001       0.00000000    
  -15.9099998       0.00000000    
  -15.8999996       0.00000000    
  -15.8900003       0.00000000    
  -15.8800001       0.00000000    
  -15.8699999       0.00000000    
  -15.8599997       0.00000000    
  -15.8500004       0.00000000    
  -15.8400002       1.40129846E-45
  -15.8299999       1.12103877E-44
  -15.8199997       5.88545355E-44
  -15.8100004       2.76055797E-43
  -15.8000002       1.17989331E-42
  -15.7900000       4.63409402E-42
  -15.7799997       1.66222024E-41
  -15.7700005       5.37397961E-41
  -15.7600002       1.54568826E-40
  -15.7500000       3.90452199E-40
  -15.7399998       8.51550860E-40
  -15.7299995       1.55289514E-39
  -15.7200003       2.18210477E-39
  -15.7100000       1.65199917E-39
  -15.6999998      -2.39786270E-39
  -15.6899996      -1.36724397E-38
  -15.6800003      -3.60742654E-38
  -15.6700001      -7.06624705E-38
  -15.6599998      -1.10976135E-37
  -15.6499996      -1.38511963E-37
  -15.6400003      -1.20982112E-37
  -15.6300001      -1.45293940E-38
  -15.6199999       2.31730350E-37
  -15.6099997       6.68044223E-37
  -15.6000004       1.31472037E-36
  -15.5900002       2.06104252E-36
  -15.5799999       2.43553027E-36
  -15.5699997       1.29740445E-36
  -15.5600004      -3.19447155E-36
  -15.5500002      -1.25468984E-35
  -15.5400000      -2.49357594E-35
  -15.5299997      -3.04361919E-35
  -15.5200005      -7.73034185E-36
  -15.5100002       7.00185219E-35
  -15.5000000       2.10249608E-34
  -15.4899998       3.54245853E-34
  -15.4799995       3.28973780E-34
  -15.4700003      -1.44781001E-34
  -15.4600000      -1.30193383E-33
  -15.4499998      -2.98292840E-33
  -15.4399996      -4.16715098E-33
  -15.4300003      -2.73439731E-33
  -15.4200001       3.93301749E-33
  -15.4099998       1.69026213E-32
  -15.3999996       3.22572107E-32
  -15.3900003       3.78614064E-32
  -15.3800001       1.39106003E-32
  -15.3699999      -5.80931189E-32
  -15.3599997      -1.75417094E-31
  -15.3500004      -2.88014736E-31
  -15.3400002      -2.83074039E-31
  -15.3299999      -8.19058456E-33
  -15.3199997       6.39681409E-31
  -15.3100004       1.55878008E-30
  -15.3000002       2.27805294E-30
  -15.2900000       1.91647032E-30
  -15.2799997      -5.54036866E-31
  -15.2700005      -5.61458081E-30
  -15.2600002      -1.21626238E-29
  -15.2500000      -1.65977425E-29
  -15.2399998      -1.28975255E-29
  -15.2299995       5.31286320E-30
  -15.2200003       4.01996559E-29
  -15.2100000       8.35676049E-29
  -15.1999998       1.12116844E-28
  -15.1899996       8.90289344E-29
  -15.1800003      -2.30442513E-29
  -15.1700001      -2.35865053E-28
  -15.1599998      -5.02310070E-28
  -15.1499996      -6.92301759E-28
  -15.1400003      -6.02882180E-28
  -15.1300001      -2.64005123E-29
  -15.1199999       1.11699372E-27
  -15.1099997       2.61318341E-27
  -15.1000004       3.83248311E-27
  -15.0900002       3.76703153E-27
  -15.0799999       1.33482073E-27
  -15.0699997      -4.02124119E-27
  -15.0600004      -1.15685835E-26
  -15.0500002      -1.86827053E-26
  -15.0400000      -2.08875885E-26
  -15.0299997      -1.29983832E-26
  -15.0200005       8.47398082E-27
  -15.0100002       4.20993125E-26
  -15.0000000       7.86993154E-26
  -14.9899998       1.00742517E-25
  -14.9799995       8.58159747E-26
  -14.9700003       1.50692370E-26
  -14.9600000      -1.14517828E-25
  -14.9499998      -2.77918581E-25
  -14.9399996      -4.16154203E-25
  -14.9300003      -4.43607647E-25
  -14.9200001      -2.73047809E-25
  -14.9099998       1.43158262E-25
  -14.8999996       7.65812805E-25
  -14.8900003       1.43436764E-24
  -14.8800001       1.86830997E-24
  -14.8699999       1.72390188E-24
  -14.8599997       7.11345214E-25
  -14.8500004      -1.24633012E-24
  -14.8400002      -3.85866500E-24
  -14.8299999      -6.38498337E-24
  -14.8199997      -7.69484036E-24
  -14.8100004      -6.52102007E-24
  -14.8000002      -1.90291236E-24
  -14.7900000       6.25580148E-24
  -14.7799997       1.66712058E-23
  -14.7700005       2.64229954E-23
  -14.7600002       3.11897237E-23
  -14.7500000       2.61504945E-23
  -14.7399998       7.57981497E-24
  -14.7299995      -2.50738192E-23
  -14.7200003      -6.71291158E-23
  -14.7100000      -1.07424819E-22
  -14.6999998      -1.28854800E-22
  -14.6899996      -1.11564256E-22
  -14.6800003      -3.91964158E-23
  -14.6700001       9.24028119E-23
  -14.6599998       2.66015080E-22
  -14.6499996       4.36922515E-22
  -14.6400003       5.34326465E-22
  -14.6300001       4.74522882E-22
  -14.6199999       1.87681672E-22
  -14.6099997      -3.44694628E-22
  -14.6000004      -1.05108433E-21
  -14.5900002      -1.74588141E-21
  -14.5799999      -2.13926981E-21
  -14.5699997      -1.89710117E-21
  -14.5600004      -7.54559567E-22
  -14.5500002       1.33389397E-21
  -14.5400000       4.05170593E-21
  -14.5299997       6.64954137E-21
  -14.5200005       8.01677681E-21
  -14.5100002       6.94262947E-21
  -14.5000000       2.55867966E-21
  -14.4899998      -5.12669176E-21
  -14.4799995      -1.47775574E-20
  -14.4700003      -2.35929375E-20
  -14.4600000      -2.76967243E-20
  -14.4499998      -2.31558307E-20
  -14.4399996      -7.51658861E-21
  -14.4300003       1.85163605E-20
  -14.4200001       4.98681342E-20
  -14.4099998       7.70511180E-20
  -14.3999996       8.78389232E-20
  -14.3900003       7.07612237E-20
  -14.3800001       1.98430289E-20
  -14.3699999      -6.07280398E-20
  -14.3599997      -1.53851717E-19
  -14.3500004      -2.30545370E-19
  -14.3400002      -2.55905331E-19
  -14.3299999      -1.99709589E-19
  -14.3199997      -4.94763026E-20
  -14.3100004       1.77994146E-19
  -14.3000002       4.31498405E-19
  -14.2900000       6.31040735E-19
  -14.2799997       6.86053570E-19
  -14.2700005       5.24079974E-19
  -14.2600002       1.23113491E-19
  -14.2500000      -4.62879259E-19
  -14.2399998      -1.09682309E-18
  -14.2299995      -1.57851755E-18
  -14.2200003      -1.69349380E-18
  -14.2100000      -1.28269926E-18
  -14.1999998      -3.14940307E-19
  -14.1899996       1.06256178E-18
  -14.1800003       2.51979646E-18
  -14.1700001       3.60103608E-18
  -14.1599998       3.84153885E-18
  -14.1499996       2.92060517E-18
  -14.1400003       8.08797713E-19
  -14.1300001      -2.14252310E-18
  -14.1199999      -5.21515084E-18
  -14.1099997      -7.46373918E-18
  -14.1000004      -7.96643751E-18
  -14.0900002      -6.13034843E-18
  -14.0799999      -1.96325673E-18
  -14.0699997       3.78645813E-18
  -14.0600004       9.69871915E-18
  -14.0500002       1.39842559E-17
  -14.0400000       1.49732380E-17
  -14.0299997       1.16705440E-17
  -14.0200005       4.21093951E-18
  -14.0100002      -5.95468587E-18
  -14.0000000      -1.62565045E-17
  -13.9899998      -2.35979673E-17
  -13.9799995      -2.52281600E-17
  -13.9700003      -1.96659262E-17
  -13.9600000      -7.38857245E-18
  -13.9499998       8.97834658E-18
  -13.9399996       2.51189771E-17
  -13.9300003       3.60972984E-17
  -13.9200001       3.78021242E-17
  -13.9099998       2.83673650E-17
  -13.8999996       9.11048703E-18
  -13.8900003      -1.53879135E-17
  -13.8800001      -3.82258624E-17
  -13.8699999      -5.20045440E-17
  -13.8599997      -5.10944733E-17
  -13.8500004      -3.36914105E-17
  -13.8400002      -2.97876838E-18
  -13.8299999       3.31090985E-17
  -13.8199997       6.36631882E-17
  -13.8100004       7.77933985E-17
  -13.8000002       6.80861560E-17
  -13.7900000       3.35177621E-17
  -13.7799997      -1.91648616E-17
  -13.7700005      -7.62576946E-17
  -13.7600002      -1.20192559E-16
  -13.7500000      -1.34310785E-16
  -13.7399998      -1.08125728E-16
  -13.7299995      -4.15651210E-17
  -13.7200003       5.32270475E-17
  -13.7100000       1.53422628E-16
  -13.6999998       2.30416520E-16
  -13.6899996       2.57171247E-16
  -13.6800003       2.16228122E-16
  -13.6700001       1.06190985E-16
  -13.6599998      -5.53663781E-17
  -13.6499996      -2.33865241E-16
  -13.6400003      -3.84657752E-16
  -13.6300001      -4.63652442E-16
  -13.6199999      -4.39170516E-16
  -13.6099997      -3.01949379E-16
  -13.6000004      -7.03639865E-17
  -13.5900002       2.11083297E-16
  -13.5799999       4.80319138E-16
  -13.5699997       6.71739955E-16
  -13.5600004       7.32512981E-16
  -13.5500002       6.36988470E-16
  -13.5400000       3.95198680E-16
  -13.5299997       5.26790966E-17
  -13.5200005      -3.18998061E-16
  -13.5100002      -6.39069312E-16
  -13.5000000      -8.37665822E-16
  -13.4899998      -8.73767901E-16
  -13.4799995      -7.45863226E-16
  -13.4700003      -4.91868856E-16
  -13.4600000      -1.77806628E-16
  -13.4499998       1.21945573E-16
  -13.4399996       3.47194093E-16
  -13.4300003       4.70277616E-16
  -13.4200001       5.03933729E-16
  -13.4099998       4.95171914E-16
  -13.3999996       5.05877828E-16
  -13.3900003       5.85412581E-16
  -13.3800001       7.43910392E-16
  -13.3699999       9.36076968E-16
  -13.3599997       1.06331402E-15
  -13.3500004       9.97138726E-16
  -13.3400002       6.20272433E-16
  -13.3299999      -1.24789473E-16
  -13.3199997      -1.19436812E-15
  -13.3100004      -2.42448189E-15
  -13.3000002      -3.54506942E-15
  -13.2900000      -4.23034173E-15
  -13.2799997      -4.17755633E-15
  -13.2700005      -3.19664962E-15
  -13.2600002      -1.28682939E-15
  -13.2500000       1.32389217E-15
  -13.2399998       4.19356271E-15
  -13.2299995       6.74006817E-15
  -13.2200003       8.36261992E-15
  -13.2100000       8.58505924E-15
  -13.1999998       7.18572354E-15
  -13.1899996       4.27810973E-15
  -13.1800003       3.15949880E-16
  -13.1700001      -3.98602651E-15
  -13.1599998      -7.80246178E-15
  -13.1499996      -1.03850873E-14
  -13.1400003      -1.12411521E-14
  -13.1300001      -1.02544155E-14
  -13.1199999      -7.71286348E-15
  -13.1099997      -4.23037942E-15
  -13.1000004      -5.78586130E-16
  -13.0900002       2.52807317E-15
  -13.0799999       4.63428751E-15
  -13.0699997       5.67172711E-15
  -13.0600004       5.96855498E-15
  -13.0500002       6.12749902E-15
  -13.0400000       6.79772824E-15
  -13.0299997       8.40132678E-15
  -13.0200005       1.08966511E-14
  -13.0100002       1.36606103E-14
  -13.0000000       1.55476455E-14
  -12.9899998       1.51388691E-14
  -12.9799995       1.11400443E-14
  -12.9700003       2.83762835E-15
  -12.9600000      -9.50986252E-15
  -12.9499998      -2.44685270E-14
  -12.9399996      -3.95042174E-14
  -12.9300003      -5.13648403E-14
  -12.9200001      -5.67201485E-14
  -12.9099998      -5.29353207E-14
  -12.8999996      -3.88037042E-14
  -12.8900003      -1.50531612E-14
  -12.8800001       1.55244571E-14
  -12.8699999       4.83929879E-14
  -12.8599997       7.80119784E-14
  -12.8500004       9.88623585E-14
  -12.8400002       1.06546316E-13
  -12.8299999       9.87176039E-14
  -12.8199997       7.56258053E-14
  -12.8100004       4.01406203E-14
  -12.8000002      -2.76094921E-15
  -12.7900000      -4.69331063E-14
  -12.7799997      -8.62129785E-14
  -12.7700005      -1.15520983E-13
  -12.7600002      -1.31661446E-13
  -12.7500000      -1.33652543E-13
  -12.7399998      -1.22540135E-13
  -12.7299995      -1.00785435E-13
  -12.7200003      -7.14275508E-14
  -12.7100000      -3.72807017E-14
  -12.6999998      -4.04641880E-16
  -12.6899996       3.79952451E-14
  -12.6800003       7.72213307E-14
  -12.6700001       1.16419095E-13
  -12.6599998       1.53837270E-13
  -12.6499996       1.86303650E-13
  -12.6400003       2.09170761E-13
  -12.6300001       2.16864639E-13
  -12.6199999       2.03996921E-13
  -12.6099997       1.66819520E-13
  -12.6000004       1.04661776E-13
  -12.5900002       2.09387713E-14
  -12.5799999      -7.66231967E-14
  -12.5699997      -1.76735688E-13
  -12.5600004      -2.66233053E-13
  -12.5500002      -3.32405815E-13
  -12.5400000      -3.65502767E-13
  -12.5299997      -3.60830479E-13
  -12.5200005      -3.19929765E-13
  -12.5100002      -2.50485830E-13
  -12.5000000      -1.64916136E-13
  -12.4899998      -7.78870376E-14
  -12.4799995      -3.27414466E-15
  -12.4700003       4.87689519E-14
  -12.4600000       7.39825817E-14
  -12.4499998       7.49380890E-14
  -12.4399996       6.05573466E-14
  -12.4300003       4.43840724E-14
  -12.4200001       4.20750809E-14
  -12.4099998       6.87636661E-14
  -12.3999996       1.36953816E-13
  -12.3900003       2.55426133E-13
  -12.3800001       4.29317064E-13
  -12.3699999       6.61180908E-13
  -12.3599997       9.52504568E-13
  -12.3500004       1.30498715E-12
  -12.3400002       1.72092765E-12
  -12.3299999       2.20229716E-12
  -12.3199997       2.74847940E-12
  -12.3100004       3.35311097E-12
  -12.3000002       4.00084393E-12
  -12.2900000       4.66504569E-12
  -12.2799997       5.30735915E-12
  -12.2700005       5.87974591E-12
  -12.2600002       6.32905100E-12
  -12.2500000       6.60352979E-12
  -12.2399998       6.66024050E-12
  -12.2299995       6.47174111E-12
  -12.2200003       6.03073971E-12
  -12.2100000       5.35155600E-12
  -12.1999998       4.46781934E-12
  -12.1899996       3.42683651E-12
  -12.1800003       2.28161370E-12
  -12.1700001       1.08210879E-12
  -12.1599998      -1.32447926E-13
  -12.1499996      -1.33866507E-12
  -12.1400003      -2.53051963E-12
  -12.1300001      -3.71716199E-12
  -12.1199999      -4.91768735E-12
  -12.1099997      -6.15424118E-12
  -12.1000004      -7.44507754E-12
  -12.0900002      -8.79918707E-12
  -12.0799999      -1.02136624E-11
  -12.0699997      -1.16741027E-11
  -12.0600004      -1.31577180E-11
  -12.0500002      -1.46379124E-11
  -12.0400000      -1.60889895E-11
  -12.0299997      -1.74894630E-11
  -12.0200005      -1.88230508E-11
  -12.0100002      -2.00770529E-11
  -12.0000000      -2.12386601E-11
  -11.9899998      -2.22902564E-11
  -11.9799995      -2.32053578E-11
  -11.9700003      -2.39465305E-11
  -11.9600000      -2.44664046E-11
  -11.9499998      -2.47116945E-11
  -11.9399996      -2.46299162E-11
  -11.9300003      -2.41774205E-11
  -11.9200001      -2.33266826E-11
  -11.9099998      -2.20714141E-11
  -11.8999996      -2.04282060E-11
  -11.8900003      -1.84341344E-11
  -11.8800001      -1.61403842E-11
  -11.8699999      -1.36040363E-11
  -11.8599997      -1.08789436E-11
  -11.8500004      -8.00763535E-12
  -11.8400002      -5.01643215E-12
  -11.8299999      -1.91424589E-12
  -11.8199997       1.30507660E-12
  -11.8100004       4.65722339E-12
  -11.8000002       8.16012102E-12
  -11.7900000       1.18268069E-11
  -11.7799997       1.56597964E-11
  -11.7700005       1.96480505E-11
  -11.7600002       2.37664905E-11
  -11.7500000       2.79782777E-11
  -11.7399998       3.22387707E-11
  -11.7299995       3.64997407E-11
  -11.7200003       4.07132245E-11
  -11.7100000       4.48339109E-11
  -11.6999998       4.88201563E-11
  -11.6899996       5.26335434E-11
  -11.6800003       5.62379275E-11
  -11.6700001       5.95983055E-11
  -11.6599998       6.26806454E-11
  -11.6499996       6.54524004E-11
  -11.6400003       6.78834974E-11
  -11.6300001       6.99479502E-11
  -11.6199999       7.16246368E-11
  -11.6099997       7.28966748E-11
  -11.6000004       7.37496453E-11
  -11.5900002       7.41683104E-11
  -11.5799999       7.41324294E-11
  -11.5699997       7.36134487E-11
  -11.5600004       7.25719485E-11
  -11.5500002       7.09581421E-11
  -11.5400000       6.87147284E-11
  -11.5299997       6.57823657E-11
  -11.5200005       6.21069030E-11
  -11.5100002       5.76478205E-11
  -11.5000000       5.23837883E-11
  -11.4899998       4.63169017E-11
  -11.4799995       3.94734349E-11
  -11.4700003       3.19005794E-11
  -11.4600000       2.36600115E-11
  -11.4499998       1.48206985E-11
  -11.4399996       5.44953622E-12
  -11.4300003      -4.39409663E-12
  -11.4200001      -1.46630989E-11
  -11.4099998      -2.53239773E-11
  -11.3999996      -3.63549295E-11
  -11.3900003      -4.77422199E-11
  -11.3800001      -5.94750638E-11
  -11.3699999      -7.15416337E-11
  -11.3599997      -8.39264491E-11
  -11.3500004      -9.66098243E-11
  -11.3400002      -1.09568611E-10
  -11.3299999      -1.22779217E-10
  -11.3199997      -1.36219563E-10
  -11.3100004      -1.49871046E-10
  -11.3000002      -1.63718358E-10
  -11.2900000      -1.77746998E-10
  -11.2799997      -1.91940089E-10
  -11.2700005      -2.06273679E-10
  -11.2600002      -2.20713045E-10
  -11.2500000      -2.35210990E-10
  -11.2399998      -2.49707949E-10
  -11.2299995      -2.64135325E-10
  -11.2200003      -2.78421786E-10
  -11.2100000      -2.92498609E-10
  -11.1999998      -3.06307563E-10
  -11.1899996      -3.19803600E-10
  -11.1800003      -3.32958328E-10
  -11.1700001      -3.45758061E-10
  -11.1599998      -3.58199276E-10
  -11.1499996      -3.70285191E-10
  -11.1400003      -3.82017973E-10
  -11.1300001      -3.93398258E-10
  -11.1199999      -4.04419026E-10
  -11.1099997      -4.15070395E-10
  -11.1000004      -4.25340152E-10
  -11.0900002      -4.35218583E-10
  -11.0799999      -4.44700499E-10
  -11.0699997      -4.53789895E-10
  -11.0600004      -4.62498512E-10
  -11.0500002      -4.70843420E-10
  -11.0400000      -4.78847018E-10
  -11.0299997      -4.86529539E-10
  -11.0200005      -4.93906749E-10
  -11.0100002      -5.00986141E-10
  -11.0000000      -5.07771991E-10
  -10.9899998      -5.14261855E-10
  -10.9799995      -5.20450238E-10
  -10.9700003      -5.26331423E-10
  -10.9600000      -5.31904409E-10
  -10.9499998      -5.37172917E-10
  -10.9399996      -5.42142220E-10
  -10.9300003      -5.46825585E-10
  -10.9200001      -5.51230117E-10
  -10.9099998      -5.55364421E-10
  -10.8999996      -5.59233770E-10
  -10.8900003      -5.62837499E-10
  -10.8800001      -5.66175828E-10
  -10.8699999      -5.69246761E-10
  -10.8599997      -5.72049241E-10
  -10.8500004      -5.74585934E-10
  -10.8400002      -5.76866721E-10
  -10.8299999      -5.78905035E-10
  -10.8199997      -5.80710924E-10
  -10.8100004      -5.82296489E-10
  -10.8000002      -5.83668613E-10
  -10.7900000      -5.84828297E-10
  -10.7799997      -5.85758109E-10
  -10.7700005      -5.86437621E-10
  -10.7600002      -5.86831694E-10
  -10.7500000      -5.86894922E-10
  -10.7399998      -5.86587778E-10
  -10.7299995      -5.85866966E-10
  -10.7200003      -5.84694682E-10
  -10.7100000      -5.83051663E-10
  -10.6999998      -5.80931747E-10
  -10.6899996      -5.78348813E-10
  -10.6800003      -5.75328618E-10
  -10.6700001      -5.71919456E-10
  -10.6599998      -5.68178060E-10
  -10.6499996      -5.64180036E-10
  -10.6400003      -5.60007374E-10
  -10.6300001      -5.55748558E-10
  -10.6199999      -5.51495238E-10
  -10.6099997      -5.47342005E-10
  -10.6000004      -5.43379897E-10
  -10.5900002      -5.39693457E-10
  -10.5799999      -5.36366174E-10
  -10.5699997      -5.33465550E-10
  -10.5600004      -5.31047206E-10
  -10.5500002      -5.29143784E-10
  -10.5400000      -5.27779265E-10
  -10.5299997      -5.26938548E-10
  -10.5200005      -5.26601651E-10
  -10.5100002      -5.26712396E-10
  -10.5000000      -5.27202337E-10
  -10.4899998      -5.27991484E-10
  -10.4799995      -5.28990463E-10
  -10.4700003      -5.30115285E-10
  -10.4600000      -5.31291233E-10
  -10.4499998      -5.32464461E-10
  -10.4399996      -5.33611599E-10
  -10.4300003      -5.34735700E-10
  -10.4200001      -5.35876510E-10
  -10.4099998      -5.37084766E-10
  -10.3999996      -5.38436740E-10
  -10.3900003      -5.40007428E-10
  -10.3800001      -5.41861833E-10
  -10.3699999      -5.44045087E-10
  -10.3599997      -5.46579282E-10
  -10.3500004      -5.49454260E-10
  -10.3400002      -5.52639212E-10
  -10.3299999      -5.56081514E-10
  -10.3199997      -5.59715496E-10
  -10.3100004      -5.63492142E-10
  -10.3000002      -5.67356107E-10
  -10.2900000      -5.71277359E-10
  -10.2799997      -5.75233694E-10
  -10.2700005      -5.79216786E-10
  -10.2600002      -5.83222748E-10
  -10.2500000      -5.87252025E-10
  -10.2399998      -5.91296068E-10
  -10.2299995      -5.95335892E-10
  -10.2200003      -5.99354955E-10
  -10.2100000      -6.03320560E-10
  -10.1999998      -6.07207229E-10
  -10.1899996      -6.10986650E-10
  -10.1800003      -6.14635731E-10
  -10.1700001      -6.18142149E-10
  -10.1599998      -6.21512009E-10
  -10.1499996      -6.24752694E-10
  -10.1400003      -6.27876251E-10
  -10.1300001      -6.30907215E-10
  -10.1199999      -6.33875896E-10
  -10.1099997      -6.36827757E-10
  -10.1000004      -6.39817477E-10
  -10.0900002      -6.42915998E-10
  -10.0799999      -6.46208753E-10
  -10.0699997      -6.49799159E-10
  -10.0600004      -6.53805676E-10
  -10.0500002      -6.58352317E-10
  -10.0400000      -6.63557542E-10
  -10.0299997      -6.69541755E-10
  -10.0200005      -6.76408984E-10
  -10.0100002      -6.84229007E-10
  -10.0000000      -6.93058111E-10
  -9.98999977      -7.02917391E-10
  -9.97999954      -7.13795190E-10
  -9.97000027      -7.25667970E-10
  -9.96000004      -7.38495043E-10
  -9.94999981      -7.52220841E-10
  -9.93999958      -7.66797847E-10
  -9.93000031      -7.82188037E-10
  -9.92000008      -7.98365096E-10
  -9.90999985      -8.15322254E-10
  -9.89999962      -8.33078606E-10
  -9.89000034      -8.51672344E-10
  -9.88000011      -8.71163586E-10
  -9.86999989      -8.91621277E-10
  -9.85999966      -9.13123077E-10
  -9.85000038      -9.35742150E-10
  -9.84000015      -9.59551993E-10
  -9.82999992      -9.84612281E-10
  -9.81999969      -1.01097053E-09
  -9.81000042      -1.03866959E-09
  -9.80000019      -1.06774312E-09
  -9.78999996      -1.09822162E-09
  -9.77999973      -1.13013654E-09
  -9.77000046      -1.16350674E-09
  -9.76000023      -1.19834942E-09
  -9.75000000      -1.23466226E-09
  -9.73999977      -1.27242872E-09
  -9.72999954      -1.31159961E-09
  -9.72000027      -1.35209899E-09
  -9.71000004      -1.39381662E-09
  -9.69999981      -1.43662404E-09
  -9.68999958      -1.48036849E-09
  -9.68000031      -1.52488877E-09
  -9.67000008      -1.57002600E-09
  -9.65999985      -1.61562641E-09
  -9.64999962      -1.66154845E-09
  -9.64000034      -1.70767100E-09
  -9.63000011      -1.75389558E-09
  -9.61999989      -1.80014370E-09
  -9.60999966      -1.84636184E-09
  -9.60000038      -1.89251548E-09
  -9.59000015      -1.93859062E-09
  -9.57999992      -1.98459160E-09
  -9.56999969      -2.03053219E-09
  -9.56000042      -2.07642792E-09
  -9.55000019      -2.12228435E-09
  -9.53999996      -2.16808838E-09
  -9.52999973      -2.21380048E-09
  -9.52000046      -2.25935848E-09
  -9.51000023      -2.30467001E-09
  -9.50000000      -2.34963138E-09
  -9.48999977      -2.39414621E-09
  -9.47999954      -2.43811704E-09
  -9.47000027      -2.48147236E-09
  -9.46000004      -2.52417509E-09
  -9.44999981      -2.56620813E-09
  -9.43999958      -2.60756816E-09
  -9.43000031      -2.64825317E-09
  -9.42000008      -2.68825762E-09
  -9.40999985      -2.72754819E-09
  -9.39999962      -2.76607270E-09
  -9.39000034      -2.80376056E-09
  -9.38000011      -2.84052915E-09
  -9.36999989      -2.87629742E-09
  -9.35999966      -2.91099322E-09
  -9.35000038      -2.94454838E-09
  -9.34000015      -2.97691694E-09
  -9.32999992      -3.00806424E-09
  -9.31999969      -3.03794456E-09
  -9.31000042      -3.06652903E-09
  -9.30000019      -3.09378367E-09
  -9.28999996      -3.11967563E-09
  -9.27999973      -3.14419490E-09
  -9.27000046      -3.16735149E-09
  -9.26000023      -3.18920934E-09
  -9.25000000      -3.20986526E-09
  -9.23999977      -3.22946092E-09
  -9.22999954      -3.24818439E-09
  -9.22000027      -3.26620264E-09
  -9.21000004      -3.28370064E-09
  -9.19999981      -3.30085825E-09
  -9.18999958      -3.31781247E-09
  -9.18000031      -3.33465899E-09
  -9.17000008      -3.35149042E-09
  -9.15999985      -3.36837047E-09
  -9.14999962      -3.38536776E-09
  -9.14000034      -3.40253359E-09
  -9.13000011      -3.41994744E-09
  -9.11999989      -3.43767970E-09
  -9.10999966      -3.45580853E-09
  -9.10000038      -3.47443252E-09
  -9.09000015      -3.49365714E-09
  -9.07999992      -3.51358076E-09
  -9.06999969      -3.53432372E-09
  -9.06000042      -3.55601548E-09
  -9.05000019      -3.57879637E-09
  -9.03999996      -3.60282870E-09
  -9.02999973      -3.62826946E-09
  -9.02000046      -3.65527919E-09
  -9.01000023      -3.68402864E-09
  -9.00000000      -3.71465969E-09
  -8.98999977      -3.74731446E-09
  -8.97999954      -3.78210396E-09
  -8.97000027      -3.81912679E-09
  -8.96000004      -3.85846155E-09
  -8.94999981      -3.90016330E-09
  -8.93999958      -3.94427868E-09
  -8.93000031      -3.99084188E-09
  -8.92000008      -4.03987466E-09
  -8.90999985      -4.09141920E-09
  -8.89999962      -4.14553547E-09
  -8.89000034      -4.20229362E-09
  -8.88000011      -4.26179270E-09
  -8.86999989      -4.32414771E-09
  -8.85999966      -4.38950964E-09
  -8.85000038      -4.45802240E-09
  -8.84000015      -4.52983517E-09
  -8.82999992      -4.60505012E-09
  -8.81999969      -4.68378580E-09
  -8.81000042      -4.76608575E-09
  -8.80000019      -4.85199969E-09
  -8.78999996      -4.94155650E-09
  -8.77999973      -5.03476771E-09
  -8.77000046      -5.13166309E-09
  -8.76000023      -5.23226840E-09
  -8.75000000      -5.33664890E-09
  -8.73999977      -5.44487744E-09
  -8.72999954      -5.55705348E-09
  -8.72000027      -5.67325076E-09
  -8.71000004      -5.79354209E-09
  -8.69999981      -5.91797411E-09
  -8.68999958      -6.04655837E-09
  -8.68000031      -6.17925533E-09
  -8.67000008      -6.31600416E-09
  -8.65999985      -6.45671872E-09
  -8.64999962      -6.60125821E-09
  -8.64000034      -6.74947787E-09
  -8.63000011      -6.90120006E-09
  -8.61999989      -7.05623471E-09
  -8.60999966      -7.21438953E-09
  -8.60000038      -7.37546424E-09
  -8.59000015      -7.53922702E-09
  -8.57999992      -7.70543362E-09
  -8.56999969      -7.87385179E-09
  -8.56000042      -8.04420974E-09
  -8.55000019      -8.21624724E-09
  -8.53999996      -8.38968983E-09
  -8.52999973      -8.56426041E-09
  -8.52000046      -8.73967210E-09
  -8.51000023      -8.91563356E-09
  -8.50000000      -9.09184905E-09
  -8.48999977      -9.26800414E-09
  -8.47999954      -9.44381551E-09
  -8.47000027      -9.61896784E-09
  -8.46000004      -9.79320713E-09
  -8.44999981      -9.96629801E-09
  -8.43999958      -1.01380166E-08
  -8.43000031      -1.03082023E-08
  -8.42000008      -1.04767404E-08
  -8.40999985      -1.06435136E-08
  -8.39999962      -1.08084484E-08
  -8.39000034      -1.09714495E-08
  -8.38000011      -1.11324203E-08
  -8.36999989      -1.12913039E-08
  -8.35999966      -1.14479821E-08
  -8.35000038      -1.16023644E-08
  -8.34000015      -1.17543593E-08
  -8.32999992      -1.19038734E-08
  -8.31999969      -1.20508110E-08
  -8.31000042      -1.21950929E-08
  -8.30000019      -1.23366162E-08
  -8.28999996      -1.24752368E-08
  -8.27999973      -1.26108111E-08
  -8.27000046      -1.27431994E-08
  -8.26000023      -1.28722206E-08
  -8.25000000      -1.29977522E-08
  -8.23999977      -1.31196156E-08
  -8.22999954      -1.32377211E-08
  -8.22000027      -1.33519755E-08
  -8.21000004      -1.34623601E-08
  -8.19999981      -1.35688802E-08
  -8.18999958      -1.36715181E-08
  -8.18000031      -1.37702880E-08
  -8.17000008      -1.38651544E-08
  -8.15999985      -1.39561109E-08
  -8.14999962      -1.40431231E-08
  -8.14000034      -1.41261518E-08
  -8.13000011      -1.42050940E-08
  -8.11999989      -1.42798520E-08
  -8.10999966      -1.43503014E-08
  -8.10000038      -1.44163295E-08
  -8.09000015      -1.44777861E-08
  -8.07999992      -1.45345620E-08
  -8.06999969      -1.45865178E-08
  -8.06000042      -1.46335344E-08
  -8.05000019      -1.46755230E-08
  -8.03999996      -1.47124313E-08
  -8.02999973      -1.47442236E-08
  -8.02000046      -1.47708752E-08
  -8.01000023      -1.47924286E-08
  -8.00000000      -1.48089780E-08
  -7.98999977      -1.48206061E-08
  -7.98000002      -1.48274726E-08
  -7.96999979      -1.48296904E-08
  -7.96000004      -1.48274131E-08
  -7.94999981      -1.48208477E-08
  -7.94000006      -1.48102037E-08
  -7.92999983      -1.47956074E-08
  -7.92000008      -1.47772123E-08
  -7.90999985      -1.47552095E-08
  -7.90000010      -1.47297650E-08
  -7.88999987      -1.47010724E-08
  -7.88000011      -1.46692987E-08
  -7.86999989      -1.46347876E-08
  -7.86000013      -1.45977594E-08
  -7.84999990      -1.45586432E-08
  -7.84000015      -1.45177532E-08
  -7.82999992      -1.44755319E-08
  -7.82000017      -1.44323415E-08
  -7.80999994      -1.43885890E-08
  -7.80000019      -1.43446508E-08
  -7.78999996      -1.43009053E-08
  -7.78000021      -1.42577470E-08
  -7.76999998      -1.42156464E-08
  -7.76000023      -1.41750434E-08
  -7.75000000      -1.41364680E-08
  -7.73999977      -1.41004524E-08
  -7.73000002      -1.40675311E-08
  -7.71999979      -1.40382959E-08
  -7.71000004      -1.40132093E-08
  -7.69999981      -1.39927954E-08
  -7.69000006      -1.39775347E-08
  -7.67999983      -1.39679317E-08
  -7.67000008      -1.39644181E-08
  -7.65999985      -1.39674645E-08
  -7.65000010      -1.39774707E-08
  -7.63999987      -1.39948648E-08
  -7.63000011      -1.40200900E-08
  -7.61999989      -1.40534731E-08
  -7.61000013      -1.40954750E-08
  -7.59999990      -1.41464360E-08
  -7.59000015      -1.42067540E-08
  -7.57999992      -1.42767149E-08
  -7.57000017      -1.43567176E-08
  -7.55999994      -1.44471146E-08
  -7.55000019      -1.45481449E-08
  -7.53999996      -1.46600856E-08
  -7.53000021      -1.47831356E-08
  -7.51999998      -1.49175232E-08
  -7.51000023      -1.50633728E-08
  -7.50000000      -1.52207349E-08
  -7.48999977      -1.53895510E-08
  -7.48000002      -1.55698672E-08
  -7.46999979      -1.57615858E-08
  -7.46000004      -1.59647140E-08
  -7.44999981      -1.61790297E-08
  -7.44000006      -1.64044298E-08