  -16.0000000       0.00000000    
  -15.9899998       0.00000000    
  -15.9799995       0.00000000    
  -15.9700003       0.00000000    
  -15.9600000       0.00000000    
  -15.9499998       0.00000000    
  -15.9399996       0.00000000    
  -15.9300003       0.00000000    
  -15.9200001       0.00000000    
  -15.9099998       0.00000000    
  -15.8999996       0.00000000    
  -15.8900003       0.00000000    
  -15.8800001       1.40129846E-45
  -15.8699999       5.32493416E-44
  -15.8599997       1.82168800E-44
  -15.8500004      -1.17835188E-41
  -15.8400002      -1.99899430E-40
  -15.8299999      -1.97272696E-39
  -15.8199997      -1.42273903E-38
  -15.8100004      -8.19309168E-38
  -15.8000002      -3.94873800E-37
  -15.7900000      -1.63850973E-36
  -15.7799997      -5.95857972E-36
  -15.7700005      -1.91982377E-35
  -15.7600002      -5.51099475E-35
  -15.7500000      -1.41037741E-34
  -15.7399998      -3.20102816E-34
  -15.7299995      -6.34844872E-34
  -15.7200003      -1.06199624E-33
  -15.7100000      -1.35752810E-33
  -15.6999998      -7.92661922E-34
  -15.6899996       2.14088213E-33
  -15.6800003       9.77085965E-33
  -15.6700001       2.44702630E-32
  -15.6599998       4.63756648E-32
  -15.6499996       6.93090336E-32
  -15.6400003       7.59781420E-32
  -15.6300001       3.58461654E-32
  -15.6199999      -8.87127543E-32
  -15.6099997      -3.22522595E-31
  -15.6000004      -6.43732915E-31
  -15.5900002      -9.46511343E-31
  -15.5799999      -1.02283619E-30
  -15.5699997      -5.89511875E-31
  -15.5600004       6.27272562E-31
  -15.5500002       2.76521109E-30
  -15.5400000       5.68880096E-30
  -15.5299997       8.84252892E-30
  -15.5200005       1.10123132E-29
  -15.5100002       9.87182789E-30
  -15.5000000       1.40073252E-30
  -15.4899998      -2.00691620E-29
  -15.4799995      -5.94164374E-29
  -15.4700003      -1.13648307E-28
  -15.4600000      -1.59635903E-28
  -15.4499998      -1.41751465E-28
  -15.4399996       2.63267853E-29
  -15.4300003       4.23741710E-28
  -15.4200001       1.03154050E-27
  -15.4099998       1.60236861E-27
  -15.3999996       1.56494269E-27
  -15.3900003       1.06819381E-28
  -15.3800001      -3.40038339E-27
  -15.3699999      -8.58030910E-27
  -15.3599997      -1.30853088E-26
  -15.3500004      -1.21795455E-26
  -15.3400002       8.07621630E-29
  -15.3299999       2.71905717E-26
  -15.3199997       6.43181962E-26
  -15.3100004       9.26592013E-26
  -15.3000002       7.90235803E-26
  -15.2900000      -1.32097455E-26
  -15.2799997      -1.98354132E-25
  -15.2700005      -4.32820122E-25
  -15.2600002      -5.87587433E-25
  -15.2500000      -4.58668333E-25
  -15.2399998       1.53883454E-25
  -15.2299995       1.29013340E-24
  -15.2200003       2.63941282E-24
  -15.2100000       3.42276847E-24
  -15.1999998       2.50573955E-24
  -15.1899996      -1.12251278E-24
  -15.1800003      -7.50631128E-24
  -15.1700001      -1.47811834E-23
  -15.1599998      -1.87050722E-23
  -15.1499996      -1.34162363E-23
  -15.1400003       6.01147311E-24
  -15.1300001       3.93740168E-23
  -15.1199999       7.69037525E-23
  -15.1099997       9.73505854E-23
  -15.1000004       7.19937497E-23
  -15.0900002      -2.30240841E-23
  -15.0799999      -1.87058043E-22
  -15.0699997      -3.74557292E-22
  -15.0600004      -4.86245734E-22
  -15.0500002      -3.86917695E-22
  -15.0400000       3.96858566E-23
  -15.0299997       8.03072821E-22
  -15.0200005       1.71292363E-21
  -15.0100002       2.33333474E-21
  -15.0000000       2.04946982E-21
  -14.9899998       2.94794392E-22
  -14.9799995      -3.07137877E-21
  -14.9700003      -7.34322319E-21
  -14.9600000      -1.07191912E-20
  -14.9499998      -1.05020717E-20
  -14.9399996      -3.97566428E-21
  -14.9300003       1.00342017E-20
  -14.9200001       2.92944140E-20
  -14.9099998       4.68342522E-20
  -14.8999996       5.13104916E-20
  -14.8900003       3.01291135E-20
  -14.8800001      -2.43860066E-20
  -14.8699999      -1.06986907E-19
  -14.8599997      -1.92781486E-19
  -14.8500004      -2.36487939E-19
  -14.8400002      -1.82439712E-19
  -14.8299999       1.23731130E-20
  -14.8199997       3.45474154E-19
  -14.8100004       7.37214898E-19
  -14.8000002       1.01831093E-18
  -14.7900000       9.57000406E-19
  -14.7799997       3.39092973E-19
  -14.7700005      -9.05031957E-19
  -14.7600002      -2.56172873E-18
  -14.7500000      -4.04938245E-18
  -14.7399998      -4.46956167E-18
  -14.7299995      -2.85950568E-18
  -14.7200003       1.35037235E-18
  -14.7100000       7.77509823E-18
  -14.6999998       1.46318473E-17
  -14.6899996       1.87210577E-17
  -14.6800003       1.61188848E-17
  -14.6700001       3.68858612E-18
  -14.6599998      -1.88296152E-17
  -14.6499996      -4.68353865E-17
  -14.6400003      -7.00526754E-17
  -14.6300001      -7.40167565E-17
  -14.6199999      -4.45523250E-17
  -14.6099997       2.51291332E-17
  -14.6000004       1.26593269E-16
  -14.5900002       2.30974053E-16
  -14.5799999       2.90469515E-16
  -14.5699997       2.49773817E-16
  -14.5600004       6.77831763E-17
  -14.5500002      -2.54781846E-16
  -14.5400000      -6.51469398E-16
  -14.5299997      -9.83189258E-16
  -14.5200005      -1.06102396E-15
  -14.5100002      -7.04664126E-16
  -14.5000000       1.70852382E-16
  -14.4899998       1.46431784E-15
  -14.4799995       2.83240533E-15
  -14.4700003       3.71224641E-15
  -14.4600000       3.45359282E-15
  -14.4499998       1.55863920E-15
  -14.4399996      -2.02113602E-15
  -14.4300003      -6.63237047E-15
  -14.4200001      -1.08435921E-14
  -14.4099998      -1.26657150E-14
  -14.3999996      -1.01197550E-14
  -14.3900003      -2.07742665E-15
  -14.3800001       1.08513594E-14
  -14.3699999       2.57358239E-14
  -14.3599997       3.74326831E-14
  -14.3500004       3.96594921E-14
  -14.3400002       2.70296870E-14
  -14.3299999      -2.35207963E-15
  -14.3199997      -4.45426946E-14
  -14.3100004      -8.87206026E-14
  -14.3000002      -1.18438625E-13
  -14.2900000      -1.15652415E-13
  -14.2799997      -6.71011911E-14
  -14.2700005       2.84905901E-14
  -14.2600002       1.54871043E-13
  -14.2500000       2.77208866E-13
  -14.2399998       3.47743427E-13
  -14.2299995       3.18627828E-13
  -14.2200003       1.59886861E-13
  -14.2100000      -1.22332130E-13
  -14.1999998      -4.73963804E-13
  -14.1899996      -7.94517121E-13
  -14.1800003      -9.56225875E-13
  -14.1700001      -8.40253377E-13
  -14.1599998      -3.82855206E-13
  -14.1499996       3.81745200E-13
  -14.1400003       1.29838924E-12
  -14.1300001       2.10302565E-12
  -14.1199999       2.47737291E-12
  -14.1099997       2.14114794E-12
  -14.1000004       9.61854186E-13
  -14.0900002      -9.50448921E-13
  -14.0799999      -3.20102386E-12
  -14.0699997      -5.15203939E-12
  -14.0600004      -6.05957428E-12
  -14.0500002      -5.28865536E-12
  -14.0400000      -2.55726820E-12
  -14.0299997       1.86373443E-12
  -14.0200005       7.07404231E-12
  -14.0100002       1.16510152E-11
  -14.0000000       1.39569068E-11
  -13.9899998       1.26013063E-11
  -13.9799995       6.95132753E-12
  -13.9700003      -2.46140651E-12
  -13.9600000      -1.37936130E-11
  -13.9499998      -2.41160408E-11
  -13.9399996      -3.00346553E-11
  -13.9300003      -2.86109296E-11
  -13.9200001      -1.83681924E-11
  -13.9099998      -9.47586126E-14
  -13.8999996       2.28488201E-11
  -13.8900003       4.49241720E-11
  -13.8800001       5.95483524E-11
  -13.8699999       6.07871045E-11
  -13.8599997       4.52235541E-11
  -13.8500004       1.34864090E-11
  -13.8400002      -2.90802729E-11
  -13.8299999      -7.29714761E-11
  -13.8199997      -1.06375971E-10
  -13.8100004      -1.18042187E-10
  -13.8000002      -1.00520002E-10
  -13.7900000      -5.29224095E-11
  -13.7799997       1.76587165E-11
  -13.7700005       9.67086272E-11
  -13.7600002       1.64984706E-10
  -13.7500000       2.02937583E-10
  -13.7399998       1.95896424E-10
  -13.7299995       1.38697540E-10
  -13.7200003       3.84036518E-11
  -13.7100000      -8.58934729E-11
  -13.6999998      -2.06513806E-10
  -13.6899996      -2.93339075E-10
  -13.6800003      -3.21318222E-10
  -13.6700001      -2.77438184E-10
  -13.6599998      -1.65206487E-10
  -13.6499996      -5.18104526E-12
  -13.6400003       1.68960262E-10
  -13.6300001       3.18108984E-10
  -13.6199999       4.07345463E-10
  -13.6099997       4.14952656E-10
  -13.6000004       3.38259559E-10
  -13.5900002       1.94481542E-10
  -13.5799999       1.60755784E-11
  -13.5699997      -1.58249247E-10
  -13.5600004      -2.94306357E-10
  -13.5500002      -3.71687126E-10
  -13.5400000      -3.88439725E-10
  -13.5299997      -3.59387131E-10
  -13.5200005      -3.08318926E-10
  -13.5100002      -2.56476784E-10
  -13.5000000      -2.11398968E-10
  -13.4899998      -1.60654587E-10
  -13.4799995      -7.39330541E-11
  -13.4700003       8.55316443E-11
  -13.4600000       3.42533807E-10
  -13.4499998       6.89950652E-10
  -13.4399996       1.07465337E-09
  -13.4300003       1.39639000E-09
  -13.4200001       1.52399238E-09
  -13.4099998       1.32840761E-09
  -13.3999996       7.26262772E-10
  -13.3900003      -2.77359774E-10
  -13.3800001      -1.56080415E-09
  -13.3699999      -2.88496316E-09
  -13.3599997      -3.92680111E-09
  -13.3500004      -4.34570069E-09
  -13.3400002      -3.87106081E-09
  -13.3299999      -2.39100828E-09
  -13.3199997      -1.78083451E-11
  -13.3100004       2.89255531E-09
  -13.3000002       5.78054049E-09
  -13.2900000       7.98297606E-09
  -13.2799997       8.87666474E-09
  -13.2700005       8.03547895E-09
  -13.2600002       5.36272848E-09
  -13.2500000       1.16181420E-09
  -13.2399998      -3.88071308E-09
  -13.2299995      -8.80617890E-09
  -13.2200003      -1.25721247E-08
  -13.2100000      -1.42797827E-08
  -13.1999998      -1.33888785E-08
  -13.1899996      -9.86639304E-09
  -13.1800003      -4.22812985E-09
  -13.1700001       2.54431431E-09
  -13.1599998       9.19843757E-09
  -13.1499996       1.44759200E-08
  -13.1400003       1.73861423E-08
  -13.1300001       1.74213497E-08
  -13.1199999       1.46586761E-08
  -13.1099997       9.72167680E-09
  -13.1000004       3.61005692E-09
  -13.0900002      -2.55818589E-09
  -13.0799999      -7.82272203E-09
  -13.0699997      -1.15983676E-08
  -13.0600004      -1.37715830E-08
  -13.0500002      -1.46464911E-08
  -13.0400000      -1.47546002E-08
  -13.0299997      -1.45852983E-08
  -13.0200005      -1.43233896E-08
  -13.0100002      -1.36859537E-08
  -13.0000000      -1.19292336E-08
  -12.9899998      -8.05078404E-09
  -12.9799995      -1.15313259E-09
  -12.9700003       9.12113762E-09
  -12.9600000       2.22104184E-08
  -12.9499998       3.64435593E-08
  -12.9399996       4.91371424E-08
  -12.9300003       5.70136010E-08
  -12.9200001       5.68878882E-08
  -12.9099998       4.64878234E-08
  -12.8999996       2.52161030E-08
  -12.8900003      -5.35093880E-09
  -12.8800001      -4.13933812E-08
  -12.8699999      -7.72846462E-08
  -12.8599997      -1.06497140E-07
  -12.8500004      -1.22819856E-07
  -12.8400002      -1.21641577E-07
  -12.8299999      -1.01017754E-07
  -12.8199997      -6.22695921E-08
  -12.8100004      -9.95817917E-09
  -12.8000002       4.87873102E-08
  -12.7900000       1.05461666E-07
  -12.7799997       1.51650269E-07
  -12.7700005       1.80461768E-07
  -12.7600002       1.87629837E-07
  -12.7500000       1.72070600E-07
  -12.7399998       1.35816563E-07
  -12.7299995       8.33981915E-08
  -12.7200003       2.08701980E-08
  -12.7100000      -4.52517881E-08
  -12.6999998      -1.08884649E-07
  -12.6899996      -1.64920365E-07
  -12.6800003      -2.09363634E-07
  -12.6700001      -2.39147113E-07
  -12.6599998      -2.51812367E-07
  -12.6499996      -2.45285349E-07
  -12.6400003      -2.17935025E-07
  -12.6300001      -1.68993722E-07
  -12.6199999      -9.92662237E-08
  -12.6099997      -1.19092674E-08
  -12.6000004       8.70276793E-08
  -12.5900002       1.88611608E-07
  -12.5799999       2.81793945E-07
  -12.5699997       3.54957990E-07
  -12.5600004       3.98034899E-07
  -12.5500002       4.04763910E-07
  -12.5400000       3.74540235E-07
  -12.5299997       3.13293697E-07
  -12.5200005       2.32983353E-07
  -12.5100002       1.49572713E-07
  -12.5000000       7.96935353E-08
  -12.4899998       3.65506949E-08
  -12.4799995       2.58669779E-08
  -12.4700003       4.27556088E-08
  -12.4600000       7.02972329E-08
  -12.4499998       8.03042965E-08
  -12.4399996       3.63366652E-08
  -12.4300003      -1.01426224E-07
  -12.4200001      -3.70234119E-07
  -12.4099998      -7.98741041E-07
  -12.3999996      -1.40192799E-06
  -12.3900003      -2.17779052E-06
  -12.3800001      -3.10624887E-06
  -12.3699999      -4.15029899E-06
  -12.3599997      -5.25902806E-06
  -12.3500004      -6.37182984E-06
  -12.3400002      -7.42308794E-06
  -12.3299999      -8.34666753E-06
  -12.3199997      -9.07982576E-06
  -12.3100004      -9.56642998E-06
  -12.3000002      -9.75960393E-06
  -12.2900000      -9.62410013E-06
  -12.2799997      -9.13859094E-06
  -12.2700005      -8.29792589E-06
  -12.2600002      -7.11510893E-06
  -12.2500000      -5.62251989E-06
  -12.2399998      -3.87170985E-06
  -12.2299995      -1.93122150E-06
  -12.2200003       1.17899120E-07
  -12.2100000       2.18878722E-06
  -12.1999998       4.19700245E-06
  -12.1899996       6.06925687E-06
  -12.1800003       7.75124954E-06
  -12.1700001       9.21322498E-06
  -12.1599998       1.04521523E-05
  -12.1499996       1.14899503E-05
  -12.1400003       1.23679074E-05
  -12.1300001       1.31381066E-05
  -12.1199999       1.38532723E-05
  -12.1099997       1.45567619E-05
  -12.1000004       1.52743742E-05
  -12.0900002       1.60093241E-05
  -12.0799999       1.67411254E-05
  -12.0699997       1.74283759E-05
  -12.0600004       1.80147763E-05
  -12.0500002       1.84371493E-05
  -12.0400000       1.86339530E-05
  -12.0299997       1.85529134E-05
  -12.0200005       1.81566211E-05
  -12.0100002       1.74255692E-05
  -12.0000000       1.63586301E-05
  -11.9899998       1.49714651E-05
  -11.9799995       1.32937030E-05
  -11.9700003       1.13656888E-05
  -11.9600000       9.23550942E-06
  -11.9499998       6.95652398E-06
  -11.9399996       4.58534851E-06
  -11.9300003       2.17986985E-06
  -11.9200001      -2.03169861E-07
  -11.9099998      -2.51135407E-06
  -11.8999996      -4.70048235E-06
  -11.8900003      -6.73871409E-06
  -11.8800001      -8.61007629E-06
  -11.8699999      -1.03163120E-05
  -11.8599997      -1.18761782E-05
  -11.8500004      -1.33217509E-05
  -11.8400002      -1.46919938E-05
  -11.8299999      -1.60245545E-05
  -11.8199997      -1.73473454E-05
  -11.8100004      -1.86716425E-05
  -11.8000002      -1.99883343E-05
  -11.7900000      -2.12682080E-05
  -11.7799997      -2.24663308E-05
  -11.7700005      -2.35296829E-05
  -11.7600002      -2.44062976E-05
  -11.7500000      -2.50540634E-05
  -11.7399998      -2.54472470E-05
  -11.7299995      -2.55795367E-05
  -11.7200003      -2.54632159E-05
  -11.7100000      -2.51249785E-05
  -11.6999998      -2.45996416E-05
  -11.6899996      -2.39231777E-05
  -11.6800003      -2.31266058E-05
  -11.6700001      -2.22316394E-05
  -11.6599998      -2.12484611E-05
  -11.6499996      -2.01753683E-05
  -11.6400003      -1.89997263E-05
  -11.6300001      -1.76995854E-05
  -11.6199999      -1.62455381E-05
  -11.6099997      -1.46027824E-05
  -11.6000004      -1.27337162E-05
  -11.5900002      -1.06014322E-05
  -11.5799999      -8.17447653E-06
  -11.5699997      -5.43266015E-06
  -11.5600004      -2.37331142E-06
  -11.5500002       9.83174459E-07
  -11.5400000       4.58985960E-06
  -11.5299997       8.37302105E-06
  -11.5200005       1.22358233E-05
  -11.5100002       1.60657728E-05
  -11.5000000       1.97449917E-05
  -11.4899998       2.31617450E-05
  -11.4799995       2.62212197E-05
  -11.4700003       2.88539395E-05
  -11.4600000       3.10204377E-05
  -11.4499998       3.27119087E-05
  -11.4399996       3.39470644E-05
  -11.4300003       3.47663226E-05
  -11.4200001       3.52246643E-05
  -11.4099998       3.53844443E-05
  -11.3999996       3.53092692E-05
  -11.3900003       3.50594019E-05
  -11.3800001       3.46888810E-05
  -11.3699999       3.42438398E-05
  -11.3599997       3.37617130E-05
  -11.3500004       3.32706804E-05
  -11.3400002       3.27890266E-05
  -11.3299999       3.23242566E-05
  -11.3199997       3.18721904E-05
  -11.3100004       3.14162644E-05
  -11.3000002       3.09275601E-05
  -11.2900000       3.03661072E-05
  -11.2799997       2.96838116E-05
  -11.2700005       2.88292576E-05
  -11.2600002       2.77542131E-05
  -11.2500000       2.64212485E-05
  -11.2399998       2.48113429E-05
  -11.2299995       2.29301331E-05
  -11.2200003       2.08111178E-05
  -11.2100000       1.85146801E-05
  -11.1999998       1.61221215E-05
  -11.1899996       1.37253082E-05
  -11.1800003       1.14132527E-05
  -11.1700001       9.25825952E-06
  -11.1599998       7.30453394E-06
  -11.1499996       5.56205532E-06
  -11.1400003       4.00739191E-06
  -11.1300001       2.59178501E-06
  -11.1199999       1.25483746E-06
  -11.1099997      -5.91590918E-08
  -11.1000004      -1.38606106E-06
  -11.0900002      -2.73149885E-06
  -11.0799999      -4.06765685E-06
  -11.0699997      -5.33777120E-06
  -11.0600004      -6.46695480E-06
  -11.0500002      -7.37632081E-06
  -11.0400000      -7.99684858E-06
  -11.0299997      -8.27966778E-06
  -11.0200005      -8.20080822E-06
  -11.0100002      -7.76030538E-06
  -11.0000000      -6.97704127E-06
  -10.9899998      -5.88188050E-06
  -10.9799995      -4.51175174E-06
  -10.9700003      -2.90652815E-06
  -10.9600000      -1.10923145E-06
  -10.9499998       8.31311183E-07
  -10.9399996       2.85723104E-06
  -10.9300003       4.89982995E-06
  -10.9200001       6.88077762E-06
  -10.9099998       8.71665816E-06
  -10.8999996       1.03260600E-05
  -10.8900003       1.16375377E-05
  -10.8800001       1.25965526E-05
  -10.8699999       1.31699126E-05
  -10.8599997       1.33470930E-05
  -10.8500004       1.31388024E-05
  -10.8400002       1.25736678E-05
  -10.8299999       1.16941592E-05
  -10.8199997       1.05524432E-05
  -10.8100004       9.20627826E-06
  -10.8000002       7.71466421E-06
  -10.7900000       6.13286466E-06
  -10.7799997       4.50685002E-06
  -10.7700005       2.86791283E-06
  -10.7600002       1.22889764E-06
  -10.7500000      -4.16318642E-07
  -10.7399998      -2.08895153E-06
  -10.7299995      -3.81702193E-06
  -10.7200003      -5.62410105E-06
  -10.7100000      -7.51780954E-06
  -10.6999998      -9.48129309E-06
  -10.6899996      -1.14703726E-05
  -10.6800003      -1.34175998E-05
  -10.6700001      -1.52423236E-05
  -10.6599998      -1.68640599E-05
  -10.6499996      -1.82152817E-05
  -10.6400003      -1.92499756E-05
  -10.6300001      -1.99456899E-05
  -10.6199999      -2.02989650E-05
  -10.6099997      -2.03162817E-05
  -10.6000004      -2.00041377E-05
  -10.5900002      -1.93619417E-05
  -10.5799999      -1.83804186E-05
  -10.5699997      -1.70460535E-05
  -10.5600004      -1.53499004E-05
  -10.5500002      -1.32975556E-05
  -10.5400000      -1.09166995E-05
  -10.5299997      -8.25953794E-06
  -10.5200005      -5.39930579E-06
  -10.5100002      -2.42200713E-06
  -10.5000000       5.83979954E-07
  -10.4899998       3.53739688E-06
  -10.4799995       6.37047106E-06
  -10.4700003       9.03136333E-06
  -10.4600000       1.14835448E-05
  -10.4499998       1.37038542E-05
  -10.4399996       1.56810820E-05
  -10.4300003       1.74159086E-05
  -10.4200001       1.89216535E-05
  -10.4099998       2.02241554E-05
  -10.3999996       2.13587209E-05
  -10.3900003       2.23629086E-05
  -10.3800001       2.32656021E-05
  -10.3699999       2.40746358E-05
  -10.3599997       2.47667504E-05
  -10.3500004       2.52837272E-05
  -10.3400002       2.55372215E-05
  -10.3299999       2.54224815E-05
  -10.3199997       2.48383403E-05
  -10.3100004       2.37087388E-05
  -10.3000002       2.20002985E-05
  -10.2900000       1.97314384E-05
  -10.2799997       1.69708364E-05
  -10.2700005       1.38261066E-05
  -10.2600002       1.04260635E-05
  -10.2500000       6.90138404E-06
  -10.2399998       3.36823200E-06
  -10.2299995      -8.21991648E-08
  -10.2200003      -3.38759492E-06
  -10.2100000      -6.51331584E-06
  -10.1999998      -9.44873409E-06
  -10.1899996      -1.22035190E-05
  -10.1800003      -1.48051458E-05
  -10.1700001      -1.72970631E-05
  -10.1599998      -1.97357840E-05
  -10.1499996      -2.21846731E-05
  -10.1400003      -2.47032403E-05
  -10.1300001      -2.73325204E-05
  -10.1199999      -3.00792162E-05
  -10.1099997      -3.29028189E-05
  -10.1000004      -3.57101017E-05
  -10.0900002      -3.83601655E-05
  -10.0799999      -4.06807485E-05
  -10.0699997      -4.24935279E-05
  -10.0600004      -4.36435730E-05
  -10.0500002      -4.40268050E-05
  -10.0400000      -4.36093760E-05
  -10.0299997      -4.24346654E-05
  -10.0200005      -4.06163781E-05
  -10.0100002      -3.83191764E-05
  -10.0000000      -3.57308963E-05
  -9.98999977      -3.30318398E-05
  -9.97999954      -3.03668967E-05
  -9.97000027      -2.78253356E-05
  -9.96000004      -2.54311653E-05
  -9.94999981      -2.31450013E-05
  -9.93999958      -2.08761539E-05
  -9.93000031      -1.85023127E-05
  -9.92000008      -1.58930725E-05
  -9.90999985      -1.29335704E-05
  -9.89999962      -9.54476764E-06
  -9.89000034      -5.69785880E-06
  -9.88000011      -1.42137981E-06
  -9.86999989       3.19933247E-06
  -9.85999966       8.02961677E-06
  -9.85000038       1.28985321E-05
  -9.84000015       1.76157137E-05
  -9.82999992       2.19900194E-05
  -9.81999969       2.58480559E-05
  -9.81000042       2.90506159E-05
  -9.80000019       3.15052894E-05
  -9.78999996       3.31735755E-05
  -9.77999973       3.40712540E-05
  -9.77000046       3.42616768E-05
  -9.76000023       3.38424543E-05
  -9.75000000       3.29274299E-05
  -9.73999977       3.16272417E-05
  -9.72999954       3.00321790E-05
  -9.72000027       2.82010988E-05
  -9.71000004       2.61590249E-05
  -9.69999981       2.39038691E-05
  -9.68999958       2.14204447E-05
  -9.68000031       1.86977777E-05
  -9.67000008       1.57447994E-05
  -9.65999985       1.25998440E-05
  -9.64999962       9.33129650E-06
  -9.64000034       6.02943101E-06
  -9.63000011       2.79236338E-06
  -9.61999989      -2.89395302E-07
  -9.60999966      -3.14466661E-06
  -9.60000038      -5.72620502E-06
  -9.59000015      -8.00707767E-06
  -9.57999992      -9.97072584E-06
  -9.56999969      -1.15984885E-05
  -9.56000042      -1.28591964E-05
  -9.55000019      -1.37042307E-05
  -9.53999996      -1.40695329E-05
  -9.52999973      -1.38834121E-05
  -9.52000046      -1.30772805E-05
  -9.51000023      -1.15960393E-05
  -9.50000000      -9.40549126E-06
  -9.48999977      -6.49604453E-06
  -9.47999954      -2.88351725E-06
  -9.47000027       1.39110796E-06
  -9.46000004       6.26143083E-06
  -9.44999981       1.16345691E-05
  -9.43999958       1.73905337E-05
  -9.43000031       2.33844239E-05
  -9.42000008       2.94534348E-05
  -9.40999985       3.54293807E-05
  -9.39999962       4.11548026E-05
  -9.39000034       4.64988880E-05
  -9.38000011       5.13681480E-05
  -9.36999989       5.57078783E-05
  -9.35999966       5.94930752E-05
  -9.35000038       6.27108966E-05
  -9.34000015       6.53399475E-05
  -9.32999992       6.73333561E-05
  -9.31999969       6.86112471E-05
  -9.31000042       6.90657907E-05
  -9.30000019       6.85773412E-05
  -9.28999996       6.70367954E-05
  -9.27999973       6.43672320E-05
  -9.27000046       6.05385248E-05
  -9.26000023       5.55710430E-05
  -9.25000000       4.95291424E-05
  -9.23999977       4.25077524E-05
  -9.22999954       3.46177949E-05
  -9.22000027       2.59752996E-05
  -9.21000004       1.66965183E-05
  -9.19999981       6.89854460E-06
  -9.18999958      -3.29801060E-06
  -9.18000031      -1.37679999E-05
  -9.17000008      -2.43851209E-05
  -9.15999985      -3.50293922E-05
  -9.14999962      -4.55962836E-05
  -9.14000034      -5.60029512E-05
  -9.13000011      -6.61883823E-05
  -9.11999989      -7.61064584E-05
  -9.10999966      -8.57141276E-05
  -9.10000038      -9.49599125E-05
  -9.09000015      -1.03777813E-04
  -9.07999992      -1.12090267E-04
  -9.06999969      -1.19820135E-04
  -9.06000042      -1.26906787E-04
  -9.05000019      -1.33320355E-04
  -9.03999996      -1.39066819E-04
  -9.02999973      -1.44181467E-04
  -9.02000046      -1.48711100E-04
  -9.01000023      -1.52692126E-04
  -9.00000000      -1.56132097E-04
  -8.98999977      -1.59002579E-04
  -8.97999954      -1.61246076E-04
  -8.97000027      -1.62794531E-04
  -8.96000004      -1.63591656E-04
  -8.94999981      -1.63609599E-04
  -8.93999958      -1.62851720E-04
  -8.93000031      -1.61340140E-04
  -8.92000008      -1.59091651E-04
  -8.90999985      -1.56092414E-04
  -8.89999962      -1.52282810E-04
  -8.89000034      -1.47560131E-04
  -8.88000011      -1.41801269E-04
  -8.86999989      -1.34898641E-04
  -8.85999966      -1.26797051E-04
  -8.85000038      -1.17518561E-04
  -8.84000015      -1.07165615E-04
  -8.82999992      -9.59008394E-05
  -8.81999969      -8.39112181E-05
  -8.81000042      -7.13697082E-05
  -8.80000019      -5.84088775E-05
  -8.78999996      -4.51161686E-05
  -8.77999973      -3.15516299E-05
  -8.77000046      -1.77798793E-05
  -8.76000023      -3.90131981E-06
  -8.75000000       9.93190224E-06
  -8.73999977       2.35247753E-05
  -8.72999954       3.66721470E-05
  -8.72000027       4.92046129E-05
  -8.71000004       6.10304560E-05
  -8.69999981       7.21565084E-05
  -8.68999958       8.26778705E-05
  -8.68000031       9.27374276E-05
  -8.67000008       1.02467318E-04
  -8.65999985       1.11932255E-04
  -8.64999962       1.21094003E-04
  -8.64000034       1.29810069E-04
  -8.63000011       1.37867595E-04
  -8.61999989       1.45041107E-04
  -8.60999966       1.51154542E-04
  -8.60000038       1.56127397E-04
  -8.59000015       1.59989213E-04
  -8.57999992       1.62859811E-04
  -8.56999969       1.64903249E-04
  -8.56000042       1.66272555E-04
  -8.55000019       1.67064660E-04
  -8.53999996       1.67300313E-04
  -8.52999973       1.66933372E-04
  -8.52000046       1.65884252E-04
  -8.51000023       1.64082841E-04
  -8.50000000       1.61505406E-04
  -8.48999977       1.58191891E-04
  -8.47999954       1.54240013E-04
  -8.47000027       1.49780288E-04
  -8.46000004       1.44943275E-04
  -8.44999981       1.39833239E-04
  -8.43999958       1.34517832E-04
  -8.43000031       1.29037537E-04
  -8.42000008       1.23429301E-04
  -8.40999985       1.17755313E-04
  -8.39999962       1.12124340E-04
  -8.39000034       1.06697022E-04
  -8.38000011       1.01672515E-04
  -8.36999989       9.72612979E-05
  -8.35999966       9.36524229E-05
  -8.35000038       9.09863302E-05
  -8.34000015       8.93414399E-05
  -8.32999992       8.87365095E-05
  -8.31999969       8.91460222E-05
  -8.31000042       9.05208872E-05
  -8.30000019       9.28058798E-05
  -8.28999996       9.59464523E-05
  -8.27999973       9.98837349E-05
  -8.27000046       1.04539271E-04
  -8.26000023       1.09797489E-04
  -8.25000000       1.15493589E-04
  -8.23999977       1.21412784E-04
  -8.22999954       1.27304767E-04
  -8.22000027       1.32909699E-04
  -8.21000004       1.37990093E-04
  -8.19999981       1.42359189E-04
  -8.18999958       1.45898346E-04
  -8.18000031       1.48557883E-04
  -8.17000008       1.50342108E-04
  -8.15999985       1.51281900E-04
  -8.14999962       1.51404718E-04
  -8.14000034       1.50709864E-04
  -8.13000011       1.49156898E-04
  -8.11999989       1.46671024E-04
  -8.10999966       1.43162761E-04
  -8.10000038       1.38555915E-04
  -8.09000015       1.32814472E-04
  -8.07999992       1.25959530E-04
  -8.06999969       1.18069998E-04
  -8.06000042       1.09267057E-04
  -8.05000019       9.96865710E-05
  -8.03999996       8.94482728E-05
  -8.02999973       7.86317614E-05
  -8.02000046       6.72662791E-05
  -8.01000023       5.53369755E-05
  -8.00000000       4.28040803E-05
  -7.98999977       2.96268154E-05
  -7.98000002       1.57825689E-05
  -7.96999979       1.27349256E-06
  -7.96000004      -1.38813020E-05
  -7.94999981      -2.96640992E-05
  -7.94000006      -4.60780357E-05
  -7.92999983      -6.31566872E-05
  -7.92000008      -8.09560152E-05
  -7.90999985      -9.95266091E-05
  -7.90000010      -1.18872696E-04
  -7.88999987      -1.38910647E-04
  -7.88000011      -1.59441392E-04
  -7.86999989      -1.80148621E-04
  -7.86000013      -2.00626804E-04
  -7.84999990      -2.20433314E-04
  -7.84000015      -2.39150555E-04
  -7.82999992      -2.56440049E-04
  -7.82000017      -2.72073230E-04
  -7.80999994      -2.85929971E-04
  -7.80000019      -2.97968742E-04
  -7.78999996      -3.08178947E-04
  -7.78000021      -3.16534599E-04
  -7.76999998      -3.22965527E-04
  -7.76000023      -3.27357149E-04
  -7.75000000      -3.29578033E-04
  -7.73999977      -3.29525967E-04
  -7.73000002      -3.27175891E-04
  -7.71999979      -3.22612002E-04
  -7.71000004      -3.16033809E-04
  -7.69999981      -3.07731418E-04
  -7.69000006      -2.98039668E-04
  -7.67999983      -2.87283765E-04
  -7.67000008      -2.75733415E-04
  -7.65999985      -2.63576745E-04
  -7.65000010      -2.50920421E-04
  -7.63999987      -2.37810367E-04
  -7.63000011      -2.24264790E-04
  -7.61999989      -2.10306520E-04
  -7.61000013      -1.95983681E-04
  -7.59999990      -1.81374911E-04
  -7.59000015      -1.66579761E-04
  -7.57999992      -1.51701315E-04
  -7.57000017      -1.36829054E-04
  -7.55999994      -1.22028883E-04
  -7.55000019      -1.07343505E-04
  -7.53999996      -9.28020163E-05
  -7.53000021      -7.84328658E-05
  -7.51999998      -6.42753876E-05
  -7.51000023      -5.03838965E-05
  -7.50000000      -3.68244364E-05
  -7.48999977      -2.36645446E-05
  -7.48000002      -1.09619914E-05
  -7.46999979       1.24358405E-06
  -7.46000004       1.29316932E-05
  -7.44999981       2.40942718E-05
  -7.44000006       3.47230889E-05