  -16.0000000       0.00000000    
  -15.9899998       0.00000000    
  -15.9799995       0.00000000    
  -15.9700003       0.00000000    
  -15.9600000       0.00000000    
  -15.9499998       0.00000000    
  -15.9399996       0.00000000    
  -15.9300003       0.00000000    
  -15.9200001       0.00000000    
  -15.9099998       0.00000000    
  -15.8999996       0.00000000    
  -15.8900003       0.00000000    
  -15.8800001       0.00000000    
  -15.8699999       0.00000000    
  -15.8599997       0.00000000    
  -15.8500004       0.00000000    
  -15.8400002      -0.00000000    
  -15.8299999       0.00000000    
  -15.8199997      -0.00000000    
  -15.8100004      -0.00000000    
  -15.8000002       7.00649232E-45
  -15.7900000       6.30584309E-44
  -15.7799997       3.90962272E-43
  -15.7700005       1.90716721E-42
  -15.7600002       7.85007400E-42
  -15.7500000       2.81422771E-41
  -15.7399998       8.94532888E-41
  -15.7299995       2.54690200E-40
  -15.7200003       6.52489407E-40
  -15.7100000       1.50318267E-39
  -15.6999998       3.09187398E-39
  -15.6899996       5.57502811E-39
  -15.6800003       8.43037551E-39
  -15.6700001       9.34205049E-39
  -15.6599998       2.50641428E-39
  -15.6499996      -2.30400807E-38
  -15.6400003      -8.33053608E-38
  -15.6300001      -1.94221604E-37
  -15.6199999      -3.57593499E-37
  -15.6099997      -5.36179571E-37
  -15.6000004      -6.22943040E-37
  -15.5900002      -4.22279969E-37
  -15.5799999       3.23998792E-37
  -15.5699997       1.82652103E-36
  -15.5600004       4.03316388E-36
  -15.5500002       6.34733731E-36
  -15.5400000       7.41777903E-36
  -15.5299997       5.24146933E-36
  -15.5200005      -2.15256125E-36
  -15.5100002      -1.53304624E-35
  -15.5000000      -3.17043999E-35
  -15.4899998      -4.43405423E-35
  -15.4799995      -4.27837183E-35
  -15.4700003      -1.72449541E-35
  -15.4600000       3.38660209E-35
  -15.4499998       9.59185942E-35
  -15.4399996       1.35898615E-34
  -15.4300003       1.14223142E-34
  -15.4200001       1.50080725E-35
  -15.4099998      -1.13028534E-34
  -15.3999996      -1.32906190E-34
  -15.3900003       1.40708028E-34
  -15.3800001       7.94902157E-34
  -15.3699999       1.57221598E-33
  -15.3599997       1.64134533E-33
  -15.3500004      -3.57251054E-34
  -15.3400002      -5.65615372E-33
  -15.3299999      -1.39074000E-32
  -15.3199997      -2.12606682E-32
  -15.3100004      -1.91843117E-32
  -15.3000002       3.87976539E-33
  -15.2900000       5.58763834E-32
  -15.2799997       1.29189874E-31
  -15.2700005       1.87442789E-31
  -15.2600002       1.61172266E-31
  -15.2500000      -3.30511219E-32
  -15.2399998      -4.38504767E-31
  -15.2299995      -9.74069350E-31
  -15.2200003      -1.35579901E-30
  -15.2100000      -1.09614670E-30
  -15.1999998       3.31211755E-31
  -15.1899996       3.11147712E-30
  -15.1800003       6.56437950E-30
  -15.1700001       8.73718131E-30
  -15.1599998       6.56042983E-30
  -15.1499996      -2.96445663E-30
  -15.1400003      -2.03939370E-29
  -15.1300001      -4.08891749E-29
  -15.1199999      -5.23276008E-29
  -15.1099997      -3.69552584E-29
  -15.1000004       2.11581625E-29
  -15.0900002       1.22689225E-28
  -15.0799999       2.37673814E-28
  -15.0699997       2.97375332E-28
  -15.0600004       2.06004496E-28
  -15.0500002      -1.17581044E-28
  -15.0400000      -6.69864338E-28
  -15.0299997      -1.28712989E-27
  -15.0200005      -1.61114825E-27
  -15.0100002      -1.15573361E-27
  -15.0000000       4.82497451E-28
  -14.9899998       3.28487767E-27
  -14.9799995       6.45670787E-27
  -14.9700003       8.27672939E-27
  -14.9600000       6.41632536E-27
  -14.9499998      -1.08964196E-27
  -14.9399996      -1.43058169E-26
  -14.9300003      -2.98026381E-26
  -14.9200001      -3.99508406E-26
  -14.9099998      -3.42340149E-26
  -14.8999996      -3.34133939E-27
  -14.8900003       5.43047718E-26
  -14.8800001       1.25652933E-25
  -14.8699999       1.79574632E-25
  -14.8599997       1.71437828E-25
  -14.8500004       5.88940687E-26
  -14.8400002      -1.72148616E-25
  -14.8299999      -4.78975979E-25
  -14.8199997      -7.45332694E-25
  -14.8100004      -7.94159930E-25
  -14.8000002      -4.43008162E-25
  -14.7900000       3.99468636E-25
  -14.7799997       1.62122256E-24
  -14.7700005       2.82932655E-24
  -14.7600002       3.37203445E-24
  -14.7500000       2.51338519E-24
  -14.7399998      -2.34192194E-25
  -14.7299995      -4.69391684E-24
  -14.7200003      -9.69022300E-24
  -14.7100000      -1.30199402E-23
  -14.6999998      -1.19318983E-23
  -14.6899996      -4.17958426E-24
  -14.6800003       1.05413424E-23
  -14.6700001       2.92635968E-23
  -14.6599998       4.52529269E-23
  -14.6499996       4.90766746E-23
  -14.6400003       3.16112657E-23
  -14.6300001      -1.13734621E-23
  -14.6199999      -7.43811646E-23
  -14.6099997      -1.39285964E-22
  -14.6000004      -1.76800907E-22
  -14.5900002      -1.53999684E-22
  -14.5799999      -4.76185662E-23
  -14.5699997       1.39977625E-22
  -14.5600004       3.68134727E-22
  -14.5500002       5.56069996E-22
  -14.5400000       5.98240909E-22
  -14.5299997       3.98721275E-22
  -14.5200005      -8.12841835E-23
  -14.5100002      -7.77389833E-22
  -14.5000000      -1.49848433E-21
  -14.4899998      -1.94689801E-21
  -14.4799995      -1.79445323E-21
  -14.4700003      -8.08021668E-22
  -14.4600000       1.00602237E-21
  -14.4499998       3.29112608E-21
  -14.4399996       5.32579672E-21
  -14.4300003       6.15425082E-21
  -14.4200001       4.87302479E-21
  -14.4099998       1.02407080E-21
  -14.3999996      -5.02034089E-21
  -14.3900003      -1.18409006E-20
  -14.3800001      -1.70817708E-20
  -14.3699999      -1.79816205E-20
  -14.3599997      -1.22886267E-20
  -14.3500004       6.44146505E-22
  -14.3400002       1.89391095E-20
  -14.3299999       3.78782449E-20
  -14.3199997       5.05518927E-20
  -14.3100004       4.96005703E-20
  -14.3000002       2.98094696E-20
  -14.2900000      -9.09876783E-21
  -14.2799997      -6.04449243E-20
  -14.2700005      -1.10386813E-19
  -14.2600002      -1.40268261E-19
  -14.2500000      -1.31590826E-19
  -14.2399998      -7.27401951E-20
  -14.2299995       3.43400606E-20
  -14.2200003       1.69938557E-19
  -14.2100000       2.97180145E-19
  -14.1999998       3.68874990E-19
  -14.1899996       3.40318829E-19
  -14.1800003       1.85571870E-19
  -14.1700001      -8.72649503E-20
  -14.1599998      -4.27343916E-19
  -14.1499996      -7.44014375E-19
  -14.1400003      -9.24121424E-19
  -14.1300001      -8.62353418E-19
  -14.1199999      -4.98566157E-19
  -14.1099997       1.48142697E-19
  -14.1000004       9.60802231E-19
  -14.0900002       1.73208911E-18
  -14.0799999       2.20329482E-18
  -14.0699997       2.13137188E-18
  -14.0600004       1.37069969E-18
  -14.0500002      -5.22425044E-20
  -14.0400000      -1.89690133E-18
  -14.0299997      -3.72168079E-18
  -14.0200005      -4.96305555E-18
  -14.0100002      -5.07421622E-18
  -14.0000000      -3.69648032E-18
  -13.9899998      -8.19623852E-19
  -13.9799995       3.12064288E-18
  -13.9700003       7.25387766E-18
  -13.9600000       1.04191794E-17
  -13.9499998       1.14328653E-17
  -13.9399996       9.43045786E-18
  -13.9300003       4.19983337E-18
  -13.9200001      -3.59482024E-18
  -13.9099998      -1.23899339E-17
  -13.8999996      -1.99541722E-17
  -13.8900003      -2.38662700E-17
  -13.8800001      -2.21568566E-17
  -13.8699999      -1.39665013E-17
  -13.8599997      -3.53913006E-20
  -13.8500004       1.71506255E-17
  -13.8400002       3.36710651E-17
  -13.8299999       4.49453383E-17
  -13.8199997       4.68468247E-17
  -13.8100004       3.69128753E-17
  -13.8000002       1.53337564E-17
  -13.7900000      -1.45930558E-17
  -13.7799997      -4.67639843E-17
  -13.7700005      -7.33758040E-17
  -13.7600002      -8.66733345E-17
  -13.7500000      -8.09713006E-17
  -13.7399998      -5.44513046E-17
  -13.7299995      -1.02211863E-17
  -13.7200003       4.37495032E-17
  -13.7100000       9.59527393E-17
  -13.6999998       1.33738270E-16
  -13.6899996       1.46286759E-16
  -13.6800003       1.27454133E-16
  -13.6700001       7.77418883E-17
  -13.6599998       4.80858247E-18
  -13.6499996      -7.77255763E-17
  -13.6400003      -1.52998052E-16
  -13.6300001      -2.04549484E-16
  -13.6199999      -2.20022261E-16
  -13.6099997      -1.93989762E-16
  -13.6000004      -1.29202250E-16
  -13.5900002      -3.59514631E-17
  -13.5799999       7.02297979E-17
  -13.5699997       1.71861635E-16
  -13.5600004       2.52877451E-16
  -13.5500002       3.01161453E-16
  -13.5400000       3.09701768E-16
  -13.5299997       2.76322503E-16
  -13.5200005       2.02499055E-16
  -13.5100002       9.21200608E-17
  -13.5000000      -4.89190975E-17
  -13.4899998      -2.11784376E-16
  -13.4799995      -3.82612167E-16
  -13.4700003      -5.40220303E-16
  -13.4600000      -6.55156956E-16
  -13.4499998      -6.91713733E-16
  -13.4399996      -6.13953568E-16
  -13.4300003      -3.95602503E-16
  -13.4200001      -3.20825905E-17
  -13.4099998       4.48522157E-16
  -13.3999996       9.79621238E-16
  -13.3900003       1.45920007E-15
  -13.3800001       1.76406269E-15
  -13.3699999       1.77472090E-15
  -13.3599997       1.40706445E-15
  -13.3500004       6.43857960E-16
  -13.3400002      -4.42706429E-16
  -13.3299999      -1.68588144E-15
  -13.3199997      -2.84234611E-15
  -13.3100004      -3.63395176E-15
  -13.3000002      -3.80756895E-15
  -13.2900000      -3.20131931E-15
  -13.2799997      -1.80141673E-15
  -13.2700005       2.26727294E-16
  -13.2600002       2.54573571E-15
  -13.2500000       4.69668885E-15
  -13.2399998       6.18722797E-15
  -13.2299995       6.60128944E-15
  -13.2200003       5.70642412E-15
  -13.2100000       3.53181674E-15
  -13.1999998       3.93871062E-16
  -13.1899996      -3.14352519E-15
  -13.1800003      -6.37199762E-15
  -13.1700001      -8.58670926E-15
  -13.1599998      -9.24781932E-15
  -13.1499996      -8.11711080E-15
  -13.1400003      -5.33403921E-15
  -13.1300001      -1.40751624E-15
  -13.1199999       2.88109321E-15
  -13.1099997       6.64603523E-15
  -13.1000004       9.09921163E-15
  -13.0900002       9.73779569E-15
  -13.0799999       8.46946042E-15
  -13.0699997       5.64031023E-15
  -13.0600004       1.95379288E-15
  -13.0500002      -1.70334249E-15
  -13.0400000      -4.48661070E-15
  -13.0299997      -5.81355558E-15
  -13.0200005      -5.51885206E-15
  -13.0100002      -3.90010137E-15
  -13.0000000      -1.63691933E-15
  -12.9899998       4.00564713E-16
  -12.9799995       1.40637465E-15
  -12.9700003       8.88840905E-16
  -12.9600000      -1.15439060E-15
  -12.9499998      -4.19094411E-15
  -12.9399996      -7.26012691E-15
  -12.9300003      -9.21295714E-15
  -12.9200001      -9.02946524E-15
  -12.9099998      -6.13158214E-15
  -12.8999996      -6.05287944E-16
  -12.8900003       6.73582750E-15
  -12.8800001       1.44753679E-14
  -12.8699999       2.08885677E-14
  -12.8599997       2.43409876E-14
  -12.8500004       2.36946642E-14
  -12.8400002       1.86171760E-14
  -12.8299999       9.70932946E-15
  -12.8199997      -1.58912359E-15
  -12.8100004      -1.32998623E-14
  -12.8000002      -2.33417090E-14
  -12.7900000      -2.99930978E-14
  -12.7799997      -3.22630987E-14
  -12.7700005      -3.00749619E-14
  -12.7600002      -2.42158097E-14
  -12.7500000      -1.60701954E-14
  -12.7399998      -7.21590925E-15
  -12.7299995       9.99031527E-16
  -12.7200003       7.77274278E-15
  -12.7100000       1.29642289E-14
  -12.6999998       1.69722905E-14
  -12.6899996       2.04193131E-14
  -12.6800003       2.37474072E-14
  -12.6700001       2.68722456E-14
  -12.6599998       2.90343413E-14
  -12.6499996       2.89360482E-14
  -12.6400003       2.51657063E-14
  -12.6300001       1.68119675E-14
  -12.6199999       4.08879617E-15
  -12.6099997      -1.12462089E-14
  -12.6000004      -2.58743595E-14
  -12.5900002      -3.54074578E-14
  -12.5799999      -3.53641575E-14
  -12.5699997      -2.24596461E-14
  -12.5600004       4.08463216E-15
  -12.5500002       4.15635848E-14
  -12.5400000       8.34699741E-14
  -12.5299997       1.20043352E-13
  -12.5200005       1.39711485E-13
  -12.5100002       1.31234162E-13
  -12.5000000       8.61714535E-14
  -12.4899998       1.18192203E-15
  -12.4799995      -1.20348393E-13
  -12.4700003      -2.67736002E-13
  -12.4600000      -4.23667367E-13
  -12.4499998      -5.66022815E-13
  -12.4399996      -6.70530417E-13
  -12.4300003      -7.13735494E-13
  -12.4200001      -6.75726890E-13
  -12.4099998      -5.42117891E-13
  -12.3999996      -3.04985556E-13
  -12.3900003       3.72772221E-14
  -12.3800001       4.80970569E-13
  -12.3699999       1.01854278E-12
  -12.3599997       1.63999077E-12
  -12.3500004       2.33375775E-12
  -12.3400002       3.08687667E-12
  -12.3299999       3.88435117E-12
  -12.3199997       4.70803951E-12
  -12.3100004       5.53546315E-12
  -12.3000002       6.33910806E-12
  -12.2900000       7.08658609E-12
  -12.2799997       7.74193643E-12
  -12.2700005       8.26797918E-12
  -12.2600002       8.62936372E-12
  -12.2500000       8.79575753E-12
  -12.2399998       8.74450252E-12
  -12.2299995       8.46227602E-12
  -12.2200003       7.94528505E-12
  -12.2100000       7.19809629E-12
  -12.1999998       6.23139084E-12
  -12.1899996       5.05917313E-12
  -12.1800003       3.69613454E-12
  -12.1700001       2.15571614E-12
  -12.1599998       4.49345558E-13
  -12.1499996      -1.41313101E-12
  -12.1400003      -3.42206385E-12
  -12.1300001      -5.56600339E-12
  -12.1199999      -7.82983834E-12
  -12.1099997      -1.01934511E-11
  -12.1000004      -1.26313283E-11
  -12.0900002      -1.51131156E-11
  -12.0799999      -1.76049782E-11
  -12.0699997      -2.00713439E-11
  -12.0600004      -2.24765328E-11
  -12.0500002      -2.47858713E-11
  -12.0400000      -2.69659989E-11
  -12.0299997      -2.89845665E-11
  -12.0200005      -3.08092822E-11
  -12.0100002      -3.24070562E-11
  -12.0000000      -3.37433102E-11
  -11.9899998      -3.47821251E-11
  -11.9799995      -3.54871306E-11
  -11.9700003      -3.58231639E-11
  -11.9600000      -3.57583095E-11
  -11.9499998      -3.52658944E-11
  -11.9399996      -3.43260698E-11
  -11.9300003      -3.29265122E-11
  -11.9200001      -3.10624408E-11
  -11.9099998      -2.87357672E-11
  -11.8999996      -2.59539872E-11
  -11.8900003      -2.27290235E-11
  -11.8800001      -1.90766153E-11
  -11.8699999      -1.50161793E-11
  -11.8599997      -1.05714257E-11
  -11.8500004      -5.77128449E-12
  -11.8400002      -6.50575080E-13
  -11.8299999       4.74978910E-12
  -11.8199997       1.03835543E-11
  -11.8100004       1.62009937E-11
  -11.8000002       2.21517787E-11
  -11.7900000       2.81879554E-11
  -11.7799997       3.42669296E-11
  -11.7700005       4.03531514E-11
  -11.7600002       4.64181055E-11
  -11.7500000       5.24386992E-11
  -11.7399998       5.83935886E-11
  -11.7299995       6.42586193E-11
  -11.7200003       7.00022540E-11
  -11.7100000       7.55817631E-11
  -11.6999998       8.09413231E-11
  -11.6899996       8.60129676E-11
  -11.6800003       9.07194111E-11
  -11.6700001       9.49789622E-11
  -11.6599998       9.87114071E-11
  -11.6499996       1.01843270E-10
  -11.6400003       1.04311587E-10
  -11.6300001       1.06065233E-10
  -11.6199999       1.07063976E-10
  -11.6099997       1.07275598E-10
  -11.6000004       1.06671658E-10
  -11.5900002       1.05224225E-10
  -11.5799999       1.02903575E-10
  -11.5699997       9.96785085E-11
  -11.5600004       9.55192592E-11
  -11.5500002       9.04015127E-11
  -11.5400000       8.43118630E-11
  -11.5299997       7.72516287E-11
  -11.5200005       6.92393157E-11
  -11.5100002       6.03094102E-11
  -11.5000000       5.05084585E-11
  -11.4899998       3.98894390E-11
  -11.4799995       2.85049935E-11
  -11.4700003       1.64018157E-11
  -11.4600000       3.61728507E-12
  -11.4499998      -9.82039276E-12
  -11.4399996      -2.38891597E-11
  -11.4300003      -3.85675970E-11
  -11.4200001      -5.38282890E-11
  -11.4099998      -6.96330910E-11
  -11.3999996      -8.59301588E-11
  -11.3900003      -1.02655259E-10
  -11.3800001      -1.19735374E-10
  -11.3699999      -1.37094780E-10
  -11.3599997      -1.54662269E-10
  -11.3500004      -1.72376308E-10
  -11.3400002      -1.90187824E-10
  -11.3299999      -2.08059292E-10
  -11.3199997      -2.25960584E-10
  -11.3100004      -2.43862874E-10
  -11.3000002      -2.61732247E-10
  -11.2900000      -2.79523932E-10
  -11.2799997      -2.97180919E-10
  -11.2700005      -3.14634707E-10
  -11.2600002      -3.31810190E-10
  -11.2500000      -3.48632734E-10
  -11.2399998      -3.65035169E-10
  -11.2299995      -3.80963788E-10
  -11.2200003      -3.96381705E-10
  -11.2100000      -4.11268963E-10
  -11.1999998      -4.25618818E-10
  -11.1899996      -4.39433379E-10
  -11.1800003      -4.52715893E-10
  -11.1700001      -4.65467331E-10
  -11.1599998      -4.77679674E-10
  -11.1499996      -4.89338625E-10
  -11.1400003      -5.00423480E-10
  -11.1300001      -5.10912146E-10
  -11.1199999      -5.20785637E-10
  -11.1099997      -5.30032962E-10
  -11.1000004      -5.38655953E-10
  -11.0900002      -5.46669654E-10
  -11.0799999      -5.54101043E-10
  -11.0699997      -5.60986257E-10
  -11.0600004      -5.67365155E-10
  -11.0500002      -5.73278536E-10
  -11.0400000      -5.78759929E-10
  -11.0299997      -5.83836368E-10
  -11.0200005      -5.88523785E-10
  -11.0100002      -5.92831062E-10
  -11.0000000      -5.96759919E-10
  -10.9899998      -6.00314909E-10
  -10.9799995      -6.03498418E-10
  -10.9700003      -6.06321382E-10
  -10.9600000      -6.08801232E-10
  -10.9499998      -6.10958506E-10
  -10.9399996      -6.12822515E-10
  -10.9300003      -6.14417350E-10
  -10.9200001      -6.15764384E-10
  -10.9099998      -6.16875828E-10
  -10.8999996      -6.17756291E-10
  -10.8900003      -6.18395946E-10
  -10.8800001      -6.18779028E-10
  -10.8699999      -6.18879004E-10
  -10.8599997      -6.18663176E-10
  -10.8500004      -6.18093687E-10
  -10.8400002      -6.17130291E-10
  -10.8299999      -6.15725582E-10
  -10.8199997      -6.13832096E-10
  -10.8100004      -6.11402207E-10
  -10.8000002      -6.08387840E-10
  -10.7900000      -6.04750638E-10
  -10.7799997      -6.00460404E-10
  -10.7700005      -5.95498373E-10
  -10.7600002      -5.89861826E-10
  -10.7500000      -5.83562698E-10
  -10.7399998      -5.76619752E-10
  -10.7299995      -5.69055469E-10
  -10.7200003      -5.60895774E-10
  -10.7100000      -5.52155710E-10
  -10.6999998      -5.42847822E-10
  -10.6899996      -5.32972111E-10
  -10.6800003      -5.22529076E-10
  -10.6700001      -5.11512332E-10
  -10.6599998      -4.99927433E-10
  -10.6499996      -4.87790919E-10
  -10.6400003      -4.75127437E-10
  -10.6300001      -4.61979538E-10
  -10.6199999      -4.48404841E-10
  -10.6099997      -4.34470959E-10
  -10.6000004      -4.20259688E-10
  -10.5900002      -4.05859318E-10
  -10.5799999      -3.91370436E-10
  -10.5699997      -3.76902703E-10
  -10.5600004      -3.62568725E-10
  -10.5500002      -3.48484047E-10
  -10.5400000      -3.34755723E-10
  -10.5299997      -3.21478205E-10
  -10.5200005      -3.08723574E-10
  -10.5100002      -2.96534519E-10
  -10.5000000      -2.84919671E-10
  -10.4899998      -2.73848694E-10
  -10.4799995      -2.63263217E-10
  -10.4700003      -2.53072202E-10
  -10.4600000      -2.43171178E-10
  -10.4499998      -2.33448733E-10
  -10.4399996      -2.23797689E-10
  -10.4300003      -2.14121776E-10
  -10.4200001      -2.04347692E-10
  -10.4099998      -1.94424768E-10
  -10.3999996      -1.84336366E-10
  -10.3900003      -1.74095585E-10
  -10.3800001      -1.63736302E-10
  -10.3699999      -1.53313945E-10
  -10.3599997      -1.42889242E-10
  -10.3500004      -1.32520009E-10
  -10.3400002      -1.22248198E-10
  -10.3299999      -1.12094244E-10
  -10.3199997      -1.02046996E-10
  -10.3100004      -9.20666599E-11
  -10.3000002      -8.20874202E-11
  -10.2900000      -7.20309298E-11
  -10.2799997      -6.18129922E-11
  -10.2700005      -5.13559958E-11
  -10.2600002      -4.05970466E-11
  -10.2500000      -2.94857298E-11
  -10.2399998      -1.79924600E-11
  -10.2299995      -6.10020281E-12
  -10.2200003       6.20108522E-12
  -10.2100000       1.89125850E-11
  -10.1999998       3.20338409E-11
  -10.1899996       4.55566453E-11
  -10.1800003       5.94619562E-11
  -10.1700001       7.37221881E-11
  -10.1599998       8.82939832E-11
  -10.1499996       1.03124842E-10
  -10.1400003       1.18158858E-10
  -10.1300001       1.33338285E-10
  -10.1199999       1.48610443E-10
  -10.1099997       1.63930633E-10
  -10.1000004       1.79259316E-10
  -10.0900002       1.94560978E-10
  -10.0799999       2.09792475E-10
  -10.0699997       2.24898503E-10
  -10.0600004       2.39800929E-10
  -10.0500002       2.54396587E-10
  -10.0400000       2.68558981E-10
  -10.0299997       2.82138257E-10
  -10.0200005       2.94971325E-10
  -10.0100002       3.06886599E-10
  -10.0000000       3.17712523E-10
  -9.98999977       3.27281063E-10
  -9.97999954       3.35434736E-10
  -9.97000027       3.42028655E-10
  -9.96000004       3.46937423E-10
  -9.94999981       3.50054985E-10
  -9.93999958       3.51305790E-10
  -9.93000031       3.50646540E-10
  -9.92000008       3.48069490E-10
  -9.90999985       3.43600870E-10
  -9.89999962       3.37297218E-10
  -9.89000034       3.29235889E-10
  -9.88000011       3.19502980E-10
  -9.86999989       3.08180176E-10
  -9.85999966       2.95337560E-10
  -9.85000038       2.81028006E-10
  -9.84000015       2.65290317E-10
  -9.82999992       2.48153276E-10
  -9.81999969       2.29647176E-10
  -9.81000042       2.09813097E-10
  -9.80000019       1.88714100E-10
  -9.78999996       1.66439418E-10
  -9.77999973       1.43104806E-10
  -9.77000046       1.18849666E-10
  -9.76000023       9.38305822E-11
  -9.75000000       6.82143647E-11
  -9.73999977       4.21728798E-11
  -9.72999954       1.58774452E-11
  -9.72000027      -1.05024852E-11
  -9.71000004      -3.68011732E-11
  -9.69999981      -6.28592178E-11
  -9.68999958      -8.85269288E-11
  -9.68000031      -1.13670330E-10
  -9.67000008      -1.38179496E-10
  -9.65999985      -1.61976474E-10
  -9.64999962      -1.85023802E-10
  -9.64000034      -2.07328224E-10
  -9.63000011      -2.28941796E-10
  -9.61999989      -2.49957555E-10
  -9.60999966      -2.70501260E-10
  -9.60000038      -2.90719365E-10
  -9.59000015      -3.10767273E-10
  -9.57999992      -3.30796668E-10
  -9.56999969      -3.50946272E-10
  -9.56000042      -3.71334241E-10
  -9.55000019      -3.92054916E-10
  -9.53999996      -4.13178297E-10
  -9.52999973      -4.34750930E-10
  -9.52000046      -4.56799265E-10
  -9.51000023      -4.79334017E-10
  -9.50000000      -5.02353714E-10
  -9.48999977      -5.25848975E-10
  -9.47999954      -5.49804424E-10
  -9.47000027      -5.74200465E-10
  -9.46000004      -5.99012451E-10
  -9.44999981      -6.24207075E-10
  -9.43999958      -6.49738818E-10
  -9.43000031      -6.75545175E-10
  -9.42000008      -7.01540714E-10
  -9.40999985      -7.27615468E-10
  -9.39999962      -7.53633156E-10
  -9.39000034      -7.79434517E-10
  -9.38000011      -8.04841416E-10
  -9.36999989      -8.29660618E-10
  -9.35999966      -8.53688897E-10
  -9.35000038      -8.76713313E-10
  -9.34000015      -8.98508212E-10
  -9.32999992      -9.18828902E-10
  -9.31999969      -9.37404487E-10
  -9.31000042      -9.53930157E-10
  -9.30000019      -9.68065406E-10
  -9.28999996      -9.79437642E-10
  -9.27999973      -9.87653070E-10
  -9.27000046      -9.92312899E-10
  -9.26000023      -9.93035321E-10
  -9.25000000      -9.89474391E-10
  -9.23999977      -9.81336901E-10
  -9.22999954      -9.68390812E-10
  -9.22000027      -9.50466594E-10
  -9.21000004      -9.27451838E-10
  -9.19999981      -8.99280650E-10
  -9.18999958      -8.65922778E-10
  -9.18000031      -8.27375723E-10
  -9.17000008      -7.83660803E-10
  -9.15999985      -7.34824590E-10
  -9.14999962      -6.80945023E-10
  -9.14000034      -6.22138674E-10
  -9.13000011      -5.58567470E-10
  -9.11999989      -4.90442686E-10
  -9.10999966      -4.18025503E-10
  -9.10000038      -3.41626227E-10
  -9.09000015      -2.61600464E-10
  -9.07999992      -1.78347545E-10
  -9.06999969      -9.23078766E-11
  -9.06000042      -3.96346974E-12
  -9.05000019       8.61615293E-11
  -9.03999996       1.77501375E-10
  -9.02999973       2.69452044E-10
  -9.02000046       3.61377733E-10
  -9.01000023       4.52622162E-10
  -9.00000000       5.42521306E-10
  -8.98999977       6.30416608E-10
  -8.97999954       7.15666693E-10
  -8.97000027       7.97654665E-10
  -8.96000004       8.75796491E-10
  -8.94999981       9.49538115E-10
  -8.93999958       1.01835140E-09
  -8.93000031       1.08173115E-09
  -8.92000008       1.13918541E-09
  -8.90999985       1.19022536E-09
  -8.89999962       1.23436272E-09
  -8.89000034       1.27109934E-09
  -8.88000011       1.29992606E-09
  -8.86999989       1.32032929E-09
  -8.85999966       1.33178379E-09
  -8.85000038       1.33377431E-09
  -8.84000015       1.32580680E-09
  -8.82999992       1.30741451E-09
  -8.81999969       1.27818045E-09
  -8.81000042       1.23774224E-09
  -8.80000019       1.18579602E-09
  -8.78999996       1.12209941E-09
  -8.77999973       1.04645859E-09
  -8.77000046       9.58729429E-10
  -8.76000023       8.58809357E-10
  -8.75000000       7.46647522E-10
  -8.73999977       6.22217999E-10
  -8.72999954       4.85563478E-10
  -8.72000027       3.36786626E-10
  -8.71000004       1.76055351E-10
  -8.69999981       3.60812075E-12
  -8.68999958      -1.80246817E-10
  -8.68000031      -3.75146858E-10
  -8.67000008      -5.80689330E-10
  -8.65999985      -7.96442357E-10
  -8.64999962      -1.02195830E-09
  -8.64000034      -1.25677502E-09
  -8.63000011      -1.50042634E-09
  -8.61999989      -1.75242576E-09
  -8.60999966      -2.01227279E-09
  -8.60000038      -2.27943997E-09
  -8.59000015      -2.55339305E-09
  -8.57999992      -2.83357848E-09
  -8.56999969      -3.11944315E-09
  -8.56000042      -3.41043771E-09
  -8.55000019      -3.70601061E-09
  -8.53999996      -4.00562472E-09
  -8.52999973      -4.30874092E-09
  -8.52000046      -4.61482008E-09
  -8.51000023      -4.92330132E-09
  -8.50000000      -5.23362953E-09
  -8.48999977      -5.54522694E-09
  -8.47999954      -5.85752558E-09
  -8.47000027      -6.16996454E-09
  -8.46000004      -6.48201315E-09
  -8.44999981      -6.79316114E-09
  -8.43999958      -7.10294223E-09
  -8.43000031      -7.41091633E-09
  -8.42000008      -7.71667796E-09
  -8.40999985      -8.01985056E-09
  -8.39999962      -8.32007441E-09
  -8.39000034      -8.61701555E-09
  -8.38000011      -8.91035068E-09
  -8.36999989      -9.19977783E-09
  -8.35999966      -9.48500212E-09
  -8.35000038      -9.76573311E-09
  -8.34000015      -1.00416964E-08
  -8.32999992      -1.03125970E-08
  -8.31999969      -1.05781472E-08
  -8.31000042      -1.08380416E-08
  -8.30000019      -1.10919709E-08
  -8.28999996      -1.13396199E-08
  -8.27999973      -1.15806644E-08
  -8.27000046      -1.18147767E-08
  -8.26000023      -1.20416006E-08
  -8.25000000      -1.22607764E-08
  -8.23999977      -1.24719000E-08
  -8.22999954      -1.26745432E-08
  -8.22000027      -1.28682478E-08
  -8.21000004      -1.30525386E-08
  -8.19999981      -1.32269280E-08
  -8.18999958      -1.33909337E-08
  -8.18000031      -1.35440921E-08
  -8.17000008      -1.36859741E-08
  -8.15999985      -1.38161571E-08
  -8.14999962      -1.39342688E-08
  -8.14000034      -1.40399239E-08
  -8.13000011      -1.41327821E-08
  -8.11999989      -1.42124801E-08
  -8.10999966      -1.42786947E-08
  -8.10000038      -1.43310954E-08
  -8.09000015      -1.43694008E-08
  -8.07999992      -1.43933327E-08
  -8.06999969      -1.44026542E-08
  -8.06000042      -1.43971466E-08
  -8.05000019      -1.43765870E-08
  -8.03999996      -1.43407624E-08
  -8.02999973      -1.42894487E-08
  -8.02000046      -1.42224144E-08
  -8.01000023      -1.41394070E-08
  -8.00000000      -1.40402143E-08
  -7.98999977      -1.39246339E-08
  -7.98000002      -1.37924960E-08
  -7.96999979      -1.36437190E-08
  -7.96000004      -1.34782443E-08
  -7.94999981      -1.32960913E-08
  -7.94000006      -1.30973374E-08
  -7.92999983      -1.28821034E-08
  -7.92000008      -1.26505695E-08
  -7.90999985      -1.24029746E-08
  -7.90000010      -1.21396218E-08
  -7.88999987      -1.18608963E-08
  -7.88000011      -1.15672636E-08
  -7.86999989      -1.12593099E-08
  -7.86000013      -1.09377085E-08
  -7.84999990      -1.06032454E-08
  -7.84000015      -1.02568105E-08
  -7.82999992      -9.89936666E-09
  -7.82000017      -9.53196366E-09
  -7.80999994      -9.15570997E-09
  -7.80000019      -8.77176820E-09
  -7.78999996      -8.38133651E-09
  -7.78000021      -7.98565836E-09
  -7.76999998      -7.58598873E-09
  -7.76000023      -7.18360749E-09
  -7.75000000      -6.77977630E-09
  -7.73999977      -6.37575770E-09
  -7.73000002      -5.97277783E-09
  -7.71999979      -5.57202462E-09
  -7.71000004      -5.17464382E-09
  -7.69999981      -4.78169815E-09
  -7.69000006      -4.39421077E-09
  -7.67999983      -4.01311473E-09
  -7.67000008      -3.63928976E-09
  -7.65999985      -3.27357608E-09
  -7.65000010      -2.91672442E-09
  -7.63999987      -2.56946353E-09
  -7.63000011      -2.23248886E-09
  -7.61999989      -1.90644589E-09
  -7.61000013      -1.59196500E-09
  -7.59999990      -1.28963906E-09
  -7.59000015      -1.00002795E-09
  -7.57999992      -7.23666904E-10
  -7.57000017      -4.61038180E-10
  -7.55999994      -2.12609194E-10
  -7.55000019       2.11711135E-11
  -7.53999996       2.39902848E-10
  -7.53000021       4.43232367E-10
  -7.51999998       6.30844654E-10
  -7.51000023       8.02457323E-10
  -7.50000000       9.57859680E-10
  -7.48999977       1.09689857E-09
  -7.48000002       1.21947608E-09
  -7.46999979       1.32553424E-09
  -7.46000004       1.41507195E-09
  -7.44999981       1.48813672E-09
  -7.44000006       1.54478152E-09