  -16.0000000       0.00000000    
  -15.9899998       0.00000000    
  -15.9799995       0.00000000    
  -15.9700003       0.00000000    
  -15.9600000       0.00000000    
  -15.9499998       0.00000000    
  -15.9399996       0.00000000    
  -15.9300003       0.00000000    
  -15.9200001       0.00000000    
  -15.9099998       0.00000000    
  -15.8999996       0.00000000    
  -15.8900003       0.00000000    
  -15.8800001       0.00000000    
  -15.8699999       0.00000000    
  -15.8599997       0.00000000    
  -15.8500004      -0.00000000    
  -15.8400002      -1.40129846E-45
  -15.8299999      -7.00649232E-45
  -15.8199997      -3.36311631E-44
  -15.8100004      -1.14906474E-43
  -15.8000002      -2.22806456E-43
  -15.7900000       3.08285662E-43
  -15.7799997       5.29130300E-42
  -15.7700005       3.01671533E-41
  -15.7600002       1.25606789E-40
  -15.7500000       4.32110000E-40
  -15.7399998       1.28178872E-39
  -15.7299995       3.33410944E-39
  -15.7200003       7.63027753E-39
  -15.7100000       1.52311810E-38
  -15.6999998       2.57842617E-38
  -15.6899996       3.41474379E-38
  -15.6800003       2.46003018E-38
  -15.6700001      -3.59607882E-38
  -15.6599998      -2.00222031E-37
  -15.6499996      -5.25664362E-37
  -15.6400003      -1.02306841E-36
  -15.6300001      -1.54706023E-36
  -15.6199999      -1.62564343E-36
  -15.6099997      -2.86859988E-37
  -15.6000004       3.92958384E-36
  -15.5900002       1.23935776E-35
  -15.5799999       2.47023480E-35
  -15.5699997       3.55465101E-35
  -15.5600004       3.08327347E-35
  -15.5500002      -1.38112952E-35
  -15.5400000      -1.25561451E-34
  -15.5299997      -3.09244209E-34
  -15.5200005      -5.00416027E-34
  -15.5100002      -5.11031705E-34
  -15.5000000      -1.71293906E-35
  -15.4899998       1.32308455E-33
  -15.4799995       3.52922636E-33
  -15.4700003       5.74230790E-33
  -15.4600000       5.70810910E-33
  -15.4499998      -7.55831560E-35
  -15.4399996      -1.46641921E-32
  -15.4300003      -3.68383855E-32
  -15.4200001      -5.59266769E-32
  -15.4099998      -4.86205799E-32
  -15.3999996       1.60933772E-32
  -15.3900003       1.57301774E-31
  -15.3800001       3.46784892E-31
  -15.3699999       4.70960495E-31
  -15.3599997       3.23422530E-31
  -15.3500004      -3.24054358E-31
  -15.3400002      -1.53641419E-30
  -15.3299999      -2.94195805E-30
  -15.3199997      -3.51115611E-30
  -15.3100004      -1.65529767E-30
  -15.3000002       4.04823365E-30
  -15.2900000       1.33863476E-29
  -15.2799997       2.26960522E-29
  -15.2700005       2.38775230E-29
  -15.2600002       6.05462646E-30
  -15.2500000      -3.84661715E-29
  -15.2399998      -1.04039987E-28
  -15.2299995      -1.61037800E-28
  -15.2200003      -1.52905838E-28
  -15.2100000      -1.17781796E-29
  -15.1999998       2.99759224E-28
  -15.1899996       7.25849437E-28
  -15.1800003       1.06042232E-27
  -15.1700001       9.46304234E-28
  -15.1599998      -1.12347250E-29
  -15.1499996      -1.98600933E-27
  -15.1400003      -4.57519180E-27
  -15.1300001      -6.51268849E-27
  -15.1199999      -5.72846407E-27
  -15.1099997      -4.50782802E-29
  -15.1000004       1.13782431E-26
  -15.0900002       2.61696717E-26
  -15.0799999       3.73454518E-26
  -15.0699997       3.37915225E-26
  -15.0600004       4.00278269E-27
  -15.0500002      -5.65304812E-26
  -15.0400000      -1.36004329E-25
  -15.0299997      -1.99533528E-25
  -15.0200005      -1.91571641E-25
  -15.0100002      -5.37851158E-26
  -15.0000000       2.40076258E-25
  -14.9899998       6.40336738E-25
  -14.9799995       9.88803618E-25
  -14.9700003       1.02689091E-24
  -14.9600000       4.72143556E-25
  -14.9499998      -8.29355403E-25
  -14.9399996      -2.70750986E-24
  -14.9300003      -4.51358600E-24
  -14.9200001      -5.12967848E-24
  -14.9099998      -3.26091570E-24
  -14.8999996       1.94857006E-24
  -14.8900003       1.00927440E-23
  -14.8800001       1.87942971E-23
  -14.8699999       2.35939209E-23
  -14.8599997       1.89282236E-23
  -14.8500004       4.19267492E-25
  -14.8400002      -3.18759191E-23
  -14.8299999      -7.03760610E-23
  -14.8199997      -9.88367930E-23
  -14.8100004      -9.50918368E-23
  -14.8000002      -3.87956397E-23
  -14.7900000       7.66423745E-23
  -14.7799997       2.31477992E-22
  -14.7700005       3.72553812E-22
  -14.7600002       4.18889634E-22
  -14.7500000       2.85051796E-22
  -14.7399998      -7.85268938E-23
  -14.7299995      -6.38204578E-22
  -14.7200003      -1.24221233E-21
  -14.7100000      -1.62299258E-21
  -14.6999998      -1.45780334E-21
  -14.6899996      -4.92200283E-22
  -14.6800003       1.29700466E-21
  -14.6700001       3.55511605E-21
  -14.6599998       5.49864556E-21
  -14.6499996       6.03802063E-21
  -14.6400003       4.11255177E-21
  -14.6300001      -8.02368223E-22
  -14.6199999      -8.15754615E-21
  -14.6099997      -1.59929054E-20
  -14.6000004      -2.10612915E-20
  -14.5900002      -1.95984969E-20
  -14.5799999      -8.72759799E-21
  -14.5699997       1.18051913E-20
  -14.5600004       3.81651150E-20
  -14.5500002       6.20141053E-20
  -14.5400000       7.18466591E-20
  -14.5299997       5.63510976E-20
  -14.5200005       9.32530303E-21
  -14.5100002      -6.52140406E-20
  -14.5000000      -1.49805937E-19
  -14.4899998      -2.14438121E-19
  -14.4799995      -2.23076239E-19
  -14.4700003      -1.45673782E-19
  -14.4600000       2.68334596E-20
  -14.4499998       2.69367877E-19
  -14.4399996       5.17535166E-19
  -14.4300003       6.75968740E-19
  -14.4200001       6.42607822E-19
  -14.4099998       3.45951386E-19
  -14.3999996      -2.14043349E-19
  -14.3900003      -9.35969235E-19
  -14.3800001      -1.61397754E-18
  -14.3699999      -1.97372677E-18
  -14.3599997      -1.74880333E-18
  -14.3500004      -7.84208528E-19
  -14.3400002       8.61897952E-19
  -14.3299999       2.85711927E-18
  -14.3199997       4.61239218E-18
  -14.3100004       5.40064361E-18
  -14.3000002       4.56955498E-18
  -14.2900000       1.80432742E-18
  -14.2799997      -2.63730615E-18
  -14.2700005      -7.81220390E-18
  -14.2600002      -1.21833861E-17
  -14.2500000      -1.39526146E-17
  -14.2399998      -1.15968340E-17
  -14.2299995      -4.48734894E-18
  -14.2200003       6.59713472E-18
  -14.2100000       1.92747724E-17
  -14.1999998       2.98488720E-17
  -14.1899996       3.41314970E-17
  -14.1800003       2.86862828E-17
  -14.1700001       1.21979966E-17
  -14.1599998      -1.34511156E-17
  -14.1499996      -4.28403391E-17
  -14.1400003      -6.77270405E-17
  -14.1300001      -7.88832387E-17
  -14.1199999      -6.87646890E-17
  -14.1099997      -3.43772987E-17
  -14.1000004       2.05256002E-17
  -14.0900002       8.47902149E-17
  -14.0799999       1.41358893E-16
  -14.0699997       1.70991150E-16
  -14.0600004       1.57602153E-16
  -14.0500002       9.39588568E-17
  -14.0400000      -1.39353596E-17
  -14.0299997      -1.45419371E-16
  -14.0200005      -2.67836344E-16
  -14.0100002      -3.43402298E-16
  -14.0000000      -3.39157868E-16
  -13.9899998      -2.37705238E-16
  -13.9799995      -4.57114267E-17
  -13.9700003       2.02802293E-16
  -13.9600000       4.50426340E-16
  -13.9499998       6.27895201E-16
  -13.9399996       6.71336344E-16
  -13.9300003       5.41365173E-16
  -13.9200001       2.38890529E-16
  -13.9099998      -1.87497638E-16
  -13.8999996      -6.46190053E-16
  -13.8900003      -1.02008517E-15
  -13.8800001      -1.19427177E-15
  -13.8699999      -1.08780587E-15
  -13.8599997      -6.81372414E-16
  -13.8500004      -3.24532964E-17
  -13.8400002       7.28167067E-16
  -13.8299999       1.42043921E-15
  -13.8199997       1.85603066E-15
  -13.8100004       1.88739481E-15
  -13.8000002       1.45255372E-15
  -13.7900000       6.02704705E-16
  -13.7799997      -4.97183353E-16
  -13.7700005      -1.59838495E-15
  -13.7600002      -2.42456913E-15
  -13.7500000      -2.74177450E-15
  -13.7399998      -2.42456490E-15
  -13.7299995      -1.49970931E-15
  -13.7200003      -1.52934856E-16
  -13.7100000       1.30694558E-15
  -13.6999998       2.52079334E-15
  -13.6899996       3.17202891E-15
  -13.6800003       3.07539960E-15
  -13.6700001       2.23615449E-15
  -13.6599998       8.60074237E-16
  -13.6499996      -6.92840605E-16
  -13.6400003      -2.00254534E-15
  -13.6300001      -2.70761493E-15
  -13.6199999      -2.61548930E-15
  -13.6099997      -1.77060549E-15
  -13.6000004      -4.55926972E-16
  -13.5900002       8.79084939E-16
  -13.5799999       1.74944597E-15
  -13.5699997       1.79039556E-15
  -13.5600004       8.92289600E-16
  -13.5500002      -7.29915713E-16
  -13.5400000      -2.56243666E-15
  -13.5299997      -3.91800130E-15
  -13.5200005      -4.13511659E-15
  -13.5100002      -2.79973506E-15
  -13.5000000       7.57300394E-17
  -13.4899998       3.97684849E-15
  -13.4799995       7.95282114E-15
  -13.4700003       1.08239740E-14
  -13.4600000       1.14898427E-14
  -13.4499998       9.26165306E-15
  -13.4399996       4.12614524E-15
  -13.4300003      -3.14405628E-15
  -13.4200001      -1.10846196E-14
  -13.4099998      -1.78369824E-14
  -13.3999996      -2.15900414E-14
  -13.3900003      -2.10596751E-14
  -13.3800001      -1.58778274E-14
  -13.3699999      -6.77503242E-15
  -13.3599997       4.51324311E-15
  -13.3500004       1.56152099E-14
  -13.3400002       2.40878450E-14
  -13.3299999       2.80377037E-14
  -13.3199997       2.66287829E-14
  -13.3100004       2.03268629E-14
  -13.3000002       1.07926931E-14
  -13.2900000       4.30930262E-16
  -13.2799997      -8.29690371E-15
  -13.2700005      -1.36075547E-14
  -13.2600002      -1.49592676E-14
  -13.2500000      -1.32530858E-14
  -13.2399998      -1.05723485E-14
  -13.2299995      -9.49114055E-15
  -13.2200003      -1.21199361E-14
  -13.2100000      -1.91609491E-14
  -13.1999998      -2.92821086E-14
  -13.1899996      -3.90671450E-14
  -13.1800003      -4.36636709E-14
  -13.1700001      -3.80591825E-14
  -13.1599998      -1.87147288E-14
  -13.1499996       1.48661346E-14
  -13.1400003       5.91088593E-14
  -13.1300001       1.06282625E-13
  -13.1199999       1.45562761E-13
  -13.1099997       1.65161667E-13
  -13.1000004       1.55146132E-13
  -13.0900002       1.10315789E-13
  -13.0799999       3.24093847E-14
  -13.0699997      -6.90241999E-14
  -13.0600004      -1.77500159E-13
  -13.0500002      -2.72239127E-13
  -13.0400000      -3.32160731E-13
  -13.0299997      -3.40434603E-13
  -13.0200005      -2.88579761E-13
  -13.0100002      -1.79118127E-13
  -13.0000000      -2.60513233E-14
  -12.9899998       1.47106042E-13
  -12.9799995       3.11445233E-13
  -12.9700003       4.38119403E-13
  -12.9600000       5.03972569E-13
  -12.9499998       4.96096057E-13
  -12.9399996       4.14286823E-13
  -12.9300003       2.70861404E-13
  -12.9200001       8.79043881E-14
  -12.9099998      -1.07358309E-13
  -12.8999996      -2.87924497E-13
  -12.8900003      -4.31827669E-13
  -12.8800001      -5.25285273E-13
  -12.8699999      -5.63548828E-13
  -12.8599997      -5.49465529E-13
  -12.8500004      -4.90405459E-13
  -12.8400002      -3.94665041E-13
  -12.8299999      -2.68595720E-13
  -12.8199997      -1.15471272E-13
  -12.8100004       6.34460881E-14
  -12.8000002       2.65913241E-13
  -12.7900000       4.84758718E-13
  -12.7799997       7.04411410E-13
  -12.7700005       8.99398611E-13
  -12.7600002       1.03591831E-12
  -12.7500000       1.07681550E-12
  -12.7399998       9.89324941E-13
  -12.7299995       7.54019351E-13
  -12.7200003       3.72807959E-13
  -12.7100000      -1.26256170E-13
  -12.6999998      -6.89105890E-13
  -12.6899996      -1.24145453E-12
  -12.6800003      -1.69969106E-12
  -12.6700001      -1.98503171E-12
  -12.6599998      -2.03816456E-12
  -12.6499996      -1.83130269E-12
  -12.6400003      -1.37496926E-12
  -12.6300001      -7.17896391E-13
  -12.6199999       6.00930913E-14
  -12.6099997       8.60826167E-13
  -12.6000004       1.58350058E-12
  -12.5900002       2.14016023E-12
  -12.5799999       2.46787269E-12
  -12.5699997       2.53546966E-12
  -12.5600004       2.34412099E-12
  -12.5500002       1.92252464E-12
  -12.5400000       1.31873137E-12
  -12.5299997       5.91218860E-13
  -12.5200005      -1.98349150E-13
  -12.5100002      -9.89146915E-13
  -12.5000000      -1.72184142E-12
  -12.4899998      -2.33709514E-12
  -12.4799995      -2.77416263E-12
  -12.4700003      -2.97206812E-12
  -12.4600000      -2.87521049E-12
  -12.4499998      -2.44386954E-12
  -12.4399996      -1.66821862E-12
  -12.4300003      -5.82766528E-13
  -12.4200001       7.22969807E-13
  -12.4099998       2.10181720E-12
  -12.3999996       3.35744843E-12
  -12.3900003       4.26496208E-12
  -12.3800001       4.60170270E-12
  -12.3699999       4.18373669E-12
  -12.3599997       2.90145317E-12
  -12.3500004       7.47029337E-13
  -12.3400002      -2.17249634E-12
  -12.3299999      -5.64044384E-12
  -12.3199997      -9.35436277E-12
  -12.3100004      -1.29652504E-11
  -12.3000002      -1.61254274E-11
  -12.2900000      -1.85366427E-11
  -12.2799997      -1.99896627E-11
  -12.2700005      -2.03883299E-11
  -12.2600002      -1.97543509E-11
  -12.2500000      -1.82128097E-11
  -12.2399998      -1.59623790E-11
  -12.2299995      -1.32370998E-11
  -12.2200003      -1.02676062E-11
  -12.2100000      -7.24922899E-12
  -12.1999998      -4.32233719E-12
  -12.1899996      -1.56671800E-12
  -12.1800003       9.91495297E-13
  -12.1700001       3.36468028E-12
  -12.1599998       5.58598090E-12
  -12.1499996       7.69468864E-12
  -12.1400003       9.72856257E-12
  -12.1300001       1.17241980E-11
  -12.1199999       1.37237357E-11
  -12.1099997       1.57839870E-11
  -12.1000004       1.79827542E-11
  -12.0900002       2.04179486E-11
  -12.0799999       2.31969045E-11
  -12.0699997       2.64163674E-11
  -12.0600004       3.01365218E-11
  -12.0500002       3.43548349E-11
  -12.0400000       3.89864495E-11
  -12.0299997       4.38568661E-11
  -12.0200005       4.87107750E-11
  -12.0100002       5.32367275E-11
  -12.0000000       5.71044809E-11
  -11.9899998       6.00082900E-11
  -11.9799995       6.17081802E-11
  -11.9700003       6.20613283E-11
  -11.9600000       6.10375223E-11
  -11.9499998       5.87165594E-11
  -11.9399996       5.52681755E-11
  -11.9300003       5.09194908E-11
  -11.9200001       4.59166455E-11
  -11.9099998       4.04878214E-11
  -11.8999996       3.48145748E-11
  -11.8900003       2.90147455E-11
  -11.8800001       2.31387357E-11
  -11.8699999       1.71776222E-11
  -11.8599997       1.10782659E-11
  -11.8500004       4.76236932E-12
  -11.8400002      -1.85555586E-12
  -11.8299999      -8.85442934E-12
  -11.8199997      -1.62967678E-11
  -11.8100004      -2.42237497E-11
  -11.8000002      -3.26521518E-11
  -11.7900000      -4.15717911E-11
  -11.7799997      -5.09429512E-11
  -11.7700005      -6.06924372E-11
  -11.7600002      -7.07109787E-11
  -11.7500000      -8.08526232E-11
  -11.7399998      -9.09393602E-11
  -11.7299995      -1.00771419E-10
  -11.7200003      -1.10142964E-10
  -11.7100000      -1.18861795E-10
  -11.6999998      -1.26769234E-10
  -11.6899996      -1.33756048E-10
  -11.6800003      -1.39771472E-10
  -11.6700001      -1.44822460E-10
  -11.6599998      -1.48963286E-10
  -11.6499996      -1.52276719E-10
  -11.6400003      -1.54852062E-10
  -11.6300001      -1.56762450E-10
  -11.6199999      -1.58047866E-10
  -11.6099997      -1.58705479E-10
  -11.6000004      -1.58689450E-10
  -11.5900002      -1.57917637E-10
  -11.5799999      -1.56283347E-10
  -11.5699997      -1.53668592E-10
  -11.5600004      -1.49953647E-10
  -11.5500002      -1.45021578E-10
  -11.5400000      -1.38758602E-10
  -11.5299997      -1.31048963E-10
  -11.5200005      -1.21770399E-10
  -11.5100002      -1.10793194E-10
  -11.5000000      -9.79831632E-11
  -11.4899998      -8.32154276E-11
  -11.4799995      -6.63935296E-11
  -11.4700003      -4.74711555E-11
  -11.4600000      -2.64754000E-11
  -11.4499998      -3.52096217E-12
  -11.4399996       2.11844847E-11
  -11.4300003       4.73495722E-11
  -11.4200001       7.46213022E-11
  -11.4099998       1.02617470E-10
  -11.3999996       1.30963573E-10
  -11.3900003       1.59330091E-10
  -11.3800001       1.87461408E-10
  -11.3699999       2.15194085E-10
  -11.3599997       2.42462050E-10
  -11.3500004       2.69289535E-10
  -11.3400002       2.95773933E-10
  -11.3299999       3.22064070E-10
  -11.3199997       3.48336859E-10
  -11.3100004       3.74776127E-10
  -11.3000002       4.01556122E-10
  -11.2900000       4.28828972E-10
  -11.2799997       4.56714527E-10
  -11.2700005       4.85292528E-10
  -11.2600002       5.14594978E-10
  -11.2500000       5.44597090E-10
  -11.2399998       5.75209547E-10
  -11.2299995       6.06274198E-10
  -11.2200003       6.37562392E-10
  -11.2100000       6.68782474E-10
  -11.1999998       6.99596103E-10
  -11.1899996       7.29641680E-10
  -11.1800003       7.58559493E-10
  -11.1700001       7.86025522E-10
  -11.1599998       8.11771594E-10
  -11.1499996       8.35609471E-10
  -11.1400003       8.57435123E-10
  -11.1300001       8.77223238E-10
  -11.1199999       8.95019558E-10
  -11.1099997       9.10915399E-10
  -11.1000004       9.25025945E-10
  -11.0900002       9.37474209E-10
  -11.0799999       9.48367385E-10
  -11.0699997       9.57797841E-10
  -11.0600004       9.65838631E-10
  -11.0500002       9.72551373E-10
  -11.0400000       9.77999681E-10
  -11.0299997       9.82261605E-10
  -11.0200005       9.85428072E-10
  -11.0100002       9.87627424E-10
  -11.0000000       9.89002436E-10
  -10.9899998       9.89712978E-10
  -10.9799995       9.89925586E-10
  -10.9700003       9.89788806E-10
  -10.9600000       9.89421323E-10
  -10.9499998       9.88909288E-10
  -10.9399996       9.88298665E-10
  -10.9300003       9.87593562E-10
  -10.9200001       9.86767890E-10
  -10.9099998       9.85767024E-10
  -10.8999996       9.84525794E-10
  -10.8900003       9.82980586E-10
  -10.8800001       9.81066450E-10
  -10.8699999       9.78719994E-10
  -10.8599997       9.75889369E-10
  -10.8500004       9.72519065E-10
  -10.8400002       9.68553904E-10
  -10.8299999       9.63924385E-10
  -10.8199997       9.58564672E-10
  -10.8100004       9.52397716E-10
  -10.8000002       9.45358236E-10
  -10.7900000       9.37385614E-10
  -10.7799997       9.28447208E-10
  -10.7700005       9.18530196E-10
  -10.7600002       9.07670217E-10
  -10.7500000       8.95933439E-10
  -10.7399998       8.83423223E-10
  -10.7299995       8.70294226E-10
  -10.7200003       8.56741622E-10
  -10.7100000       8.42991732E-10
  -10.6999998       8.29302238E-10
  -10.6899996       8.15971568E-10
  -10.6800003       8.03308420E-10
  -10.6700001       7.91626320E-10
  -10.6599998       7.81226694E-10
  -10.6499996       7.72388098E-10
  -10.6400003       7.65344121E-10
  -10.6300001       7.60264851E-10
  -10.6199999       7.57241714E-10
  -10.6099997       7.56295526E-10
  -10.6000004       7.57368723E-10
  -10.5900002       7.60329466E-10
  -10.5799999       7.65009778E-10
  -10.5699997       7.71193054E-10
  -10.5600004       7.78671183E-10
  -10.5500002       7.87237942E-10
  -10.5400000       7.96712585E-10
  -10.5299997       8.06943456E-10
  -10.5200005       8.17819479E-10
  -10.5100002       8.29239788E-10
  -10.5000000       8.41127279E-10
  -10.4899998       8.53410009E-10
  -10.4799995       8.65990668E-10
  -10.4700003       8.78780604E-10
  -10.4600000       8.91667351E-10
  -10.4499998       9.04548547E-10
  -10.4399996       9.17326215E-10
  -10.4300003       9.29920974E-10
  -10.4200001       9.42270373E-10
  -10.4099998       9.54345492E-10
  -10.3999996       9.66139391E-10
  -10.3900003       9.77636971E-10
  -10.3800001       9.88823468E-10
  -10.3699999       9.99662020E-10
  -10.3599997       1.01007580E-09
  -10.3500004       1.01996311E-09
  -10.3400002       1.02919917E-09
  -10.3299999       1.03763909E-09
  -10.3199997       1.04515263E-09
  -10.3100004       1.05161990E-09
  -10.3000002       1.05695364E-09
  -10.2900000       1.06110276E-09
  -10.2799997       1.06403264E-09
  -10.2700005       1.06571585E-09
  -10.2600002       1.06611542E-09
  -10.2500000       1.06517239E-09
  -10.2399998       1.06281162E-09
  -10.2299995       1.05891540E-09
  -10.2200003       1.05334952E-09
  -10.2100000       1.04597897E-09
  -10.1999998       1.03668041E-09
  -10.1899996       1.02534869E-09
  -10.1800003       1.01192410E-09
  -10.1700001       9.96377092E-10
  -10.1599998       9.78734316E-10
  -10.1499996       9.59059832E-10
  -10.1400003       9.37451450E-10
  -10.1300001       9.14048337E-10
  -10.1199999       8.89007645E-10
  -10.1099997       8.62516947E-10
  -10.1000004       8.34782299E-10
  -10.0900002       8.06035017E-10
  -10.0799999       7.76507636E-10
  -10.0699997       7.46442297E-10
  -10.0600004       7.16081305E-10
  -10.0500002       6.85669355E-10
  -10.0400000       6.55456023E-10
  -10.0299997       6.25694052E-10
  -10.0200005       5.96640404E-10
  -10.0100002       5.68564640E-10
  -10.0000000       5.41731437E-10
  -9.98999977       5.16399368E-10
  -9.97999954       4.92785757E-10
  -9.97000027       4.71067463E-10
  -9.96000004       4.51351401E-10
  -9.94999981       4.33683922E-10
  -9.93999958       4.18040685E-10
  -9.93000031       4.04364153E-10
  -9.92000008       3.92576555E-10
  -9.90999985       3.82619353E-10
  -9.89999962       3.74481279E-10
  -9.89000034       3.68203606E-10
  -9.88000011       3.63891584E-10
  -9.86999989       3.61681907E-10
  -9.85999966       3.61723124E-10
  -9.85000038       3.64129671E-10
  -9.84000015       3.68958891E-10
  -9.82999992       3.76193021E-10
  -9.81999969       3.85738053E-10
  -9.81000042       3.97439720E-10
  -9.80000019       4.11125328E-10
  -9.78999996       4.26622487E-10
  -9.77999973       4.43797499E-10
  -9.77000046       4.62569316E-10
  -9.76000023       4.82901386E-10
  -9.75000000       5.04778330E-10
  -9.73999977       5.28184108E-10
  -9.72999954       5.53066704E-10
  -9.72000027       5.79321036E-10
  -9.71000004       6.06783290E-10
  -9.69999981       6.35248132E-10
  -9.68999958       6.64505062E-10
  -9.68000031       6.94364566E-10
  -9.67000008       7.24698024E-10
  -9.65999985       7.55450702E-10
  -9.64999962       7.86642140E-10
  -9.64000034       8.18348167E-10
  -9.63000011       8.50663540E-10
  -9.61999989       8.83667806E-10
  -9.60999966       9.17393883E-10
  -9.60000038       9.51812740E-10
  -9.59000015       9.86838056E-10
  -9.57999992       1.02233610E-09
  -9.56999969       1.05816556E-09
  -9.56000042       1.09419296E-09
  -9.55000019       1.13032284E-09
  -9.53999996       1.16649990E-09
  -9.52999973       1.20271360E-09
  -9.52000046       1.23897614E-09
  -9.51000023       1.27530853E-09
  -9.50000000       1.31171762E-09
  -9.48999977       1.34818379E-09
  -9.47999954       1.38465406E-09
  -9.47000027       1.42103329E-09
  -9.46000004       1.45718770E-09
  -9.44999981       1.49293766E-09
  -9.43999958       1.52806257E-09
  -9.43000031       1.56229851E-09
  -9.42000008       1.59533686E-09
  -9.40999985       1.62684222E-09
  -9.39999962       1.65646374E-09
  -9.39000034       1.68385250E-09
  -9.38000011       1.70868442E-09
  -9.36999989       1.73066272E-09
  -9.35999966       1.74952763E-09
  -9.35000038       1.76502968E-09
  -9.34000015       1.77692339E-09
  -9.32999992       1.78493031E-09
  -9.31999969       1.78871729E-09
  -9.31000042       1.78790949E-09
  -9.30000019       1.78208537E-09
  -9.28999996       1.77081405E-09
  -9.27999973       1.75369907E-09
  -9.27000046       1.73042525E-09
  -9.26000023       1.70079395E-09
  -9.25000000       1.66472702E-09
  -9.23999977       1.62227576E-09
  -9.22999954       1.57359881E-09
  -9.22000027       1.51893009E-09
  -9.21000004       1.45855050E-09
  -9.19999981       1.39275314E-09
  -9.18999958       1.32183664E-09
  -9.18000031       1.24610378E-09
  -9.17000008       1.16586996E-09
  -9.15999985       1.08146947E-09
  -9.14999962       9.93255811E-10
  -9.14000034       9.01609731E-10
  -9.13000011       8.06915645E-10
  -9.11999989       7.09566295E-10
  -9.10999966       6.09950368E-10
  -9.10000038       5.08446285E-10
  -9.09000015       4.05437323E-10
  -9.07999992       3.01314473E-10
  -9.06999969       1.96501274E-10
  -9.06000042       9.14820233E-11
  -9.05000019      -1.32147036E-11
  -9.03999996      -1.17002408E-10
  -9.02999973      -2.19223223E-10
  -9.02000046      -3.19186316E-10
  -9.01000023      -4.16168627E-10
  -9.00000000      -5.09416676E-10
  -8.98999977      -5.98191496E-10
  -8.97999954      -6.81739609E-10
  -8.97000027      -7.59341090E-10
  -8.96000004      -8.30280844E-10
  -8.94999981      -8.93881524E-10
  -8.93999958      -9.49517243E-10
  -8.93000031      -9.96596805E-10
  -8.92000008      -1.03457753E-09
  -8.90999985      -1.06297249E-09
  -8.89999962      -1.08133913E-09
  -8.89000034      -1.08926479E-09
  -8.88000011      -1.08638054E-09
  -8.86999989      -1.07235076E-09
  -8.85999966      -1.04687625E-09
  -8.85000038      -1.00970621E-09
  -8.84000015      -9.60626023E-10
  -8.82999992      -8.99458674E-10
  -8.81999969      -8.26056112E-10
  -8.81000042      -7.40281614E-10
  -8.80000019      -6.41993292E-10
  -8.78999996      -5.31016620E-10
  -8.77999973      -4.07140766E-10
  -8.77000046      -2.70108769E-10
  -8.76000023      -1.19639715E-10
  -8.75000000       4.45696258E-11
  -8.73999977       2.22798696E-10
  -8.72999954       4.15277229E-10
  -8.72000027       6.22142560E-10
  -8.71000004       8.43427939E-10
  -8.69999981       1.07903297E-09
  -8.68999958       1.32872280E-09
  -8.68000031       1.59212610E-09
  -8.67000008       1.86876603E-09
  -8.65999985       2.15808726E-09
  -8.64999962       2.45947640E-09
  -8.64000034       2.77228529E-09
  -8.63000011       3.09586001E-09
  -8.61999989       3.42954021E-09
  -8.60999966       3.77264975E-09
  -8.60000038       4.12448875E-09
  -8.59000015       4.48431559E-09
  -8.57999992       4.85133311E-09
  -8.56999969       5.22468291E-09
  -8.56000042       5.60344615E-09
  -8.55000019       5.98668448E-09
  -8.53999996       6.37344844E-09
  -8.52999973       6.76280232E-09
  -8.52000046       7.15385839E-09
  -8.51000023       7.54577290E-09
  -8.50000000       7.93771804E-09
  -8.48999977       8.32892155E-09
  -8.47999954       8.71860806E-09
  -8.47000027       9.10600928E-09
  -8.46000004       9.49036227E-09
  -8.44999981       9.87093873E-09
  -8.43999958       1.02470388E-08
  -8.43000031       1.06180371E-08
  -8.42000008       1.09833529E-08
  -8.40999985       1.13425029E-08
  -8.39999962       1.16950369E-08
  -8.39000034       1.20405668E-08
  -8.38000011       1.23787194E-08
  -8.36999989       1.27091671E-08
  -8.35999966       1.30315820E-08
  -8.35000038       1.33457112E-08
  -8.34000015       1.36513094E-08
  -8.32999992       1.39482408E-08
  -8.31999969       1.42364192E-08
  -8.31000042       1.45157868E-08
  -8.30000019       1.47863153E-08
  -8.28999996       1.50479504E-08
  -8.27999973       1.53005786E-08
  -8.27000046       1.55440105E-08
  -8.26000023       1.57779674E-08
  -8.25000000       1.60020992E-08
  -8.23999977       1.62160259E-08
  -8.22999954       1.64193406E-08
  -8.22000027       1.66115903E-08
  -8.21000004       1.67923968E-08
  -8.19999981       1.69613745E-08
  -8.18999958       1.71181291E-08
  -8.18000031       1.72623054E-08
  -8.17000008       1.73934822E-08
  -8.15999985       1.75112831E-08
  -8.14999962       1.76152533E-08
  -8.14000034       1.77049824E-08
  -8.13000011       1.77800121E-08
  -8.11999989       1.78399642E-08
  -8.10999966       1.78844388E-08
  -8.10000038       1.79130772E-08
  -8.09000015       1.79255917E-08
  -8.07999992       1.79217388E-08
  -8.06999969       1.79013213E-08
  -8.06000042       1.78642647E-08
  -8.05000019       1.78104695E-08
  -8.03999996       1.77399677E-08
  -8.02999973       1.76527433E-08
  -8.02000046       1.75489223E-08
  -8.01000023       1.74285884E-08
  -8.00000000       1.72918746E-08
  -7.98999977       1.71389942E-08
  -7.98000002       1.69701817E-08
  -7.96999979       1.67857639E-08
  -7.96000004       1.65861334E-08
  -7.94999981       1.63717200E-08
  -7.94000006       1.61430087E-08
  -7.92999983       1.59005413E-08
  -7.92000008       1.56448117E-08
  -7.90999985       1.53763633E-08
  -7.90000010       1.50956030E-08
  -7.88999987       1.48030317E-08
  -7.88000011       1.44990970E-08
  -7.86999989       1.41842289E-08
  -7.86000013       1.38590019E-08
  -7.84999990       1.35238709E-08
  -7.84000015       1.31794460E-08
  -7.82999992       1.28263000E-08
  -7.82000017       1.24651436E-08
  -7.80999994       1.20967014E-08
  -7.80000019       1.17217800E-08
  -7.78999996       1.13414016E-08
  -7.78000021       1.09566320E-08
  -7.76999998       1.05687077E-08
  -7.76000023       1.01788684E-08
  -7.75000000       9.78855130E-09
  -7.73999977       9.39915434E-09
  -7.73000002       9.01200270E-09
  -7.71999979       8.62841443E-09
  -7.71000004       8.24966495E-09
  -7.69999981       7.87696219E-09
  -7.69000006       7.51148121E-09
  -7.67999983       7.15445214E-09
  -7.67000008       6.80704870E-09
  -7.65999985       6.47063869E-09
  -7.65000010       6.14639584E-09
  -7.63999987       5.83550008E-09
  -7.63000011       5.53901902E-09
  -7.61999989       5.25782795E-09
  -7.61000013       4.99264807E-09
  -7.59999990       4.74398787E-09
  -7.59000015       4.51230253E-09
  -7.57999992       4.29798108E-09
  -7.57000017       4.10133572E-09
  -7.55999994       3.92274835E-09
  -7.55000019       3.76248277E-09
  -7.53999996       3.62083497E-09
  -7.53000021       3.49802054E-09
  -7.51999998       3.39412964E-09
  -7.51000023       3.30915850E-09
  -7.50000000       3.24304827E-09
  -7.48999977       3.19559512E-09
  -7.48000002       3.16667292E-09
  -7.46999979       3.15619175E-09
  -7.46000004       3.16416182E-09
  -7.44999981       3.19059645E-09
  -7.44000006       3.23561644E-09