  -16.0000000       0.00000000    
  -15.9899998       0.00000000    
  -15.9799995       0.00000000    
  -15.9700003       0.00000000    
  -15.9600000       0.00000000    
  -15.9499998       0.00000000    
  -15.9399996       0.00000000    
  -15.9300003       0.00000000    
  -15.9200001       0.00000000    
  -15.9099998       0.00000000    
  -15.8999996       0.00000000    
  -15.8900003       0.00000000    
  -15.8800001       0.00000000    
  -15.8699999       0.00000000    
  -15.8599997       1.40129846E-44
  -15.8500004       2.73253201E-43
  -15.8400002       3.40935916E-42
  -15.8299999       3.01363248E-41
  -15.8199997       2.05562077E-40
  -15.8100004       1.13765817E-39
  -15.8000002       5.28059007E-39
  -15.7900000       2.10257996E-38
  -15.7799997       7.29137406E-38
  -15.7700005       2.22247573E-37
  -15.7600002       5.97382324E-37
  -15.7500000       1.40999970E-36
  -15.7399998       2.87346703E-36
  -15.7299995       4.82720120E-36
  -15.7200003       5.73550340E-36
  -15.7100000       7.17285448E-37
  -15.6999998      -2.12799045E-35
  -15.6899996      -7.96070890E-35
  -15.6800003      -1.99047698E-34
  -15.6700001      -3.94434650E-34
  -15.6599998      -6.34775169E-34
  -15.6499996      -7.87533001E-34
  -15.6400003      -5.68164174E-34
  -15.6300001       4.40937757E-34
  -15.6199999       2.60690429E-33
  -15.6099997       5.83319382E-33
  -15.6000004       9.00999963E-33
  -15.5900002       9.72393759E-33
  -15.5799999       4.92318377E-33
  -15.5699997      -6.85760262E-33
  -15.5600004      -2.21219044E-32
  -15.5500002      -3.04245268E-32
  -15.5400000      -1.85907047E-32
  -15.5299997       1.44182052E-32
  -15.5200005       3.45982194E-32
  -15.5100002      -3.97253261E-32
  -15.5000000      -3.03503096E-31
  -15.4899998      -7.45043178E-31
  -15.4799995      -1.04732240E-30
  -15.4700003      -4.31057869E-31
  -15.4600000       2.18489737E-30
  -15.4499998       7.35376251E-30
  -15.4399996       1.34666559E-29
  -15.4300003       1.48988060E-29
  -15.4200001       1.70410306E-30
  -15.4099998      -3.63338872E-29
  -15.3999996      -9.89250485E-29
  -15.3900003      -1.59003031E-28
  -15.3800001      -1.49738537E-28
  -15.3699999       2.70618766E-29
  -15.3599997       4.48816548E-28
  -15.3500004       1.06578970E-27
  -15.3400002       1.56792143E-27
  -15.3299999       1.31453877E-27
  -15.3199997      -5.23568389E-28
  -15.3100004      -4.46053657E-27
  -15.3000002      -9.81590641E-27
  -15.2900000      -1.37590638E-26
  -15.2799997      -1.10131785E-26
  -15.2700005       4.71834193E-27
  -15.2600002       3.67231422E-26
  -15.2500000       7.88948604E-26
  -15.2399998       1.09447425E-25
  -15.2299995       8.98962160E-26
  -15.2200003      -2.39193396E-26
  -15.2100000      -2.53944926E-25
  -15.1999998      -5.58092023E-25
  -15.1899996      -7.91164773E-25
  -15.1800003      -7.00711566E-25
  -15.1700001       2.46631700E-27
  -15.1599998       1.47332494E-24
  -15.1499996       3.48167941E-24
  -15.1400003       5.17932465E-24
  -15.1300001       5.06632348E-24
  -15.1199999       1.37423544E-24
  -15.1099997      -6.99458747E-24
  -15.1000004      -1.90787714E-23
  -15.0900002      -3.05278252E-23
  -15.0799999      -3.32618404E-23
  -15.0699997      -1.72445483E-23
  -15.0600004       2.48761591E-23
  -15.0500002       9.06786965E-23
  -15.0400000       1.60761181E-22
  -15.0299997       1.95813402E-22
  -15.0200005       1.43419053E-22
  -15.0100002      -4.13885151E-23
  -15.0000000      -3.62829947E-22
  -14.9899998      -7.47826103E-22
  -14.9799995      -1.02519283E-21
  -14.9700003      -9.45346574E-22
  -14.9600000      -2.61011809E-22
  -14.9499998       1.12996941E-21
  -14.9399996       3.01323904E-21
  -14.9300003       4.73279465E-21
  -14.9200001       5.21659757E-21
  -14.9099998       3.25030262E-21
  -14.8999996      -1.96941849E-21
  -14.8900003      -1.01002275E-20
  -14.8800001      -1.90035779E-20
  -14.8699999      -2.45837981E-20
  -14.8599997      -2.15421920E-20
  -14.8500004      -5.28046294E-21
  -14.8400002       2.52528079E-20
  -14.8299999       6.46022824E-20
  -14.8199997       9.91637883E-20
  -14.8100004       1.08550589E-19
  -14.8000002       7.12277988E-20
  -14.7900000      -2.56548015E-20
  -14.7799997      -1.74419834E-19
  -14.7700005      -3.37529420E-19
  -14.7600002      -4.46817479E-19
  -14.7500000      -4.16859376E-19
  -14.7399998      -1.74608069E-19
  -14.7299995       2.99030315E-19
  -14.7200003       9.28126219E-19
  -14.7100000       1.52049786E-18
  -14.6999998       1.78741757E-18
  -14.6899996       1.41835605E-18
  -14.6800003       2.07608815E-19
  -14.6700001      -1.79550305E-18
  -14.6599998      -4.16691655E-18
  -14.6499996      -6.08785244E-18
  -14.6400003      -6.48616637E-18
  -14.6300001      -4.36193678E-18
  -14.6199999       7.48036902E-19
  -14.6099997       8.29487123E-18
  -14.6000004       1.64277821E-17
  -14.5900002       2.21041801E-17
  -14.5799999       2.17496703E-17
  -14.5699997       1.24601706E-17
  -14.5600004      -6.49015835E-18
  -14.5500002      -3.23072395E-17
  -14.5400000      -5.81233413E-17
  -14.5299997      -7.38154935E-17
  -14.5200005      -6.84898334E-17
  -14.5100002      -3.43904442E-17
  -14.5000000       2.86787158E-17
  -14.4899998       1.09923277E-16
  -14.4799995       1.86873534E-16
  -14.4700003       2.28867005E-16
  -14.4600000       2.05101048E-16
  -14.4499998       9.60757113E-17
  -14.4399996      -9.45100503E-17
  -14.4300003      -3.31671818E-16
  -14.4200001      -5.49355076E-16
  -14.4099998      -6.62076845E-16
  -14.3999996      -5.88083540E-16
  -14.3900003      -2.79935442E-16
  -14.3800001       2.45758086E-16
  -14.3699999       8.90390658E-16
  -14.3599997       1.47776470E-15
  -14.3500004       1.78714402E-15
  -14.3400002       1.61327356E-15
  -14.3299999       8.41678640E-16
  -14.3199997      -4.81620710E-16
  -14.3100004      -2.11164678E-15
  -14.3000002      -3.62038526E-15
  -14.2900000      -4.47887306E-15
  -14.2799997      -4.19849880E-15
  -14.2700005      -2.50254465E-15
  -14.2600002       5.19598756E-16
  -14.2500000       4.33115136E-15
  -14.2399998       7.98692184E-15
  -14.2299995       1.03137086E-14
  -14.2200003       1.02131574E-14
  -14.2100000       7.02357009E-15
  -14.1999998       8.41804213E-16
  -14.1899996      -7.30602678E-15
  -14.1800003      -1.55362207E-14
  -14.1700001      -2.14587225E-14
  -14.1599998      -2.27667904E-14
  -14.1499996      -1.79406999E-14
  -14.1400003      -6.87802908E-15
  -14.1300001       8.75533997E-15
  -14.1199999       2.56184454E-14
  -14.1099997       3.92973990E-14
  -14.1000004       4.53416364E-14
  -14.0900002       4.05154019E-14
  -14.0799999       2.39408069E-14
  -14.0699997      -2.21820099E-15
  -14.0600004      -3.28085371E-14
  -14.0500002      -6.05867963E-14
  -14.0400000      -7.78466037E-14
  -14.0299997      -7.84276886E-14
  -14.0200005      -5.95987764E-14
  -14.0100002      -2.32691386E-14
  -14.0000000       2.38987534E-14
  -13.9899998       7.16469866E-14
  -13.9799995       1.08382514E-13
  -13.9700003       1.24041104E-13
  -13.9600000       1.12829823E-13
  -13.9499998       7.50830672E-14
  -13.9399996       1.76421632E-14
  -13.9300003      -4.74662390E-14
  -13.9200001      -1.05814263E-13
  -13.9099998      -1.44144950E-13
  -13.8999996      -1.53781840E-13
  -13.8900003      -1.32908021E-13
  -13.8800001      -8.70137634E-14
  -13.8699999      -2.73101345E-14
  -13.8599997       3.24965749E-14
  -13.8500004       8.01527017E-14
  -13.8400002       1.08330601E-13
  -13.8299999       1.16502917E-13
  -13.8199997       1.10527012E-13
  -13.8100004       9.99441686E-14
  -13.8000002       9.37615125E-14
  -13.7900000       9.60791166E-14
  -13.7799997       1.03143439E-13
  -13.7700005       1.03134549E-13
  -13.7600002       7.92549213E-14
  -13.7500000       1.56539176E-14
  -13.7399998      -9.53154656E-14
  -13.7299995      -2.46730940E-13
  -13.7200003      -4.13977554E-13
  -13.7100000      -5.56636443E-13
  -13.6999998      -6.25928779E-13
  -13.6899996      -5.76669192E-13
  -13.6800003      -3.81149566E-13
  -13.6700001      -4.13535071E-14
  -13.6599998       4.04241717E-13
  -13.6499996       8.82120657E-13
  -13.6400003       1.29447646E-12
  -13.6300001       1.53794501E-12
  -13.6199999       1.52674271E-12
  -13.6099997       1.21503729E-12
  -13.6000004       6.12995223E-13
  -13.5900002      -2.08042757E-13
  -13.5799999      -1.12351654E-12
  -13.5699997      -1.97594328E-12
  -13.5600004      -2.60374491E-12
  -13.5500002      -2.87252362E-12
  -13.5400000      -2.70194305E-12
  -13.5299997      -2.08227446E-12
  -13.5200005      -1.07713036E-12
  -13.5100002       1.87722735E-13
  -13.5000000       1.54625336E-12
  -13.4899998       2.81912037E-12
  -13.4799995       3.83931862E-12
  -13.4700003       4.47128966E-12
  -13.4600000       4.62090652E-12
  -13.4499998       4.23712107E-12
  -13.4399996       3.30896486E-12
  -13.4300003       1.86302276E-12
  -13.4200001      -3.42016895E-14
  -13.4099998      -2.26739005E-12
  -13.3999996      -4.65948157E-12
  -13.3900003      -6.96130913E-12
  -13.3800001      -8.85293401E-12
  -13.3699999      -9.96547636E-12
  -13.3599997      -9.92840879E-12
  -13.3500004      -8.44056509E-12
  -13.3400002      -5.35473445E-12
  -13.3299999      -7.58253052E-13
  -13.3199997       4.97241744E-12
  -13.3100004       1.11642900E-11
  -13.3000002       1.69020475E-11
  -13.2900000       2.11463069E-11
  -13.2799997       2.29035194E-11
  -13.2700005       2.14205563E-11
  -13.2600002       1.63669182E-11
  -13.2500000       7.96448584E-12
  -13.2399998      -2.96918544E-12
  -13.2299995      -1.50834345E-11
  -13.2200003      -2.66622592E-11
  -13.2100000      -3.58746088E-11
  -13.1999998      -4.10661470E-11
  -13.1899996      -4.10409796E-11
  -13.1800003      -3.52817567E-11
  -13.1700001      -2.40674824E-11
  -13.1599998      -8.46766927E-12
  -13.1499996       9.78486910E-12
  -13.1400003       2.85182624E-11
  -13.1300001       4.54024665E-11
  -13.1199999       5.82402945E-11
  -13.1099997       6.52259011E-11
  -13.1000004       6.51408649E-11
  -13.0900002       5.74745043E-11
  -13.0799999       4.24711898E-11
  -13.0699997       2.11178523E-11
  -13.0600004      -4.91235308E-12
  -13.0500002      -3.33497396E-11
  -13.0400000      -6.14503587E-11
  -13.0299997      -8.61609811E-11
  -13.0200005      -1.04341681E-10
  -13.0100002      -1.13056599E-10
  -13.0000000      -1.09929142E-10
  -12.9899998      -9.35351727E-11
  -12.9799995      -6.37819519E-11
  -12.9700003      -2.22006649E-11
  -12.9600000       2.79268310E-11
  -12.9499998       8.16772275E-11
  -12.9399996       1.32869021E-10
  -12.9300003       1.74713494E-10
  -12.9200001       2.00672312E-10
  -12.9099998       2.05412104E-10
  -12.8999996       1.85709989E-10
  -12.8900003       1.41156309E-10
  -12.8800001       7.45191062E-11
  -12.8699999      -8.31759314E-12
  -12.8599997      -9.88643056E-11
  -12.8500004      -1.86934412E-10
  -12.8400002      -2.61833388E-10
  -12.8299999      -3.13668119E-10
  -12.8199997      -3.34597045E-10
  -12.8100004      -3.19854060E-10
  -12.8000002      -2.68420480E-10
  -12.7900000      -1.83272078E-10
  -12.7799997      -7.11876599E-11
  -12.7700005       5.78398232E-11
  -12.7600002       1.91512362E-10
  -12.7500000       3.16357690E-10
  -12.7399998       4.18980572E-10
  -12.7299995       4.87334728E-10
  -12.7200003       5.11926557E-10
  -12.7100000       4.86865825E-10
  -12.6999998       4.10678075E-10
  -12.6899996       2.86794727E-10
  -12.6800003       1.23637170E-10
  -12.6700001      -6.57728247E-11
  -12.6599998      -2.64710670E-10
  -12.6499996      -4.54135257E-10
  -12.6400003      -6.14478912E-10
  -12.6300001      -7.27679972E-10
  -12.6199999      -7.79234455E-10
  -12.6099997      -7.60008612E-10
  -12.6000004      -6.67554123E-10
  -12.5900002      -5.06714282E-10
  -12.5799999      -2.89399893E-10
  -12.5699997      -3.35257135E-11
  -12.5600004       2.38774972E-10
  -12.5500002       5.03434405E-10
  -12.5400000       7.36939065E-10
  -12.5299997       9.18699394E-10
  -12.5200005       1.03301634E-09
  -12.5100002       1.07042220E-09
  -12.5000000       1.02828768E-09
  -12.4899998       9.10683029E-10
  -12.4799995       7.27582827E-10
  -12.4700003       4.93562302E-10
  -12.4600000       2.26156330E-10
  -12.4499998      -5.59416298E-11
  -12.4399996      -3.34707179E-10
  -12.4300003      -5.94524374E-10
  -12.4200001      -8.23753066E-10
  -12.4099998      -1.01604769E-09
  -12.3999996      -1.17133148E-09
  -12.3900003      -1.29632671E-09
  -12.3800001      -1.40450462E-09
  -12.3699999      -1.51534829E-09
  -12.3599997      -1.65285841E-09
  -12.3500004      -1.84330762E-09
  -12.3400002      -2.11235274E-09
  -12.3299999      -2.48175103E-09
  -12.3199997      -2.96603719E-09
  -12.3100004      -3.56954000E-09
  -12.3000002      -4.28417168E-09
  -12.2900000      -5.08833509E-09
  -12.2799997      -5.94714500E-09
  -12.2700005      -6.81401335E-09
  -12.2600002      -7.63346630E-09
  -12.2500000      -8.34487590E-09
  -12.2399998      -8.88667895E-09
  -12.2299995      -9.20062426E-09
  -12.2200003      -9.23571530E-09
  -12.2100000      -8.95134278E-09
  -12.1999998      -8.31958413E-09
  -12.1899996      -7.32658156E-09
  -12.1800003      -5.97293237E-09
  -12.1700001      -4.27337499E-09
  -12.1599998      -2.25588415E-09
  -12.1499996       3.98355238E-11
  -12.1400003       2.56413024E-09
  -12.1300001       5.25962829E-09
  -12.1199999       8.06371325E-09
  -12.1099997       1.09112896E-08
  -12.1000004       1.37377558E-08
  -12.0900002       1.64819518E-08
  -12.0799999       1.90889224E-08
  -12.0699997       2.15121858E-08
  -12.0600004       2.37153568E-08
  -12.0500002       2.56728061E-08
  -12.0400000       2.73694383E-08
  -12.0299997       2.87994641E-08
  -12.0200005       2.99644825E-08
  -12.0100002       3.08711066E-08
  -12.0000000       3.15283835E-08
  -11.9899998       3.19454188E-08
  -11.9799995       3.21293321E-08
  -11.9700003       3.20837401E-08
  -11.9600000       3.18077724E-08
  -11.9499998       3.12956097E-08
  -11.9399996       3.05362597E-08
  -11.9300003       2.95137177E-08
  -11.9200001       2.82072605E-08
  -11.9099998       2.65919784E-08
  -11.8999996       2.46396414E-08
  -11.8900003       2.23198242E-08
  -11.8800001       1.96015435E-08
  -11.8699999       1.64554255E-08
  -11.8599997       1.28561490E-08
  -11.8500004       8.78523476E-09
  -11.8400002       4.23375246E-09
  -11.8299999      -7.95116695E-10
  -11.8199997      -6.28410302E-09
  -11.8100004      -1.22007027E-08
  -11.8000002      -1.84967899E-08
  -11.7900000      -2.51090615E-08
  -11.7799997      -3.19604645E-08
  -11.7700005      -3.89621917E-08
  -11.7600002      -4.60161402E-08
  -11.7500000      -5.30177751E-08
  -11.7399998      -5.98592180E-08
  -11.7299995      -6.64325768E-08
  -11.7200003      -7.26331280E-08
  -11.7100000      -7.83628167E-08
  -11.6999998      -8.35333864E-08
  -11.6899996      -8.80694628E-08
  -11.6800003      -9.19110121E-08
  -11.6700001      -9.50151531E-08
  -11.6599998      -9.73570167E-08
  -11.6499996      -9.89294691E-08
  -11.6400003      -9.97416549E-08
  -11.6300001      -9.98162193E-08
  -11.6199999      -9.91855629E-08
  -11.6099997      -9.78874013E-08
  -11.6000004      -9.59604236E-08
  -11.5900002      -9.34392759E-08
  -11.5799999      -9.03507882E-08
  -11.5699997      -8.67107204E-08
  -11.5600004      -8.25217938E-08
  -11.5500002      -7.77727180E-08
  -11.5400000      -7.24388016E-08
  -11.5299997      -6.64834019E-08
  -11.5200005      -5.98602625E-08
  -11.5100002      -5.25168318E-08
  -11.5000000      -4.43980461E-08
  -11.4899998      -3.54504586E-08
  -11.4799995      -2.56266315E-08
  -11.4700003      -1.48890429E-08
  -11.4600000      -3.21457061E-09
  -11.4499998       9.40228784E-09
  -11.4399996       2.29462778E-08
  -11.4300003       3.73803175E-08
  -11.4200001       5.26437631E-08
  -11.4099998       6.86536197E-08
  -11.3999996       8.53060627E-08
  -11.3900003       1.02479476E-07
  -11.3800001       1.20038479E-07
  -11.3699999       1.37838796E-07
  -11.3599997       1.55732479E-07
  -11.3500004       1.73573738E-07
  -11.3400002       1.91223862E-07
  -11.3299999       2.08556372E-07
  -11.3199997       2.25461108E-07
  -11.3100004       2.41847715E-07
  -11.3000002       2.57647912E-07
  -11.2900000       2.72816862E-07
  -11.2799997       2.87333421E-07
  -11.2700005       3.01199151E-07
  -11.2600002       3.14436988E-07
  -11.2500000       3.27087491E-07
  -11.2399998       3.39205855E-07
  -11.2299995       3.50856425E-07
  -11.2200003       3.62108153E-07
  -11.2100000       3.73028854E-07
  -11.1999998       3.83679748E-07
  -11.1899996       3.94110259E-07
  -11.1800003       4.04354154E-07
  -11.1700001       4.14425870E-07
  -11.1599998       4.24317989E-07
  -11.1499996       4.34002345E-07
  -11.1400003       4.43429542E-07
  -11.1300001       4.52532447E-07
  -11.1199999       4.61228893E-07
  -11.1099997       4.69429864E-07
  -11.1000004       4.77040430E-07
  -11.0900002       4.83969416E-07
  -11.0799999       4.90133175E-07
  -11.0699997       4.95461677E-07
  -11.0600004       4.99902853E-07
  -11.0500002       5.03424928E-07
  -11.0400000       5.06018921E-07
  -11.0299997       5.07699156E-07
  -11.0200005       5.08499681E-07
  -11.0100002       5.08477626E-07
  -11.0000000       5.07705863E-07
  -10.9899998       5.06270567E-07
  -10.9799995       5.04265813E-07
  -10.9700003       5.01792385E-07
  -10.9600000       4.98947827E-07
  -10.9499998       4.95827237E-07
  -10.9399996       4.92516506E-07
  -10.9300003       4.89090780E-07
  -10.9200001       4.85613839E-07
  -10.9099998       4.82128371E-07
  -10.8999996       4.78656489E-07
  -10.8900003       4.75204928E-07
  -10.8800001       4.71762633E-07
  -10.8699999       4.68297259E-07
  -10.8599997       4.64761683E-07
  -10.8500004       4.61098608E-07
  -10.8400002       4.57243289E-07
  -10.8299999       4.53127001E-07
  -10.8199997       4.48684915E-07
  -10.8100004       4.43860102E-07
  -10.8000002       4.38604758E-07
  -10.7900000       4.32886424E-07
  -10.7799997       4.26690775E-07
  -10.7700005       4.20017386E-07
  -10.7600002       4.12877796E-07
  -10.7500000       4.05299403E-07
  -10.7399998       3.97316001E-07
  -10.7299995       3.88969141E-07
  -10.7200003       3.80306091E-07
  -10.7100000       3.71374739E-07
  -10.6999998       3.62227837E-07
  -10.6899996       3.52920694E-07
  -10.6800003       3.43504723E-07
  -10.6700001       3.34040777E-07
  -10.6599998       3.24580128E-07
  -10.6499996       3.15180330E-07
  -10.6400003       3.05898880E-07
  -10.6300001       2.96786169E-07
  -10.6199999       2.87896626E-07
  -10.6099997       2.79278225E-07
  -10.6000004       2.70977210E-07
  -10.5900002       2.63041414E-07
  -10.5799999       2.55518501E-07
  -10.5699997       2.48456786E-07
  -10.5600004       2.41908140E-07
  -10.5500002       2.35922698E-07
  -10.5400000       2.30552658E-07
  -10.5299997       2.25845312E-07
  -10.5200005       2.21847642E-07
  -10.5100002       2.18597023E-07
  -10.5000000       2.16124747E-07
  -10.4899998       2.14448292E-07
  -10.4799995       2.13580336E-07
  -10.4700003       2.13509452E-07
  -10.4600000       2.14222737E-07
  -10.4499998       2.15687734E-07
  -10.4399996       2.17862350E-07
  -10.4300003       2.20695483E-07
  -10.4200001       2.24124605E-07
  -10.4099998       2.28074967E-07
  -10.3999996       2.32476410E-07
  -10.3900003       2.37245416E-07
  -10.3800001       2.42291406E-07
  -10.3699999       2.47538566E-07
  -10.3599997       2.52895035E-07
  -10.3500004       2.58284246E-07
  -10.3400002       2.63627527E-07
  -10.3299999       2.68861811E-07
  -10.3199997       2.73922865E-07
  -10.3100004       2.78762599E-07
  -10.3000002       2.83327182E-07
  -10.2900000       2.87583276E-07
  -10.2799997       2.91502801E-07
  -10.2700005       2.95056708E-07
  -10.2600002       2.98226865E-07
  -10.2500000       3.01013813E-07
  -10.2399998       3.03418403E-07
  -10.2299995       3.05452772E-07
  -10.2200003       3.07149520E-07
  -10.2100000       3.08550568E-07
  -10.1999998       3.09708838E-07
  -10.1899996       3.10685039E-07
  -10.1800003       3.11556448E-07
  -10.1700001       3.12399720E-07
  -10.1599998       3.13285341E-07
  -10.1499996       3.14290190E-07
  -10.1400003       3.15481714E-07
  -10.1300001       3.16915788E-07
  -10.1199999       3.18635642E-07
  -10.1099997       3.20680954E-07
  -10.1000004       3.23064398E-07
  -10.0900002       3.25799476E-07
  -10.0799999       3.28886415E-07
  -10.0699997       3.32323623E-07
  -10.0600004       3.36096946E-07
  -10.0500002       3.40192798E-07
  -10.0400000       3.44601375E-07
  -10.0299997       3.49306958E-07
  -10.0200005       3.54295707E-07
  -10.0100002       3.59562847E-07
  -10.0000000       3.65101357E-07
  -9.98999977       3.70911152E-07
  -9.97999954       3.77009798E-07
  -9.97000027       3.83413806E-07
  -9.96000004       3.90158334E-07
  -9.94999981       3.97282179E-07
  -9.93999958       4.04835561E-07
  -9.93000031       4.12883253E-07
  -9.92000008       4.21494235E-07
  -9.90999985       4.30757581E-07
  -9.89999962       4.40760004E-07
  -9.89000034       4.51581485E-07
  -9.88000011       4.63317548E-07
  -9.86999989       4.76060166E-07
  -9.85999966       4.89905347E-07
  -9.85000038       5.04945433E-07
  -9.84000015       5.21262962E-07
  -9.82999992       5.38943198E-07
  -9.81999969       5.58053898E-07
  -9.81000042       5.78658842E-07
  -9.80000019       6.00797478E-07
  -9.78999996       6.24494305E-07
  -9.77999973       6.49762057E-07
  -9.77000046       6.76579930E-07
  -9.76000023       7.04922286E-07
  -9.75000000       7.34749847E-07
  -9.73999977       7.66007759E-07
  -9.72999954       7.98619908E-07
  -9.72000027       8.32508249E-07
  -9.71000004       8.67598544E-07
  -9.69999981       9.03801151E-07
  -9.68999958       9.41001929E-07
  -9.68000031       9.79093329E-07
  -9.67000008       1.01797013E-06
  -9.65999985       1.05748575E-06
  -9.64999962       1.09752136E-06
  -9.64000034       1.13790668E-06
  -9.63000011       1.17848390E-06
  -9.61999989       1.21908340E-06
  -9.60999966       1.25952135E-06
  -9.60000038       1.29959562E-06
  -9.59000015       1.33909828E-06
  -9.57999992       1.37779807E-06
  -9.56999969       1.41547525E-06
  -9.56000042       1.45188585E-06
  -9.55000019       1.48678657E-06
  -9.53999996       1.51993527E-06
  -9.52999973       1.55108296E-06
  -9.52000046       1.57997476E-06
  -9.51000023       1.60637751E-06
  -9.50000000       1.63006996E-06
  -9.48999977       1.65084134E-06
  -9.47999954       1.66852760E-06
  -9.47000027       1.68299823E-06
  -9.46000004       1.69414784E-06
  -9.44999981       1.70193766E-06
  -9.43999958       1.70640294E-06
  -9.43000031       1.70759222E-06
  -9.42000008       1.70564215E-06
  -9.40999985       1.70074225E-06
  -9.39999962       1.69312602E-06
  -9.39000034       1.68308554E-06
  -9.38000011       1.67095709E-06
  -9.36999989       1.65710730E-06
  -9.35999966       1.64192784E-06
  -9.35000038       1.62583751E-06
  -9.34000015       1.60925481E-06
  -9.32999992       1.59264209E-06
  -9.31999969       1.57644740E-06
  -9.31000042       1.56112390E-06
  -9.30000019       1.54712893E-06
  -9.28999996       1.53492601E-06
  -9.27999973       1.52494829E-06
  -9.27000046       1.51762345E-06
  -9.26000023       1.51339998E-06
  -9.25000000       1.51266943E-06
  -9.23999977       1.51582560E-06
  -9.22999954       1.52323514E-06
  -9.22000027       1.53522183E-06
  -9.21000004       1.55206999E-06
  -9.19999981       1.57405361E-06
  -9.18999958       1.60136346E-06
  -9.18000031       1.63416166E-06
  -9.17000008       1.67255689E-06
  -9.15999985       1.71657189E-06
  -9.14999962       1.76618505E-06
  -9.14000034       1.82133613E-06
  -9.13000011       1.88184231E-06
  -9.11999989       1.94749896E-06
  -9.10999966       2.01803596E-06
  -9.10000038       2.09312975E-06
  -9.09000015       2.17236811E-06
  -9.07999992       2.25533972E-06
  -9.06999969       2.34153913E-06
  -9.06000042       2.43044587E-06
  -9.05000019       2.52150494E-06
  -9.03999996       2.61409355E-06
  -9.02999973       2.70761439E-06
  -9.02000046       2.80139284E-06
  -9.01000023       2.89476293E-06
  -9.00000000       2.98702253E-06
  -8.98999977       3.07747609E-06
  -8.97999954       3.16540672E-06
  -8.97000027       3.25009614E-06
  -8.96000004       3.33086587E-06
  -8.94999981       3.40702263E-06
  -8.93999958       3.47790183E-06
  -8.93000031       3.54288090E-06
  -8.92000008       3.60138370E-06
  -8.90999985       3.65285655E-06
  -8.89999962       3.69680333E-06
  -8.89000034       3.73280272E-06
  -8.88000011       3.76048297E-06
  -8.86999989       3.77952983E-06
  -8.85999966       3.78969821E-06
  -8.85000038       3.79086123E-06
  -8.84000015       3.78286609E-06
  -8.82999992       3.76570642E-06
  -8.81999969       3.73944476E-06
  -8.81000042       3.70416160E-06
  -8.80000019       3.66004519E-06
  -8.78999996       3.60737045E-06
  -8.77999973       3.54646909E-06
  -8.77000046       3.47770265E-06
  -8.76000023       3.40152064E-06
  -8.75000000       3.31841989E-06
  -8.73999977       3.22885262E-06
  -8.72999954       3.13344412E-06
  -8.72000027       3.03278080E-06
  -8.71000004       2.92747836E-06
  -8.69999981       2.81813641E-06
  -8.68999958       2.70540158E-06
  -8.68000031       2.58990531E-06
  -8.67000008       2.47229536E-06
  -8.65999985       2.35317498E-06
  -8.64999962       2.23318807E-06
  -8.64000034       2.11294264E-06
  -8.63000011       1.99302281E-06
  -8.61999989       1.87394767E-06
  -8.60999966       1.75625883E-06
  -8.60000038       1.64048458E-06
  -8.59000015       1.52700602E-06
  -8.57999992       1.41626242E-06
  -8.56999969       1.30860326E-06
  -8.56000042       1.20439790E-06
  -8.55000019       1.10389124E-06
  -8.53999996       1.00730165E-06
  -8.52999973       9.14831560E-07
  -8.52000046       8.26628423E-07
  -8.51000023       7.42820703E-07
  -8.50000000       6.63438641E-07
  -8.48999977       5.88543230E-07
  -8.47999954       5.18144532E-07
  -8.47000027       4.52263919E-07
  -8.46000004       3.90841194E-07
  -8.44999981       3.33800955E-07
  -8.43999958       2.81095396E-07
  -8.43000031       2.32692003E-07
  -8.42000008       1.88502995E-07
  -8.40999985       1.48418025E-07
  -8.39999962       1.12372746E-07
  -8.39000034       8.02663749E-08
  -8.38000011       5.20390451E-08
  -8.36999989       2.76203984E-08
  -8.35999966       6.94210334E-09
  -8.35000038      -1.00108046E-08
  -8.34000015      -2.32489334E-08
  -8.32999992      -3.28397149E-08
  -8.31999969      -3.86407066E-08
  -8.31000042      -4.06080147E-08
  -8.30000019      -3.87207137E-08
  -8.28999996      -3.29196226E-08
  -8.27999973      -2.30888713E-08
  -8.27000046      -9.15982046E-09
  -8.26000023       8.95842955E-09
  -8.25000000       3.14369082E-08
  -8.23999977       5.83399498E-08
  -8.22999954       8.97870081E-08
  -8.22000027       1.25900300E-07
  -8.21000004       1.66780580E-07
  -8.19999981       2.12554767E-07
  -8.18999958       2.63307584E-07
  -8.18000031       3.19062764E-07
  -8.17000008       3.79966338E-07
  -8.15999985       4.46095072E-07
  -8.14999962       5.17416879E-07
  -8.14000034       5.94025892E-07
  -8.13000011       6.75916851E-07
  -8.11999989       7.63074809E-07
  -8.10999966       8.55464123E-07
  -8.10000038       9.53041649E-07
  -8.09000015       1.05576089E-06
  -8.07999992       1.16348565E-06
  -8.06999969       1.27603255E-06
  -8.06000042       1.39325493E-06
  -8.05000019       1.51500751E-06
  -8.03999996       1.64105609E-06
  -8.02999973       1.77109928E-06
  -8.02000046       1.90489482E-06
  -8.01000023       2.04210687E-06
  -8.00000000       2.18235323E-06
  -7.98999977       2.32529760E-06
  -7.98000002       2.47044932E-06
  -7.96999979       2.61735795E-06
  -7.96000004       2.76559922E-06
  -7.94999981       2.91467859E-06
  -7.94000006       3.06412380E-06
  -7.92999983       3.21341076E-06
  -7.92000008       3.36206176E-06
  -7.90999985       3.50950677E-06
  -7.90000010       3.65517099E-06
  -7.88999987       3.79854760E-06
  -7.88000011       3.93909522E-06
  -7.86999989       4.07622429E-06
  -7.86000013       4.20950028E-06
  -7.84999990       4.33835339E-06
  -7.84000015       4.46238982E-06
  -7.82999992       4.58125623E-06
  -7.82000017       4.69461202E-06
  -7.80999994       4.80214430E-06
  -7.80000019       4.90361117E-06
  -7.78999996       4.99881480E-06
  -7.78000021       5.08761559E-06
  -7.76999998       5.16987484E-06
  -7.76000023       5.24550433E-06
  -7.75000000       5.31455544E-06
  -7.73999977       5.37702772E-06
  -7.73000002       5.43293572E-06
  -7.71999979       5.48253047E-06
  -7.71000004       5.52588426E-06
  -7.69999981       5.56322084E-06
  -7.69000006       5.59478076E-06
  -7.67999983       5.62079185E-06
  -7.67000008       5.64157835E-06
  -7.65999985       5.65733490E-06
  -7.65000010       5.66845847E-06
  -7.63999987       5.67522329E-06
  -7.63000011       5.67806183E-06
  -7.61999989       5.67734560E-06
  -7.61000013       5.67354664E-06
  -7.59999990       5.66700146E-06
  -7.59000015       5.65813525E-06
  -7.57999992       5.64756647E-06
  -7.57000017       5.63547655E-06
  -7.55999994       5.62259038E-06
  -7.55000019       5.60928538E-06
  -7.53999996       5.59598948E-06
  -7.53000021       5.58318470E-06
  -7.51999998       5.57145586E-06
  -7.51000023       5.56124905E-06
  -7.50000000       5.55295674E-06
  -7.48999977       5.54702001E-06
  -7.48000002       5.54382996E-06
  -7.46999979       5.54383814E-06
  -7.46000004       5.54735243E-06
  -7.44999981       5.55470160E-06
  -7.44000006       5.56627265E-06