  -16.0000000       0.00000000    
  -15.9899998       0.00000000    
  -15.9799995       0.00000000    
  -15.9700003       0.00000000    
  -15.9600000       0.00000000    
  -15.9499998       0.00000000    
  -15.9399996       0.00000000    
  -15.9300003       0.00000000    
  -15.9200001       0.00000000    
  -15.9099998       0.00000000    
  -15.8999996       0.00000000    
  -15.8900003       0.00000000    
  -15.8800001       0.00000000    
  -15.8699999      -0.00000000    
  -15.8599997      -9.66895940E-44
  -15.8500004      -3.09967220E-42
  -15.8400002      -5.57142256E-41
  -15.8299999      -6.77658128E-40
  -15.8199997      -6.15435572E-39
  -15.8100004      -4.43637249E-38
  -15.8000002      -2.64486476E-37
  -15.7900000      -1.34249684E-36
  -15.7799997      -5.92586942E-36
  -15.7700005      -2.31080192E-35
  -15.7600002      -8.05512555E-35
  -15.7500000      -2.53208623E-34
  -15.7399998      -7.22226943E-34
  -15.7299995      -1.87648626E-33
  -15.7200003      -4.44788585E-33
  -15.7100000      -9.60608106E-33
  -15.6999998      -1.88054323E-32
  -15.6899996      -3.29853648E-32
  -15.6800003      -5.05754329E-32
  -15.6700001      -6.39069729E-32
  -15.6599998      -5.45065152E-32
  -15.6499996       1.02500764E-32
  -15.6400003       1.73600744E-31
  -15.6300001       4.70719707E-31
  -15.6199999       8.87447265E-31
  -15.6099997       1.29806343E-30
  -15.6000004       1.40479681E-30
  -15.5900002       7.32222578E-31
  -15.5799999      -1.24552513E-30
  -15.5699997      -4.77765968E-30
  -15.5600004      -9.32492096E-30
  -15.5500002      -1.30470574E-29
  -15.5400000      -1.26849585E-29
  -15.5299997      -4.35337280E-30
  -15.5200005       1.44131090E-29
  -15.5100002       4.16514550E-29
  -15.5000000       6.83237912E-29
  -15.4899998       7.83200477E-29
  -15.4799995       5.33989475E-29
  -15.4700003      -1.65288619E-29
  -15.4600000      -1.21300364E-28
  -15.4499998      -2.24546869E-28
  -15.4399996      -2.73287292E-28
  -15.4300003      -2.26696832E-28
  -15.4200001      -9.31033114E-29
  -15.4099998       5.38828555E-29
  -15.3999996       1.16705625E-28
  -15.3900003       8.71839777E-29
  -15.3800001       1.84307102E-28
  -15.3699999       8.84715305E-28
  -15.3599997       2.66701122E-27
  -15.3500004       5.37150528E-27
  -15.3400002       7.35443775E-27
  -15.3299999       5.05069427E-27
  -15.3199997      -6.07991778E-27
  -15.3100004      -2.83818256E-26
  -15.3000002      -5.68343899E-26
  -15.2900000      -7.41954681E-26
  -15.2799997      -5.11579317E-26
  -15.2700005       4.28230770E-26
  -15.2600002       2.15189521E-25
  -15.2500000       4.17783644E-25
  -15.2399998       5.23968957E-25
  -15.2299995       3.44011320E-25
  -15.2200003      -2.93544979E-25
  -15.2100000      -1.39039170E-24
  -15.1999998      -2.60284182E-24
  -15.1899996      -3.15159595E-24
  -15.1800003      -1.96788255E-24
  -15.1700001       1.80534940E-24
  -15.1599998       7.98861847E-24
  -15.1499996       1.45137706E-23
  -15.1400003       1.71308387E-23
  -15.1300001       1.03889210E-23
  -15.1199999      -9.65943139E-24
  -15.1099997      -4.13941192E-23
  -15.1000004      -7.38263367E-23
  -15.0900002      -8.58893389E-23
  -15.0799999      -5.19291830E-23
  -15.0699997       4.51009418E-23
  -15.0600004       1.95175156E-22
  -15.0500002       3.45389103E-22
  -15.0400000       3.99379021E-22
  -15.0299997       2.44542236E-22
  -15.0200005      -1.88599414E-22
  -15.0100002      -8.48020071E-22
  -15.0000000      -1.49833105E-21
  -14.9899998      -1.72760023E-21
  -14.9799995      -1.07078187E-21
  -14.9700003       7.40191393E-22
  -14.9600000       3.46194716E-21
  -14.9499998       6.10947926E-21
  -14.9399996       7.01513379E-21
  -14.9300003       4.35106090E-21
  -14.9200001      -2.87107423E-21
  -14.9099998      -1.35926583E-20
  -14.8999996      -2.38808481E-20
  -14.8900003      -2.72525283E-20
  -14.8800001      -1.67637635E-20
  -14.8699999       1.11570929E-20
  -14.8599997       5.22141250E-20
  -14.8500004       9.13050943E-20
  -14.8400002       1.03947697E-19
  -14.8299999       6.42081567E-20
  -14.8199997      -4.11058972E-20
  -14.8100004      -1.96039117E-19
  -14.8000002      -3.44895231E-19
  -14.7900000      -3.97431566E-19
  -14.7799997      -2.57309987E-19
  -14.7700005       1.27106667E-19
  -14.7600002       7.03756270E-19
  -14.7500000       1.27751759E-18
  -14.7399998       1.52510702E-18
  -14.7299995       1.09065656E-18
  -14.7200003      -2.39462894E-19
  -14.7100000      -2.32827189E-18
  -14.6999998      -4.53842900E-18
  -14.6899996      -5.75813452E-18
  -14.6800003      -4.69677577E-18
  -14.6700001      -4.57655975E-19
  -14.6599998       6.74675639E-18
  -14.6499996       1.50259939E-17
  -14.6400003       2.07714829E-17
  -14.6300001       1.94766342E-17
  -14.6199999       7.49856017E-18
  -14.6099997      -1.55899640E-17
  -14.6000004      -4.49063120E-17
  -14.5900002      -6.96150637E-17
  -14.5799999      -7.48682562E-17
  -14.5699997      -4.68057172E-17
  -14.5600004       2.01501826E-17
  -14.5500002       1.15999971E-16
  -14.5400000       2.11387633E-16
  -14.5299997       2.61016061E-16
  -14.5200005       2.16425349E-16
  -14.5100002       4.69919255E-17
  -14.5000000      -2.36438818E-16
  -14.4899998      -5.64921001E-16
  -14.4799995      -8.12984499E-16
  -14.4700003      -8.26789495E-16
  -14.4600000      -4.79191896E-16
  -14.4499998       2.59988478E-16
  -14.4399996       1.26264216E-15
  -14.4300003       2.22155079E-15
  -14.4200001       2.69842314E-15
  -14.4099998       2.25189532E-15
  -14.3999996       6.26686379E-16
  -14.3900003      -2.04996394E-15
  -14.3800001      -5.14567391E-15
  -14.3699999      -7.55937942E-15
  -14.3599997      -7.97166508E-15
  -14.3500004      -5.29700482E-15
  -14.3400002       7.63876917E-16
  -14.3299999       9.25793628E-15
  -14.3199997       1.78283003E-14
  -14.3100004       2.30701620E-14
  -14.3000002       2.14581753E-14
  -14.2900000       1.07034946E-14
  -14.2799997      -8.83046586E-15
  -14.2700005      -3.31932222E-14
  -14.2600002      -5.49504900E-14
  -14.2500000      -6.46862324E-14
  -14.2399998      -5.38522609E-14
  -14.2299995      -1.83719464E-14
  -14.2200003       3.81048478E-14
  -14.2100000       1.02663205E-13
  -14.1999998       1.54504868E-13
  -14.1899996       1.69774053E-13
  -14.1800003       1.29242144E-13
  -14.1700001       2.70000442E-14
  -14.1599998      -1.22690893E-13
  -14.1499996      -2.83512227E-13
  -14.1400003      -4.02504066E-13
  -14.1300001      -4.23236614E-13
  -14.1199999      -3.04547376E-13
  -14.1099997      -3.99819609E-14
  -14.1000004       3.28680361E-13
  -14.0900002       7.10372570E-13
  -14.0799999       9.80332460E-13
  -14.0699997       1.01198173E-12
  -14.0600004       7.19030575E-13
  -14.0500002       9.65132718E-14
  -14.0400000      -7.53357554E-13
  -14.0299997      -1.62344183E-12
  -14.0200005      -2.23909736E-12
  -14.0100002      -2.32808369E-12
  -14.0000000      -1.70886168E-12
  -13.9899998      -3.73540093E-13
  -13.9799995       1.46259838E-12
  -13.9700003       3.36934842E-12
  -13.9600000       4.77950795E-12
  -13.9499998       5.12918787E-12
  -13.9399996       4.03185558E-12
  -13.9300003       1.44024170E-12
  -13.9200001      -2.25646086E-12
  -13.9099998      -6.24460119E-12
  -13.8999996      -9.42821689E-12
  -13.8900003      -1.06873121E-11
  -13.8800001      -9.20038611E-12
  -13.8699999      -4.74941224E-12
  -13.8599997       2.08598720E-12
  -13.8500004       9.92416652E-12
  -13.8400002       1.68058224E-11
  -13.8299999       2.06269810E-11
  -13.8199997       1.96966592E-11
  -13.8100004       1.32844222E-11
  -13.8000002       2.00242492E-12
  -13.7900000      -1.21134543E-11
  -13.7799997      -2.58966650E-11
  -13.7700005      -3.56980834E-11
  -13.7600002      -3.82690199E-11
  -13.7500000      -3.16762311E-11
  -13.7399998      -1.60084394E-11
  -13.7299995       6.34274274E-12
  -13.7200003       3.09583401E-11
  -13.7100000       5.22220843E-11
  -13.6999998       6.45553819E-11
  -13.6899996       6.37843944E-11
  -13.6800003       4.83045236E-11
  -13.6700001       1.97299087E-11
  -13.6599998      -1.71754416E-11
  -13.6499996      -5.53177990E-11
  -13.6400003      -8.66868868E-11
  -13.6300001      -1.04046514E-10
  -13.6199999      -1.02508148E-10
  -13.6099997      -8.06196290E-11
  -13.6000004      -4.07281223E-11
  -13.5900002       1.14317193E-11
  -13.5799999       6.77737935E-11
  -13.5699997       1.19226892E-10
  -13.5600004       1.57094948E-10
  -13.5500002       1.74148682E-10
  -13.5400000       1.65345293E-10
  -13.5299997       1.28255601E-10
  -13.5200005       6.34035602E-11
  -13.5100002      -2.52757711E-11
  -13.5000000      -1.29799754E-10
  -13.4899998      -2.37522779E-10
  -13.4799995      -3.31017547E-10
  -13.4700003      -3.89092036E-10
  -13.4600000      -3.89506843E-10
  -13.4499998      -3.13581744E-10
  -13.4399996      -1.52234489E-10
  -13.4300003       8.77696457E-11
  -13.4200001       3.79221266E-10
  -13.4099998       6.73631317E-10
  -13.3999996       9.05889919E-10
  -13.3900003       1.00508146E-09
  -13.3800001       9.10479692E-10
  -13.3699999       5.89910676E-10
  -13.3599997       5.61122086E-11
  -13.3500004      -6.23950336E-10
  -13.3400002      -1.33126132E-09
  -13.3299999      -1.91084149E-09
  -13.3199997      -2.20094409E-09
  -13.3100004      -2.07083062E-09
  -13.3000002      -1.45925216E-09
  -13.2900000      -4.03904937E-10
  -13.2799997       9.47525614E-10
  -13.2700005       2.35113062E-09
  -13.2600002       3.50652973E-09
  -13.2500000       4.11729095E-09
  -13.2399998       3.96052080E-09
  -13.2299995       2.94989233E-09
  -13.2200003       1.17565746E-09
  -13.2100000      -1.09143672E-09
  -13.1999998      -3.43813555E-09
  -13.1899996      -5.38464384E-09
  -13.1800003      -6.48468212E-09
  -13.1700001      -6.42814246E-09
  -13.1599998      -5.12194021E-09
  -13.1499996      -2.72763745E-09
  -13.1400003       3.56701974E-10
  -13.1300001       3.57013752E-09
  -13.1199999       6.30369712E-09
  -13.1099997       8.03087552E-09
  -13.1000004       8.42267589E-09
  -13.0900002       7.41844941E-09
  -13.0799999       5.23380450E-09
  -13.0699997       2.30262764E-09
  -13.0600004      -8.32370117E-10
  -13.0500002      -3.65180353E-09
  -13.0400000      -5.77860204E-09
  -13.0299997      -7.05071068E-09
  -13.0200005      -7.52676144E-09
  -13.0100002      -7.42317718E-09
  -13.0000000      -7.00194835E-09
  -12.9899998      -6.44472919E-09
  -12.9799995      -5.75567949E-09
  -12.9700003      -4.72974859E-09
  -12.9600000      -3.00556113E-09
  -12.9499998      -1.96875585E-10
  -12.9399996       3.92944166E-09
  -12.9300003       9.28008337E-09
  -12.9200001       1.53236552E-08
  -12.9099998       2.10873683E-08
  -12.8999996       2.52834944E-08
  -12.8900003       2.65528577E-08
  -12.8800001       2.37783855E-08
  -12.8699999       1.63972089E-08
  -12.8599997       4.63233052E-09
  -12.8500004      -1.04219300E-08
  -12.8400002      -2.68951226E-08
  -12.8299999      -4.24086011E-08
  -12.8199997      -5.44659997E-08
  -12.8100004      -6.08848936E-08
  -12.8000002      -6.01768591E-08
  -12.7900000      -5.17952472E-08
  -12.7799997      -3.62023904E-08
  -12.7700005      -1.47524331E-08
  -12.7600002       1.05690283E-08
  -12.7500000       3.74744644E-08
  -12.7399998       6.36865778E-08
  -12.7299995       8.71581491E-08
  -12.7200003       1.06156641E-07
  -12.7100000       1.19214860E-07
  -12.6999998       1.24991871E-07
  -12.6899996       1.22120213E-07
  -12.6800003       1.09124571E-07
  -12.6700001       8.44836663E-08
  -12.6599998       4.68707491E-08
  -12.6499996      -4.43813297E-09
  -12.6400003      -6.90489941E-08
  -12.6300001      -1.44924570E-07
  -12.6199999      -2.27964222E-07
  -12.6099997      -3.11797436E-07
  -12.6000004      -3.87871040E-07
  -12.5900002      -4.45867897E-07
  -12.5799999      -4.74443084E-07
  -12.5699997      -4.62224278E-07
  -12.5600004      -3.98987538E-07
  -12.5500002      -2.76913624E-07
  -12.5400000      -9.18311471E-08
  -12.5299997       1.55625528E-07
  -12.5200005       4.58996823E-07
  -12.5100002       8.05155253E-07
  -12.5000000       1.17367927E-06
  -12.4899998       1.53650456E-06
  -12.4799995       1.85795170E-06
  -12.4700003       2.09526434E-06
  -12.4600000       2.19982962E-06
  -12.4499998       2.11923862E-06
  -12.4399996       1.80030190E-06
  -12.4300003       1.19301706E-06
  -12.4200001       2.55337653E-07
  -12.4099998      -1.04160472E-06
  -12.3999996      -2.70834471E-06
  -12.3900003      -4.73263890E-06
  -12.3800001      -7.07642312E-06
  -12.3699999      -9.67476535E-06
  -12.3599997      -1.24371973E-05
  -12.3500004      -1.52515358E-05
  -12.3400002      -1.79899071E-05
  -12.3299999      -2.05164106E-05
  -12.3199997      -2.26955908E-05
  -12.3100004      -2.44008388E-05
  -12.3000002      -2.55218547E-05
  -12.2900000      -2.59706503E-05
  -12.2799997      -2.56857384E-05
  -12.2700005      -2.46345462E-05
  -12.2600002      -2.28143454E-05
  -12.2500000      -2.02520096E-05
  -12.2399998      -1.70029507E-05
  -12.2299995      -1.31493462E-05
  -12.2200003      -8.79750132E-06
  -12.2100000      -4.07416746E-06
  -12.1999998       8.78651861E-07
  -12.1899996       5.91050366E-06
  -12.1800003       1.08708855E-05
  -12.1700001       1.56186670E-05
  -12.1599998       2.00316535E-05
  -12.1499996       2.40149984E-05
  -12.1400003       2.75072562E-05
  -12.1300001       3.04830482E-05
  -12.1199999       3.29516406E-05
  -12.1099997       3.49518232E-05
  -12.1000004       3.65435844E-05
  -12.0900002       3.77979995E-05
  -12.0799999       3.87869259E-05
  -12.0699997       3.95738753E-05
  -12.0600004       4.02070582E-05
  -12.0500002       4.07152584E-05
  -12.0400000       4.11064029E-05
  -12.0299997       4.13680973E-05
  -12.0200005       4.14696406E-05
  -12.0100002       4.13646776E-05
  -12.0000000       4.09941240E-05
  -11.9899998       4.02894002E-05
  -11.9799995       3.91762987E-05
  -11.9700003       3.75799791E-05
  -11.9600000       3.54312469E-05
  -11.9499998       3.26741647E-05
  -11.9399996       2.92742097E-05
  -11.9300003       2.52259324E-05
  -11.9200001       2.05585202E-05
  -11.9099998       1.53380606E-05
  -11.8999996       9.66541393E-06
  -11.8900003       3.66957966E-06
  -11.8800001      -2.50277799E-06
  -11.8699999      -8.70015811E-06
  -11.8599997      -1.47794372E-05
  -11.8500004      -2.06172863E-05
  -11.8400002      -2.61181704E-05
  -11.8299999      -3.12178090E-05
  -11.8199997      -3.58820434E-05
  -11.8100004      -4.01018151E-05
  -11.8000002      -4.38856659E-05
  -11.7900000      -4.72513457E-05
  -11.7799997      -5.02182047E-05
  -11.7700005      -5.28013297E-05
  -11.7600002      -5.50081495E-05
  -11.7500000      -5.68373980E-05
  -11.7399998      -5.82800058E-05
  -11.7299995      -5.93212608E-05
  -11.7200003      -5.99436753E-05
  -11.7100000      -6.01298780E-05
  -11.6999998      -5.98654406E-05
  -11.6899996      -5.91412536E-05
  -11.6800003      -5.79556217E-05
  -11.6700001      -5.63156209E-05
  -11.6599998      -5.42378366E-05
  -11.6499996      -5.17480221E-05
  -11.6400003      -4.88795013E-05
  -11.6300001      -4.56704220E-05
  -11.6199999      -4.21599907E-05
  -11.6099997      -3.83843508E-05
  -11.6000004      -3.43727625E-05
  -11.5900002      -3.01450491E-05
  -11.5799999      -2.57107895E-05
  -11.5699997      -2.10707949E-05
  -11.5600004      -1.62204851E-05
  -11.5500002      -1.11548688E-05
  -11.5400000      -5.87404065E-06
  -11.5299997      -3.88300890E-07
  -11.5200005       5.27802968E-06
  -11.5100002       1.10848141E-05
  -11.5000000       1.69765080E-05
  -11.4899998       2.28847748E-05
  -11.4799995       2.87328457E-05
  -11.4700003       3.44410437E-05
  -11.4600000       3.99328164E-05
  -11.4499998       4.51404630E-05
  -11.4399996       5.00099413E-05
  -11.4300003       5.45039838E-05
  -11.4200001       5.86031783E-05
  -11.4099998       6.23044834E-05
  -11.3999996       6.56175325E-05
  -11.3900003       6.85587365E-05
  -11.3800001       7.11446191E-05
  -11.3699999       7.33854395E-05
  -11.3599997       7.52803899E-05
  -11.3500004       7.68161990E-05
  -11.3400002       7.79692928E-05
  -11.3299999       7.87117169E-05
  -11.3199997       7.90197009E-05
  -11.3100004       7.88829493E-05
  -11.3000002       7.83124997E-05
  -11.2900000       7.73451102E-05
  -11.2799997       7.60428084E-05
  -11.2700005       7.44876452E-05
  -11.2600002       7.27725928E-05
  -11.2500000       7.09905798E-05
  -11.2399998       6.92239701E-05
  -11.2299995       6.75368428E-05
  -11.2200003       6.59707730E-05
  -11.2100000       6.45446489E-05
  -11.1999998       6.32570445E-05
  -11.1899996       6.20900901E-05
  -11.1800003       6.10128627E-05
  -11.1700001       5.99839623E-05
  -11.1599998       5.89531737E-05
  -11.1499996       5.78636464E-05
  -11.1400003       5.66559138E-05
  -11.1300001       5.52750134E-05
  -11.1199999       5.36810257E-05
  -11.1099997       5.18612906E-05
  -11.1000004       4.98417976E-05
  -11.0900002       4.76943205E-05
  -11.0799999       4.55359295E-05
  -11.0699997       4.35191978E-05
  -11.0600004       4.18134259E-05
  -11.0500002       4.05796054E-05
  -11.0400000       3.99437231E-05
  -11.0299997       3.99737983E-05
  -11.0200005       4.06655927E-05
  -11.0100002       4.19399403E-05
  -11.0000000       4.36523806E-05
  -10.9899998       4.56128655E-05
  -10.9799995       4.76115856E-05
  -10.9700003       4.94460292E-05
  -10.9600000       5.09443926E-05
  -10.9499998       5.19823334E-05
  -10.9399996       5.24914103E-05
  -10.9300003       5.24595016E-05
  -10.9200001       5.19247005E-05
  -10.9099998       5.09646779E-05
  -10.8999996       4.96833090E-05
  -10.8900003       4.81962416E-05
  -10.8800001       4.66163510E-05
  -10.8699999       4.50400912E-05
  -10.8599997       4.35359470E-05
  -10.8500004       4.21361219E-05
  -10.8400002       4.08329579E-05
  -10.8299999       3.95810166E-05
  -10.8199997       3.83052320E-05
  -10.8100004       3.69136396E-05
  -10.8000002       3.53128635E-05
  -10.7900000       3.34232500E-05
  -10.7799997       3.11909607E-05
  -10.7700005       2.85945189E-05
  -10.7600002       2.56456369E-05
  -10.7500000       2.23848110E-05
  -10.7399998       1.88741542E-05
  -10.7299995       1.51896083E-05
  -10.7200003       1.14149061E-05
  -10.7100000       7.63821481E-06
  -10.6999998       3.95103416E-06
  -10.6899996       4.48431251E-07
  -10.6800003      -2.77137838E-06
  -10.6700001      -5.60922035E-06
  -10.6599998      -7.96888526E-06
  -10.6499996      -9.76248793E-06
  -10.6400003      -1.09154307E-05
  -10.6300001      -1.13697906E-05
  -10.6199999      -1.10855772E-05
  -10.6099997      -1.00397592E-05
  -10.6000004      -8.22468064E-06
  -10.5900002      -5.64726997E-06
  -10.5799999      -2.32974367E-06
  -10.5699997       1.68779513E-06
  -10.5600004       6.34496382E-06
  -10.5500002       1.15604817E-05
  -10.5400000       1.72361433E-05
  -10.5299997       2.32654165E-05
  -10.5200005       2.95462323E-05
  -10.5100002       3.59947262E-05
  -10.5000000       4.25553735E-05
  -10.4899998       4.92041145E-05
  -10.4799995       5.59417022E-05
  -10.4700003       6.27784830E-05
  -10.4600000       6.97139039E-05
  -10.4499998       7.67170059E-05
  -10.4399996       8.37137777E-05
  -10.4300003       9.05857523E-05
  -10.4200001       9.71809641E-05
  -10.4099998       1.03334736E-04
  -10.3999996       1.08894084E-04
  -10.3900003       1.13739450E-04
  -10.3800001       1.17797506E-04
  -10.3699999       1.21042562E-04
  -10.3599997       1.23487422E-04
  -10.3500004       1.25168546E-04
  -10.3400002       1.26131155E-04
  -10.3299999       1.26419720E-04
  -10.3199997       1.26075785E-04
  -10.3100004       1.25143226E-04
  -10.3000002       1.23675869E-04
  -10.2900000       1.21742676E-04
  -10.2799997       1.19426550E-04
  -10.2700005       1.16814837E-04
  -10.2600002       1.13984512E-04
  -10.2500000       1.10987101E-04
  -10.2399998       1.07839645E-04
  -10.2299995       1.04526909E-04
  -10.2200003       1.01015423E-04
  -10.2100000       9.72762355E-05
  -10.1999998       9.33089614E-05
  -10.1899996       8.91593590E-05
  -10.1800003       8.49229327E-05
  -10.1700001       8.07327888E-05
  -10.1599998       7.67341116E-05
  -10.1499996       7.30530010E-05
  -10.1400003       6.97694632E-05
  -10.1300001       6.69034853E-05
  -10.1199999       6.44191023E-05
  -10.1099997       6.22456791E-05
  -10.1000004       6.03104490E-05
  -10.0900002       5.85718990E-05
  -10.0799999       5.70444572E-05
  -10.0699997       5.58065949E-05
  -10.0600004       5.49902725E-05
  -10.0500002       5.47546406E-05
  -10.0400000       5.52520796E-05
  -10.0299997       5.65947230E-05
  -10.0200005       5.88311632E-05
  -10.0100002       6.19370985E-05
  -10.0000000       6.58217614E-05
  -9.98999977       7.03457335E-05
  -9.97999954       7.53455752E-05
  -9.97000027       8.06589451E-05
  -9.96000004       8.61458248E-05
  -9.94999981       9.17023717E-05
  -9.93999958       9.72666676E-05
  -9.93000031       1.02817648E-04
  -9.92000008       1.08367414E-04
  -9.90999985       1.13948554E-04
  -9.89999962       1.19598160E-04
  -9.89000034       1.25340070E-04
  -9.88000011       1.31168301E-04
  -9.86999989       1.37036550E-04
  -9.85999966       1.42855628E-04
  -9.85000038       1.48503750E-04
  -9.84000015       1.53848290E-04
  -9.82999992       1.58776340E-04
  -9.81999969       1.63228920E-04
  -9.81000042       1.67229344E-04
  -9.80000019       1.70898566E-04
  -9.78999996       1.74452420E-04
  -9.77999973       1.78179762E-04
  -9.77000046       1.82406453E-04
  -9.76000023       1.87452431E-04
  -9.75000000       1.93593485E-04
  -9.73999977       2.01033836E-04
  -9.72999954       2.09896956E-04
  -9.72000027       2.20231494E-04
  -9.71000004       2.32029488E-04
  -9.69999981       2.45247094E-04
  -9.68999958       2.59821129E-04
  -9.68000031       2.75674771E-04
  -9.67000008       2.92710785E-04
  -9.65999985       3.10797506E-04
  -9.64999962       3.29749979E-04
  -9.64000034       3.49315553E-04
  -9.63000011       3.69168643E-04
  -9.61999989       3.88915592E-04
  -9.60999966       4.08109772E-04
  -9.60000038       4.26272367E-04
  -9.59000015       4.42912598E-04
  -9.57999992       4.57545160E-04
  -9.56999969       4.69701190E-04
  -9.56000042       4.78934788E-04
  -9.55000019       4.84827353E-04
  -9.53999996       4.86993929E-04
  -9.52999973       4.85093187E-04
  -9.52000046       4.78843984E-04
  -9.51000023       4.68044891E-04
  -9.50000000       4.52594541E-04
  -9.48999977       4.32508008E-04
  -9.47999954       4.07924847E-04
  -9.47000027       3.79108067E-04
  -9.46000004       3.46432556E-04
  -9.44999981       3.10367643E-04
  -9.43999958       2.71455938E-04
  -9.43000031       2.30294841E-04
  -9.42000008       1.87523357E-04
  -9.40999985       1.43816535E-04
  -9.39999962       9.98861287E-05
  -9.39000034       5.64828733E-05
  -9.38000011       1.43989309E-05
  -9.36999989      -2.55402174E-05
  -9.35999966      -6.24926761E-05
  -9.35000038      -9.56310905E-05
  -9.34000015      -1.24182319E-04
  -9.32999992      -1.47472630E-04
  -9.31999969      -1.64966899E-04
  -9.31000042      -1.76297093E-04
  -9.30000019      -1.81270443E-04
  -9.28999996      -1.79858922E-04
  -9.27999973      -1.72169952E-04
  -9.27000046      -1.58406750E-04
  -9.26000023      -1.38828284E-04
  -9.25000000      -1.13717899E-04
  -9.23999977      -8.33669546E-05
  -9.22999954      -4.80757881E-05
  -9.22000027      -8.16821102E-06
  -9.21000004       3.59874211E-05
  -9.19999981       8.39617351E-05
  -9.18999958       1.35254711E-04
  -9.18000031       1.89304556E-04
  -9.17000008       2.45505711E-04
  -9.15999985       3.03237786E-04
  -9.14999962       3.61892540E-04
  -9.14000034       4.20896773E-04
  -9.13000011       4.79722890E-04
  -9.11999989       5.37888787E-04
  -9.10999966       5.94947895E-04
  -9.10000038       6.50475966E-04
  -9.09000015       7.04056700E-04
  -9.07999992       7.55271874E-04
  -9.06999969       8.03693663E-04
  -9.06000042       8.48883356E-04
  -9.05000019       8.90390773E-04
  -9.03999996       9.27759917E-04
  -9.02999973       9.60537989E-04
  -9.02000046       9.88290296E-04
  -9.01000023       1.01062399E-03
  -9.00000000       1.02721702E-03
  -8.98999977       1.03784841E-03
  -8.97999954       1.04242249E-03
  -8.97000027       1.04098069E-03
  -8.96000004       1.03369600E-03
  -8.94999981       1.02084863E-03
  -8.93999958       1.00278994E-03
  -8.93000031       9.79906414E-04
  -8.92000008       9.52589500E-04
  -8.90999985       9.21228086E-04
  -8.89999962       8.86217342E-04
  -8.89000034       8.47985852E-04
  -8.88000011       8.07022501E-04
  -8.86999989       7.63893593E-04
  -8.85999966       7.19238364E-04
  -8.85000038       6.73736795E-04
  -8.84000015       6.28057111E-04
  -8.82999992       5.82799024E-04
  -8.81999969       5.38445660E-04
  -8.81000042       4.95342189E-04
  -8.80000019       4.53707180E-04
  -8.78999996       4.13669477E-04
  -8.77999973       3.75322154E-04
  -8.77000046       3.38770828E-04
  -8.76000023       3.04161164E-04
  -8.75000000       2.71678087E-04
  -8.73999977       2.41521353E-04
  -8.72999954       2.13864871E-04
  -8.72000027       1.88827980E-04
  -8.71000004       1.66464146E-04
  -8.69999981       1.46781706E-04
  -8.68999958       1.29789230E-04
  -8.68000031       1.15550705E-04
  -8.67000008       1.04227656E-04
  -8.65999985       9.60919060E-05
  -8.64999962       9.14970078E-05
  -8.64000034       9.08148140E-05
  -8.63000011       9.43512568E-05
  -8.61999989       1.02269179E-04
  -8.60999966       1.14536226E-04
  -8.60000038       1.30915505E-04
  -8.59000015       1.50999971E-04
  -8.57999992       1.74276400E-04
  -8.56999969       2.00197595E-04
  -8.56000042       2.28238438E-04
  -8.55000019       2.57925480E-04
  -8.53999996       2.88829178E-04
  -8.52999973       3.20533814E-04
  -8.52000046       3.52598698E-04
  -8.51000023       3.84532643E-04
  -8.50000000       4.15792572E-04
  -8.48999977       4.45811660E-04
  -8.47999954       4.74046392E-04
  -8.47000027       5.00026974E-04
  -8.46000004       5.23395604E-04
  -8.44999981       5.43916482E-04
  -8.43999958       5.61462482E-04
  -8.43000031       5.75981976E-04
  -8.42000008       5.87463495E-04
  -8.40999985       5.95916645E-04
  -8.39999962       6.01376232E-04
  -8.39000034       6.03928696E-04
  -8.38000011       6.03752385E-04
  -8.36999989       6.01156440E-04
  -8.35999966       5.96592668E-04
  -8.35000038       5.90640644E-04
  -8.34000015       5.83958405E-04
  -8.32999992       5.77216502E-04
  -8.31999969       5.71028504E-04
  -8.31000042       5.65899187E-04
  -8.30000019       5.62203932E-04
  -8.28999996       5.60198445E-04
  -8.27999973       5.60049841E-04
  -8.27000046       5.61875699E-04
  -8.26000023       5.65771479E-04
  -8.25000000       5.71815530E-04
  -8.23999977       5.80054475E-04
  -8.22999954       5.90478478E-04
  -8.22000027       6.02998945E-04
  -8.21000004       6.17446378E-04
  -8.19999981       6.33597723E-04
  -8.18999958       6.51223236E-04
  -8.18000031       6.70151087E-04
  -8.17000008       6.90313755E-04
  -8.15999985       7.11770670E-04
  -8.14999962       7.34693429E-04
  -8.14000034       7.59313058E-04
  -8.13000011       7.85854063E-04
  -8.11999989       8.14469066E-04
  -8.10999966       8.45202594E-04
  -8.10000038       8.77989572E-04
  -8.09000015       9.12694377E-04
  -8.07999992       9.49166133E-04
  -8.06999969       9.87294014E-04
  -8.06000042       1.02703564E-03
  -8.05000019       1.06840336E-03
  -8.03999996       1.11142127E-03
  -8.02999973       1.15605071E-03
  -8.02000046       1.20212988E-03
  -8.01000023       1.24933710E-03
  -8.00000000       1.29719719E-03
  -7.98999977       1.34512864E-03
  -7.98000002       1.39252248E-03
  -7.96999979       1.43881328E-03
  -7.96000004       1.48352946E-03
  -7.94999981       1.52630336E-03
  -7.94000006       1.56683894E-03
  -7.92999983       1.60485669E-03
  -7.92000008       1.64004031E-03
  -7.90999985       1.67201227E-03
  -7.90000010       1.70034403E-03
  -7.88999987       1.72461662E-03
  -7.88000011       1.74449268E-03
  -7.86999989       1.75978988E-03
  -7.86000013       1.77052000E-03
  -7.84999990       1.77688245E-03
  -7.84000015       1.77921006E-03
  -7.82999992       1.77789177E-03
  -7.82000017       1.77329092E-03
  -7.80999994       1.76570006E-03
  -7.80000019       1.75533153E-03
  -7.78999996       1.74235611E-03
  -7.78000021       1.72696321E-03
  -7.76999998       1.70941814E-03
  -7.76000023       1.69008982E-03
  -7.75000000       1.66943518E-03
  -7.73999977       1.64794340E-03
  -7.73000002       1.62606174E-03
  -7.71999979       1.60412060E-03
  -7.71000004       1.58230716E-03
  -7.69999981       1.56067510E-03
  -7.69000006       1.53920613E-03
  -7.67999983       1.51788804E-03
  -7.67000008       1.49679591E-03
  -7.65999985       1.47612707E-03
  -7.65000010       1.45619456E-03
  -7.63999987       1.43737090E-03
  -7.63000011       1.42000918E-03
  -7.61999989       1.40436611E-03
  -7.61000013       1.39055704E-03
  -7.59999990       1.37856207E-03
  -7.59000015       1.36827480E-03
  -7.57999992       1.35958230E-03
  -7.57000017       1.35244138E-03
  -7.55999994       1.34693086E-03
  -7.55000019       1.34325784E-03
  -7.53999996       1.34172163E-03
  -7.53000021       1.34265062E-03
  -7.51999998       1.34633947E-03
  -7.51000023       1.35300262E-03
  -7.50000000       1.36276451E-03
  -7.48999977       1.37568766E-03
  -7.48000002       1.39181898E-03
  -7.46999979       1.41124055E-03
  -7.46000004       1.43409183E-03
  -7.44999981       1.46056269E-03
  -7.44000006       1.49084756E-03