  -16.0000000       0.00000000    
  -15.9899998       0.00000000    
  -15.9799995       0.00000000    
  -15.9700003       0.00000000    
  -15.9600000       0.00000000    
  -15.9499998       0.00000000    
  -15.9399996       0.00000000    
  -15.9300003       0.00000000    
  -15.9200001       0.00000000    
  -15.9099998       0.00000000    
  -15.8999996       0.00000000    
  -15.8900003       0.00000000    
  -15.8800001       0.00000000    
  -15.8699999       1.89466763E-40
  -15.8599997       3.14295411E-39
  -15.8500004       2.33040993E-38
  -15.8400002       8.84566124E-38
  -15.8299999       4.54798339E-38
  -15.8199997      -1.58177207E-36
  -15.8100004      -1.11679246E-35
  -15.8000002      -4.58738507E-35
  -15.7900000      -1.31655448E-34
  -15.7799997      -2.61679254E-34
  -15.7700005      -2.76751365E-34
  -15.7600002       2.73363875E-34
  -15.7500000       1.91202238E-33
  -15.7399998       3.85098855E-33
  -15.7299995       8.45131949E-34
  -15.7200003      -1.99000761E-32
  -15.7100000      -7.45504042E-32
  -15.6999998      -1.59475769E-31
  -15.6899996      -2.06166005E-31
  -15.6800003      -4.87507717E-32
  -15.6700001       5.03155028E-31
  -15.6599998       1.38764343E-30
  -15.6499996       1.90244601E-30
  -15.6400003       7.75870611E-31
  -15.6300001      -2.26209030E-30
  -15.6199999      -2.92692338E-30
  -15.6099997       1.05428362E-29
  -15.6000004       5.11910735E-29
  -15.5900002       1.05321838E-28
  -15.5799999       7.93479707E-29
  -15.5699997      -2.43117624E-28
  -15.5600004      -1.12896810E-27
  -15.5500002      -2.54799106E-27
  -15.5400000      -3.46669046E-27
  -15.5299997      -1.07122602E-27
  -15.5200005       9.07233490E-27
  -15.5100002       3.01641952E-26
  -15.5000000       5.70582723E-26
  -15.4899998       6.59436133E-26
  -15.4799995       7.96359552E-27
  -15.4700003      -1.77968672E-25
  -15.4600000      -5.14052088E-25
  -15.4499998      -8.87084442E-25
  -15.4399996      -9.39323994E-25
  -15.4300003      -4.70434982E-26
  -15.4200001       2.44825191E-24
  -15.4099998       6.60186569E-24
  -15.3999996       1.08534915E-23
  -15.3900003       1.10986182E-23
  -15.3800001       8.83535751E-25
  -15.3699999      -2.58499116E-23
  -15.3599997      -6.84807880E-23
  -15.3500004      -1.10842934E-22
  -15.3400002      -1.14359865E-22
  -15.3299999      -2.19578881E-23
  -15.3199997       2.16712813E-22
  -15.3100004       5.93367996E-22
  -15.3000002       9.73161027E-22
  -15.2900000       1.04761435E-21
  -15.2799997       3.72013903E-22
  -15.2700005      -1.44319439E-21
  -15.2600002      -4.36011142E-21
  -15.2500000      -7.44458593E-21
  -15.2399998      -8.55309196E-21
  -15.2299995      -4.58349582E-21
  -15.2200003       7.28683596E-21
  -15.2100000       2.72352480E-20
  -15.1999998       4.98347691E-20
  -15.1899996       6.20062536E-20
  -15.1800003       4.42515035E-20
  -15.1700001      -2.24174234E-20
  -15.1599998      -1.43015030E-19
  -15.1499996      -2.91397764E-19
  -15.1400003      -3.97321913E-19
  -15.1300001      -3.50292094E-19
  -15.1199999      -3.32068717E-20
  -15.1099997       6.08769414E-19
  -15.1000004       1.47644894E-18
  -15.0900002       2.23960185E-18
  -15.0799999       2.33557465E-18
  -15.0699997       1.10938744E-18
  -15.0600004      -1.87013935E-18
  -15.0500002      -6.36186760E-18
  -15.0400000      -1.10298959E-17
  -15.0299997      -1.33177063E-17
  -15.0200005      -9.93016677E-18
  -15.0100002       1.87481313E-18
  -15.0000000       2.22923835E-17
  -14.9899998       4.68638448E-17
  -14.9799995       6.53521190E-17
  -14.9700003       6.29586752E-17
  -14.9600000       2.49437753E-17
  -14.9499998      -5.53856348E-17
  -14.9399996      -1.67203152E-16
  -14.9300003      -2.75211037E-16
  -14.9200001      -3.20651548E-16
  -14.9099998      -2.35255195E-16
  -14.8999996       3.02895938E-17
  -14.8900003       4.68224620E-16
  -14.8800001       9.78970293E-16
  -14.8699999       1.35952981E-15
  -14.8599997       1.33581013E-15
  -14.8500004       6.50886798E-16
  -14.8400002      -7.98929417E-16
  -14.8299999      -2.81686799E-15
  -14.8199997      -4.81162444E-15
  -14.8100004      -5.83376239E-15
  -14.8000002      -4.80331209E-15
  -14.7900000      -9.34278400E-16
  -14.7799997       5.72761646E-15
  -14.7700005       1.38382068E-14
  -14.7600002       2.06135818E-14
  -14.7500000       2.22612981E-14
  -14.7399998       1.51052233E-14
  -14.7299995      -2.72188024E-15
  -14.7200003      -2.94659079E-14
  -14.7100000      -5.85541476E-14
  -14.6999998      -7.88597567E-14
  -14.6899996      -7.70687835E-14
  -14.6800003      -4.22002894E-14
  -14.6700001       2.85687239E-14
  -14.6599998       1.24596676E-13
  -14.6499996       2.19473298E-13
  -14.6400003       2.74125395E-13
  -14.6300001       2.46621598E-13
  -14.6199999       1.07778139E-13
  -14.6099997      -1.41111596E-13
  -14.6000004      -4.54626354E-13
  -14.5900002      -7.40962847E-13
  -14.5799999      -8.76996067E-13
  -14.5699997      -7.42244807E-13
  -14.5600004      -2.66524866E-13
  -14.5500002       5.21483464E-13
  -14.5400000       1.46312790E-12
  -14.5299997       2.27520650E-12
  -14.5200005       2.60454787E-12
  -14.5100002       2.13065806E-12
  -14.5000000       6.96668363E-13
  -14.4899998      -1.56923595E-12
  -14.4799995      -4.19028397E-12
  -14.4700003      -6.38024529E-12
  -14.4600000      -7.20831467E-12
  -14.4499998      -5.87529461E-12
  -14.4399996      -2.04129010E-12
  -14.4300003       3.89382276E-12
  -14.4200001       1.06719269E-11
  -14.4099998       1.63155565E-11
  -14.3999996       1.85596018E-11
  -14.3900003       1.55204009E-11
  -14.3800001       6.44746366E-12
  -14.3699999      -7.67220055E-12
  -14.3599997      -2.39050550E-11
  -14.3500004      -3.77425105E-11
  -14.3400002      -4.40969344E-11
  -14.3299999      -3.87664345E-11
  -14.3199997      -2.00194791E-11
  -14.3100004       1.01848521E-11
  -14.3000002       4.58278103E-11
  -14.2900000       7.76460771E-11
  -14.2799997       9.51617049E-11
  -14.2700005       8.95784835E-11
  -14.2600002       5.68360671E-11
  -14.2500000      -8.76653012E-14
  -14.2399998      -7.04998143E-11
  -14.2299995      -1.37487660E-10
  -14.2200003      -1.81565193E-10
  -14.2100000      -1.85790772E-10
  -14.1999998      -1.41091874E-10
  -14.1899996      -5.02548940E-11
  -14.1800003       7.08277534E-11
  -14.1700001       1.95449754E-10
  -14.1599998       2.91794894E-10
  -14.1499996       3.30875216E-10
  -14.1400003       2.94716085E-10
  -14.1300001       1.82472301E-10
  -14.1199999       1.24971379E-11
  -14.1099997      -1.80625070E-10
  -14.1000004      -3.53693214E-10
  -14.0900002      -4.65356420E-10
  -14.0799999      -4.86650831E-10
  -14.0699997      -4.08632378E-10
  -14.0600004      -2.44808340E-10
  -14.0500002      -2.75680468E-11
  -14.0400000       2.00412437E-10
  -14.0299997       3.97178401E-10
  -14.0200005       5.31508670E-10
  -14.0100002       5.88773363E-10
  -14.0000000       5.70868963E-10
  -13.9899998       4.90548768E-10
  -13.9799995       3.62602920E-10
  -13.9700003       1.95710864E-10
  -13.9600000      -1.10981085E-11
  -13.9499998      -2.64962358E-10
  -13.9399996      -5.68865011E-10
  -13.9300003      -9.07768860E-10
  -13.9200001      -1.23680732E-09
  -13.9099998      -1.47784907E-09
  -13.8999996      -1.52921276E-09
  -13.8900003      -1.28950450E-09
  -13.8800001      -6.91721291E-10
  -13.8699999       2.61065475E-10
  -13.8599997       1.46992440E-09
  -13.8500004       2.73539724E-09
  -13.8400002       3.78109588E-09
  -13.8299999       4.30565228E-09
  -13.8199997       4.05455092E-09
  -13.8100004       2.89586466E-09
  -13.8000002       8.79778472E-10
  -13.7900000      -1.73724235E-09
  -13.7799997      -4.51602089E-09
  -13.7700005      -6.90720148E-09
  -13.7600002      -8.36099368E-09
  -13.7500000      -8.45105319E-09
  -13.7399998      -6.98292979E-09
  -13.7299995      -4.05883016E-09
  -13.7200003      -7.91488611E-11
  -13.7100000       4.32363967E-09
  -13.6999998       8.40607051E-09
  -13.6899996       1.14619318E-08
  -13.6800003       1.29619764E-08
  -13.6700001       1.26504673E-08
  -13.6599998       1.05755529E-08
  -13.6499996       7.04844494E-09
  -13.6400003       2.54724752E-09
  -13.6300001      -2.40290010E-09
  -13.6199999      -7.33422612E-09
  -13.6099997      -1.18913190E-08
  -13.6000004      -1.58200457E-08
  -13.5900002      -1.88975537E-08
  -13.5799999      -2.08344719E-08
  -13.5699997      -2.11971596E-08
  -13.5600004      -1.93990441E-08
  -13.5500002      -1.47940398E-08
  -13.5400000      -6.87540425E-09
  -13.5299997       4.45557191E-09
  -13.5200005       1.86212290E-08
  -13.5100002       3.41890534E-08
  -13.5000000       4.88691967E-08
  -13.4899998       5.97435701E-08
  -13.4799995       6.37281090E-08
  -13.4700003       5.82087232E-08
  -13.4600000       4.17299582E-08
  -13.4499998       1.45806984E-08
  -13.4399996      -2.08799200E-08
  -13.4300003      -6.02767045E-08
  -13.4200001      -9.76990648E-08
  -13.4099998      -1.26563819E-07
  -13.3999996      -1.40724168E-07
  -13.3900003      -1.35623907E-07
  -13.3800001      -1.09269990E-07
  -13.3699999      -6.28250305E-08
  -13.3599997      -6.88028412E-10
  -13.3500004       6.99636828E-08
  -13.3400002       1.40095437E-07
  -13.3299999       2.00033284E-07
  -13.3199997       2.40772295E-07
  -13.3100004       2.55164593E-07
  -13.3000002       2.38828903E-07
  -13.2900000       1.90700035E-07
  -13.2799997       1.13206426E-07
  -13.2700005       1.21406529E-08
  -13.2600002      -1.03705091E-07
  -13.2500000      -2.23077805E-07
  -13.2399998      -3.32957399E-07
  -13.2299995      -4.19449293E-07
  -13.2200003      -4.68930864E-07
  -13.2100000      -4.69508137E-07
  -13.1999998      -4.12746886E-07
  -13.1899996      -2.95536722E-07
  -13.1800003      -1.21802785E-07
  -13.1700001       9.63227720E-08
  -13.1599998       3.38294939E-07
  -13.1499996       5.76277273E-07
  -13.1400003       7.77748255E-07
  -13.1300001       9.09488847E-07
  -13.1199999       9.42524878E-07
  -13.1099997       8.57292832E-07
  -13.1000004       6.48126559E-07
  -13.0900002       3.26164866E-07
  -13.0799999      -8.00875029E-08
  -13.0699997      -5.26893416E-07
  -13.0600004      -9.60054422E-07
  -13.0500002      -1.32170715E-06
  -13.0400000      -1.55819066E-06
  -13.0299997      -1.62775098E-06
  -13.0200005      -1.50688641E-06
  -13.0100002      -1.19432787E-06
  -13.0000000      -7.12130259E-07
  -12.9899998      -1.03741563E-07
  -12.9799995       5.70503914E-07
  -12.9700003       1.23977406E-06
  -12.9600000       1.83006978E-06
  -12.9499998       2.27167538E-06
  -12.9399996       2.50599032E-06
  -12.9300003       2.49137338E-06
  -12.9200001       2.20769789E-06
  -12.9099998       1.65959739E-06
  -12.8999996       8.78217804E-07
  -12.8900003      -7.87336631E-08
  -12.8800001      -1.12902933E-06
  -12.8699999      -2.17054844E-06
  -12.8599997      -3.08881158E-06
  -12.8500004      -3.76750268E-06
  -12.8400002      -4.10145412E-06
  -12.8299999      -4.01094212E-06
  -12.8199997      -3.45540730E-06
  -12.8100004      -2.44456078E-06
  -12.8000002      -1.04439266E-06
  -12.7900000       6.23647509E-07
  -12.7799997       2.39127849E-06
  -12.7700005       4.05965829E-06
  -12.7600002       5.42169164E-06
  -12.7500000       6.28765338E-06
  -12.7399998       6.51061509E-06
  -12.7299995       6.00804242E-06
  -12.7200003       4.77621643E-06
  -12.7100000       2.89533773E-06
  -12.6999998       5.24479788E-07
  -12.6899996      -2.11289057E-06
  -12.6800003      -4.75096203E-06
  -12.6700001      -7.10817267E-06
  -12.6599998      -8.91536729E-06
  -12.6499996      -9.94228594E-06
  -12.6400003      -1.00203115E-05
  -12.6300001      -9.05976503E-06
  -12.6199999      -7.06087576E-06
  -12.6099997      -4.11849260E-06
  -12.6000004      -4.20297823E-07
  -12.5900002       3.76129287E-06
  -12.5799999       8.08363893E-06
  -12.5699997       1.21549256E-05
  -12.5600004       1.55615271E-05
  -12.5500002       1.79012568E-05
  -12.5400000       1.88201957E-05
  -12.5299997       1.80514235E-05
  -12.5200005       1.54506597E-05
  -12.5100002       1.10253231E-05
  -12.5000000       4.95218455E-06
  -12.4899998      -2.41992598E-06
  -12.4799995      -1.05841691E-05
  -12.4700003      -1.89067268E-05
  -12.4600000      -2.66721090E-05
  -12.4499998      -3.31382544E-05
  -12.4399996      -3.75959498E-05
  -12.4300003      -3.94255148E-05
  -12.4200001      -3.81456739E-05
  -12.4099998      -3.34491087E-05
  -12.3999996      -2.52236314E-05
  -12.3900003      -1.35573982E-05
  -12.3800001       1.26974805E-06
  -12.3699999       1.88060803E-05
  -12.3599997       3.84556042E-05
  -12.3500004       5.95105594E-05
  -12.3400002       8.11866485E-05
  -12.3299999       1.02658472E-04
  -12.3199997       1.23096092E-04
  -12.3100004       1.41700788E-04
  -12.3000002       1.57739079E-04
  -12.2900000       1.70576037E-04
  -12.2799997       1.79700190E-04
  -12.2700005       1.84744829E-04
  -12.2600002       1.85494893E-04
  -12.2500000       1.81883297E-04
  -12.2399998       1.73973152E-04
  -12.2299995       1.61926466E-04
  -12.2200003       1.45966129E-04
  -12.2100000       1.26332598E-04
  -12.1999998       1.03243496E-04
  -12.1899996       7.68632744E-05
  -12.1800003       4.72847678E-05
  -12.1700001       1.45298527E-05
  -12.1599998      -2.14359861E-05
  -12.1499996      -6.06725880E-05
  -12.1400003      -1.03224927E-04
  -12.1300001      -1.49079788E-04
  -12.1199999      -1.98123569E-04
  -12.1099997      -2.50106794E-04
  -12.1000004      -3.04619374E-04
  -12.0900002      -3.61073791E-04
  -12.0799999      -4.18702984E-04
  -12.0699997      -4.76563670E-04
  -12.0600004      -5.33548824E-04
  -12.0500002      -5.88406401E-04
  -12.0400000      -6.39764301E-04
  -12.0299997      -6.86159474E-04
  -12.0200005      -7.26079044E-04
  -12.0100002      -7.58007111E-04
  -12.0000000      -7.80479459E-04
  -11.9899998      -7.92147883E-04
  -11.9799995      -7.91844912E-04
  -11.9700003      -7.78650865E-04
  -11.9600000      -7.51944666E-04
  -11.9499998      -7.11453147E-04
  -11.9399996      -6.57269033E-04
  -11.9300003      -5.89856296E-04
  -11.9200001      -5.10026526E-04
  -11.9099998      -4.18900891E-04
  -11.8999996      -3.17849917E-04
  -11.8900003      -2.08426049E-04
  -11.8800001      -9.22909021E-05
  -11.8699999       2.88570573E-05
  -11.8599997       1.53351677E-04
  -11.8500004       2.79614411E-04
  -11.8400002       4.06203384E-04
  -11.8299999       5.31849742E-04
  -11.8199997       6.55478856E-04
  -11.8100004       7.76222500E-04
  -11.8000002       8.93414370E-04
  -11.7900000       1.00657588E-03
  -11.7799997       1.11538696E-03
  -11.7700005       1.21964724E-03
  -11.7600002       1.31922250E-03
  -11.7500000       1.41399342E-03
  -11.7399998       1.50379096E-03
  -11.7299995       1.58834108E-03
  -11.7200003       1.66721409E-03
  -11.7100000       1.73978263E-03
  -11.6999998       1.80519873E-03
  -11.6899996       1.86238356E-03
  -11.6800003       1.91004167E-03
  -11.6700001       1.94668362E-03
  -11.6599998       1.97067671E-03
  -11.6499996       1.98030216E-03
  -11.6400003       1.97382597E-03
  -11.6300001       1.94958074E-03
  -11.6199999       1.90604443E-03
  -11.6099997       1.84192311E-03
  -11.6000004       1.75621780E-03
  -11.5900002       1.64829241E-03
  -11.5799999       1.51791296E-03
  -11.5699997       1.36527547E-03
  -11.5600004       1.19101244E-03
  -11.5500002       9.96176735E-04
  -11.5400000       7.82214280E-04
  -11.5299997       5.50914556E-04
  -11.5200005       3.04360758E-04
  -11.5100002       4.48623396E-05
  -11.5000000      -2.25106749E-04
  -11.4899998      -5.02981944E-04
  -11.4799995      -7.86175951E-04
  -11.4700003      -1.07214844E-03
  -11.4600000      -1.35848043E-03
  -11.4499998      -1.64293952E-03
  -11.4399996      -1.92354457E-03
  -11.4300003      -2.19861674E-03
  -11.4200001      -2.46682460E-03
  -11.4099998      -2.72719911E-03
  -11.3999996      -2.97914003E-03
  -11.3900003      -3.22239078E-03
  -11.3800001      -3.45699838E-03
  -11.3699999      -3.68324830E-03
  -11.3599997      -3.90159944E-03
  -11.3500004      -4.11260128E-03
  -11.3400002      -4.31681704E-03
  -11.3299999      -4.51475661E-03
  -11.3199997      -4.70681209E-03
  -11.3100004      -4.89320653E-03
  -11.3000002      -5.07396273E-03
  -11.2900000      -5.24886977E-03
  -11.2799997      -5.41747315E-03
  -11.2700005      -5.57906227E-03
  -11.2600002      -5.73268346E-03
  -11.2500000      -5.87715581E-03
  -11.2399998      -6.01109909E-03
  -11.2299995      -6.13298733E-03
  -11.2200003      -6.24120282E-03
  -11.2100000      -6.33411668E-03
  -11.1999998      -6.41016709E-03
  -11.1899996      -6.46794261E-03
  -11.1800003      -6.50628144E-03
  -11.1700001      -6.52432581E-03
  -11.1599998      -6.52159797E-03
  -11.1499996      -6.49804389E-03
  -11.1400003      -6.45404728E-03
  -11.1300001      -6.39044074E-03
  -11.1199999      -6.30847784E-03
  -11.1099997      -6.20980142E-03
  -11.1000004      -6.09638030E-03
  -11.0900002      -5.97044500E-03
  -11.0799999      -5.83438668E-03
  -11.0699997      -5.69068640E-03
  -11.0600004      -5.54179261E-03
  -11.0500002      -5.39003639E-03
  -11.0400000      -5.23752207E-03
  -11.0299997      -5.08605083E-03
  -11.0200005      -4.93704248E-03
  -11.0100002      -4.79149446E-03
  -11.0000000      -4.64994321E-03
  -10.9899998      -4.51245997E-03
  -10.9799995      -4.37867921E-03
  -10.9700003      -4.24782652E-03
  -10.9600000      -4.11877595E-03
  -10.9499998      -3.99011932E-03
  -10.9399996      -3.86024243E-03
  -10.9300003      -3.72740254E-03
  -10.9200001      -3.58981011E-03
  -10.9099998      -3.44570540E-03
  -10.8999996      -3.29343672E-03
  -10.8900003      -3.13151744E-03
  -10.8800001      -2.95869750E-03
  -10.8699999      -2.77398061E-03
  -10.8599997      -2.57667596E-03
  -10.8500004      -2.36639054E-03
  -10.8400002      -2.14302773E-03
  -10.8299999      -1.90676108E-03
  -10.8199997      -1.65799586E-03
  -10.8100004      -1.39731856E-03
  -10.8000002      -1.12544594E-03
  -10.7900000      -8.43173824E-04
  -10.7799997      -5.51323348E-04
  -10.7700005      -2.50706362E-04
  -10.7600002       5.79086445E-05
  -10.7500000       3.73813964E-04
  -10.7399998       6.96381205E-04
  -10.7299995       1.02507253E-03
  -10.7200003       1.35945971E-03
  -10.7100000       1.69923622E-03
  -10.6999998       2.04424560E-03
  -10.6899996       2.39450741E-03
  -10.6800003       2.75022350E-03
  -10.6700001       3.11180507E-03
  -10.6599998       3.47985397E-03
  -10.6499996       3.85513483E-03
  -10.6400003       4.23852960E-03
  -10.6300001       4.63096891E-03
  -10.6199999       5.03335288E-03
  -10.6099997       5.44647546E-03
  -10.6000004       5.87095134E-03
  -10.5900002       6.30717957E-03
  -10.5799999       6.75531244E-03
  -10.5699997       7.21526193E-03
  -10.5600004       7.68671464E-03
  -10.5500002       8.16915929E-03
  -10.5400000       8.66193604E-03
  -10.5299997       9.16424301E-03
  -10.5200005       9.67513863E-03
  -10.5100002       1.01935593E-02
  -10.5000000       1.07182683E-02
  -10.4899998       1.12478612E-02
  -10.4799995       1.17807388E-02
  -10.4700003       1.23150758E-02
  -10.4600000       1.28488606E-02
  -10.4499998       1.33799016E-02
  -10.4399996       1.39058689E-02
  -10.4300003       1.44243184E-02
  -10.4200001       1.49327451E-02
  -10.4099998       1.54286027E-02
  -10.3999996       1.59093253E-02
  -10.3900003       1.63723473E-02
  -10.3800001       1.68150906E-02
  -10.3699999       1.72349829E-02
  -10.3599997       1.76295061E-02
  -10.3500004       1.79961827E-02
  -10.3400002       1.83326770E-02
  -10.3299999       1.86368581E-02
  -10.3199997       1.89068988E-02
  -10.3100004       1.91413555E-02
  -10.3000002       1.93392523E-02
  -10.2900000       1.95001494E-02
  -10.2799997       1.96241997E-02
  -10.2700005       1.97121445E-02
  -10.2600002       1.97653081E-02
  -10.2500000       1.97855774E-02
  -10.2399998       1.97753403E-02
  -10.2299995       1.97374504E-02
  -10.2200003       1.96751822E-02
  -10.2100000       1.95921604E-02
  -10.1999998       1.94923729E-02
  -10.1899996       1.93800703E-02
  -10.1800003       1.92597434E-02
  -10.1700001       1.91360228E-02
  -10.1599998       1.90136284E-02
  -10.1499996       1.88971758E-02
  -10.1400003       1.87911279E-02
  -10.1300001       1.86995510E-02
  -10.1199999       1.86260715E-02
  -10.1099997       1.85737051E-02
  -10.1000004       1.85448118E-02
  -10.0900002       1.85410269E-02
  -10.0799999       1.85632799E-02
  -10.0699997       1.86118409E-02
  -10.0600004       1.86863504E-02
  -10.0500002       1.87859088E-02
  -10.0400000       1.89091358E-02
  -10.0299997       1.90542284E-02
  -10.0200005       1.92190465E-02
  -10.0100002       1.94011088E-02
  -10.0000000       1.95976812E-02
  -9.98999977       1.98058095E-02
  -9.97999954       2.00224221E-02
  -9.97000027       2.02444308E-02
  -9.96000004       2.04687845E-02
  -9.94999981       2.06927322E-02
  -9.93999958       2.09137965E-02
  -9.93000031       2.11300682E-02
  -9.92000008       2.13402323E-02
  -9.90999985       2.15437226E-02
  -9.89999962       2.17407569E-02
  -9.89000034       2.19323281E-02
  -9.88000011       2.21202988E-02
  -9.86999989       2.23072451E-02
  -9.85999966       2.24963892E-02
  -9.85000038       2.26915553E-02
  -9.84000015       2.28969119E-02
  -9.82999992       2.31169648E-02
  -9.81999969       2.33563110E-02
  -9.81000042       2.36195419E-02
  -9.80000019       2.39111371E-02
  -9.78999996       2.42353063E-02
  -9.77999973       2.45958939E-02
  -9.77000046       2.49963701E-02
  -9.76000023       2.54396703E-02
  -9.75000000       2.59281732E-02
  -9.73999977       2.64636055E-02
  -9.72999954       2.70470697E-02
  -9.72000027       2.76789013E-02
  -9.71000004       2.83587053E-02
  -9.69999981       2.90851947E-02
  -9.68999958       2.98563540E-02
  -9.68000031       3.06692962E-02
  -9.67000008       3.15203667E-02
  -9.65999985       3.24050672E-02
  -9.64999962       3.33181471E-02
  -9.64000034       3.42537723E-02
  -9.63000011       3.52053419E-02
  -9.61999989       3.61658260E-02
  -9.60999966       3.71276997E-02
  -9.60000038       3.80830877E-02
  -9.59000015       3.90239432E-02
  -9.57999992       3.99420001E-02
  -9.56999969       4.08290103E-02
  -9.56000042       4.16768230E-02
  -9.55000019       4.24774885E-02
  -9.53999996       4.32233587E-02
  -9.52999973       4.39072624E-02
  -9.52000046       4.45225127E-02
  -9.51000023       4.50631566E-02
  -9.50000000       4.55240607E-02
  -9.48999977       4.59010117E-02
  -9.47999954       4.61909398E-02
  -9.47000027       4.63919006E-02
  -9.46000004       4.65031862E-02
  -9.44999981       4.65256721E-02
  -9.43999958       4.64616008E-02
  -9.43000031       4.63147499E-02
  -9.42000008       4.60904315E-02
  -9.40999985       4.57955487E-02
  -9.39999962       4.54384685E-02
  -9.39000034       4.50288206E-02
  -9.38000011       4.45775725E-02
  -9.36999989       4.40967306E-02
  -9.35999966       4.35992181E-02
  -9.35000038       4.30985801E-02
  -9.34000015       4.26089093E-02
  -9.32999992       4.21447046E-02
  -9.31999969       4.17205654E-02
  -9.31000042       4.13512401E-02
  -9.30000019       4.10512388E-02
  -9.28999996       4.08350006E-02
  -9.27999973       4.07163873E-02
  -9.27000046       4.07087952E-02
  -9.26000023       4.08247411E-02
  -9.25000000       4.10759337E-02
  -9.23999977       4.14728858E-02
  -9.22999954       4.20250036E-02
  -9.22000027       4.27402370E-02
  -9.21000004       4.36252244E-02
  -9.19999981       4.46848720E-02
  -9.18999958       4.59227748E-02
  -9.18000031       4.73406501E-02
  -9.17000008       4.89386320E-02
  -9.15999985       5.07151634E-02
  -9.14999962       5.26668392E-02
  -9.14000034       5.47884963E-02
  -9.13000011       5.70732877E-02
  -9.11999989       5.95126078E-02
  -9.10999966       6.20963052E-02
  -9.10000038       6.48124740E-02
  -9.09000015       6.76478669E-02
  -9.07999992       7.05878288E-02
  -9.06999969       7.36163557E-02
  -9.06000042       7.67164379E-02
  -9.05000019       7.98700377E-02
  -9.03999996       8.30582231E-02
  -9.02999973       8.62615705E-02
  -9.02000046       8.94600824E-02
  -9.01000023       9.26335901E-02
  -9.00000000       9.57619771E-02
  -8.98999977       9.88250598E-02
  -8.97999954      0.101802781    
  -8.97000027      0.104675606    
  -8.96000004      0.107424401    
  -8.94999981      0.110030554    
  -8.93999958      0.112476356    
  -8.93000031      0.114744797    
  -8.92000008      0.116820157    
  -8.90999985      0.118687913    
  -8.89999962      0.120334730    
  -8.89000034      0.121749125    
  -8.88000011      0.122920707    
  -8.86999989      0.123841181    
  -8.85999966      0.124503523    
  -8.85000038      0.124902830    
  -8.84000015      0.125035793    
  -8.82999992      0.124901123    
  -8.81999969      0.124499559    
  -8.81000042      0.123833649    
  -8.80000019      0.122907855    
  -8.78999996      0.121729016    
  -8.77999973      0.120305173    
  -8.77000046      0.118646219    
  -8.76000023      0.116763629    
  -8.75000000      0.114670046    
  -8.73999977      0.112379365    
  -8.72999954      0.109906666    
  -8.72000027      0.107267827    
  -8.71000004      0.104479507    
  -8.69999981      0.101559170    
  -8.68999958       9.85245556E-02
  -8.68000031       9.53939632E-02
  -8.67000008       9.21850950E-02
  -8.65999985       8.89160261E-02
  -8.64999962       8.56042430E-02
  -8.64000034       8.22664648E-02
  -8.63000011       7.89189190E-02
  -8.61999989       7.55766630E-02
  -8.60999966       7.22541213E-02
  -8.60000038       6.89641833E-02
  -8.59000015       6.57190606E-02
  -8.57999992       6.25291690E-02
  -8.56999969       5.94041310E-02
  -8.56000042       5.63518666E-02
  -8.55000019       5.33793233E-02
  -8.53999996       5.04922867E-02
  -8.52999973       4.76951785E-02
  -8.52000046       4.49919552E-02
  -8.51000023       4.23852019E-02
  -8.50000000       3.98769751E-02
  -8.48999977       3.74681763E-02
  -8.47999954       3.51590440E-02
  -8.47000027       3.29490900E-02
  -8.46000004       3.08361985E-02
  -8.44999981       2.88181007E-02
  -8.43999958       2.68915780E-02
  -8.43000031       2.50526201E-02
  -8.42000008       2.32969895E-02
  -8.40999985       2.16204766E-02
  -8.39999962       2.00191159E-02
  -8.39000034       1.84887461E-02
  -8.38000011       1.70261301E-02
  -8.36999989       1.56282447E-02
  -8.35999966       1.42933736E-02
  -8.35000038       1.30200423E-02
  -8.34000015       1.18076820E-02
  -8.32999992       1.06566735E-02
  -8.31999969       9.56884585E-03
  -8.31000042       8.54640268E-03
  -8.30000019       7.59295281E-03
  -8.28999996       6.71274634E-03
  -8.27999973       5.91141498E-03
  -8.27000046       5.19503979E-03
  -8.26000023       4.57053632E-03
  -8.25000000       4.04538726E-03
  -8.23999977       3.62747558E-03
  -8.22999954       3.32498108E-03
  -8.22000027       3.14711453E-03
  -8.21000004       3.10271746E-03
  -8.19999981       3.20154405E-03
  -8.18999958       3.45291640E-03
  -8.18000031       3.86713468E-03
  -8.17000008       4.45396453E-03
  -8.15999985       5.22308890E-03
  -8.14999962       6.18438143E-03
  -8.14000034       7.34695466E-03
  -8.13000011       8.71946197E-03
  -8.11999989       1.03099579E-02
  -8.10999966       1.21255144E-02
  -8.10000038       1.41723268E-02
  -8.09000015       1.64556131E-02
  -8.07999992       1.89793464E-02
  -8.06999969       2.17457451E-02
  -8.06000042       2.47561838E-02
  -8.05000019       2.80104205E-02
  -8.03999996       3.15063745E-02
  -8.02999973       3.52410264E-02
  -8.02000046       3.92100848E-02
  -8.01000023       4.34080027E-02
  -8.00000000       4.78277020E-02
  -7.98999977       5.24614938E-02
  -7.98000002       5.73003069E-02
  -7.96999979       6.23337068E-02
  -7.96000004       6.75501674E-02
  -7.94999981       7.29373991E-02
  -7.94000006       7.84809738E-02
  -7.92999983       8.41666460E-02
  -7.92000008       8.99784341E-02
  -7.90999985       9.59006473E-02
  -7.90000010      0.101916291    
  -7.88999987      0.108008802    
  -7.88000011      0.114160560    
  -7.86999989      0.120354690    
  -7.86000013      0.126573727    
  -7.84999990      0.132800505    
  -7.84000015      0.139017373    
  -7.82999992      0.145207420    
  -7.82000017      0.151354566    
  -7.80999994      0.157442614    
  -7.80000019      0.163456395    
  -7.78999996      0.169382155    
  -7.78000021      0.175206661    
  -7.76999998      0.180918083    
  -7.76000023      0.186505184    
  -7.75000000      0.191958860    
  -7.73999977      0.197270125    
  -7.73000002      0.202431753    
  -7.71999979      0.207438633    
  -7.71000004      0.212286264    
  -7.69999981      0.216972291    
  -7.69000006      0.221495599    
  -7.67999983      0.225856528    
  -7.67000008      0.230056494    
  -7.65999985      0.234098077    
  -7.65000010      0.237984911    
  -7.63999987      0.241721213    
  -7.63000011      0.245312274    
  -7.61999989      0.248764247    
  -7.61000013      0.252084464    
  -7.59999990      0.255281419    
  -7.59000015      0.258364171    
  -7.57999992      0.261342883    
  -7.57000017      0.264228374    
  -7.55999994      0.267031938    
  -7.55000019      0.269764662    
  -7.53999996      0.272438198    
  -7.53000021      0.275064737    
  -7.51999998      0.277655333    
  -7.51000023      0.280222446    
  -7.50000000      0.282776862    
  -7.48999977      0.285331249    
  -7.48000002      0.287896484    
  -7.46999979      0.290483952    
  -7.46000004      0.293103606    
  -7.44999981      0.295765191    
  -7.44000006      0.298477888    