  -16.0000000       0.00000000    
  -15.9899998       0.00000000    
  -15.9799995       0.00000000    
  -15.9700003       0.00000000    
  -15.9600000       0.00000000    
  -15.9499998       0.00000000    
  -15.9399996       0.00000000    
  -15.9300003       0.00000000    
  -15.9200001       0.00000000    
  -15.9099998       0.00000000    
  -15.8999996       0.00000000    
  -15.8900003       0.00000000    
  -15.8800001      -2.16220353E-42
  -15.8699999      -2.91357977E-41
  -15.8599997      -4.82915477E-41
  -15.8500004       2.18413946E-39
  -15.8400002       2.89760721E-38
  -15.8299999       2.14065806E-37
  -15.8199997       1.13309801E-36
  -15.8100004       4.67185751E-36
  -15.8000002       1.55715564E-35
  -15.7900000       4.24825868E-35
  -15.7799997       9.36206921E-35
  -15.7700005       1.55368635E-34
  -15.7600002       1.34762839E-34
  -15.7500000      -2.53479033E-34
  -15.7399998      -1.65212664E-33
  -15.7299995      -5.19893931E-33
  -15.7200003      -1.23624052E-32
  -15.7100000      -2.37923715E-32
  -15.6999998      -3.58741774E-32
  -15.6899996      -3.33644588E-32
  -15.6800003       2.16619173E-32
  -15.6700001       1.96891566E-31
  -15.6599998       5.69651004E-31
  -15.6499996       1.13877266E-30
  -15.6400003       1.63475905E-30
  -15.6300001       1.27745466E-30
  -15.6199999      -1.26673387E-30
  -15.6099997      -7.20838263E-30
  -15.6000004      -1.56743614E-29
  -15.5900002      -2.06355885E-29
  -15.5799999      -8.94559401E-30
  -15.5699997       3.53052901E-29
  -15.5600004       1.13534016E-28
  -15.5500002       1.81324041E-28
  -15.5400000       1.19482924E-28
  -15.5299997      -2.47373544E-28
  -15.5200005      -1.01849502E-27
  -15.5100002      -1.93289045E-27
  -15.5000000      -2.02382130E-27
  -15.4899998       4.57593684E-28
  -15.4799995       7.27460025E-27
  -15.4700003       1.80573296E-26
  -15.4600000       2.69792494E-26
  -15.4499998       2.01596609E-26
  -15.4399996      -2.20731232E-26
  -15.4300003      -1.12812816E-25
  -15.4200001      -2.33747128E-25
  -15.4099998      -3.05203209E-25
  -15.3999996      -1.74549810E-25
  -15.3900003       3.38322622E-25
  -15.3800001       1.30191336E-24
  -15.3699999       2.44492410E-24
  -15.3599997       2.93538850E-24
  -15.3500004       1.38552078E-24
  -15.3400002      -3.62230886E-24
  -15.3299999      -1.22880737E-23
  -15.3199997      -2.18185831E-23
  -15.3100004      -2.50242109E-23
  -15.3000002      -1.09648968E-23
  -15.2900000       3.04152043E-23
  -15.2799997       9.87923770E-23
  -15.2700005       1.71253145E-22
  -15.2600002       1.94186682E-22
  -15.2500000       9.04634069E-23
  -15.2399998      -2.06669036E-22
  -15.2299995      -6.89993839E-22
  -15.2200003      -1.20179246E-21
  -15.2100000      -1.38869872E-21
  -15.1999998      -7.54848959E-22
  -15.1899996       1.12402617E-21
  -15.1800003       4.21743811E-21
  -15.1700001       7.59393404E-21
  -15.1599998       9.16706112E-21
  -15.1499996       6.00037261E-21
  -15.1400003      -4.50090661E-21
  -15.1300001      -2.24858322E-20
  -15.1199999      -4.32125808E-20
  -15.1099997      -5.55861171E-20
  -15.1000004      -4.35456244E-20
  -15.0900002       8.04016163E-21
  -15.0799999       1.02782930E-19
  -15.0699997       2.20158876E-19
  -15.0600004       3.07109388E-19
  -15.0500002       2.82725293E-19
  -15.0400000       6.41382470E-20
  -15.0299997      -3.84623966E-19
  -15.0200005      -9.91624118E-19
  -15.0100002      -1.53065099E-18
  -15.0000000      -1.62880186E-18
  -14.9899998      -8.66177836E-19
  -14.9799995       1.01855340E-18
  -14.9700003       3.85378526E-18
  -14.9600000       6.79621600E-18
  -14.9499998       8.28952682E-18
  -14.9399996       6.39009100E-18
  -14.9300003      -4.52219176E-19
  -14.9200001      -1.22581152E-17
  -14.9099998      -2.63927310E-17
  -14.8999996      -3.70635843E-17
  -14.8900003      -3.61458572E-17
  -14.8800001      -1.58114747E-17
  -14.8699999       2.71916303E-17
  -14.8599997       8.67275579E-17
  -14.8500004       1.44054668E-16
  -14.8400002       1.68889741E-16
  -14.8299999       1.26985657E-16
  -14.8199997      -5.41931142E-18
  -14.8100004      -2.23132989E-16
  -14.8000002      -4.76126908E-16
  -14.7900000      -6.65600078E-16
  -14.7799997      -6.61162208E-16
  -14.7700005      -3.43559263E-16
  -14.7600002       3.32281178E-16
  -14.7500000       1.27178969E-15
  -14.7399998       2.20218275E-15
  -14.7299995       2.69408104E-15
  -14.7200003       2.26731005E-15
  -14.7100000       5.79384300E-16
  -14.6999998      -2.34337658E-15
  -14.6899996      -5.91298539E-15
  -14.6800003      -8.93184215E-15
  -14.6700001      -9.78768593E-15
  -14.6599998      -6.93278341E-15
  -14.6499996       4.14913954E-16
  -14.6400003       1.15389088E-14
  -14.6300001       2.37582476E-14
  -14.6199999       3.25595704E-14
  -14.6099997       3.25641715E-14
  -14.6000004       1.93282449E-14
  -14.5900002      -8.37552785E-15
  -14.5799999      -4.65107689E-14
  -14.5699997      -8.49124305E-14
  -14.5600004      -1.08497277E-13
  -14.5500002      -1.00998684E-13
  -14.5400000      -5.08542149E-14
  -14.5299997       4.21492302E-14
  -14.5200005       1.61766691E-13
  -14.5100002       2.74379288E-13
  -14.5000000       3.34391477E-13
  -14.4899998       2.96477090E-13
  -14.4799995       1.32782443E-13
  -14.4700003      -1.49455711E-13
  -14.4600000      -4.96360331E-13
  -14.4499998      -8.08624977E-13
  -14.4399996      -9.59940677E-13
  -14.4300003      -8.32352199E-13
  -14.4200001      -3.61901129E-13
  -14.4099998       4.18271510E-13
  -14.3999996       1.35382710E-12
  -14.3900003       2.17950137E-12
  -14.3800001       2.57206387E-12
  -14.3699999       2.24188897E-12
  -14.3599997       1.04403227E-12
  -14.3500004      -9.23355359E-13
  -14.3400002      -3.27136755E-12
  -14.3299999      -5.35590062E-12
  -14.3199997      -6.41032063E-12
  -14.3100004      -5.76015321E-12
  -14.3000002      -3.07245744E-12
  -14.2900000       1.43287790E-12
  -14.2799997       6.89063607E-12
  -14.2700005       1.18803257E-11
  -14.2600002       1.47197341E-11
  -14.2500000       1.39218932E-11
  -14.2399998       8.71195737E-12
  -14.2299995      -5.45114626E-13
  -14.2200003      -1.21634014E-11
  -14.2100000      -2.33181720E-11
  -14.1999998      -3.06206831E-11
  -14.1899996      -3.09986516E-11
  -14.1800003      -2.26808017E-11
  -14.1700001      -6.00869875E-12
  -14.1599998       1.62055161E-11
  -14.1499996       3.89747783E-11
  -14.1400003       5.61261281E-11
  -14.1300001       6.18220405E-11
  -14.1199999       5.22647620E-11
  -14.1099997       2.71199469E-11
  -14.1000004      -9.79793763E-12
  -14.0900002      -5.08915236E-11
  -14.0799999      -8.62515129E-11
  -14.0699997      -1.05974049E-10
  -14.0600004      -1.02787771E-10
  -14.0500002      -7.42974363E-11
  -14.0400000      -2.41798248E-11
  -14.0299997       3.81077774E-11
  -14.0200005       9.91696308E-11
  -14.0100002       1.44697060E-10
  -14.0000000       1.62949501E-10
  -13.9899998       1.47784271E-10
  -13.9799995       1.00400487E-10
  -13.9700003       2.92807133E-11
  -13.9600000      -5.17005293E-11
  -13.9499998      -1.26518032E-10
  -13.9399996      -1.80712667E-10
  -13.9300003      -2.04570333E-10
  -13.9200001      -1.94912253E-10
  -13.9099998      -1.55072649E-10
  -13.8999996      -9.32016062E-11
  -13.8900003      -1.95516416E-11
  -13.8800001       5.62853618E-11
  -13.8699999       1.27241245E-10
  -13.8599997       1.89132918E-10
  -13.8500004       2.39494952E-10
  -13.8400002       2.75470258E-10
  -13.8299999       2.91782765E-10
  -13.8199997       2.79905099E-10
  -13.8100004       2.29213648E-10
  -13.8000002       1.30258346E-10
  -13.7900000      -2.05333719E-11
  -13.7799997      -2.16095197E-10
  -13.7700005      -4.35609465E-10
  -13.7600002      -6.44564513E-10
  -13.7500000      -7.98798416E-10
  -13.7399998      -8.52295456E-10
  -13.7299995      -7.67379549E-10
  -13.7200003      -5.25100852E-10
  -13.7100000      -1.33285397E-10
  -13.6999998       3.69946490E-10
  -13.6899996       9.18472354E-10
  -13.6800003       1.42627932E-09
  -13.6700001       1.80012594E-09
  -13.6599998       1.95454297E-09
  -13.6499996       1.82655857E-09
  -13.6400003       1.38776179E-09
  -13.6300001       6.52008392E-10
  -13.6199999      -3.22032789E-10
  -13.6099997      -1.43349577E-09
  -13.6000004      -2.54663846E-09
  -13.5900002      -3.50234308E-09
  -13.5799999      -4.13345136E-09
  -13.5699997      -4.28375690E-09
  -13.5600004      -3.83027388E-09
  -13.5500002      -2.70765299E-09
  -13.5400000      -9.32254163E-10
  -13.5299997       1.37820055E-09
  -13.5200005       3.99482714E-09
  -13.5100002       6.58346755E-09
  -13.5000000       8.73101058E-09
  -13.4899998       9.99398875E-09
  -13.4799995       9.96687799E-09
  -13.4700003       8.36221759E-09
  -13.4600000       5.08974596E-09
  -13.4499998       3.18456012E-10
  -13.4399996      -5.49483437E-09
  -13.4300003      -1.16235261E-08
  -13.4200001      -1.71422005E-08
  -13.4099998      -2.10472262E-08
  -13.3999996      -2.24134045E-08
  -13.3900003      -2.05636450E-08
  -13.3800001      -1.52229482E-08
  -13.3699999      -6.62702071E-09
  -13.3599997       4.43944170E-09
  -13.3500004       1.66895973E-08
  -13.3400002       2.84679018E-08
  -13.3299999       3.79568057E-08
  -13.3199997       4.34303686E-08
  -13.3100004       4.35194814E-08
  -13.3000002       3.74499791E-08
  -13.2900000       2.52176058E-08
  -13.2799997       7.67204877E-09
  -13.2700005      -1.35062805E-08
  -13.2600002      -3.59395358E-08
  -13.2500000      -5.67858010E-08
  -13.2399998      -7.30513676E-08
  -13.2299995      -8.19525923E-08
  -13.2200003      -8.12913825E-08
  -13.2100000      -6.98051039E-08
  -13.1999998      -4.74495714E-08
  -13.1899996      -1.55740629E-08
  -13.1800003       2.30485870E-08
  -13.1700001       6.43653095E-08
  -13.1599998       1.03373232E-07
  -13.1499996       1.34629218E-07
  -13.1400003       1.52903780E-07
  -13.1300001       1.53914911E-07
  -13.1199999       1.35051636E-07
  -13.1099997       9.59790611E-08
  -13.1000004       3.90152266E-08
  -13.0900002      -3.08136769E-08
  -13.0799999      -1.06096337E-07
  -13.0699997      -1.77741967E-07
  -13.0600004      -2.36011871E-07
  -13.0500002      -2.71761536E-07
  -13.0400000      -2.77732880E-07
  -13.0299997      -2.49714049E-07
  -13.0200005      -1.87390441E-07
  -13.0100002      -9.47472714E-08
  -13.0000000       2.00583283E-08
  -12.9899998       1.45364751E-07
  -12.9799995       2.67149971E-07
  -12.9700003       3.70526351E-07
  -12.9600000       4.41420923E-07
  -12.9499998       4.68255706E-07
  -12.9399996       4.43449466E-07
  -12.9300003       3.64583741E-07
  -12.9200001       2.35108402E-07
  -12.9099998       6.44990337E-08
  -12.8999996      -1.32185946E-07
  -12.8900003      -3.35361904E-07
  -12.8800001      -5.22560413E-07
  -12.8699999      -6.70578970E-07
  -12.8599997      -7.57998350E-07
  -12.8500004      -7.67857330E-07
  -12.8400002      -6.90205809E-07
  -12.8299999      -5.24205859E-07
  -12.8199997      -2.79431418E-07
  -12.8100004       2.39470648E-08
  -12.8000002       3.56311460E-07
  -12.7900000       6.81137067E-07
  -12.7799997       9.58786245E-07
  -12.7700005       1.15119497E-06
  -12.7600002       1.22690642E-06
  -12.7500000       1.16577166E-06
  -12.7399998       9.62615218E-07
  -12.7299995       6.29244767E-07
  -12.7200003       1.94379822E-07
  -12.7100000      -2.98641510E-07
  -12.6999998      -7.96203665E-07
  -12.6899996      -1.24031840E-06
  -12.6800003      -1.57537897E-06
  -12.6700001      -1.75491152E-06
  -12.6599998      -1.74747674E-06
  -12.6499996      -1.54099780E-06
  -12.6400003      -1.14500085E-06
  -12.6300001      -5.90532977E-07
  -12.6199999       7.22113853E-08
  -12.6099997       7.78275478E-07
  -12.6000004       1.45389174E-06
  -12.5900002       2.02344404E-06
  -12.5799999       2.41684506E-06
  -12.5699997       2.57673992E-06
  -12.5600004       2.46496279E-06
  -12.5500002       2.06771733E-06
  -12.5400000       1.39897747E-06
  -12.5299997       5.01675970E-07
  -12.5200005      -5.53660868E-07
  -12.5100002      -1.67300789E-06
  -12.5000000      -2.74561171E-06
  -12.4899998      -3.65307665E-06
  -12.4799995      -4.28009844E-06
  -12.4700003      -4.52583981E-06
  -12.4600000      -4.31476337E-06
  -12.4499998      -3.60563172E-06
  -12.4399996      -2.39750898E-06
  -12.4300003      -7.31900172E-07
  -12.4200001       1.30939134E-06
  -12.4099998       3.61054231E-06
  -12.3999996       6.03144690E-06
  -12.3900003       8.41979181E-06
  -12.3800001       1.06240504E-05
  -12.3699999       1.25059523E-05
  -12.3599997       1.39511330E-05
  -12.3500004       1.48769823E-05
  -12.3400002       1.52372122E-05
  -12.3299999       1.50230235E-05
  -12.3199997       1.42612125E-05
  -12.3100004       1.30097233E-05
  -12.3000002       1.13513406E-05
  -12.2900000       9.38614176E-06
  -12.2799997       7.22326058E-06
  -12.2700005       4.97243445E-06
  -12.2600002       2.73574642E-06
  -12.2500000       5.99965972E-07
  -12.2399998      -1.37002235E-06
  -12.2299995      -3.13614191E-06
  -12.2200003      -4.68980033E-06
  -12.2100000      -6.05182640E-06
  -12.1999998      -7.26932149E-06
  -12.1899996      -8.40950906E-06
  -12.1800003      -9.55102405E-06
  -12.1700001      -1.07735495E-05
  -12.1599998      -1.21470639E-05
  -12.1499996      -1.37220713E-05
  -12.1400003      -1.55221260E-05
  -12.1300001      -1.75396417E-05
  -12.1199999      -1.97354238E-05
  -12.1099997      -2.20418115E-05
  -12.1000004      -2.43686663E-05
  -12.0900002      -2.66112329E-05
  -12.0799999      -2.86584454E-05
  -12.0699997      -3.04007208E-05
  -12.0600004      -3.17362865E-05
  -12.0500002      -3.25757537E-05
  -12.0400000      -3.28450842E-05
  -12.0299997      -3.24874563E-05
  -12.0200005      -3.14645149E-05
  -12.0100002      -2.97578390E-05
  -12.0000000      -2.73706719E-05
  -11.9899998      -2.43299091E-05
  -11.9799995      -2.06878776E-05
  -11.9700003      -1.65230958E-05
  -11.9600000      -1.19392762E-05
  -11.9499998      -7.06196397E-06
  -11.9399996      -2.03258378E-06
  -11.9300003       2.99976341E-06
  -11.9200001       7.88798297E-06
  -11.9099998       1.24969911E-05
  -11.8999996       1.67127509E-05
  -11.8900003       2.04492135E-05
  -11.8800001       2.36523374E-05
  -11.8699999       2.63009770E-05
  -11.8599997       2.84048365E-05
  -11.8500004       3.00002430E-05
  -11.8400002       3.11446347E-05
  -11.8299999       3.19106766E-05
  -11.8199997       3.23807835E-05
  -11.8100004       3.26422996E-05
  -11.8000002       3.27834168E-05
  -11.7900000       3.28893875E-05
  -11.7799997       3.30386465E-05
  -11.7700005       3.32984600E-05
  -11.7600002       3.37199635E-05
  -11.7500000       3.43329375E-05
  -11.7399998       3.51408671E-05
  -11.7299995       3.61172133E-05
  -11.7200003       3.72037794E-05
  -11.7100000       3.83118604E-05
  -11.6999998       3.93265218E-05
  -11.6899996       4.01137404E-05
  -11.6800003       4.05297542E-05
  -11.6700001       4.04316088E-05
  -11.6599998       3.96876494E-05
  -11.6499996       3.81868922E-05
  -11.6400003       3.58465441E-05
  -11.6300001       3.26171939E-05
  -11.6199999       2.84857888E-05
  -11.6099997       2.34767213E-05
  -11.6000004       1.76514950E-05
  -11.5900002       1.11073323E-05
  -11.5799999       3.97498206E-06
  -11.5699997      -3.58443663E-06
  -11.5600004      -1.13837787E-05
  -11.5500002      -1.92158132E-05
  -11.5400000      -2.68610474E-05
  -11.5299997      -3.40974184E-05
  -11.5200005      -4.07114021E-05
  -11.5100002      -4.65099074E-05
  -11.5000000      -5.13317973E-05
  -11.4899998      -5.50578807E-05
  -11.4799995      -5.76185266E-05
  -11.4700003      -5.89979027E-05
  -11.4600000      -5.92349134E-05
  -11.4499998      -5.84205482E-05
  -11.4399996      -5.66925446E-05
  -11.4300003      -5.42276430E-05
  -11.4200001      -5.12322731E-05
  -11.4099998      -4.79322589E-05
  -11.3999996      -4.45616679E-05
  -11.3900003      -4.13512425E-05
  -11.3800001      -3.85164531E-05
  -11.3699999      -3.62453757E-05
  -11.3599997      -3.46870256E-05
  -11.3500004      -3.39407234E-05
  -11.3400002      -3.40475417E-05
  -11.3299999      -3.49848087E-05
  -11.3199997      -3.66646309E-05
  -11.3100004      -3.89370834E-05
  -11.3000002      -4.15980430E-05
  -11.2900000      -4.44013094E-05
  -11.2799997      -4.70740961E-05
  -11.2700005      -4.93344560E-05
  -11.2600002      -5.09092388E-05
  -11.2500000      -5.15512293E-05
  -11.2399998      -5.10542159E-05
  -11.2299995      -4.92653708E-05
  -11.2200003      -4.60945557E-05
  -11.2100000      -4.15203940E-05
  -11.1999998      -3.55931879E-05
  -11.1899996      -2.84347661E-05
  -11.1800003      -2.02351239E-05
  -11.1700001      -1.12458356E-05
  -11.1599998      -1.77001095E-06
  -11.1499996       7.85114844E-06
  -11.1400003       1.72549680E-05
  -11.1300001       2.60762699E-05
  -11.1199999       3.39678154E-05
  -11.1099997       4.06204526E-05
  -11.1000004       4.57816423E-05
  -11.0900002       4.92705512E-05
  -11.0799999       5.09884994E-05
  -11.0699997       5.09239653E-05
  -11.0600004       4.91519750E-05
  -11.0500002       4.58279937E-05
  -11.0400000       4.11773108E-05
  -11.0299997       3.54808399E-05
  -11.0200005       2.90585631E-05
  -11.0100002       2.22517301E-05
  -11.0000000       1.54048812E-05
  -10.9899998       8.84853125E-06
  -10.9799995       2.88329056E-06
  -10.9700003      -2.23394295E-06
  -10.9600000      -6.30113664E-06
  -10.9499998      -9.17918715E-06
  -10.9399996      -1.07964897E-05
  -10.9300003      -1.11499139E-05
  -10.9200001      -1.03022066E-05
  -10.9099998      -8.37606967E-06
  -10.8999996      -5.54544113E-06
  -10.8900003      -2.02457977E-06
  -10.8800001       1.94435893E-06
  -10.8699999       6.10465713E-06
  -10.8599997       1.01985661E-05
  -10.8500004       1.39805061E-05
  -10.8400002       1.72293803E-05
  -10.8299999       1.97595418E-05
  -10.8199997       2.14297470E-05
  -10.8100004       2.21497376E-05
  -10.8000002       2.18839359E-05
  -10.7900000       2.06520635E-05
  -10.7799997       1.85267163E-05
  -10.7700005       1.56280712E-05
  -10.7600002       1.21163202E-05
  -10.7500000       8.18247554E-06
  -10.7399998       4.03817421E-06
  -10.7299995      -9.47970875E-08
  -10.7200003      -3.99478813E-06
  -10.7100000      -7.45016223E-06
  -10.6999998      -1.02684580E-05
  -10.6899996      -1.22846950E-05
  -10.6800003      -1.33686681E-05
  -10.6700001      -1.34307420E-05
  -10.6599998      -1.24258122E-05
  -10.6499996      -1.03547682E-05
  -10.6400003      -7.26327016E-06
  -10.6300001      -3.23741733E-06
  -10.6199999       1.60336333E-06
  -10.6099997       7.11580924E-06
  -10.6000004       1.31437146E-05
  -10.5900002       1.95292287E-05
  -10.5799999       2.61232490E-05
  -10.5699997       3.27938906E-05
  -10.5600004       3.94319977E-05
  -10.5500002       4.59533112E-05
  -10.5400000       5.22968621E-05
  -10.5299997       5.84203262E-05
  -10.5200005       6.42925588E-05
  -10.5100002       6.98848235E-05
  -10.5000000       7.51619882E-05
  -10.4899998       8.00750713E-05
  -10.4799995       8.45564427E-05
  -10.4700003       8.85185946E-05
  -10.4600000       9.18567530E-05
  -10.4499998       9.44546919E-05
  -10.4399996       9.61931582E-05
  -10.4300003       9.69590328E-05
  -10.4200001       9.66537846E-05
  -10.4099998       9.52002883E-05
  -10.3999996       9.25467830E-05
  -10.3900003       8.86685448E-05
  -10.3800001       8.35676983E-05
  -10.3699999       7.72722560E-05
  -10.3599997       6.98354997E-05
  -10.3500004       6.13360753E-05
  -10.3400002       5.18792658E-05
  -10.3299999       4.15981995E-05
  -10.3199997       3.06542534E-05
  -10.3100004       1.92353800E-05
  -10.3000002       7.55167457E-06
  -10.2900000      -4.17189176E-06
  -10.2799997      -1.57048416E-05
  -10.2700005      -2.68209005E-05
  -10.2600002      -3.73068906E-05
  -10.2500000      -4.69689185E-05
  -10.2399998      -5.56355117E-05
  -10.2299995      -6.31579096E-05
  -10.2200003      -6.94085684E-05
  -10.2100000      -7.42797056E-05
  -10.1999998      -7.76833695E-05
  -10.1899996      -7.95543892E-05
  -10.1800003      -7.98560504E-05
  -10.1700001      -7.85879456E-05
  -10.1599998      -7.57939924E-05
  -10.1499996      -7.15685092E-05
  -10.1400003      -6.60585283E-05
  -10.1300001      -5.94606718E-05
  -10.1199999      -5.20128051E-05
  -10.1099997      -4.39812284E-05
  -10.1000004      -3.56452365E-05
  -10.0900002      -2.72816033E-05
  -10.0799999      -1.91513027E-05
  -10.0699997      -1.14901732E-05
  -10.0600004      -4.50447715E-06
  -10.0500002       1.62938716E-06
  -10.0400000       6.76210630E-06
  -10.0299997       1.07681426E-05
  -10.0200005       1.35440641E-05
  -10.0100002       1.50103879E-05
  -10.0000000       1.51179120E-05
  -9.98999977       1.38581572E-05
  -9.97999954       1.12760090E-05
  -9.97000027       7.48193906E-06
  -9.96000004       2.66035863E-06
  -9.94999981      -2.92879349E-06
  -9.93999958      -8.95692574E-06
  -9.93000031      -1.50427013E-05
  -9.92000008      -2.07753274E-05
  -9.90999985      -2.57420961E-05
  -9.89999962      -2.95566824E-05
  -9.89000034      -3.18834100E-05
  -9.88000011      -3.24554385E-05
  -9.86999989      -3.10842988E-05
  -9.85999966      -2.76613446E-05
  -9.85000038      -2.21526461E-05
  -9.84000015      -1.45896383E-05
  -9.82999992      -5.05840489E-06
  -9.81999969       6.31036892E-06
  -9.81000042       1.93494707E-05
  -9.80000019       3.38614191E-05
  -9.78999996       4.96234898E-05
  -9.77999973       6.63925239E-05
  -9.77000046       8.39108689E-05
  -9.76000023       1.01913065E-04
  -9.75000000       1.20133387E-04
  -9.73999977       1.38313073E-04
  -9.72999954       1.56206152E-04
  -9.72000027       1.73582608E-04
  -9.71000004       1.90228704E-04
  -9.69999981       2.05944394E-04
  -9.68999958       2.20539165E-04
  -9.68000031       2.33827508E-04
  -9.67000008       2.45624717E-04
  -9.65999985       2.55745283E-04
  -9.64999962       2.64004280E-04
  -9.64000034       2.70221994E-04
  -9.63000011       2.74230348E-04
  -9.61999989       2.75882310E-04
  -9.60999966       2.75060156E-04
  -9.60000038       2.71683151E-04
  -9.59000015       2.65711016E-04
  -9.57999992       2.57143984E-04
  -9.56999969       2.46017386E-04
  -9.56000042       2.32393155E-04
  -9.55000019       2.16349479E-04
  -9.53999996       1.97971720E-04
  -9.52999973       1.77347654E-04
  -9.52000046       1.54569352E-04
  -9.51000023       1.29742490E-04
  -9.50000000       1.03001876E-04
  -9.48999977       7.45299621E-05
  -9.47999954       4.45733313E-05
  -9.47000027       1.34530774E-05
  -9.46000004      -1.84351647E-05
  -9.44999981      -5.06328688E-05
  -9.43999958      -8.26402538E-05
  -9.43000031      -1.13943577E-04
  -9.42000008      -1.44042933E-04
  -9.40999985      -1.72474829E-04
  -9.39999962      -1.98825699E-04
  -9.39000034      -2.22735121E-04
  -9.38000011      -2.43890579E-04
  -9.36999989      -2.62018002E-04
  -9.35999966      -2.76872830E-04
  -9.35000038      -2.88235984E-04
  -9.34000015      -2.95915845E-04
  -9.32999992      -2.99756648E-04
  -9.31999969      -2.99649109E-04
  -9.31000042      -2.95539881E-04
  -9.30000019      -2.87435367E-04
  -9.28999996      -2.75398692E-04
  -9.27999973      -2.59540277E-04
  -9.27000046      -2.40004243E-04
  -9.26000023      -2.16956018E-04
  -9.25000000      -1.90573395E-04
  -9.23999977      -1.61044707E-04
  -9.22999954      -1.28573083E-04
  -9.22000027      -9.33844058E-05
  -9.21000004      -5.57360981E-05
  -9.19999981      -1.59219653E-05
  -9.18999958       2.57280863E-05
  -9.18000031       6.88541695E-05
  -9.17000008       1.13075665E-04
  -9.15999985       1.58001130E-04
  -9.14999962       2.03234988E-04
  -9.14000034       2.48379336E-04
  -9.13000011       2.93030840E-04
  -9.11999989       3.36775527E-04
  -9.10999966       3.79183475E-04
  -9.10000038       4.19808697E-04
  -9.09000015       4.58194176E-04
  -9.07999992       4.93883796E-04
  -9.06999969       5.26438060E-04
  -9.06000042       5.55450271E-04
  -9.05000019       5.80560358E-04
  -9.03999996       6.01462612E-04
  -9.02999973       6.17906917E-04
  -9.02000046       6.29695831E-04
  -9.01000023       6.36678596E-04
  -9.00000000       6.38747239E-04
  -8.98999977       6.35835400E-04
  -8.97999954       6.27922302E-04
  -8.97000027       6.15039840E-04
  -8.96000004       5.97281614E-04
  -8.94999981       5.74809441E-04
  -8.93999958       5.47856151E-04
  -8.93000031       5.16722735E-04
  -8.92000008       4.81769297E-04
  -8.90999985       4.43403289E-04
  -8.89999962       4.02065605E-04
  -8.89000034       3.58217483E-04
  -8.88000011       3.12331278E-04
  -8.86999989       2.64884118E-04
  -8.85999966       2.16355125E-04
  -8.85000038       1.67225313E-04
  -8.84000015       1.17977550E-04
  -8.82999992       6.90964152E-05
  -8.81999969       2.10665039E-05
  -8.81000042      -2.56319199E-05
  -8.80000019      -7.05289785E-05
  -8.78999996      -1.13173555E-04
  -8.77999973      -1.53142537E-04
  -8.77000046      -1.90051389E-04
  -8.76000023      -2.23563577E-04
  -8.75000000      -2.53398845E-04
  -8.73999977      -2.79339059E-04
  -8.72999954      -3.01230059E-04
  -8.72000027      -3.18980397E-04
  -8.71000004      -3.32556927E-04
  -8.69999981      -3.41978302E-04
  -8.68999958      -3.47307854E-04
  -8.68000031      -3.48649104E-04
  -8.67000008      -3.46142682E-04
  -8.65999985      -3.39966442E-04
  -8.64999962      -3.30337498E-04
  -8.64000034      -3.17513855E-04
  -8.63000011      -3.01793712E-04
  -8.61999989      -2.83511239E-04
  -8.60999966      -2.63027061E-04
  -8.60000038      -2.40715832E-04
  -8.59000015      -2.16951506E-04
  -8.57999992      -1.92094492E-04
  -8.56999969      -1.66482452E-04
  -8.56000042      -1.40427204E-04
  -8.55000019      -1.14217575E-04
  -8.53999996      -8.81270462E-05
  -8.52999973      -6.24240784E-05
  -8.52000046      -3.73807998E-05
  -8.51000023      -1.32792993E-05
  -8.50000000       9.58774308E-06
  -8.48999977       3.09209427E-05
  -8.47999954       5.04229938E-05
  -8.47000027       6.78100841E-05
  -8.46000004       8.28248594E-05
  -8.44999981       9.52501432E-05
  -8.43999958       1.04921768E-04
  -8.43000031       1.11741101E-04
  -8.42000008       1.15685369E-04
  -8.40999985       1.16815063E-04
  -8.39999962       1.15277129E-04
  -8.39000034       1.11300476E-04
  -8.38000011       1.05184838E-04
  -8.36999989       9.72825583E-05
  -8.35999966       8.79750005E-05
  -8.35000038       7.76485249E-05
  -8.34000015       6.66736305E-05
  -8.32999992       5.53916725E-05
  -8.31999969       4.41113152E-05
  -8.31000042       3.31130759E-05
  -8.30000019       2.26595093E-05
  -8.28999996       1.30052822E-05
  -8.27999973       4.40227086E-06
  -8.27000046      -2.90355797E-06
  -8.26000023      -8.68314874E-06
  -8.25000000      -1.27396033E-05
  -8.23999977      -1.49233156E-05
  -8.22999954      -1.51390768E-05
  -8.22000027      -1.33424974E-05
  -8.21000004      -9.52569826E-06
  -8.19999981      -3.69532791E-06
  -8.18999958       4.14906663E-06
  -8.18000031       1.40283000E-05
  -8.17000008       2.59828957E-05
  -8.15999985       4.00577992E-05
  -8.14999962       5.62763125E-05
  -8.14000034       7.46120713E-05
  -8.13000011       9.49683963E-05
  -8.11999989       1.17174342E-04
  -8.10999966       1.40999779E-04
  -8.10000038       1.66185593E-04
  -8.09000015       1.92479769E-04
  -8.07999992       2.19667272E-04
  -8.06999969       2.47584598E-04
  -8.06000042       2.76110863E-04
  -8.05000019       3.05142283E-04
  -8.03999996       3.34555865E-04
  -8.02999973       3.64178064E-04
  -8.02000046       3.93769733E-04
  -8.01000023       4.23035410E-04
  -8.00000000       4.51654865E-04
  -7.98999977       4.79325681E-04
  -7.98000002       5.05805481E-04
  -7.96999979       5.30934776E-04
  -7.96000004       5.54632396E-04
  -7.94999981       5.76864521E-04
  -7.94000006       5.97595237E-04
  -7.92999983       6.16735080E-04
  -7.92000008       6.34108903E-04
  -7.90999985       6.49448717E-04
  -7.90000010       6.62423728E-04
  -7.88999987       6.72692200E-04
  -7.88000011       6.79962512E-04
  -7.86999989       6.84043043E-04
  -7.86000013       6.84866623E-04
  -7.84999990       6.82481797E-04
  -7.84000015       6.77014992E-04
  -7.82999992       6.68621622E-04
  -7.82000017       6.57439406E-04
  -7.80999994       6.43565902E-04
  -7.80000019       6.27062167E-04
  -7.78999996       6.07983384E-04
  -7.78000021       5.86420589E-04
  -7.76999998       5.62539673E-04
  -7.76000023       5.36598265E-04
  -7.75000000       5.08935365E-04
  -7.73999977       4.79936163E-04
  -7.73000002       4.49983490E-04
  -7.71999979       4.19413234E-04
  -7.71000004       3.88489658E-04
  -7.69999981       3.57407785E-04
  -7.69000006       3.26319510E-04
  -7.67999983       2.95374601E-04
  -7.67000008       2.64757691E-04
  -7.65999985       2.34709922E-04
  -7.65000010       2.05524935E-04
  -7.63999987       1.77522699E-04
  -7.63000011       1.51013213E-04
  -7.61999989       1.26261599E-04
  -7.61000013       1.03470753E-04
  -7.59999990       8.27853146E-05
  -7.59000015       6.43146705E-05
  -7.57999992       4.81630050E-05
  -7.57000017       3.44537184E-05
  -7.55999994       2.33350311E-05
  -7.55000019       1.49643647E-05
  -7.53999996       9.47628632E-06
  -7.53000021       6.94575920E-06
  -7.51999998       7.36083348E-06
  -7.51000023       1.06187081E-05
  -7.50000000       1.65454057E-05
  -7.48999977       2.49347213E-05
  -7.48000002       3.55899683E-05
  -7.46999979       4.83595577E-05
  -7.46000004       6.31467337E-05
  -7.44999981       7.98961919E-05
  -7.44000006       9.85620427E-05