  -16.0000000       0.00000000    
  -15.9899998       0.00000000    
  -15.9799995       0.00000000    
  -15.9700003       0.00000000    
  -15.9600000       0.00000000    
  -15.9499998       0.00000000    
  -15.9399996       0.00000000    
  -15.9300003       0.00000000    
  -15.9200001       0.00000000    
  -15.9099998       0.00000000    
  -15.8999996       0.00000000    
  -15.8900003       0.00000000    
  -15.8800001       0.00000000    
  -15.8699999       0.00000000    
  -15.8599997       0.00000000    
  -15.8500004       0.00000000    
  -15.8400002      -0.00000000    
  -15.8299999      -1.40129846E-45
  -15.8199997      -8.40779079E-45
  -15.8100004      -5.46506401E-44
  -15.8000002      -2.69049305E-43
  -15.7900000      -1.08180241E-42
  -15.7799997      -3.67280327E-42
  -15.7700005      -1.07101242E-41
  -15.7600002      -2.70338500E-41
  -15.7500000      -5.87256160E-41
  -15.7399998      -1.06334731E-40
  -15.7299995      -1.42831550E-40
  -15.7200003      -5.97079263E-41
  -15.7100000       4.38628840E-40
  -15.6999998       1.99025300E-39
  -15.6899996       5.68878832E-39
  -15.6800003       1.28509663E-38
  -15.6700001       2.38142042E-38
  -15.6599998       3.49271372E-38
  -15.6499996       3.33630359E-38
  -15.6400003      -8.64203884E-39
  -15.6300001      -1.34638079E-37
  -15.6199999      -3.89927418E-37
  -15.6099997      -7.81835667E-37
  -15.6000004      -1.21255347E-36
  -15.5900002      -1.40527026E-36
  -15.5799999      -8.72671107E-37
  -15.5699997       1.01157346E-36
  -15.5600004       4.80863465E-36
  -15.5500002       1.07143541E-35
  -15.5400000       1.82206575E-35
  -15.5299997       2.56324981E-35
  -15.5200005       2.89431648E-35
  -15.5100002       1.93089469E-35
  -15.5000000      -2.07610483E-35
  -15.4899998      -1.19022189E-34
  -15.4799995      -3.03354960E-34
  -15.4700003      -5.65004253E-34
  -15.4600000      -7.85329409E-34
  -15.4499998      -6.45218610E-34
  -15.4399996       4.03012315E-34
  -15.4300003       2.94768451E-33
  -15.4200001       7.03936196E-33
  -15.4099998       1.11921014E-32
  -15.3999996       1.13491643E-32
  -15.3900003       8.52915191E-34
  -15.3800001      -2.69768989E-32
  -15.3699999      -7.22952712E-32
  -15.3599997      -1.18815066E-31
  -15.3500004      -1.25266320E-31
  -15.3400002      -2.82711769E-32
  -15.3299999       2.30373383E-31
  -15.3199997       6.44201279E-31
  -15.3100004       1.06154851E-30
  -15.3000002       1.12813331E-30
  -15.2900000       3.31883339E-31
  -15.2799997      -1.76180912E-30
  -15.2700005      -5.05150096E-30
  -15.2600002      -8.33249453E-30
  -15.2500000      -8.95842552E-30
  -15.2399998      -3.26880453E-30
  -15.2299995       1.16898712E-29
  -15.2200003       3.50596799E-29
  -15.2100000       5.85731750E-29
  -15.1999998       6.46822669E-29
  -15.1899996       2.96641600E-29
  -15.1800003      -6.54005966E-29
  -15.1700001      -2.15746091E-28
  -15.1599998      -3.71843026E-28
  -15.1499996      -4.29078943E-28
  -15.1400003      -2.46146004E-28
  -15.1300001       2.92839454E-28
  -15.1199999       1.17364332E-27
  -15.1099997       2.13619469E-27
  -15.1000004       2.61604688E-27
  -15.0900002       1.83489855E-27
  -15.0799999      -8.84555068E-28
  -15.0699997      -5.58516371E-27
  -15.0600004      -1.10764029E-26
  -15.0500002      -1.45976107E-26
  -15.0400000      -1.21831016E-26
  -15.0299997      -9.56279949E-29
  -15.0200005       2.26683865E-26
  -15.0100002       5.14591163E-26
  -15.0000000       7.40817982E-26
  -14.9899998       7.19063232E-26
  -14.9799995       2.57049972E-26
  -14.9700003      -7.35203388E-26
  -14.9600000      -2.11199043E-25
  -14.9499998      -3.39167122E-25
  -14.9399996      -3.77243269E-25
  -14.9300003      -2.34188989E-25
  -14.9200001       1.49458031E-25
  -14.9099998       7.44693964E-25
  -14.8999996       1.38497016E-24
  -14.8900003       1.75714862E-24
  -14.8800001       1.46562270E-24
  -14.8699999       1.85854434E-25
  -14.8599997      -2.11344691E-24
  -14.8500004      -4.95088986E-24
  -14.8400002      -7.23305854E-24
  -14.8299999      -7.40678307E-24
  -14.8199997      -3.94905899E-24
  -14.8100004       3.83829345E-24
  -14.8000002       1.49387378E-23
  -14.7900000       2.60248747E-23
  -14.7799997       3.16379860E-23
  -14.7700005       2.55328353E-23
  -14.7600002       3.23570805E-24
  -14.7500000      -3.47027012E-23
  -14.7399998      -7.99223508E-23
  -14.7299995      -1.15551108E-22
  -14.7200003      -1.19129382E-22
  -14.7100000      -6.98605688E-23
  -14.6999998       4.07613612E-23
  -14.6899996       1.98005526E-22
  -14.6800003       3.57520471E-22
  -14.6700001       4.48937232E-22
  -14.6599998       3.93216288E-22
  -14.6499996       1.33239137E-22
  -14.6400003      -3.29078060E-22
  -14.6300001      -9.02260178E-22
  -14.6199999      -1.39819827E-21
  -14.6099997      -1.56353453E-21
  -14.6000004      -1.15515581E-21
  -14.5900002      -4.90717963E-23
  -14.5799999       1.64761736E-21
  -14.5699997       3.52777789E-21
  -14.5600004       4.90791339E-21
  -14.5500002       4.97813125E-21
  -14.5400000       3.07473030E-21
  -14.5299997      -9.80845971E-22
  -14.5200005      -6.58550838E-21
  -14.5100002      -1.22400040E-20
  -14.5000000      -1.57427819E-20
  -14.4899998      -1.47485867E-20
  -14.4799995      -7.62595659E-21
  -14.4700003       5.59862415E-21
  -14.4600000       2.25439223E-20
  -14.4499998       3.83974106E-20
  -14.4399996       4.67401862E-20
  -14.4300003       4.13168606E-20
  -14.4200001       1.84488402E-20
  -14.4099998      -2.05719915E-20
  -14.3999996      -6.80151327E-20
  -14.3900003      -1.10064665E-19
  -14.3800001      -1.29538836E-19
  -14.3699999      -1.10841375E-19
  -14.3599997      -4.61409714E-20
  -14.3500004       5.90238151E-20
  -14.3400002       1.82929416E-19
  -14.3299999       2.89602421E-19
  -14.3199997       3.36419473E-19
  -14.3100004       2.86575379E-19
  -14.3000002       1.23647475E-19
  -14.2900000      -1.36122948E-19
  -14.2799997      -4.38776767E-19
  -14.2700005      -6.98771266E-19
  -14.2600002      -8.17609771E-19
  -14.2500000      -7.12396947E-19
  -14.2399998      -3.47671999E-19
  -14.2299995       2.39126929E-19
  -14.2200003       9.28739677E-19
  -14.2100000       1.53516398E-18
  -14.1999998       1.84628057E-18
  -14.1899996       1.68362874E-18
  -14.1800003       9.67115377E-19
  -14.1700001      -2.34695412E-19
  -14.1599998      -1.68810792E-18
  -14.1499996      -3.02489590E-18
  -14.1400003      -3.82145159E-18
  -14.1300001      -3.71306364E-18
  -14.1199999      -2.51607042E-18
  -14.1099997      -3.22389740E-19
  -14.1000004       2.46789811E-18
  -14.0900002       5.19826849E-18
  -14.0799999       7.09294802E-18
  -14.0699997       7.45529945E-18
  -14.0600004       5.88042243E-18
  -14.0500002       2.42255083E-18
  -14.0400000      -2.33889971E-18
  -14.0299997      -7.37022641E-18
  -14.0200005      -1.13926312E-17
  -14.0100002      -1.31913470E-17
  -14.0000000      -1.19521171E-17
  -13.9899998      -7.53482129E-18
  -13.9799995      -6.00361588E-19
  -13.9700003       7.46199713E-18
  -13.9600000       1.48097292E-17
  -13.9499998       1.95713663E-17
  -13.9399996       2.03201632E-17
  -13.9300003       1.64745344E-17
  -13.9200001       8.51263314E-18
  -13.9099998      -2.06945410E-18
  -13.8999996      -1.30609445E-17
  -13.8900003      -2.20357772E-17
  -13.8800001      -2.69263089E-17
  -13.8699999      -2.65245936E-17
  -13.8599997      -2.07793560E-17
  -13.8500004      -1.08091884E-17
  -13.8400002       1.37157206E-18
  -13.8299999       1.33399699E-17
  -13.8199997       2.28325970E-17
  -13.8100004       2.82427618E-17
  -13.8000002       2.89191408E-17
  -13.7900000       2.51984841E-17
  -13.7799997       1.81847932E-17
  -13.7700005       9.36050568E-18
  -13.7600002       1.60542483E-19
  -13.7500000      -8.35745323E-18
  -13.7399998      -1.56529770E-17
  -13.7299995      -2.16278878E-17
  -13.7200003      -2.63872998E-17
  -13.7100000      -2.99425353E-17
  -13.6999998      -3.19808274E-17
  -13.6899996      -3.18005451E-17
  -13.6800003      -2.84499408E-17
  -13.6700001      -2.10329977E-17
  -13.6599998      -9.08381955E-18
  -13.6499996       7.11591800E-18
  -13.6400003       2.63840986E-17
  -13.6300001       4.67012145E-17
  -13.6199999       6.54669978E-17
  -13.6099997       7.98660947E-17
  -13.6000004       8.72313638E-17
  -13.5900002       8.53169569E-17
  -13.5799999       7.24556284E-17
  -13.5699997       4.76527237E-17
  -13.5600004       1.07270180E-17
  -13.5500002      -3.73921305E-17
  -13.5400000      -9.41691063E-17
  -13.5299997      -1.54855159E-16
  -13.5200005      -2.12001944E-16
  -13.5100002      -2.55436179E-16
  -13.5000000      -2.73036650E-16
  -13.4899998      -2.52523789E-16
  -13.4799995      -1.84209681E-16
  -13.4700003      -6.43032672E-17
  -13.4600000       1.01960744E-16
  -13.4499998       2.98304278E-16
  -13.4399996       4.97408028E-16
  -13.4300003       6.63542159E-16
  -13.4200001       7.57880665E-16
  -13.4099998       7.45854226E-16
  -13.3999996       6.05250834E-16
  -13.3900003       3.33308762E-16
  -13.3800001      -4.90096804E-17
  -13.3699999      -4.96970747E-16
  -13.3599997      -9.46878862E-16
  -13.3500004      -1.32529348E-15
  -13.3400002      -1.56116007E-15
  -13.3299999      -1.59856875E-15
  -13.3199997      -1.40757394E-15
  -13.3100004      -9.90817849E-16
  -13.3000002      -3.84576463E-16
  -13.2900000       3.45923412E-16
  -13.2799997       1.11580931E-15
  -13.2700005       1.83241899E-15
  -13.2600002       2.40723439E-15
  -13.2500000       2.76568857E-15
  -13.2399998       2.85349920E-15
  -13.2299995       2.63941290E-15
  -13.2200003       2.11529220E-15
  -13.2100000       1.29528702E-15
  -13.1999998       2.15795699E-16
  -13.1899996      -1.06283428E-15
  -13.1800003      -2.45304807E-15
  -13.1700001      -3.83710330E-15
  -13.1599998      -5.06706120E-15
  -13.1499996      -5.97090211E-15
  -13.1400003      -6.36703867E-15
  -13.1300001      -6.08776894E-15
  -13.1199999      -5.00966498E-15
  -13.1099997      -3.08639981E-15
  -13.1000004      -3.77595800E-16
  -13.0900002       2.93348685E-15
  -13.0799999       6.53943274E-15
  -13.0699997       1.00289091E-14
  -13.0600004       1.29276066E-14
  -13.0500002       1.47556256E-14
  -13.0400000       1.50938307E-14
  -13.0299997       1.36493083E-14
  -13.0200005       1.03101511E-14
  -13.0100002       5.18111419E-15
  -13.0000000      -1.40500574E-15
  -12.9899998      -8.90195798E-15
  -12.9799995      -1.65886964E-14
  -12.9700003      -2.36279214E-14
  -12.9600000      -2.91390210E-14
  -12.9499998      -3.22804426E-14
  -12.9399996      -3.23367025E-14
  -12.9300003      -2.88060557E-14
  -12.9200001      -2.14842538E-14
  -12.9099998      -1.05377878E-14
  -12.8999996       3.44264704E-15
  -12.8900003       1.94210238E-14
  -12.8800001       3.59406108E-14
  -12.8699999       5.12070516E-14
  -12.8599997       6.32365525E-14
  -12.8500004       7.00664976E-14
  -12.8400002       7.00128838E-14
  -12.8299999       6.19456675E-14
  -12.8199997       4.55417225E-14
  -12.8100004       2.14695053E-14
  -12.8000002      -8.53792948E-15
  -12.7900000      -4.17535066E-14
  -12.7799997      -7.46811196E-14
  -12.7700005      -1.03422418E-13
  -12.7600002      -1.24144862E-13
  -12.7500000      -1.33590418E-13
  -12.7399998      -1.29550925E-13
  -12.7299995      -1.11237218E-13
  -12.7200003      -7.94808284E-14
  -12.7100000      -3.67326510E-14
  -12.6999998       1.31487355E-14
  -12.6899996       6.52939007E-14
  -12.6800003       1.14352836E-13
  -12.6700001       1.55091258E-13
  -12.6599998       1.82978971E-13
  -12.6499996       1.94701582E-13
  -12.6400003       1.88541389E-13
  -12.6300001       1.64591770E-13
  -12.6199999       1.24786642E-13
  -12.6099997       7.27445990E-14
  -12.6000004       1.34404876E-14
  -12.5900002      -4.72749755E-14
  -12.5799999      -1.03274485E-13
  -12.5699997      -1.48830275E-13
  -12.5600004      -1.79311955E-13
  -12.5500002      -1.91834992E-13
  -12.5400000      -1.85778083E-13
  -12.5299997      -1.63080216E-13
  -12.5200005      -1.28234581E-13
  -12.5100002      -8.79178864E-14
  -12.5000000      -5.02362637E-14
  -12.4899998      -2.36133185E-14
  -12.4799995      -1.54157404E-14
  -12.4700003      -3.04601925E-14
  -12.4600000      -6.95933315E-14
  -12.4499998      -1.28551697E-13
  -12.4399996      -1.97301241E-13
  -12.4300003      -2.60011522E-13
  -12.4200001      -2.95753439E-13
  -12.4099998      -2.79919669E-13
  -12.3999996      -1.86286154E-13
  -12.3900003       1.04603114E-14
  -12.3800001       3.31958040E-13
  -12.3699999       7.93434545E-13
  -12.3599997       1.40127916E-12
  -12.3500004       2.15116813E-12
  -12.3400002       3.02694740E-12
  -12.3299999       4.00041285E-12
  -12.3199997       5.03205160E-12
  -12.3100004       6.07272826E-12
  -12.3000002       7.06622998E-12
  -12.2900000       7.95251105E-12
  -12.2799997       8.67140561E-12
  -12.2700005       9.16653645E-12
  -12.2600002       9.38912403E-12
  -12.2500000       9.30135136E-12
  -12.2399998       8.87902599E-12
  -12.2299995       8.11323578E-12
  -12.2200003       7.01084720E-12
  -12.2100000       5.59377631E-12
  -12.1999998       3.89704892E-12
  -12.1899996       1.96583136E-12
  -12.1800003      -1.48270637E-13
  -12.1700001      -2.39125148E-12
  -12.1599998      -4.71071142E-12
  -12.1499996      -7.05937522E-12
  -12.1400003      -9.39769616E-12
  -12.1300001      -1.16954415E-11
  -12.1199999      -1.39319433E-11
  -12.1099997      -1.60951912E-11
  -12.1000004      -1.81798673E-11
  -12.0900002      -2.01846734E-11
  -12.0799999      -2.21092814E-11
  -12.0699997      -2.39512733E-11
  -12.0600004      -2.57035174E-11
  -12.0500002      -2.73521795E-11
  -12.0400000      -2.88755807E-11
  -12.0299997      -3.02439775E-11
  -12.0200005      -3.14201998E-11
  -12.0100002      -3.23611034E-11
  -12.0000000      -3.30194969E-11
  -11.9899998      -3.33466275E-11
  -11.9799995      -3.32947246E-11
  -11.9700003      -3.28196428E-11
  -11.9600000      -3.18832252E-11
  -11.9499998      -3.04555062E-11
  -11.9399996      -2.85163108E-11
  -11.9300003      -2.60564452E-11
  -11.9200001      -2.30780325E-11
  -11.9099998      -1.95943817E-11
  -11.8999996      -1.56290952E-11
  -11.8900003      -1.12146915E-11
  -11.8800001      -6.39077203E-12
  -11.8699999      -1.20214776E-12
  -11.8599997       4.30297681E-12
  -11.8500004       1.00746434E-11
  -11.8400002       1.60620510E-11
  -11.8299999       2.22142582E-11
  -11.8199997       2.84801245E-11
  -11.8100004       3.48079621E-11
  -11.8000002       4.11450214E-11
  -11.7900000       4.74370786E-11
  -11.7799997       5.36280569E-11
  -11.7700005       5.96603114E-11
  -11.7600002       6.54750767E-11
  -11.7500000       7.10135839E-11
  -11.7399998       7.62182747E-11
  -11.7299995       8.10342626E-11
  -11.7200003       8.54107340E-11
  -11.7100000       8.93021837E-11
  -11.6999998       9.26691640E-11
  -11.6899996       9.54787915E-11
  -11.6800003       9.77046569E-11
  -11.6700001       9.93262139E-11
  -11.6599998       1.00327864E-10
  -11.6499996       1.00697520E-10
  -11.6400003       1.00424835E-10
  -11.6300001       9.94995197E-11
  -11.6199999       9.79093751E-11
  -11.6099997       9.56385526E-11
  -11.6000004       9.26663815E-11
  -11.5900002       8.89663204E-11
  -11.5799999       8.45062631E-11
  -11.5699997       7.92486146E-11
  -11.5600004       7.31522204E-11
  -11.5500002       6.61741217E-11
  -11.5400000       5.82725881E-11
  -11.5299997       4.94100073E-11
  -11.5200005       3.95565490E-11
  -11.5100002       2.86933585E-11
  -11.5000000       1.68159289E-11
  -11.4899998       3.93732920E-12
  -11.4799995      -9.90982903E-12
  -11.4700003      -2.46710343E-11
  -11.4600000      -4.02696279E-11
  -11.4499998      -5.66070767E-11
  -11.4399996      -7.35644462E-11
  -11.4300003      -9.10056683E-11
  -11.4200001      -1.08781484E-10
  -11.4099998      -1.26735289E-10
  -11.3999996      -1.44709467E-10
  -11.3900003      -1.62551875E-10
  -11.3800001      -1.80122597E-10
  -11.3699999      -1.97299815E-10
  -11.3599997      -2.13984816E-10
  -11.3500004      -2.30104782E-10
  -11.3400002      -2.45614334E-10
  -11.3299999      -2.60495209E-10
  -11.3199997      -2.74753525E-10
  -11.3100004      -2.88416069E-10
  -11.3000002      -3.01525471E-10
  -11.2900000      -3.14134274E-10
  -11.2799997      -3.26298571E-10
  -11.2700005      -3.38072126E-10
  -11.2600002      -3.49500429E-10
  -11.2500000      -3.60615510E-10
  -11.2399998      -3.71430636E-10
  -11.2299995      -3.81937065E-10
  -11.2200003      -3.92100630E-10
  -11.2100000      -4.01859795E-10
  -11.1999998      -4.11125134E-10
  -11.1899996      -4.19780488E-10
  -11.1800003      -4.27685026E-10
  -11.1700001      -4.34678654E-10
  -11.1599998      -4.40587955E-10
  -11.1499996      -4.45234044E-10
  -11.1400003      -4.48443255E-10
  -11.1300001      -4.50057436E-10
  -11.1199999      -4.49942583E-10
  -11.1099997      -4.47999027E-10
  -11.1000004      -4.44169201E-10
  -11.0900002      -4.38441505E-10
  -11.0799999      -4.30850328E-10
  -11.0699997      -4.21476659E-10
  -11.0600004      -4.10442014E-10
  -11.0500002      -3.97900685E-10
  -11.0400000      -3.84030779E-10
  -11.0299997      -3.69026365E-10
  -11.0200005      -3.53085783E-10
  -11.0100002      -3.36401795E-10
  -11.0000000      -3.19157117E-10
  -10.9899998      -3.01513842E-10
  -10.9799995      -2.83608942E-10
  -10.9700003      -2.65553218E-10
  -10.9600000      -2.47423415E-10
  -10.9499998      -2.29263414E-10
  -10.9399996      -2.11082637E-10
  -10.9300003      -1.92856633E-10
  -10.9200001      -1.74524312E-10
  -10.9099998      -1.55998228E-10
  -10.8999996      -1.37164072E-10
  -10.8900003      -1.17884161E-10
  -10.8800001      -9.80089482E-11
  -10.8699999      -7.73812889E-11
  -10.8599997      -5.58480345E-11
  -10.8500004      -3.32634927E-11
  -10.8400002      -9.50316301E-12
  -10.8299999       1.55313869E-11
  -10.8199997       4.19034182E-11
  -10.8100004       6.96407099E-11
  -10.8000002       9.87283866E-11
  -10.7900000       1.29110528E-10
  -10.7799997       1.60688435E-10
  -10.7700005       1.93328520E-10
  -10.7600002       2.26867580E-10
  -10.7500000       2.61119959E-10
  -10.7399998       2.95887037E-10
  -10.7299995       3.30967198E-10
  -10.7200003       3.66162961E-10
  -10.7100000       4.01291667E-10
  -10.6999998       4.36192915E-10
  -10.6899996       4.70730732E-10
  -10.6800003       5.04797648E-10
  -10.6700001       5.38319667E-10
  -10.6599998       5.71254044E-10
  -10.6499996       6.03587791E-10
  -10.6400003       6.35340780E-10
  -10.6300001       6.66553757E-10
  -10.6199999       6.97293001E-10
  -10.6099997       7.27642668E-10
  -10.6000004       7.57699958E-10
  -10.5900002       7.87571564E-10
  -10.5799999       8.17367118E-10
  -10.5699997       8.47199866E-10
  -10.5600004       8.77177220E-10
  -10.5500002       9.07405151E-10
  -10.5400000       9.37977140E-10
  -10.5299997       9.68976122E-10
  -10.5200005       1.00046782E-09
  -10.5100002       1.03249587E-09
  -10.5000000       1.06507947E-09
  -10.4899998       1.09820575E-09
  -10.4799995       1.13182108E-09
  -10.4700003       1.16583232E-09
  -10.4600000       1.20010457E-09
  -10.4499998       1.23445920E-09
  -10.4399996       1.26868105E-09
  -10.4300003       1.30252198E-09
  -10.4200001       1.33571554E-09
  -10.4099998       1.36798484E-09
  -10.3999996       1.39905332E-09
  -10.3900003       1.42865975E-09
  -10.3800001       1.45656842E-09
  -10.3699999       1.48257651E-09
  -10.3599997       1.50651758E-09
  -10.3500004       1.52826751E-09
  -10.3400002       1.54774338E-09
  -10.3299999       1.56490043E-09
  -10.3199997       1.57973123E-09
  -10.3100004       1.59225533E-09
  -10.3000002       1.60251878E-09
  -10.2900000       1.61058833E-09
  -10.2799997       1.61654756E-09
  -10.2700005       1.62049774E-09
  -10.2600002       1.62255454E-09
  -10.2500000       1.62285052E-09
  -10.2399998       1.62153557E-09
  -10.2299995       1.61877656E-09
  -10.2200003       1.61475788E-09
  -10.2100000       1.60967795E-09
  -10.1999998       1.60374380E-09
  -10.1899996       1.59716562E-09
  -10.1800003       1.59015112E-09
  -10.1700001       1.58289792E-09
  -10.1599998       1.57558921E-09
  -10.1499996       1.56838964E-09
  -10.1400003       1.56144375E-09
  -10.1300001       1.55487645E-09
  -10.1199999       1.54879454E-09
  -10.1099997       1.54329138E-09
  -10.1000004       1.53844593E-09
  -10.0900002       1.53432789E-09
  -10.0799999       1.53099811E-09
  -10.0699997       1.52850765E-09
  -10.0600004       1.52689994E-09
  -10.0500002       1.52620516E-09
  -10.0400000       1.52643798E-09
  -10.0299997       1.52759627E-09
  -10.0200005       1.52965796E-09
  -10.0100002       1.53257862E-09
  -10.0000000       1.53629387E-09
  -9.98999977       1.54071400E-09
  -9.97999954       1.54573698E-09
  -9.97000027       1.55124558E-09
  -9.96000004       1.55711988E-09
  -9.94999981       1.56324564E-09
  -9.93999958       1.56952040E-09
  -9.93000031       1.57586733E-09
  -9.92000008       1.58224389E-09
  -9.90999985       1.58864211E-09
  -9.89999962       1.59510050E-09
  -9.89000034       1.60170210E-09
  -9.88000011       1.60857605E-09
  -9.86999989       1.61589420E-09
  -9.85999966       1.62386926E-09
  -9.85000038       1.63275060E-09
  -9.84000015       1.64281033E-09
  -9.82999992       1.65434522E-09
  -9.81999969       1.66765790E-09
  -9.81000042       1.68305547E-09
  -9.80000019       1.70083436E-09
  -9.78999996       1.72127257E-09
  -9.77999973       1.74462622E-09
  -9.77000046       1.77112269E-09
  -9.76000023       1.80095638E-09
  -9.75000000       1.83428828E-09
  -9.73999977       1.87124805E-09
  -9.72999954       1.91193261E-09
  -9.72000027       1.95640215E-09
  -9.71000004       2.00467554E-09
  -9.69999981       2.05672523E-09
  -9.68999958       2.11246576E-09
  -9.68000031       2.17174634E-09
  -9.67000008       2.23434582E-09
  -9.65999985       2.29996511E-09
  -9.64999962       2.36823605E-09
  -9.64000034       2.43871523E-09
  -9.63000011       2.51090726E-09
  -9.61999989       2.58426969E-09
  -9.60999966       2.65822964E-09
  -9.60000038       2.73220313E-09
  -9.59000015       2.80560419E-09
  -9.57999992       2.87785928E-09
  -9.56999969       2.94841240E-09
  -9.56000042       3.01673797E-09
  -9.55000019       3.08233727E-09
  -9.53999996       3.14475268E-09
  -9.52999973       3.20355986E-09
  -9.52000046       3.25837601E-09
  -9.51000023       3.30887096E-09
  -9.50000000       3.35476114E-09
  -9.48999977       3.39581185E-09
  -9.47999954       3.43184414E-09
  -9.47000027       3.46274076E-09
  -9.46000004       3.48844797E-09
  -9.44999981       3.50898333E-09
  -9.43999958       3.52443741E-09
  -9.43000031       3.53498608E-09
  -9.42000008       3.54088803E-09
  -9.40999985       3.54248386E-09
  -9.39999962       3.54020369E-09
  -9.39000034       3.53454999E-09
  -9.38000011       3.52611140E-09
  -9.36999989       3.51552476E-09
  -9.35999966       3.50349061E-09
  -9.35000038       3.49074636E-09
  -9.34000015       3.47807272E-09
  -9.32999992       3.46627882E-09
  -9.31999969       3.45619533E-09
  -9.31000042       3.44867312E-09
  -9.30000019       3.44457862E-09
  -9.28999996       3.44478046E-09
  -9.27999973       3.45013507E-09
  -9.27000046       3.46149154E-09
  -9.26000023       3.47966256E-09
  -9.25000000       3.50542884E-09
  -9.23999977       3.53951002E-09
  -9.22999954       3.58257246E-09
  -9.22000027       3.63520902E-09
  -9.21000004       3.69792952E-09
  -9.19999981       3.77118248E-09
  -9.18999958       3.85530008E-09
  -9.18000031       3.95051991E-09
  -9.17000008       4.05698097E-09
  -9.15999985       4.17469792E-09
  -9.14999962       4.30357128E-09
  -9.14000034       4.44337367E-09
  -9.13000011       4.59377336E-09
  -9.11999989       4.75431206E-09
  -9.10999966       4.92442886E-09
  -9.10000038       5.10347942E-09
  -9.09000015       5.29071587E-09
  -9.07999992       5.48531043E-09
  -9.06999969       5.68636205E-09
  -9.06000042       5.89291060E-09
  -9.05000019       6.10391071E-09
  -9.03999996       6.31828456E-09
  -9.02999973       6.53489929E-09
  -9.02000046       6.75258072E-09
  -9.01000023       6.97011471E-09
  -9.00000000       7.18626980E-09
  -8.98999977       7.39979944E-09
  -8.97999954       7.60944641E-09
  -8.97000027       7.81396370E-09
  -8.96000004       8.01211897E-09
  -8.94999981       8.20268742E-09
  -8.93999958       8.38448955E-09
  -8.93000031       8.55638849E-09
  -8.92000008       8.71729888E-09
  -8.90999985       8.86619400E-09
  -8.89999962       9.00211106E-09
  -8.89000034       9.12418496E-09
  -8.88000011       9.23161814E-09
  -8.86999989       9.32370181E-09
  -8.85999966       9.39982314E-09
  -8.85000038       9.45948830E-09
  -8.84000015       9.50228163E-09
  -8.82999992       9.52790558E-09
  -8.81999969       9.53617896E-09
  -8.81000042       9.52703783E-09
  -8.80000019       9.50051859E-09
  -8.78999996       9.45681311E-09
  -8.77999973       9.39618428E-09
  -8.77000046       9.31902822E-09
  -8.76000023       9.22583698E-09
  -8.75000000       9.11715237E-09
  -8.73999977       8.99363783E-09
  -8.72999954       8.85596751E-09
  -8.72000027       8.70489547E-09
  -8.71000004       8.54121840E-09
  -8.69999981       8.36572500E-09
  -8.68999958       8.17926260E-09
  -8.68000031       7.98269362E-09
  -8.67000008       7.77686715E-09
  -8.65999985       7.56262697E-09
  -8.64999962       7.34083550E-09
  -8.64000034       7.11232273E-09
  -8.63000011       6.87787072E-09
  -8.61999989       6.63826505E-09
  -8.60999966       6.39424691E-09
  -8.60000038       6.14650819E-09
  -8.59000015       5.89574523E-09
  -8.57999992       5.64261349E-09
  -8.56999969       5.38772937E-09
  -8.56000042       5.13167819E-09
  -8.55000019       4.87505192E-09
  -8.53999996       4.61837635E-09
  -8.52999973       4.36216707E-09
  -8.52000046       4.10692857E-09
  -8.51000023       3.85310628E-09
  -8.50000000       3.60114383E-09
  -8.48999977       3.35144801E-09
  -8.47999954       3.10442938E-09
  -8.47000027       2.86047586E-09
  -8.46000004       2.61995892E-09
  -8.44999981       2.38328401E-09
  -8.43999958       2.15080709E-09
  -8.43000031       1.92288852E-09
  -8.42000008       1.69991188E-09
  -8.40999985       1.48221113E-09
  -8.39999962       1.27016575E-09
  -8.39000034       1.06413744E-09
  -8.38000011       8.64496252E-10
  -8.36999989       6.71622147E-10
  -8.35999966       4.85936402E-10
  -8.35000038       3.07846693E-10
  -8.34000015       1.37831857E-10
  -8.32999992      -2.36581657E-11
  -8.31999969      -1.76132262E-10
  -8.31000042      -3.19106325E-10
  -8.30000019      -4.52085508E-10
  -8.28999996      -5.74571946E-10
  -8.27999973      -6.86049884E-10
  -8.27000046      -7.86021970E-10
  -8.26000023      -8.74005313E-10
  -8.25000000      -9.49502810E-10
  -8.23999977      -1.01201525E-09
  -8.22999954      -1.06106901E-09
  -8.22000027      -1.09615994E-09
  -8.21000004      -1.11683351E-09
  -8.19999981      -1.12262311E-09
  -8.18999958      -1.11307874E-09
  -8.18000031      -1.08773068E-09
  -8.17000008      -1.04613962E-09
  -8.15999985      -9.87876669E-10
  -8.14999962      -9.12488418E-10
  -8.14000034      -8.19592505E-10
  -8.13000011      -7.08798076E-10
  -8.11999989      -5.79779502E-10
  -8.10999966      -4.32232694E-10
  -8.10000038      -2.65949984E-10
  -8.09000015      -8.07426834E-11
  -8.07999992       1.23470331E-10
  -8.06999969       3.46719625E-10
  -8.06000042       5.88972260E-10
  -8.05000019       8.50103266E-10
  -8.03999996       1.12990517E-09
  -8.02999973       1.42809697E-09
  -8.02000046       1.74431691E-09
  -8.01000023       2.07811524E-09
  -8.00000000       2.42896858E-09
  -7.98999977       2.79626589E-09
  -7.98000002       3.17931259E-09
  -7.96999979       3.57735819E-09
  -7.96000004       3.98959354E-09
  -7.94999981       4.41513315E-09
  -7.94000006       4.85307394E-09
  -7.92999983       5.30246025E-09
  -7.92000008       5.76231773E-09
  -7.90999985       6.23162411E-09
  -7.90000010       6.70935618E-09
  -7.88999987       7.19449078E-09
  -7.88000011       7.68598074E-09
  -7.86999989       8.18278600E-09
  -7.86000013       8.68386429E-09
  -7.84999990       9.18817999E-09
  -7.84000015       9.69472502E-09
  -7.82999992       1.02024966E-08
  -7.82000017       1.07104920E-08
  -7.80999994       1.12177805E-08
  -7.80000019       1.17233903E-08
  -7.78999996       1.22264208E-08
  -7.78000021       1.27259572E-08
  -7.76999998       1.32211424E-08
  -7.76000023       1.37111345E-08
  -7.75000000       1.41951233E-08
  -7.73999977       1.46723202E-08
  -7.73000002       1.51419659E-08
  -7.71999979       1.56033515E-08
  -7.71000004       1.60558109E-08
  -7.69999981       1.64987135E-08
  -7.69000006       1.69314909E-08
  -7.67999983       1.73536296E-08
  -7.67000008       1.77646822E-08
  -7.65999985       1.81642523E-08
  -7.65000010       1.85520150E-08
  -7.63999987       1.89277092E-08
  -7.63000011       1.92911696E-08
  -7.61999989       1.96422825E-08
  -7.61000013       1.99810124E-08
  -7.59999990       2.03073984E-08
  -7.59000015       2.06215862E-08
  -7.57999992       2.09237943E-08
  -7.57000017       2.12142961E-08
  -7.55999994       2.14934364E-08
  -7.55000019       2.17617000E-08
  -7.53999996       2.20195613E-08
  -7.53000021       2.22675780E-08
  -7.51999998       2.25064074E-08
  -7.51000023       2.27366890E-08
  -7.50000000       2.29591812E-08
  -7.48999977       2.31746267E-08
  -7.48000002       2.33838193E-08
  -7.46999979       2.35875319E-08
  -7.46000004       2.37865709E-08
  -7.44999981       2.39816877E-08
  -7.44000006       2.41736196E-08