  -16.0000000       0.00000000    
  -15.9899998       0.00000000    
  -15.9799995       0.00000000    
  -15.9700003       0.00000000    
  -15.9600000       0.00000000    
  -15.9499998       0.00000000    
  -15.9399996       0.00000000    
  -15.9300003       0.00000000    
  -15.9200001       0.00000000    
  -15.9099998       0.00000000    
  -15.8999996       0.00000000    
  -15.8900003       0.00000000    
  -15.8800001       0.00000000    
  -15.8699999       0.00000000    
  -15.8599997       0.00000000    
  -15.8500004       0.00000000    
  -15.8400002       7.00649232E-45
  -15.8299999       6.72623263E-44
  -15.8199997       5.70328475E-43
  -15.8100004       3.96147076E-42
  -15.8000002       2.31634636E-41
  -15.7900000       1.15972862E-40
  -15.7799997       5.04998539E-40
  -15.7700005       1.93792011E-39
  -15.7600002       6.62630183E-39
  -15.7500000       2.03670716E-38
  -15.7399998       5.66504163E-38
  -15.7299995       1.43229877E-37
  -15.7200003       3.29834068E-37
  -15.7100000       6.91076951E-37
  -15.6999998       1.31012295E-36
  -15.6899996       2.21744967E-36
  -15.6800003       3.25183788E-36
  -15.6700001       3.82342990E-36
  -15.6599998       2.61664027E-36
  -15.6499996      -2.60178498E-36
  -15.6400003      -1.47127453E-35
  -15.6300001      -3.59834261E-35
  -15.6199999      -6.53367311E-35
  -15.6099997      -9.42586044E-35
  -15.6000004      -1.02826024E-34
  -15.5900002      -5.93579590E-35
  -15.5799999       7.11444136E-35
  -15.5699997       3.05364458E-34
  -15.5600004       6.08168956E-34
  -15.5500002       8.60412274E-34
  -15.5400000       8.55937956E-34
  -15.5299997       3.63186566E-34
  -15.5200005      -7.28617821E-34
  -15.5100002      -2.21035678E-33
  -15.5000000      -3.41539443E-33
  -15.4899998      -3.33139581E-33
  -15.4799995      -1.13412062E-33
  -15.4700003       2.87855865E-33
  -15.4600000       6.37562642E-33
  -15.4499998       5.00581477E-33
  -15.4399996      -5.56545111E-33
  -15.4300003      -2.50859575E-32
  -15.4200001      -4.28731531E-32
  -15.4099998      -3.46783940E-32
  -15.3999996       3.14141491E-32
  -15.3900003       1.74272609E-31
  -15.3800001       3.64691527E-31
  -15.3699999       4.89712921E-31
  -15.3599997       3.46527694E-31
  -15.3500004      -2.93932574E-31
  -15.3400002      -1.52599686E-30
  -15.3299999      -3.07199876E-30
  -15.3199997      -4.07492546E-30
  -15.3100004      -3.11860983E-30
  -15.3000002       1.29452528E-30
  -15.2900000       9.69147057E-30
  -15.2799997       2.02049401E-29
  -15.2700005       2.74663460E-29
  -15.2600002       2.29514396E-29
  -15.2500000      -2.05088180E-30
  -15.2399998      -5.04728039E-29
  -15.2299995      -1.11944088E-28
  -15.2200003      -1.57578132E-28
  -15.2100000      -1.42766791E-28
  -15.1999998      -2.30656367E-29
  -15.1899996       2.16465859E-28
  -15.1800003       5.27019992E-28
  -15.1700001       7.75662074E-28
  -15.1599998       7.62986759E-28
  -15.1499996       2.96012471E-28
  -15.1400003      -6.90458355E-28
  -15.1300001      -2.00746900E-27
  -15.1199999      -3.15688152E-27
  -15.1099997      -3.42723201E-27
  -15.1000004      -2.16998668E-27
  -15.0900002       8.17351957E-28
  -15.0799999       4.99121115E-27
  -15.0699997       9.08393593E-27
  -15.0600004       1.15801414E-26
  -15.0500002       1.14913291E-26
  -15.0400000       8.90273135E-27
  -15.0299997       4.58034713E-27
  -15.0200005      -1.74284411E-27
  -15.0100002      -1.37389710E-26
  -15.0000000      -3.93610715E-26
  -14.9899998      -8.70388632E-26
  -14.9799995      -1.54865450E-25
  -14.9700003      -2.14434014E-25
  -14.9600000      -1.97966678E-25
  -14.9499998      -4.63082768E-27
  -14.9399996       4.56233464E-25
  -14.9300003       1.17779241E-24
  -14.9200001       1.94421811E-24
  -14.9099998       2.25435838E-24
  -14.8999996       1.37433828E-24
  -14.8900003      -1.38752498E-24
  -14.8800001      -6.15692447E-24
  -14.8699999      -1.18418530E-23
  -14.8599997      -1.56728991E-23
  -14.8500004      -1.34175979E-23
  -14.8400002      -7.37530712E-25
  -14.8299999       2.41718704E-23
  -14.8199997       5.72130838E-23
  -14.8100004       8.57645790E-23
  -14.8000002       8.90325773E-23
  -14.7900000       4.35987393E-23
  -14.7799997      -6.49684826E-23
  -14.7700005      -2.26484061E-22
  -14.7600002      -3.92473951E-22
  -14.7500000      -4.73826614E-22
  -14.7399998      -3.59615989E-22
  -14.7299995       3.77919152E-23
  -14.7200003       7.17291203E-22
  -14.7100000       1.52467613E-21
  -14.6999998       2.12526408E-21
  -14.6899996       2.05409323E-21
  -14.6800003       8.70202991E-22
  -14.6700001      -1.59608568E-21
  -14.6599998      -4.97056061E-21
  -14.6499996      -8.16224993E-21
  -14.6400003      -9.44433545E-21
  -14.6300001      -6.91049060E-21
  -14.6199999       6.86683501E-22
  -14.6099997       1.28975463E-20
  -14.6000004       2.67315920E-20
  -14.5900002       3.65428232E-20
  -14.5799999       3.51395016E-20
  -14.5699997       1.63049496E-20
  -14.5600004      -2.16592445E-20
  -14.5500002      -7.24708638E-20
  -14.5400000      -1.20175966E-19
  -14.5299997      -1.41023683E-19
  -14.5200005      -1.10017568E-19
  -14.5100002      -1.16770397E-20
  -14.5000000       1.47658835E-19
  -14.4899998       3.30777946E-19
  -14.4799995       4.69622487E-19
  -14.4700003       4.79133823E-19
  -14.4600000       2.85871681E-19
  -14.4499998      -1.33747492E-19
  -14.4399996      -7.17580991E-19
  -14.4300003      -1.30112460E-18
  -14.4200001      -1.63679253E-18
  -14.4099998      -1.45824932E-18
  -14.3999996      -5.83865849E-19
  -14.3900003       9.66099082E-19
  -14.3800001       2.88161519E-18
  -14.3699999       4.55466449E-18
  -14.3599997       5.19045660E-18
  -14.3500004       4.04593352E-18
  -14.3400002       7.54412190E-19
  -14.3299999      -4.35806930E-18
  -14.3199997      -1.00962150E-17
  -14.3100004      -1.44896186E-17
  -14.3000002      -1.52344252E-17
  -14.2900000      -1.04525537E-17
  -14.2799997       3.99208427E-19
  -14.2700005       1.57648134E-17
  -14.2600002       3.17236636E-17
  -14.2500000       4.25245480E-17
  -14.2399998       4.20267010E-17
  -14.2299995       2.58501866E-17
  -14.2200003      -6.30656313E-18
  -14.2100000      -4.89879421E-17
  -14.1999998      -9.08031760E-17
  -14.1899996      -1.16362580E-16
  -14.1800003      -1.10378438E-16
  -14.1700001      -6.32029648E-17
  -14.1599998       2.37009232E-17
  -14.1499996       1.34346784E-16
  -14.1400003       2.38790314E-16
  -14.1300001       2.98807972E-16
  -14.1199999       2.78373937E-16
  -14.1099997       1.56826033E-16
  -14.1000004      -5.89957257E-17
  -14.0900002      -3.28159251E-16
  -14.0799999      -5.78585389E-16
  -14.0699997      -7.21447025E-16
  -14.0600004      -6.75595702E-16
  -14.0500002      -3.96772414E-16
  -14.0400000       9.67692129E-17
  -14.0299997       7.11764803E-16
  -14.0200005       1.28840509E-15
  -14.0100002       1.63281662E-15
  -14.0000000       1.56954887E-15
  -13.9899998       1.00243956E-15
  -13.9799995      -3.34907464E-17
  -13.9700003      -1.34805135E-15
  -13.9600000      -2.61453575E-15
  -13.9499998      -3.43580534E-15
  -13.9399996      -3.44873234E-15
  -13.9300003      -2.44365088E-15
  -13.9200001      -4.65316173E-16
  -13.9099998       2.14008909E-15
  -13.8999996       4.75860653E-15
  -13.8900003       6.63058238E-15
  -13.8800001       7.04345758E-15
  -13.8699999       5.55218958E-15
  -13.8599997       2.16685724E-15
  -13.8500004      -2.55539062E-15
  -13.8400002      -7.56069740E-15
  -13.8299999      -1.15041279E-14
  -13.8199997      -1.30797168E-14
  -13.8100004      -1.14010838E-14
  -13.8000002      -6.33034139E-15
  -13.7900000       1.35004526E-15
  -13.7799997       9.99985668E-15
  -13.7700005       1.74396410E-14
  -13.7600002       2.14750228E-14
  -13.7500000       2.05080229E-14
  -13.7399998       1.40721243E-14
  -13.7299995       3.12489851E-15
  -13.7200003      -1.00220489E-14
  -13.7100000      -2.21674316E-14
  -13.6999998      -2.99993422E-14
  -13.6899996      -3.10054208E-14
  -13.6800003      -2.42666130E-14
  -13.6700001      -1.08879767E-14
  -13.6599998       6.10506916E-15
  -13.6499996       2.24396070E-14
  -13.6400003       3.37053959E-14
  -13.6300001       3.66218862E-14
  -13.6199999       3.00986686E-14
  -13.6099997       1.57425207E-14
  -13.6000004      -2.40947649E-15
  -13.5900002      -1.89397075E-14
  -13.5799999      -2.86485482E-14
  -13.5699997      -2.82635226E-14
  -13.5600004      -1.77260228E-14
  -13.5500002      -5.82766609E-16
  -13.5400000       1.67732954E-14
  -13.5299997       2.69352835E-14
  -13.5200005       2.39533667E-14
  -13.5100002       5.73450919E-15
  -13.5000000      -2.44318539E-14
  -13.4899998      -5.78779510E-14
  -13.4799995      -8.23691769E-14
  -13.4700003      -8.54719331E-14
  -13.4600000      -5.86898219E-14
  -13.4499998      -1.19995187E-15
  -13.4399996       7.80620889E-14
  -13.4300003       1.60929050E-13
  -13.4200001       2.23471117E-13
  -13.4099998       2.41903069E-13
  -13.3999996       1.99608356E-13
  -13.3900003       9.34068835E-14
  -13.3800001      -6.28919659E-14
  -13.3699999      -2.39126210E-13
  -13.3599997      -3.94102801E-13
  -13.3500004      -4.84830438E-13
  -13.3400002      -4.77661855E-13
  -13.3299999      -3.58529802E-13
  -13.3199997      -1.39336066E-13
  -13.3100004       1.41751628E-13
  -13.3000002       4.26914987E-13
  -13.2900000       6.51215410E-13
  -13.2799997       7.58282163E-13
  -13.2700005       7.15236518E-13
  -13.2600002       5.22731055E-13
  -13.2500000       2.16934597E-13
  -13.2399998      -1.37752629E-13
  -13.2299995      -4.63993210E-13
  -13.2200003      -6.91172597E-13
  -13.2100000      -7.74221724E-13
  -13.1999998      -7.06191345E-13
  -13.1899996      -5.20490389E-13
  -13.1800003      -2.81366022E-13
  -13.1700001      -6.45356571E-14
  -13.1599998       6.69946344E-14
  -13.1499996       8.49374621E-14
  -13.1400003       8.47184990E-15
  -13.1300001      -9.73495779E-14
  -13.1199999      -1.38863354E-13
  -13.1099997      -2.34623417E-14
  -13.1000004       3.05789329E-13
  -13.0900002       8.40561290E-13
  -13.0799999       1.49255608E-12
  -13.0699997       2.10059834E-12
  -13.0600004       2.46105089E-12
  -13.0500002       2.37664922E-12
  -13.0400000       1.71298002E-12
  -13.0299997       4.48276019E-13
  -13.0200005      -1.29778707E-12
  -13.0100002      -3.26669269E-12
  -13.0000000      -5.09835837E-12
  -12.9899998      -6.39765324E-12
  -12.9799995      -6.81675246E-12
  -12.9700003      -6.13479493E-12
  -12.9600000      -4.31572313E-12
  -12.9499998      -1.52949181E-12
  -12.9399996       1.86971532E-12
  -12.9300003       5.40425517E-12
  -12.9200001       8.55905104E-12
  -12.9099998       1.08728694E-11
  -12.8999996       1.20137632E-11
  -12.8900003       1.18221995E-11
  -12.8800001       1.03144698E-11
  -12.8699999       7.65010017E-12
  -12.8599997       4.07681788E-12
  -12.8500004      -1.27527492E-13
  -12.8400002      -4.69694813E-12
  -12.8299999      -9.39035308E-12
  -12.8199997      -1.39734032E-11
  -12.8100004      -1.81787953E-11
  -12.8000002      -2.16638998E-11
  -12.7900000      -2.39883183E-11
  -12.7799997      -2.46302857E-11
  -12.7700005      -2.30504591E-11
  -12.7600002      -1.87970559E-11
  -12.7500000      -1.16319437E-11
  -12.7399998      -1.64712666E-12
  -12.7299995       1.06608654E-11
  -12.7200003       2.43841614E-11
  -12.7100000       3.82745745E-11
  -12.6999998       5.08835023E-11
  -12.6899996       6.07436740E-11
  -12.6800003       6.65539776E-11
  -12.6700001       6.73275047E-11
  -12.6599998       6.24727214E-11
  -12.6499996       5.17973199E-11
  -12.6400003       3.54472424E-11
  -12.6300001       1.38146734E-11
  -12.6199999      -1.25401391E-11
  -12.6099997      -4.29092213E-11
  -12.6000004      -7.63719157E-11
  -12.5900002      -1.11644208E-10
  -12.5799999      -1.46873597E-10
  -12.5699997      -1.79439102E-10
  -12.5600004      -2.05832060E-10
  -12.5500002      -2.21692262E-10
  -12.5400000      -2.22052723E-10
  -12.5299997      -2.01810721E-10
  -12.5200005      -1.56396729E-10
  -12.5100002      -8.25695276E-11
  -12.5000000       2.07665898E-11
  -12.4899998       1.51839125E-10
  -12.4799995       3.05488718E-10
  -12.4700003       4.72929584E-10
  -12.4600000       6.41826148E-10
  -12.4499998       7.96671895E-10
  -12.4399996       9.19419041E-10
  -12.4300003       9.90285187E-10
  -12.4200001       9.88659155E-10
  -12.4099998       8.94048835E-10
  -12.3999996       6.87040647E-10
  -12.3900003       3.50275142E-10
  -12.3800001      -1.30536831E-10
  -12.3699999      -7.65533026E-10
  -12.3599997      -1.55954383E-09
  -12.3500004      -2.51090704E-09
  -12.3400002      -3.61034003E-09
  -12.3299999      -4.84002349E-09
  -12.3199997      -6.17306561E-09
  -12.3100004      -7.57352314E-09
  -12.3000002      -8.99710617E-09
  -12.2900000      -1.03926121E-08
  -12.2799997      -1.17040244E-08
  -12.2700005      -1.28731070E-08
  -12.2600002      -1.38422038E-08
  -12.2500000      -1.45569672E-08
  -12.2399998      -1.49686947E-08
  -12.2299995      -1.50360808E-08
  -12.2200003      -1.47262371E-08
  -12.2100000      -1.40150904E-08
  -12.1999998      -1.28872433E-08
  -12.1899996      -1.13355956E-08
  -12.1800003      -9.36098843E-09
  -12.1700001      -6.97200031E-09
  -12.1599998      -4.18501100E-09
  -12.1499996      -1.02452169E-09
  -12.1400003       2.47655718E-09
  -12.1300001       6.27675956E-09
  -12.1199999       1.03265156E-08
  -12.1099997       1.45691681E-08
  -12.1000004       1.89426999E-08
  -12.0900002       2.33819097E-08
  -12.0799999       2.78208923E-08
  -12.0699997       3.21952740E-08
  -12.0600004       3.64439003E-08
  -12.0500002       4.05098106E-08
  -12.0400000       4.43401653E-08
  -12.0299997       4.78855249E-08
  -12.0200005       5.10986027E-08
  -12.0100002       5.39329861E-08
  -12.0000000       5.63421523E-08
  -11.9899998       5.82791024E-08
  -11.9799995       5.96968448E-08
  -11.9700003       6.05493966E-08
  -11.9600000       6.07932193E-08
  -11.9499998       6.03887003E-08
  -11.9399996       5.93012999E-08
  -11.9300003       5.75022199E-08
  -11.9200001       5.49685808E-08
  -11.9099998       5.16830525E-08
  -11.8999996       4.76337227E-08
  -11.8900003       4.28140616E-08
  -11.8800001       3.72234297E-08
  -11.8699999       3.08684172E-08
  -11.8599997       2.37647040E-08
  -11.8500004       1.59390385E-08
  -11.8400002       7.43119166E-09
  -11.8299999      -1.70505610E-09
  -11.8199997      -1.14019487E-08
  -11.8100004      -2.15789431E-08
  -11.8000002      -3.21453584E-08
  -11.7900000      -4.30036060E-08
  -11.7799997      -5.40530003E-08
  -11.7700005      -6.51929852E-08
  -11.7600002      -7.63258043E-08
  -11.7500000      -8.73579467E-08
  -11.7399998      -9.82005872E-08
  -11.7299995      -1.08768674E-07
  -11.7200003      -1.18979585E-07
  -11.7100000      -1.28751509E-07
  -11.6999998      -1.38001980E-07
  -11.6899996      -1.46646784E-07
  -11.6800003      -1.54599931E-07
  -11.6700001      -1.61773769E-07
  -11.6599998      -1.68080106E-07
  -11.6499996      -1.73431118E-07
  -11.6400003      -1.77740944E-07
  -11.6300001      -1.80926577E-07
  -11.6199999      -1.82909062E-07
  -11.6099997      -1.83614333E-07
  -11.6000004      -1.82973793E-07
  -11.5900002      -1.80925326E-07
  -11.5799999      -1.77413867E-07
  -11.5699997      -1.72392561E-07
  -11.5600004      -1.65823977E-07
  -11.5500002      -1.57680830E-07
  -11.5400000      -1.47947503E-07
  -11.5299997      -1.36620557E-07
  -11.5200005      -1.23709597E-07
  -11.5100002      -1.09237121E-07
  -11.5000000      -9.32384694E-08
  -11.4899998      -7.57607026E-08
  -11.4799995      -5.68619498E-08
  -11.4700003      -3.66092863E-08
  -11.4600000      -1.50775108E-08
  -11.4499998       7.65218289E-09
  -11.4399996       3.14945865E-08
  -11.4300003       5.63610492E-08
  -11.4200001       8.21612574E-08
  -11.4099998       1.08803079E-07
  -11.3999996       1.36194075E-07
  -11.3900003       1.64241499E-07
  -11.3800001       1.92852269E-07
  -11.3699999       2.21933732E-07
  -11.3599997       2.51393402E-07
  -11.3500004       2.81138682E-07
  -11.3400002       3.11078026E-07
  -11.3299999       3.41119829E-07
  -11.3199997       3.71173343E-07
  -11.3100004       4.01148071E-07
  -11.3000002       4.30954685E-07
  -11.2900000       4.60504680E-07
  -11.2799997       4.89711738E-07
  -11.2700005       5.18492072E-07
  -11.2600002       5.46765534E-07
  -11.2500000       5.74456465E-07
  -11.2399998       6.01493980E-07
  -11.2299995       6.27811744E-07
  -11.2200003       6.53347911E-07
  -11.2100000       6.78043250E-07
  -11.1999998       7.01840520E-07
  -11.1899996       7.24682366E-07
  -11.1800003       7.46510295E-07
  -11.1700001       7.67265078E-07
  -11.1599998       7.86886176E-07
  -11.1499996       8.05314585E-07
  -11.1400003       8.22493632E-07
  -11.1300001       8.38374717E-07
  -11.1199999       8.52916855E-07
  -11.1099997       8.66089863E-07
  -11.1000004       8.77877483E-07
  -11.0900002       8.88276531E-07
  -11.0799999       8.97297014E-07
  -11.0699997       9.04958938E-07
  -11.0600004       9.11295729E-07
  -11.0500002       9.16345414E-07
  -11.0400000       9.20154207E-07
  -11.0299997       9.22770425E-07
  -11.0200005       9.24245455E-07
  -11.0100002       9.24630683E-07
  -11.0000000       9.23973460E-07
  -10.9899998       9.22321874E-07
  -10.9799995       9.19713329E-07
  -10.9700003       9.16179374E-07
  -10.9600000       9.11744053E-07
  -10.9499998       9.06420553E-07
  -10.9399996       9.00214275E-07
  -10.9300003       8.93122831E-07
  -10.9200001       8.85139571E-07
  -10.9099998       8.76254830E-07
  -10.8999996       8.66457356E-07
  -10.8900003       8.55739813E-07
  -10.8800001       8.44094359E-07
  -10.8699999       8.31518662E-07
  -10.8599997       8.18005162E-07
  -10.8500004       8.03547039E-07
  -10.8400002       7.88134855E-07
  -10.8299999       7.71749342E-07
  -10.8199997       7.54366226E-07
  -10.8100004       7.35951630E-07
  -10.8000002       7.16472869E-07
  -10.7900000       6.95894983E-07
  -10.7799997       6.74184093E-07
  -10.7700005       6.51314906E-07
  -10.7600002       6.27275085E-07
  -10.7500000       6.02062698E-07
  -10.7399998       5.75690137E-07
  -10.7299995       5.48179514E-07
  -10.7200003       5.19560217E-07
  -10.7100000       4.89865045E-07
  -10.6999998       4.59124607E-07
  -10.6899996       4.27362949E-07
  -10.6800003       3.94594821E-07
  -10.6700001       3.60827073E-07
  -10.6599998       3.26052941E-07
  -10.6499996       2.90260658E-07
  -10.6400003       2.53437008E-07
  -10.6300001       2.15569131E-07
  -10.6199999       1.76651014E-07
  -10.6099997       1.36687220E-07
  -10.6000004       9.56981197E-08
  -10.5900002       5.37172120E-08
  -10.5799999       1.07966924E-08
  -10.5699997      -3.30012320E-08
  -10.5600004      -7.76057334E-08
  -10.5500002      -1.22939824E-07
  -10.5400000      -1.68921517E-07
  -10.5299997      -2.15473079E-07
  -10.5200005      -2.62518256E-07
  -10.5100002      -3.09985722E-07
  -10.5000000      -3.57810023E-07
  -10.4899998      -4.05929910E-07
  -10.4799995      -4.54287317E-07
  -10.4700003      -5.02826310E-07
  -10.4600000      -5.51483595E-07
  -10.4499998      -6.00190845E-07
  -10.4399996      -6.48870810E-07
  -10.4300003      -6.97433677E-07
  -10.4200001      -7.45779573E-07
  -10.4099998      -7.93795436E-07
  -10.3999996      -8.41355416E-07
  -10.3900003      -8.88323370E-07
  -10.3800001      -9.34556795E-07
  -10.3699999      -9.79909260E-07
  -10.3599997      -1.02423485E-06
  -10.3500004      -1.06739139E-06
  -10.3400002      -1.10924191E-06
  -10.3299999      -1.14966372E-06
  -10.3199997      -1.18854382E-06
  -10.3100004      -1.22578331E-06
  -10.3000002      -1.26130078E-06
  -10.2900000      -1.29502723E-06
  -10.2799997      -1.32690889E-06
  -10.2700005      -1.35690573E-06
  -10.2600002      -1.38499195E-06
  -10.2500000      -1.41115345E-06
  -10.2399998      -1.43538944E-06
  -10.2299995      -1.45771673E-06
  -10.2200003      -1.47816650E-06
  -10.2100000      -1.49678931E-06
  -10.1999998      -1.51365987E-06
  -10.1899996      -1.52887901E-06
  -10.1800003      -1.54257168E-06
  -10.1700001      -1.55489204E-06
  -10.1599998      -1.56601823E-06
  -10.1499996      -1.57615113E-06
  -10.1400003      -1.58550654E-06
  -10.1300001      -1.59430635E-06
  -10.1199999      -1.60277193E-06
  -10.1099997      -1.61111689E-06
  -10.1000004      -1.61953665E-06
  -10.0900002      -1.62820595E-06
  -10.0799999      -1.63727441E-06
  -10.0699997      -1.64686537E-06
  -10.0600004      -1.65707706E-06
  -10.0500002      -1.66798304E-06
  -10.0400000      -1.67963435E-06
  -10.0299997      -1.69206214E-06
  -10.0200005      -1.70527971E-06
  -10.0100002      -1.71928207E-06
  -10.0000000      -1.73405033E-06
  -9.98999977      -1.74955164E-06
  -9.97999954      -1.76574235E-06
  -9.97000027      -1.78257142E-06
  -9.96000004      -1.79998267E-06
  -9.94999981      -1.81791847E-06
  -9.93999958      -1.83632403E-06
  -9.93000031      -1.85515148E-06
  -9.92000008      -1.87436274E-06
  -9.90999985      -1.89393461E-06
  -9.89999962      -1.91386152E-06
  -9.89000034      -1.93415849E-06
  -9.88000011      -1.95486859E-06
  -9.86999989      -1.97605777E-06
  -9.85999966      -1.99781698E-06
  -9.85000038      -2.02026195E-06
  -9.84000015      -2.04352614E-06
  -9.82999992      -2.06775712E-06
  -9.81999969      -2.09310861E-06
  -9.81000042      -2.11973747E-06
  -9.80000019      -2.14779720E-06
  -9.78999996      -2.17743741E-06
  -9.77999973      -2.20880156E-06
  -9.77000046      -2.24203268E-06
  -9.76000023      -2.27727037E-06
  -9.75000000      -2.31465697E-06
  -9.73999977      -2.35433708E-06
  -9.72999954      -2.39645306E-06
  -9.72000027      -2.44114449E-06
  -9.71000004      -2.48854235E-06
  -9.69999981      -2.53875578E-06
  -9.68999958      -2.59186982E-06
  -9.68000031      -2.64793198E-06
  -9.67000008      -2.70694841E-06
  -9.65999985      -2.76887522E-06
  -9.64999962      -2.83361305E-06
  -9.64000034      -2.90100729E-06
  -9.63000011      -2.97084034E-06
  -9.61999989      -3.04283731E-06
  -9.60999966      -3.11667213E-06
  -9.60000038      -3.19195806E-06
  -9.59000015      -3.26826193E-06
  -9.57999992      -3.34511310E-06
  -9.56999969      -3.42200224E-06
  -9.56000042      -3.49839638E-06
  -9.55000019      -3.57374529E-06
  -9.53999996      -3.64748439E-06
  -9.52999973      -3.71905048E-06
  -9.52000046      -3.78787718E-06
  -9.51000023      -3.85341218E-06
  -9.50000000      -3.91511776E-06
  -9.48999977      -3.97247049E-06
  -9.47999954      -4.02498881E-06
  -9.47000027      -4.07222069E-06
  -9.46000004      -4.11376504E-06
  -9.44999981      -4.14927399E-06
  -9.43999958      -4.17847195E-06
  -9.43000031      -4.20116021E-06
  -9.42000008      -4.21722598E-06
  -9.40999985      -4.22666426E-06
  -9.39999962      -4.22956782E-06
  -9.39000034      -4.22615631E-06
  -9.38000011      -4.21676168E-06
  -9.36999989      -4.20183915E-06
  -9.35999966      -4.18197169E-06
  -9.35000038      -4.15784871E-06
  -9.34000015      -4.13027419E-06
  -9.32999992      -4.10015764E-06
  -9.31999969      -4.06849404E-06
  -9.31000042      -4.03636250E-06
  -9.30000019      -4.00490399E-06
  -9.28999996      -3.97531539E-06
  -9.27999973      -3.94884955E-06
  -9.27000046      -3.92676429E-06
  -9.26000023      -3.91034200E-06
  -9.25000000      -3.90085461E-06
  -9.23999977      -3.89955858E-06
  -9.22999954      -3.90765808E-06
  -9.22000027      -3.92631318E-06
  -9.21000004      -3.95662300E-06
  -9.19999981      -3.99959208E-06
  -9.18999958      -4.05613810E-06
  -9.18000031      -4.12708960E-06
  -9.17000008      -4.21314235E-06
  -9.15999985      -4.31489116E-06
  -9.14999962      -4.43278213E-06
  -9.14000034      -4.56714133E-06
  -9.13000011      -4.71812564E-06
  -9.11999989      -4.88576052E-06
  -9.10999966      -5.06989045E-06
  -9.10000038      -5.27020075E-06
  -9.09000015      -5.48621347E-06
  -9.07999992      -5.71727196E-06
  -9.06999969      -5.96255677E-06
  -9.06000042      -6.22110383E-06
  -9.05000019      -6.49179174E-06
  -9.03999996      -6.77334083E-06
  -9.02999973      -7.06435003E-06
  -9.02000046      -7.36332049E-06
  -9.01000023      -7.66864196E-06
  -9.00000000      -7.97862322E-06
  -8.98999977      -8.29149030E-06
  -8.97999954      -8.60544060E-06
  -8.97000027      -8.91861146E-06
  -8.96000004      -9.22912659E-06
  -8.94999981      -9.53509516E-06
  -8.93999958      -9.83464633E-06
  -8.93000031      -1.01259102E-05
  -8.92000008      -1.04070677E-05
  -8.90999985      -1.06763455E-05
  -8.89999962      -1.09320163E-05
  -8.89000034      -1.11724412E-05
  -8.88000011      -1.13960459E-05
  -8.86999989      -1.16013507E-05
  -8.85999966      -1.17869677E-05
  -8.85000038      -1.19516244E-05
  -8.84000015      -1.20941668E-05
  -8.82999992      -1.22135816E-05
  -8.81999969      -1.23090040E-05
  -8.81000042      -1.23797099E-05
  -8.80000019      -1.24251546E-05
  -8.78999996      -1.24449653E-05
  -8.77999973      -1.24389135E-05
  -8.77000046      -1.24069538E-05
  -8.76000023      -1.23492009E-05
  -8.75000000      -1.22658921E-05
  -8.73999977      -1.21574021E-05
  -8.72999954      -1.20242303E-05
  -8.72000027      -1.18670177E-05
  -8.71000004      -1.16864958E-05
  -8.69999981      -1.14834993E-05
  -8.68999958      -1.12589387E-05
  -8.68000031      -1.10138062E-05
  -8.67000008      -1.07491505E-05
  -8.65999985      -1.04660530E-05
  -8.64999962      -1.01656105E-05
  -8.64000034      -9.84895451E-06
  -8.63000011      -9.51717448E-06
  -8.61999989      -9.17141642E-06
  -8.60999966      -8.81276083E-06
  -8.60000038      -8.44230453E-06
  -8.59000015      -8.06113167E-06
  -8.57999992      -7.67026631E-06
  -8.56999969      -7.27070983E-06
  -8.56000042      -6.86344629E-06
  -8.55000019      -6.44936745E-06
  -8.53999996      -6.02936461E-06
  -8.52999973      -5.60426133E-06
  -8.52000046      -5.17481249E-06
  -8.51000023      -4.74175840E-06
  -8.50000000      -4.30578984E-06
  -8.48999977      -3.86754800E-06
  -8.47999954      -3.42763997E-06
  -8.47000027      -2.98665577E-06
  -8.46000004      -2.54511860E-06
  -8.44999981      -2.10356552E-06
  -8.43999958      -1.66247173E-06
  -8.43000031      -1.22231086E-06
  -8.42000008      -7.83557709E-07
  -8.40999985      -3.46637762E-07
  -8.39999962       8.79837003E-08
  -8.39000034       5.19809987E-07
  -8.38000011       9.48336776E-07
  -8.36999989       1.37304619E-06
  -8.35999966       1.79338315E-06
  -8.35000038       2.20872744E-06
  -8.34000015       2.61852870E-06
  -8.32999992       3.02210083E-06
  -8.31999969       3.41882105E-06
  -8.31000042       3.80795723E-06
  -8.30000019       4.18884565E-06
  -8.28999996       4.56072348E-06
  -8.27999973       4.92285699E-06
  -8.27000046       5.27446855E-06
  -8.26000023       5.61479237E-06
  -8.25000000       5.94301537E-06
  -8.23999977       6.25835037E-06
  -8.22999954       6.55997655E-06
  -8.22000027       6.84704446E-06
  -8.21000004       7.11874873E-06
  -8.19999981       7.37417167E-06
  -8.18999958       7.61246292E-06
  -8.18000031       7.83272208E-06
  -8.17000008       8.03404782E-06
  -8.15999985       8.21552112E-06
  -8.14999962       8.37624611E-06
  -8.14000034       8.51533787E-06
  -8.13000011       8.63190871E-06
  -8.11999989       8.72510736E-06
  -8.10999966       8.79411891E-06
  -8.10000038       8.83813937E-06
  -8.09000015       8.85645750E-06
  -8.07999992       8.84839392E-06
  -8.06999969       8.81339474E-06
  -8.06000042       8.75096339E-06
  -8.05000019       8.66071059E-06
  -8.03999996       8.54237805E-06
  -8.02999973       8.39580844E-06
  -8.02000046       8.22094808E-06
  -8.01000023       8.01785973E-06
  -8.00000000       7.78670346E-06
  -7.98999977       7.52775986E-06
  -7.98000002       7.24140727E-06
  -7.96999979       6.92815911E-06
  -7.96000004       6.58860699E-06
  -7.94999981       6.22346533E-06
  -7.94000006       5.83359224E-06
  -7.92999983       5.41990175E-06
  -7.92000008       4.98342570E-06
  -7.90999985       4.52528866E-06
  -7.90000010       4.04667526E-06
  -7.88999987       3.54882854E-06
  -7.88000011       3.03304955E-06
  -7.86999989       2.50067546E-06
  -7.86000013       1.95310531E-06
  -7.84999990       1.39179463E-06
  -7.84000015       8.18181604E-07
  -7.82999992       2.33776589E-07
  -7.82000017      -3.59921472E-07
  -7.80999994      -9.61404567E-07
  -7.80000019      -1.56918202E-06
  -7.78999996      -2.18176342E-06
  -7.78000021      -2.79771552E-06
  -7.76999998      -3.41561531E-06
  -7.76000023      -4.03408421E-06
  -7.75000000      -4.65179892E-06
  -7.73999977      -5.26745407E-06
  -7.73000002      -5.87983050E-06
  -7.71999979      -6.48773675E-06
  -7.71000004      -7.09006099E-06
  -7.69999981      -7.68576319E-06
  -7.69000006      -8.27387248E-06
  -7.67999983      -8.85351983E-06
  -7.67000008      -9.42390307E-06
  -7.65999985      -9.98431915E-06
  -7.65000010      -1.05341442E-05
  -7.63999987      -1.10728315E-05
  -7.63000011      -1.15999283E-05
  -7.61999989      -1.21150697E-05
  -7.61000013      -1.26179548E-05
  -7.59999990      -1.31084134E-05
  -7.59000015      -1.35863120E-05
  -7.57999992      -1.40516586E-05
  -7.57000017      -1.45045224E-05
  -7.55999994      -1.49450443E-05
  -7.55000019      -1.53734636E-05
  -7.53999996      -1.57900849E-05
  -7.53000021      -1.61952739E-05
  -7.51999998      -1.65894671E-05
  -7.51000023      -1.69731793E-05
  -7.50000000      -1.73469434E-05
  -7.48999977      -1.77113834E-05
  -7.48000002      -1.80671814E-05
  -7.46999979      -1.84150067E-05
  -7.46000004      -1.87556216E-05
  -7.44999981      -1.90897772E-05
  -7.44000006      -1.94182612E-05