  -16.0000000       0.00000000    
  -15.9899998       0.00000000    
  -15.9799995       0.00000000    
  -15.9700003       0.00000000    
  -15.9600000       0.00000000    
  -15.9499998       0.00000000    
  -15.9399996       0.00000000    
  -15.9300003       0.00000000    
  -15.9200001       0.00000000    
  -15.9099998       0.00000000    
  -15.8999996       0.00000000    
  -15.8900003       0.00000000    
  -15.8800001       0.00000000    
  -15.8699999      -2.17517955E-40
  -15.8599997      -2.89342910E-39
  -15.8500004      -1.64937173E-38
  -15.8400002      -4.50540886E-38
  -15.8299999      -2.65544265E-38
  -15.8199997       9.94740021E-39
  -15.8100004      -2.42111443E-36
  -15.8000002      -2.28952421E-35
  -15.7900000      -1.16456122E-34
  -15.7799997      -4.03897242E-34
  -15.7700005      -9.96127596E-34
  -15.7600002      -1.56732262E-33
  -15.7500000      -2.83149498E-34
  -15.7399998       7.77650565E-33
  -15.7299995       3.14769058E-32
  -15.7200003       8.19124607E-32
  -15.7100000       1.68977607E-31
  -15.6999998       3.04191184E-31
  -15.6899996       5.16691692E-31
  -15.6800003       8.40429748E-31
  -15.6700001       1.08236849E-30
  -15.6599998      -3.03105509E-32
  -15.6499996      -6.67254529E-30
  -15.6400003      -2.79517856E-29
  -15.6300001      -7.62771536E-29
  -15.6199999      -1.53447951E-28
  -15.6099997      -2.13831235E-28
  -15.6000004      -1.05447301E-28
  -15.5900002       4.71150113E-28
  -15.5799999       1.87681392E-27
  -15.5699997       4.14867420E-27
  -15.5600004       6.19535340E-27
  -15.5500002       4.78128094E-27
  -15.5400000      -5.77429234E-27
  -15.5299997      -3.13488085E-26
  -15.5200005      -7.10824134E-26
  -15.5100002      -1.05413375E-25
  -15.5000000      -8.41522363E-26
  -15.4899998       7.14316631E-26
  -15.4799995       4.30528037E-25
  -15.4700003       9.60033269E-25
  -15.4600000       1.38748721E-24
  -15.4499998       1.09379371E-24
  -15.4399996      -8.05800954E-25
  -15.4300003      -4.98454424E-24
  -15.4200001      -1.09090265E-23
  -15.4099998      -1.55339239E-23
  -15.3999996      -1.24896647E-23
  -15.3900003       6.77420813E-24
  -15.3800001       4.82269231E-23
  -15.3699999       1.06260018E-22
  -15.3599997       1.52803266E-22
  -15.3500004       1.31594999E-22
  -15.3400002      -3.08335593E-23
  -15.3299999      -3.85601420E-22
  -15.3199997      -8.90726400E-22
  -15.3100004      -1.32893977E-21
  -15.3000002      -1.26641150E-21
  -15.2900000      -1.33262475E-22
  -15.2799997       2.49582928E-21
  -15.2700005       6.40828210E-21
  -15.2600002       1.01819487E-20
  -15.2500000       1.08742916E-20
  -15.2399998       4.48290089E-21
  -15.2299995      -1.23330117E-20
  -15.2200003      -3.91740266E-20
  -15.2100000      -6.82260702E-20
  -15.1999998      -8.19308438E-20
  -15.1899996      -5.49405802E-20
  -15.1800003       3.67395759E-20
  -15.1700001       1.98530132E-19
  -15.1599998       3.95566196E-19
  -15.1499996       5.36357764E-19
  -15.1400003       4.77270185E-19
  -15.1300001       6.40312111E-20
  -15.1199999      -7.82306840E-19
  -15.1099997      -1.94854863E-18
  -15.1000004      -3.02593380E-18
  -15.0900002      -3.29401456E-18
  -15.0799999      -1.87575880E-18
  -15.0699997       1.88393383E-18
  -15.0600004       7.85197143E-18
  -15.0500002       1.45260708E-17
  -15.0400000       1.87579996E-17
  -15.0299997       1.61783359E-17
  -15.0200005       2.63474706E-18
  -15.0100002      -2.33670483E-17
  -15.0000000      -5.77880883E-17
  -14.9899998      -8.89715533E-17
  -14.9799995      -9.80485106E-17
  -14.9700003      -6.34371562E-17
  -14.9600000       2.99680422E-17
  -14.9499998       1.78340219E-16
  -14.9399996       3.47293514E-16
  -14.9300003       4.67557899E-16
  -14.9200001       4.45115179E-16
  -14.9099998       1.90486076E-16
  -14.8999996      -3.34532936E-16
  -14.8900003      -1.06405581E-15
  -14.8800001      -1.79081146E-15
  -14.8699999      -2.17211710E-15
  -14.8599997      -1.80352584E-15
  -14.8500004      -3.67566718E-16
  -14.8400002       2.16562629E-15
  -14.8299999       5.34698061E-15
  -14.8199997       8.15932354E-15
  -14.8100004       9.13091099E-15
  -14.8000002       6.71816516E-15
  -14.7900000      -5.83470506E-17
  -14.7799997      -1.08620439E-14
  -14.7700005      -2.34362531E-14
  -14.7600002      -3.34900971E-14
  -14.7500000      -3.53886774E-14
  -14.7399998      -2.37830521E-14
  -14.7299995       4.01201094E-15
  -14.7200003       4.54977717E-14
  -14.7100000       9.12978596E-14
  -14.6999998       1.25403431E-13
  -14.6899996       1.28218928E-13
  -14.6800003       8.25501844E-14
  -14.6700001      -1.84358161E-14
  -14.6599998      -1.63502228E-13
  -14.6499996      -3.19021990E-13
  -14.6400003      -4.31291911E-13
  -14.6300001      -4.37592887E-13
  -14.6199999      -2.85680008E-13
  -14.6099997       4.19988378E-14
  -14.6000004       5.06396411E-13
  -14.5900002       1.00143353E-12
  -14.5799999       1.36368391E-12
  -14.5699997       1.40692948E-12
  -14.5600004       9.79088880E-13
  -14.5500002       2.99581730E-14
  -14.5400000      -1.33018173E-12
  -14.5299997      -2.80531284E-12
  -14.5200005      -3.94322509E-12
  -14.5100002      -4.22988771E-12
  -14.5000000      -3.23975829E-12
  -14.4899998      -8.10620722E-13
  -14.4799995       2.80739451E-12
  -14.4700003       6.88764367E-12
  -14.4600000       1.02972257E-11
  -14.4499998       1.17229212E-11
  -14.4399996       1.00292942E-11
  -14.4300003       4.67511663E-12
  -14.4200001      -3.92738099E-12
  -14.4099998      -1.42408663E-11
  -14.3999996      -2.37283786E-11
  -14.3900003      -2.93217221E-11
  -14.3800001      -2.81848607E-11
  -14.3699999      -1.86201193E-11
  -14.3599997      -8.82643297E-13
  -14.3500004       2.23639492E-11
  -14.3400002       4.61737211E-11
  -14.3299999       6.41308118E-11
  -14.3199997       6.97751301E-11
  -14.3100004       5.83735629E-11
  -14.3000002       2.86146280E-11
  -14.2900000      -1.62604947E-11
  -14.2799997      -6.83146248E-11
  -14.2700005      -1.15988739E-10
  -14.2600002      -1.46331836E-10
  -14.2500000      -1.48004678E-10
  -14.2399998      -1.14409024E-10
  -14.2299995      -4.61665671E-11
  -14.2200003       4.77693857E-11
  -14.2100000       1.50828960E-10
  -14.1999998       2.41433318E-10
  -14.1899996       2.97102093E-10
  -14.1800003       2.99282599E-10
  -14.1700001       2.37891595E-10
  -14.1599998       1.14560646E-10
  -14.1499996      -5.61920128E-11
  -14.1400003      -2.48234683E-10
  -14.1300001      -4.27430674E-10
  -14.1199999      -5.57026258E-10
  -14.1099997      -6.03956551E-10
  -14.1000004      -5.45075374E-10
  -14.0900002      -3.72358366E-10
  -14.0799999      -9.63071220E-11
  -14.0699997       2.53019883E-10
  -14.0600004       6.27682739E-10
  -14.0500002       9.66395741E-10
  -14.0400000       1.20185706E-09
  -14.0299997       1.27051059E-09
  -14.0200005       1.12396958E-09
  -14.0100002       7.40790262E-10
  -14.0000000       1.36683082E-10
  -13.9899998      -6.29185815E-10
  -13.9799995      -1.45422874E-09
  -13.9700003      -2.20075314E-09
  -13.9600000      -2.71333045E-09
  -13.9499998      -2.84417534E-09
  -13.9399996      -2.48340637E-09
  -13.9300003      -1.58909241E-09
  -13.9200001      -2.10615594E-10
  -13.9099998       1.50101487E-09
  -13.8999996       3.30099370E-09
  -13.8900003       4.87873031E-09
  -13.8800001       5.90423799E-09
  -13.8699999       6.08672490E-09
  -13.8599997       5.23571675E-09
  -13.8500004       3.31305805E-09
  -13.8400002       4.64254607E-10
  -13.8299999      -2.97945579E-09
  -13.8199997      -6.53245147E-09
  -13.8100004      -9.61725899E-09
  -13.8000002      -1.16503918E-08
  -13.7900000      -1.21384600E-08
  -13.7799997      -1.07689813E-08
  -13.7700005      -7.48061169E-09
  -13.7600002      -2.50038457E-09
  -13.7500000       3.65978958E-09
  -13.7399998       1.02482680E-08
  -13.7299995       1.63560756E-08
  -13.7200003       2.10266631E-08
  -13.7100000       2.33803323E-08
  -13.6999998       2.27391617E-08
  -13.6899996       1.87381612E-08
  -13.6800003       1.14109735E-08
  -13.6700001       1.23880806E-09
  -13.6599998      -1.08459322E-08
  -13.6499996      -2.35074342E-08
  -13.6400003      -3.51096041E-08
  -13.6300001      -4.38739711E-08
  -13.6199999      -4.80858340E-08
  -13.6099997      -4.63341507E-08
  -13.6000004      -3.77621561E-08
  -13.5900002      -2.22954011E-08
  -13.5799999      -8.09969036E-10
  -13.5699997       2.48003964E-08
  -13.5600004       5.16918099E-08
  -13.5500002       7.62933752E-08
  -13.5400000       9.46852694E-08
  -13.5299997       1.03104952E-07
  -13.5200005       9.85288082E-08
  -13.5100002       7.92510093E-08
  -13.5000000       4.53695144E-08
  -13.4899998      -9.10690690E-10
  -13.4799995      -5.52373187E-08
  -13.4700003      -1.11377183E-07
  -13.4600000      -1.61799861E-07
  -13.4499998      -1.98537961E-07
  -13.4399996      -2.14236323E-07
  -13.4300003      -2.03274610E-07
  -13.4200001      -1.62806202E-07
  -13.4099998      -9.35690991E-08
  -13.3999996      -3.22335936E-10
  -13.3900003       1.08194989E-07
  -13.3800001       2.19843201E-07
  -13.3699999       3.20194829E-07
  -13.3599997       3.94113982E-07
  -13.3500004       4.27654271E-07
  -13.3400002       4.10089569E-07
  -13.3299999       3.35816111E-07
  -13.3199997       2.05871885E-07
  -13.3100004       2.88026385E-08
  -13.3000002      -1.79336155E-07
  -13.2900000      -3.95981715E-07
  -13.2799997      -5.94090295E-07
  -13.2700005      -7.45072896E-07
  -13.2600002      -8.22366701E-07
  -13.2500000      -8.05269735E-07
  -13.2399998      -6.82513473E-07
  -13.2299995      -4.55068516E-07
  -13.2200003      -1.37669076E-07
  -13.2100000       2.41305429E-07
  -13.1999998       6.41805684E-07
  -13.1899996       1.01587773E-06
  -13.1800003       1.31293075E-06
  -13.1700001       1.48594449E-06
  -13.1599998       1.49790151E-06
  -13.1499996       1.32760499E-06
  -13.1400003       9.74067007E-07
  -13.1300001       4.58786587E-07
  -13.1199999      -1.74573003E-07
  -13.1099997      -8.63258720E-07
  -13.1000004      -1.53111148E-06
  -13.0900002      -2.09637346E-06
  -13.0799999      -2.48085303E-06
  -13.0699997      -2.61946957E-06
  -13.0600004      -2.46913646E-06
  -13.0500002      -2.01588387E-06
  -13.0400000      -1.27931344E-06
  -13.0299997      -3.13628931E-07
  -13.0200005       7.95140807E-07
  -13.0100002       1.93577262E-06
  -13.0000000       2.98197187E-06
  -12.9899998       3.80517940E-06
  -12.9799995       4.28893009E-06
  -12.9700003       4.34325557E-06
  -12.9600000       3.91757658E-06
  -12.9499998       3.01037039E-06
  -12.9399996       1.67420365E-06
  -12.9300003       1.51134660E-08
  -12.9200001      -1.81425798E-06
  -12.9099998      -3.62752667E-06
  -12.8999996      -5.22249820E-06
  -12.8900003      -6.40253666E-06
  -12.8800001      -6.99920929E-06
  -12.8699999      -6.89354783E-06
  -12.8599997      -6.03353328E-06
  -12.8500004      -4.44529542E-06
  -12.8400002      -2.23646771E-06
  -12.8299999       4.09350918E-07
  -12.8199997       3.24682469E-06
  -12.8100004       5.99082796E-06
  -12.8000002       8.34413549E-06
  -12.7900000       1.00280731E-05
  -12.7799997       1.08131371E-05
  -12.7700005       1.05462323E-05
  -12.7600002       9.17158468E-06
  -12.7500000       6.74293142E-06
  -12.7399998       3.42515682E-06
  -12.7299995      -5.15091131E-07
  -12.7200003      -4.72958800E-06
  -12.7100000      -8.81796768E-06
  -12.6999998      -1.23640220E-05
  -12.6899996      -1.49756997E-05
  -12.6800003      -1.63250043E-05
  -12.6700001      -1.61840053E-05
  -12.6599998      -1.44530668E-05
  -12.6499996      -1.11784721E-05
  -12.6400003      -6.55669464E-06
  -12.6300001      -9.24733968E-07
  -12.6199999       5.26353824E-06
  -12.6099997       1.14731602E-05
  -12.6000004       1.71331267E-05
  -12.5900002       2.16867265E-05
  -12.5799999       2.46424643E-05
  -12.5699997       2.56211624E-05
  -12.5600004       2.43942777E-05
  -12.5500002       2.09105001E-05
  -12.5400000       1.53076890E-05
  -12.5299997       7.90934700E-06
  -12.5200005      -7.94142920E-07
  -12.5100002      -1.01780288E-05
  -12.5000000      -1.95265820E-05
  -12.4899998      -2.80839649E-05
  -12.4799995      -3.51089875E-05
  -12.4700003      -3.99297496E-05
  -12.4600000      -4.19940043E-05
  -12.4499998      -4.09125169E-05
  -12.4399996      -3.64922198E-05
  -12.4300003      -2.87560888E-05
  -12.4200001      -1.79492727E-05
  -12.4099998      -4.52939503E-06
  -12.3999996       1.08586191E-05
  -12.3900003       2.74224258E-05
  -12.3800001       4.42744677E-05
  -12.3699999       6.04939560E-05
  -12.3599997       7.51928019E-05
  -12.3500004       8.75818951E-05
  -12.3400002       9.70316250E-05
  -12.3299999       1.03118473E-04
  -12.3199997       1.05658168E-04
  -12.3100004       1.04714702E-04
  -12.3000002       1.00590427E-04
  -12.2900000       9.37929144E-05
  -12.2799997       8.49815115E-05
  -12.2700005       7.49011670E-05
  -12.2600002       6.43046296E-05
  -12.2500000       5.38754975E-05
  -12.2399998       4.41531192E-05
  -12.2299995       3.54731128E-05
  -12.2200003       2.79216238E-05
  -12.2100000       2.13147214E-05
  -12.1999998       1.52003995E-05
  -12.1899996       8.88703289E-06
  -12.1800003       1.49512846E-06
  -12.1700001      -7.97065422E-06
  -12.1599998      -2.05317610E-05
  -12.1499996      -3.71402202E-05
  -12.1400003      -5.85775560E-05
  -12.1300001      -8.53632082E-05
  -12.1199999      -1.17674805E-04
  -12.1099997      -1.55290676E-04
  -12.1000004      -1.97560788E-04
  -12.0900002      -2.43408766E-04
  -12.0799999      -2.91365606E-04
  -12.0699997      -3.39637889E-04
  -12.0600004      -3.86201049E-04
  -12.0500002      -4.28917032E-04
  -12.0400000      -4.65660822E-04
  -12.0299997      -4.94454638E-04
  -12.0200005      -5.13591163E-04
  -12.0100002      -5.21744776E-04
  -12.0000000      -5.18051558E-04
  -11.9899998      -5.02167211E-04
  -11.9799995      -4.74281522E-04
  -11.9700003      -4.35102789E-04
  -11.9600000      -3.85806488E-04
  -11.9499998      -3.27954302E-04
  -11.9399996      -2.63390131E-04
  -11.9300003      -1.94118518E-04
  -11.9200001      -1.22175901E-04
  -11.9099998      -4.95072563E-05
  -11.8999996       2.21511400E-05
  -11.8900003       9.13683325E-05
  -11.8800001       1.57088827E-04
  -11.8699999       2.18676665E-04
  -11.8599997       2.75925297E-04
  -11.8500004       3.29035829E-04
  -11.8400002       3.78568191E-04
  -11.8299999       4.25366132E-04
  -11.8199997       4.70460480E-04
  -11.8100004       5.14967833E-04
  -11.8000002       5.59978187E-04
  -11.7900000       6.06448972E-04
  -11.7799997       6.55109296E-04
  -11.7700005       7.06378138E-04
  -11.7600002       7.60304916E-04
  -11.7500000       8.16530141E-04
  -11.7399998       8.74274527E-04
  -11.7299995       9.32349474E-04
  -11.7200003       9.89199150E-04
  -11.7100000       1.04295474E-03
  -11.6999998       1.09151995E-03
  -11.6899996       1.13266439E-03
  -11.6800003       1.16413401E-03
  -11.6700001       1.18376501E-03
  -11.6599998       1.18959753E-03
  -11.6499996       1.17998384E-03
  -11.6400003       1.15368678E-03
  -11.6300001       1.10995129E-03
  -11.6199999       1.04856142E-03
  -11.6099997       9.69864079E-04
  -11.6000004       8.74758931E-04
  -11.5900002       7.64662400E-04
  -11.5799999       6.41434861E-04
  -11.5699997       5.07288089E-04
  -11.5600004       3.64665873E-04
  -11.5500002       2.16113491E-04
  -11.5400000       6.41449515E-05
  -11.5299997      -8.88842842E-05
  -11.5200005      -2.40888534E-04
  -11.5100002      -3.90142464E-04
  -11.5000000      -5.35338419E-04
  -11.4899998      -6.75616844E-04
  -11.4799995      -8.10561585E-04
  -11.4700003      -9.40170663E-04
  -11.4600000      -1.06480136E-03
  -11.4499998      -1.18510041E-03
  -11.4399996      -1.30192493E-03
  -11.4300003      -1.41625560E-03
  -11.4200001      -1.52911781E-03
  -11.4099998      -1.64150132E-03
  -11.3999996      -1.75429392E-03
  -11.3900003      -1.86822249E-03
  -11.3800001      -1.98380346E-03
  -11.3699999      -2.10130634E-03
  -11.3599997      -2.22073216E-03
  -11.3500004      -2.34179897E-03
  -11.3400002      -2.46394868E-03
  -11.3299999      -2.58635962E-03
  -11.3199997      -2.70797708E-03
  -11.3100004      -2.82755238E-03
  -11.3000002      -2.94369482E-03
  -11.2900000      -3.05492291E-03
  -11.2799997      -3.15972208E-03
  -11.2700005      -3.25660757E-03
  -11.2600002      -3.34417517E-03
  -11.2500000      -3.42116039E-03
  -11.2399998      -3.48647521E-03
  -11.2299995      -3.53926257E-03
  -11.2200003      -3.57891922E-03
  -11.2100000      -3.60513781E-03
  -11.1999998      -3.61791765E-03
  -11.1899996      -3.61757516E-03
  -11.1800003      -3.60475224E-03
  -11.1700001      -3.58039397E-03
  -11.1599998      -3.54572176E-03
  -11.1499996      -3.50218127E-03
  -11.1400003      -3.45139764E-03
  -11.1300001      -3.39508476E-03
  -11.1199999      -3.33497883E-03
  -11.1099997      -3.27275018E-03
  -11.1000004      -3.20992596E-03
  -11.0900002      -3.14782211E-03
  -11.0799999      -3.08748498E-03
  -11.0699997      -3.02965310E-03
  -11.0600004      -2.97473418E-03
  -11.0500002      -2.92280503E-03
  -11.0400000      -2.87362444E-03
  -11.0299997      -2.82665296E-03
  -11.0200005      -2.78110406E-03
  -11.0100002      -2.73598777E-03
  -11.0000000      -2.69016251E-03
  -10.9899998      -2.64239544E-03
  -10.9799995      -2.59142858E-03
  -10.9700003      -2.53603864E-03
  -10.9600000      -2.47509195E-03
  -10.9499998      -2.40760669E-03
  -10.9399996      -2.33278470E-03
  -10.9300003      -2.25005182E-03
  -10.9200001      -2.15906603E-03
  -10.9099998      -2.05971254E-03
  -10.8999996      -1.95208739E-03
  -10.8900003      -1.83645601E-03
  -10.8800001      -1.71321083E-03
  -10.8699999      -1.58281520E-03
  -10.8599997      -1.44575955E-03
  -10.8500004      -1.30250945E-03
  -10.8400002      -1.15349237E-03
  -10.8299999      -9.99069889E-04
  -10.8199997      -8.39546148E-04
  -10.8100004      -6.75184128E-04
  -10.8000002      -5.06214739E-04
  -10.7900000      -3.32872442E-04
  -10.7799997      -1.55391070E-04
  -10.7700005       2.59799635E-05
  -10.7600002       2.10997183E-04
  -10.7500000       3.99430632E-04
  -10.7399998       5.91104967E-04
  -10.7299995       7.85921875E-04
  -10.7200003       9.83879436E-04
  -10.7100000       1.18509133E-03
  -10.6999998       1.38978101E-03
  -10.6899996       1.59826921E-03
  -10.6800003       1.81094371E-03
  -10.6700001       2.02823244E-03
  -10.6599998       2.25057104E-03
  -10.6499996       2.47837394E-03
  -10.6400003       2.71202344E-03
  -10.6300001       2.95185647E-03
  -10.6199999       3.19817034E-03
  -10.6099997       3.45123536E-03
  -10.6000004       3.71129182E-03
  -10.5900002       3.97856580E-03
  -10.5799999       4.25326219E-03
  -10.5699997       4.53556189E-03
  -10.5600004       4.82560182E-03
  -10.5500002       5.12347044E-03
  -10.5400000       5.42917056E-03
  -10.5299997       5.74259600E-03
  -10.5200005       6.06351718E-03
  -10.5100002       6.39154064E-03
  -10.5000000       6.72608381E-03
  -10.4899998       7.06633832E-03
  -10.4799995       7.41123036E-03
  -10.4700003       7.75938435E-03
  -10.4600000       8.10909644E-03
  -10.4499998       8.45831353E-03
  -10.4399996       8.80463701E-03
  -10.4300003       9.14534554E-03
  -10.4200001       9.47745051E-03
  -10.4099998       9.79779195E-03
  -10.3999996       1.01031335E-02
  -10.3900003       1.03902919E-02
  -10.3800001       1.06562674E-02
  -10.3699999       1.08983563E-02
  -10.3599997       1.11142863E-02
  -10.3500004       1.13022374E-02
  -10.3400002       1.14609525E-02
  -10.3299999       1.15897181E-02
  -10.3199997       1.16883824E-02
  -10.3100004       1.17573086E-02
  -10.3000002       1.17973732E-02
  -10.2900000       1.18098985E-02
  -10.2799997       1.17966644E-02
  -10.2700005       1.17598344E-02
  -10.2600002       1.17019806E-02
  -10.2500000       1.16260089E-02
  -10.2399998       1.15351630E-02
  -10.2299995       1.14329290E-02
  -10.2200003       1.13230040E-02
  -10.2100000       1.12091620E-02
  -10.1999998       1.10951522E-02
  -10.1899996       1.09846173E-02
  -10.1800003       1.08809173E-02
  -10.1700001       1.07870791E-02
  -10.1599998       1.07056992E-02
  -10.1499996       1.06388964E-02
  -10.1400003       1.05882818E-02
  -10.1300001       1.05549982E-02
  -10.1199999       1.05397068E-02
  -10.1099997       1.05426684E-02
  -10.1000004       1.05637908E-02
  -10.0900002       1.06026083E-02
  -10.0799999       1.06584122E-02
  -10.0699997       1.07302032E-02
  -10.0600004       1.08167194E-02
  -10.0500002       1.09164892E-02
  -10.0400000       1.10278288E-02
  -10.0299997       1.11488588E-02
  -10.0200005       1.12775685E-02
  -10.0100002       1.14118801E-02
  -10.0000000       1.15496889E-02
  -9.98999977       1.16889672E-02
  -9.97999954       1.18278591E-02
  -9.97000027       1.19647523E-02
  -9.96000004       1.20983385E-02
  -9.94999981       1.22277606E-02
  -9.93999958       1.23525290E-02
  -9.93000031       1.24726994E-02
  -9.92000008       1.25887869E-02
  -9.90999985       1.27018355E-02
  -9.89999962       1.28133548E-02
  -9.89000034       1.29253352E-02
  -9.88000011       1.30401663E-02
  -9.86999989       1.31605947E-02
  -9.85999966       1.32896658E-02
  -9.85000038       1.34306224E-02
  -9.84000015       1.35867912E-02
  -9.82999992       1.37615018E-02
  -9.81999969       1.39579335E-02
  -9.81000042       1.41790453E-02
  -9.80000019       1.44274458E-02
  -9.78999996       1.47053367E-02
  -9.77999973       1.50144855E-02
  -9.77000046       1.53561924E-02
  -9.76000023       1.57313328E-02
  -9.75000000       1.61402971E-02
  -9.73999977       1.65831149E-02
  -9.72999954       1.70594100E-02
  -9.72000027       1.75684150E-02
  -9.71000004       1.81088634E-02
  -9.69999981       1.86790116E-02
  -9.68999958       1.92764923E-02
  -9.68000031       1.98983233E-02
  -9.67000008       2.05408484E-02
  -9.65999985       2.11996436E-02
  -9.64999962       2.18697339E-02
  -9.64000034       2.25454494E-02
  -9.63000011       2.32207179E-02
  -9.61999989       2.38891151E-02
  -9.60999966       2.45440621E-02
  -9.60000038       2.51788963E-02
  -9.59000015       2.57870778E-02
  -9.57999992       2.63622701E-02
  -9.56999969       2.68984661E-02
  -9.56000042       2.73900367E-02
  -9.55000019       2.78319474E-02
  -9.53999996       2.82196570E-02
  -9.52999973       2.85494141E-02
  -9.52000046       2.88182180E-02
  -9.51000023       2.90239975E-02
  -9.50000000       2.91656032E-02
  -9.48999977       2.92428900E-02
  -9.47999954       2.92567965E-02
  -9.47000027       2.92092692E-02
  -9.46000004       2.91033313E-02
  -9.44999981       2.89429761E-02
  -9.43999958       2.87331566E-02
  -9.43000031       2.84796879E-02
  -9.42000008       2.81892437E-02
  -9.40999985       2.78691743E-02
  -9.39999962       2.75275726E-02
  -9.39000034       2.71730218E-02
  -9.38000011       2.68146526E-02
  -9.36999989       2.64619365E-02
  -9.35999966       2.61245966E-02
  -9.35000038       2.58124601E-02
  -9.34000015       2.55353246E-02
  -9.32999992       2.53027547E-02
  -9.31999969       2.51239892E-02
  -9.31000042       2.50076856E-02
  -9.30000019       2.49619372E-02
  -9.28999996       2.49940120E-02
  -9.27999973       2.51105800E-02
  -9.27000046       2.53171902E-02
  -9.26000023       2.56187357E-02
  -9.25000000       2.60191411E-02
  -9.23999977       2.65214518E-02
  -9.22999954       2.71278284E-02
  -9.22000027       2.78394539E-02
  -9.21000004       2.86565851E-02
  -9.19999981       2.95784548E-02
  -9.18999958       3.06032225E-02
  -9.18000031       3.17281373E-02
  -9.17000008       3.29495631E-02
  -9.15999985       3.42627056E-02
  -9.14999962       3.56620997E-02
  -9.14000034       3.71414348E-02
  -9.13000011       3.86936627E-02
  -9.11999989       4.03110795E-02
  -9.10999966       4.19853367E-02
  -9.10000038       4.37074974E-02
  -9.09000015       4.54680659E-02
  -9.07999992       4.72571664E-02
  -9.06999969       4.90643233E-02
  -9.06000042       5.08789271E-02
  -9.05000019       5.26899733E-02
  -9.03999996       5.44864275E-02
  -9.02999973       5.62569350E-02
  -9.02000046       5.79903536E-02
  -9.01000023       5.96753247E-02
  -9.00000000       6.13007694E-02
  -8.98999977       6.28556162E-02
  -8.97999954       6.43290281E-02
  -8.97000027       6.57105222E-02
  -8.96000004       6.69899955E-02
  -8.94999981       6.81581050E-02
  -8.93999958       6.92061856E-02
  -8.93000031       7.01264441E-02
  -8.92000008       7.09120482E-02
  -8.90999985       7.15574622E-02
  -8.89999962       7.20580891E-02
  -8.89000034       7.24106804E-02
  -8.88000011       7.26129040E-02
  -8.86999989       7.26638287E-02
  -8.85999966       7.25636110E-02
  -8.85000038       7.23135322E-02
  -8.84000015       7.19161630E-02
  -8.82999992       7.13749602E-02
  -8.81999969       7.06946030E-02
  -8.81000042       6.98806494E-02
  -8.80000019       6.89397380E-02
  -8.78999996       6.78791702E-02
  -8.77999973       6.67071119E-02
  -8.77000046       6.54323325E-02
  -8.76000023       6.40642866E-02
  -8.75000000       6.26125932E-02
  -8.73999977       6.10876270E-02
  -8.72999954       5.94996065E-02
  -8.72000027       5.78592718E-02
  -8.71000004       5.61769903E-02
  -8.69999981       5.44633269E-02
  -8.68999958       5.27284481E-02
  -8.68000031       5.09821400E-02
  -8.67000008       4.92339656E-02
  -8.65999985       4.74928431E-02
  -8.64999962       4.57670577E-02
  -8.64000034       4.40642573E-02
  -8.63000011       4.23914306E-02
  -8.61999989       4.07545045E-02
  -8.60999966       3.91589254E-02
  -8.60000038       3.76088172E-02
  -8.59000015       3.61078419E-02
  -8.57999992       3.46588530E-02
  -8.56999969       3.32637914E-02
  -8.56000042       3.19242775E-02
  -8.55000019       3.06410287E-02
  -8.53999996       2.94144116E-02
  -8.52999973       2.82441620E-02
  -8.52000046       2.71294415E-02
  -8.51000023       2.60688718E-02
  -8.50000000       2.50605512E-02
  -8.48999977       2.41020285E-02
  -8.47999954       2.31903363E-02
  -8.47000027       2.23222617E-02
  -8.46000004       2.14944016E-02
  -8.44999981       2.07033996E-02
  -8.43999958       1.99457537E-02
  -8.43000031       1.92184150E-02
  -8.42000008       1.85182318E-02
  -8.40999985       1.78426635E-02
  -8.39999962       1.71892326E-02
  -8.39000034       1.65558606E-02
  -8.38000011       1.59413330E-02
  -8.36999989       1.53448284E-02
  -8.35999966       1.47660961E-02
  -8.35000038       1.42062148E-02
  -8.34000015       1.36668254E-02
  -8.32999992       1.31504610E-02
  -8.31999969       1.26608154E-02
  -8.31000042       1.22019043E-02
  -8.30000019       1.17787234E-02
  -8.28999996       1.13964360E-02
  -8.27999973       1.10607361E-02
  -8.27000046       1.07775712E-02
  -8.26000023       1.05531979E-02
  -8.25000000       1.03939883E-02
  -8.23999977       1.03065800E-02
  -8.22999954       1.02975173E-02
  -8.22000027       1.03736576E-02
  -8.21000004       1.05412090E-02
  -8.19999981       1.08068874E-02
  -8.18999958       1.11765256E-02
  -8.18000031       1.16556706E-02
  -8.17000008       1.22495666E-02
  -8.15999985       1.29627706E-02
  -8.14999962       1.37995360E-02
  -8.14000034       1.47633385E-02
  -8.13000011       1.58571247E-02
  -8.11999989       1.70829855E-02
  -8.10999966       1.84426066E-02
  -8.10000038       1.99364759E-02
  -8.09000015       2.15644222E-02
  -8.07999992       2.33253650E-02
  -8.06999969       2.52173748E-02
  -8.06000042       2.72378772E-02
  -8.05000019       2.93834321E-02
  -8.03999996       3.16500142E-02
  -8.02999973       3.40327173E-02
  -8.02000046       3.65259238E-02
  -8.01000023       3.91232111E-02
  -8.00000000       4.18175943E-02
  -7.98999977       4.46012355E-02
  -7.98000002       4.74657007E-02
  -7.96999979       5.04023284E-02
  -7.96000004       5.34023233E-02
  -7.94999981       5.64565025E-02
  -7.94000006       5.95563687E-02
  -7.92999983       6.26927167E-02
  -7.92000008       6.58570454E-02
  -7.90999985       6.90404624E-02
  -7.90000010       7.22345039E-02
  -7.88999987       7.54303709E-02
  -7.88000011       7.86194652E-02
  -7.86999989       8.17933381E-02
  -7.86000013       8.49438012E-02
  -7.84999990       8.80631134E-02
  -7.84000015       9.11444053E-02
  -7.82999992       9.41810161E-02
  -7.82000017       9.71670225E-02
  -7.80999994      0.100097254    
  -7.80000019      0.102966681    
  -7.78999996      0.105770782    
  -7.78000021      0.108505704    
  -7.76999998      0.111167699    
  -7.76000023      0.113754071    
  -7.75000000      0.116262659    
  -7.73999977      0.118691891    
  -7.73000002      0.121041059    
  -7.71999979      0.123310126    
  -7.71000004      0.125499979    
  -7.69999981      0.127611443    
  -7.69000006      0.129646584    
  -7.67999983      0.131607309    
  -7.67000008      0.133496135    
  -7.65999985      0.135316566    
  -7.65000010      0.137072265    
  -7.63999987      0.138767645    
  -7.63000011      0.140408278    
  -7.61999989      0.142000169    
  -7.61000013      0.143549666    
  -7.59999990      0.145063818    
  -7.59000015      0.146549702    
  -7.57999992      0.148014396    
  -7.57000017      0.149465412    
  -7.55999994      0.150909439    
  -7.55000019      0.152353913    
  -7.53999996      0.153805956    
  -7.53000021      0.155272141    
  -7.51999998      0.156759620    
  -7.51000023      0.158275574    
  -7.50000000      0.159826010    
  -7.48999977      0.161417380    
  -7.48000002      0.163054749    
  -7.46999979      0.164743394    
  -7.46000004      0.166487291    
  -7.44999981      0.168290243    
  -7.44000006      0.170154423    