  -16.0000000       0.00000000    
  -15.9899998       0.00000000    
  -15.9799995       0.00000000    
  -15.9700003       0.00000000    
  -15.9600000       0.00000000    
  -15.9499998       0.00000000    
  -15.9399996       0.00000000    
  -15.9300003       0.00000000    
  -15.9200001       0.00000000    
  -15.9099998       0.00000000    
  -15.8999996       0.00000000    
  -15.8900003       0.00000000    
  -15.8800001       0.00000000    
  -15.8699999      -2.11416422E-39
  -15.8599997      -2.76582938E-38
  -15.8500004      -1.36067303E-37
  -15.8400002      -2.47461602E-38
  -15.8299999       3.82428404E-36
  -15.8199997       2.79427979E-35
  -15.8100004       1.18930515E-34
  -15.8000002       3.47021613E-34
  -15.7900000       6.73565105E-34
  -15.7799997       5.44112182E-34
  -15.7700005      -1.72270203E-33
  -15.7600002      -8.89731160E-33
  -15.7500000      -2.21938462E-32
  -15.7399998      -3.43137028E-32
  -15.7299995      -2.09367916E-32
  -15.7200003       5.75987177E-32
  -15.7100000       2.27871038E-31
  -15.6999998       4.48873803E-31
  -15.6899996       5.76286952E-31
  -15.6800003       4.07292853E-31
  -15.6700001      -2.73735559E-31
  -15.6599998      -2.10524719E-30
  -15.6499996      -7.74052836E-30
  -15.6400003      -2.43629280E-29
  -15.6300001      -6.30527255E-29
  -15.6199999      -1.24556365E-28
  -15.6099997      -1.58444331E-28
  -15.6000004       6.57906791E-31
  -15.5900002       6.61919107E-28
  -15.5799999       2.12688032E-27
  -15.5699997       4.16014658E-27
  -15.5600004       5.02807769E-27
  -15.5500002       5.89825049E-28
  -15.5400000      -1.51175609E-26
  -15.5299997      -4.54936700E-26
  -15.5200005      -8.14538636E-26
  -15.5100002      -8.81375800E-26
  -15.5000000       1.33122916E-27
  -15.4899998       2.64560257E-25
  -15.4799995       7.17665568E-25
  -15.4700003       1.18789002E-24
  -15.4600000       1.18181924E-24
  -15.4499998      -1.14013795E-25
  -15.4399996      -3.49103452E-24
  -15.4300003      -8.86334610E-24
  -15.4200001      -1.39943278E-23
  -15.4099998      -1.34539880E-23
  -15.3999996       8.48489126E-25
  -15.3900003       3.58464328E-23
  -15.3800001       8.92469770E-23
  -15.3699999       1.38851927E-22
  -15.3599997       1.35385255E-22
  -15.3500004       9.66365890E-24
  -15.3400002      -2.93886154E-22
  -15.3299999      -7.53034554E-22
  -15.3199997      -1.18887149E-21
  -15.3100004      -1.21927341E-21
  -15.3000002      -3.20102539E-22
  -15.2900000       1.92996282E-21
  -15.2799997       5.40366035E-21
  -15.2700005       8.89647531E-21
  -15.2600002       9.82377225E-21
  -15.2500000       4.61189381E-21
  -15.2399998      -9.76936089E-21
  -15.2299995      -3.30522470E-20
  -15.2200003      -5.84060275E-20
  -15.2100000      -7.04395990E-20
  -15.1999998      -4.71117551E-20
  -15.1899996       3.19405292E-20
  -15.1800003       1.70117525E-19
  -15.1700001       3.35206568E-19
  -15.1599998       4.46481954E-19
  -15.1499996       3.81207090E-19
  -15.1400003       1.39045523E-20
  -15.1300001      -7.07341270E-19
  -15.1199999      -1.66273250E-18
  -15.1099997      -2.48257313E-18
  -15.1000004      -2.55375367E-18
  -15.0900002      -1.17799070E-18
  -15.0799999       2.08703707E-18
  -15.0699997       6.95581306E-18
  -15.0600004       1.19825226E-17
  -15.0500002       1.44485739E-17
  -15.0400000       1.08840822E-17
  -15.0299997      -1.58265780E-18
  -15.0200005      -2.31726244E-17
  -15.0100002      -4.93081205E-17
  -15.0000000      -6.94716372E-17
  -14.9899998      -6.84231163E-17
  -14.9799995      -3.08161240E-17
  -14.9700003       5.08265429E-17
  -14.9600000       1.66617151E-16
  -14.9499998       2.82164939E-16
  -14.9399996       3.39078115E-16
  -14.9300003       2.67958714E-16
  -14.9200001       1.55900054E-17
  -14.9099998      -4.17995936E-16
  -14.8999996      -9.44576203E-16
  -14.8900003      -1.37333623E-15
  -14.8800001      -1.43690786E-15
  -14.8699999      -8.70181881E-16
  -14.8599997       4.63524116E-16
  -14.8500004       2.43002783E-15
  -14.8400002       4.52254777E-15
  -14.8299999       5.87162985E-15
  -14.8199997       5.42600666E-15
  -14.8100004       2.31947055E-15
  -14.8000002      -3.63813399E-15
  -14.7900000      -1.14963742E-14
  -14.7799997      -1.89458485E-14
  -14.7700005      -2.25743733E-14
  -14.7600002      -1.87350542E-14
  -14.7500000      -4.97136469E-15
  -14.7399998       1.83248632E-14
  -14.7299995       4.66068089E-14
  -14.7200003       7.09399377E-14
  -14.7100000       7.94647348E-14
  -14.6999998       6.07687457E-14
  -14.6899996       8.69737835E-15
  -14.6800003      -7.26785169E-14
  -14.6700001      -1.65854066E-13
  -14.6599998      -2.40518895E-13
  -14.6499996      -2.59477417E-13
  -14.6400003      -1.89859494E-13
  -14.6300001      -1.75574954E-14
  -14.6199999       2.39302529E-13
  -14.6099997       5.23388678E-13
  -14.6000004       7.42966778E-13
  -14.5900002       7.91414026E-13
  -14.5799999       5.79992488E-13
  -14.5699997       7.69575647E-14
  -14.5600004      -6.58871666E-13
  -14.5500002      -1.46423184E-12
  -14.5400000      -2.08941480E-12
  -14.5299997      -2.25313431E-12
  -14.5200005      -1.72782893E-12
  -14.5100002      -4.36171227E-13
  -14.5000000       1.47093774E-12
  -14.4899998       3.58740641E-12
  -14.4799995       5.30181845E-12
  -14.4700003       5.93105556E-12
  -14.4600000       4.91891684E-12
  -14.4499998       2.05343598E-12
  -14.4399996      -2.36252727E-12
  -14.4300003      -7.45600196E-12
  -14.4200001      -1.18924705E-11
  -14.4099998      -1.41580185E-11
  -14.3999996      -1.29703409E-11
  -14.3900003      -7.72318234E-12
  -14.3800001       1.16463566E-12
  -14.3699999       1.21231540E-11
  -14.3599997       2.26157530E-11
  -14.3500004       2.96447589E-11
  -14.3400002       3.04937013E-11
  -14.3299999       2.35369224E-11
  -14.3199997       8.89547984E-12
  -14.3100004      -1.12713432E-11
  -14.3000002      -3.29784984E-11
  -14.2900000      -5.11462366E-11
  -14.2799997      -6.07205120E-11
  -14.2700005      -5.79298658E-11
  -14.2600002      -4.13637978E-11
  -14.2500000      -1.25773419E-11
  -14.2399998       2.39590500E-11
  -14.2299995       6.15927309E-11
  -14.2200003       9.27419599E-11
  -14.2100000       1.10382710E-10
  -14.1999998       1.09428744E-10
  -14.1899996       8.77137737E-11
  -14.1800003       4.64131164E-11
  -14.1700001      -1.00875272E-11
  -14.1599998      -7.47403389E-11
  -14.1499996      -1.38597800E-10
  -14.1400003      -1.91636859E-10
  -14.1300001      -2.23596877E-10
  -14.1199999      -2.24937777E-10
  -14.1099997      -1.88090904E-10
  -14.1000004      -1.09135374E-10
  -14.0900002       1.01670825E-11
  -14.0799999       1.60351607E-10
  -14.0699997       3.22917859E-10
  -14.0600004       4.70545991E-10
  -14.0500002       5.69638170E-10
  -14.0400000       5.85541671E-10
  -14.0299997       4.90102237E-10
  -14.0200005       2.70352518E-10
  -14.0100002      -6.36498979E-11
  -14.0000000      -4.74147166E-10
  -13.9899998      -8.96412056E-10
  -13.9799995      -1.24610056E-09
  -13.9700003      -1.43317169E-09
  -13.9600000      -1.38047695E-09
  -13.9499998      -1.04359199E-09
  -13.9399996      -4.27466562E-10
  -13.9300003       4.04610206E-10
  -13.9200001       1.33310729E-09
  -13.9099998       2.19681806E-09
  -13.8999996       2.81850610E-09
  -13.8900003       3.03775471E-09
  -13.8800001       2.74486278E-09
  -13.8699999       1.90903604E-09
  -13.8599997       5.94391314E-10
  -13.8500004      -1.04028086E-09
  -13.8400002      -2.75949819E-09
  -13.8299999      -4.28436620E-09
  -13.8199997      -5.33608269E-09
  -13.8100004      -5.68221692E-09
  -13.8000002      -5.17796606E-09
  -13.7900000      -3.79537290E-09
  -13.7799997      -1.63597003E-09
  -13.7700005       1.07517806E-09
  -13.7600002       4.01267197E-09
  -13.7500000       6.78751633E-09
  -13.7399998       8.99273545E-09
  -13.7299995       1.02522675E-08
  -13.7200003       1.02686073E-08
  -13.7100000       8.86486173E-09
  -13.6999998       6.01882100E-09
  -13.6899996       1.88552596E-09
  -13.6800003      -3.19424664E-09
  -13.6700001      -8.70312888E-09
  -13.6599998      -1.39777967E-08
  -13.6499996      -1.82639077E-08
  -13.6400003      -2.07960813E-08
  -13.6300001      -2.08991171E-08
  -13.6199999      -1.81023232E-08
  -13.6099997      -1.22510695E-08
  -13.6000004      -3.59805896E-09
  -13.5900002       7.14875004E-09
  -13.5799999       1.88390370E-08
  -13.5699997       2.99670688E-08
  -13.5600004       3.88331962E-08
  -13.5500002       4.37677592E-08
  -13.5400000       4.33907807E-08
  -13.5299997       3.68691957E-08
  -13.5200005       2.41293545E-08
  -13.5100002       5.98194960E-09
  -13.5000000      -1.58705813E-08
  -13.4899998      -3.89609944E-08
  -13.4799995      -6.03116561E-08
  -13.4700003      -7.67900232E-08
  -13.4600000      -8.55208739E-08
  -13.4499998      -8.43010142E-08
  -13.4399996      -7.19584392E-08
  -13.4300003      -4.86065161E-08
  -13.4200001      -1.57576991E-08
  -13.4099998       2.37248567E-08
  -13.3999996       6.58325874E-08
  -13.3900003       1.05763121E-07
  -13.3800001       1.38383584E-07
  -13.3699999       1.58770604E-07
  -13.3599997       1.62785341E-07
  -13.3500004       1.47630956E-07
  -13.3400002       1.12348168E-07
  -13.3299999       5.81890340E-08
  -13.3199997      -1.11883001E-08
  -13.3100004      -8.97597872E-08
  -13.3000002      -1.69453614E-07
  -13.2900000      -2.40777609E-07
  -13.2799997      -2.93740470E-07
  -13.2700005      -3.19011889E-07
  -13.2600002      -3.09213192E-07
  -13.2500000      -2.60191683E-07
  -13.2399998      -1.72079538E-07
  -13.2299995      -4.99622743E-08
  -13.2200003       9.60290407E-08
  -13.2100000       2.51288469E-07
  -13.1999998       3.98003209E-07
  -13.1899996       5.17023636E-07
  -13.1800003       5.90148318E-07
  -13.1700001       6.02554110E-07
  -13.1599998       5.45055116E-07
  -13.1499996       4.15856022E-07
  -13.1400003       2.21558238E-07
  -13.1300001      -2.27964652E-08
  -13.1199999      -2.94689812E-07
  -13.1099997      -5.66036761E-07
  -13.1000004      -8.05880973E-07
  -13.0900002      -9.83599648E-07
  -13.0799999      -1.07230017E-06
  -13.0699997      -1.05207903E-06
  -13.0600004      -9.12805206E-07
  -13.0500002      -6.56134716E-07
  -13.0400000      -2.96545323E-07
  -13.0299997       1.38836910E-07
  -13.0200005       6.11658550E-07
  -13.0100002       1.07507833E-06
  -13.0000000       1.47767514E-06
  -12.9899998       1.76836113E-06
  -12.9799995       1.90190076E-06
  -12.9700003       1.84457372E-06
  -12.9600000       1.57936142E-06
  -12.9499998       1.10999815E-06
  -12.9399996       4.63224950E-07
  -12.9300003      -3.11271322E-07
  -12.9200001      -1.14361615E-06
  -12.9099998      -1.94920608E-06
  -12.8999996      -2.63655966E-06
  -12.8900003      -3.11693793E-06
  -12.8800001      -3.31471415E-06
  -12.8699999      -3.17734020E-06
  -12.8599997      -2.68364602E-06
  -12.8500004      -1.84933242E-06
  -12.8400002      -7.28762643E-07
  -12.8299999       5.87472300E-07
  -12.8199997       1.97920917E-06
  -12.8100004       3.30712396E-06
  -12.8000002       4.42599776E-06
  -12.7900000       5.19952482E-06
  -12.7799997       5.51518633E-06
  -12.7700005       5.29764020E-06
  -12.7600002       4.51919414E-06
  -12.7500000       3.20613049E-06
  -12.7399998       1.44015632E-06
  -12.7299995      -6.45404384E-07
  -12.7200003      -2.87471448E-06
  -12.7100000      -5.04308628E-06
  -12.6999998      -6.93431775E-06
  -12.6899996      -8.34029197E-06
  -12.6800003      -9.08128095E-06
  -12.6700001      -9.02504871E-06
  -12.6599998      -8.10306392E-06
  -12.6499996      -6.32201318E-06
  -12.6400003      -3.76922117E-06
  -12.6300001      -6.11086364E-07
  -12.6199999       2.91603396E-06
  -12.6099997       6.52207655E-06
  -12.6000004       9.88563806E-06
  -12.5900002       1.26810210E-05
  -12.5799999       1.46073226E-05
  -12.5699997       1.54174486E-05
  -12.5600004       1.49437665E-05
  -12.5500002       1.31183815E-05
  -12.5400000       9.98545511E-06
  -12.5299997       5.70442671E-06
  -12.5200005       5.43184285E-07
  -12.5100002      -5.13806617E-06
  -12.5000000      -1.09116472E-05
  -12.4899998      -1.63134300E-05
  -12.4799995      -2.08779111E-05
  -12.4700003      -2.41742364E-05
  -12.4600000      -2.58402852E-05
  -12.4499998      -2.56120475E-05
  -12.4399996      -2.33454339E-05
  -12.4300003      -1.90294231E-05
  -12.4200001      -1.27888825E-05
  -12.4099998      -4.87652824E-06
  -12.3999996       4.34461526E-06
  -12.3900003       1.44277401E-05
  -12.3800001       2.48753749E-05
  -12.3699999       3.51759518E-05
  -12.3599997       4.48417013E-05
  -12.3500004       5.34437968E-05
  -12.3400002       6.06416579E-05
  -12.3299999       6.62048333E-05
  -12.3199997       7.00237579E-05
  -12.3100004       7.21101314E-05
  -12.3000002       7.25853752E-05
  -12.2900000       7.16597642E-05
  -12.2799997       6.96020870E-05
  -12.2700005       6.67049899E-05
  -12.2600002       6.32475567E-05
  -12.2500000       5.94589328E-05
  -12.2399998       5.54874714E-05
  -12.2299995       5.13755258E-05
  -12.2200003       4.70464693E-05
  -12.2100000       4.23012425E-05
  -12.1999998       3.68290785E-05
  -12.1899996       3.02274111E-05
  -12.1800003       2.20345974E-05
  -12.1700001       1.17712389E-05
  -12.1599998      -1.01556361E-06
  -12.1499996      -1.67030230E-05
  -12.1400003      -3.55483608E-05
  -12.1300001      -5.76478669E-05
  -12.1199999      -8.29080163E-05
  -12.1099997      -1.11028523E-04
  -12.1000004      -1.41498589E-04
  -12.0900002      -1.73611581E-04
  -12.0799999      -2.06491692E-04
  -12.0699997      -2.39135319E-04
  -12.0600004      -2.70461460E-04
  -12.0500002      -2.99368956E-04
  -12.0400000      -3.24794790E-04
  -12.0299997      -3.45770881E-04
  -12.0200005      -3.61473387E-04
  -12.0100002      -3.71263042E-04
  -12.0000000      -3.74714320E-04
  -11.9899998      -3.71628645E-04
  -11.9799995      -3.62037827E-04
  -11.9700003      -3.46189918E-04
  -11.9600000      -3.24525521E-04
  -11.9499998      -2.97645398E-04
  -11.9399996      -2.66266783E-04
  -11.9300003      -2.31177866E-04
  -11.9200001      -1.93188913E-04
  -11.9099998      -1.53082452E-04
  -11.8999996      -1.11571127E-04
  -11.8900003      -6.92597096E-05
  -11.8800001      -2.66130737E-05
  -11.8699999       1.60585532E-05
  -11.8599997       5.86104507E-05
  -11.8500004       1.01053382E-04
  -11.8400002       1.43540427E-04
  -11.8299999       1.86335630E-04
  -11.8199997       2.29776982E-04
  -11.8100004       2.74233840E-04
  -11.8000002       3.20059364E-04
  -11.7900000       3.67538974E-04
  -11.7799997       4.16849885E-04
  -11.7700005       4.68014099E-04
  -11.7600002       5.20869566E-04
  -11.7500000       5.75044774E-04
  -11.7399998       6.29949733E-04
  -11.7299995       6.84776751E-04
  -11.7200003       7.38517265E-04
  -11.7100000       7.89993093E-04
  -11.6999998       8.37898930E-04
  -11.6899996       8.80855892E-04
  -11.6800003       9.17473808E-04
  -11.6700001       9.46413435E-04
  -11.6599998       9.66452702E-04
  -11.6499996       9.76541894E-04
  -11.6400003       9.75852367E-04
  -11.6300001       9.63811937E-04
  -11.6199999       9.40124446E-04
  -11.6099997       9.04773886E-04
  -11.6000004       8.58014508E-04
  -11.5900002       8.00347363E-04
  -11.5799999       7.32484681E-04
  -11.5699997       6.55309996E-04
  -11.5600004       5.69831813E-04
  -11.5500002       4.77135472E-04
  -11.5400000       3.78339319E-04
  -11.5299997       2.74550170E-04
  -11.5200005       1.66826212E-04
  -11.5100002       5.61459201E-05
  -11.5000000      -5.66147901E-05
  -11.4899998      -1.70701605E-04
  -11.4799995      -2.85488582E-04
  -11.4700003      -4.00481280E-04
  -11.4600000      -5.15312830E-04
  -11.4499998      -6.29733840E-04
  -11.4399996      -7.43598735E-04
  -11.4300003      -8.56850180E-04
  -11.4200001      -9.69498884E-04
  -11.4099998      -1.08160253E-03
  -11.3999996      -1.19324611E-03
  -11.3900003      -1.30451622E-03
  -11.3800001      -1.41548121E-03
  -11.3699999      -1.52616552E-03
  -11.3599997      -1.63653353E-03
  -11.3500004      -1.74646522E-03
  -11.3400002      -1.85574742E-03
  -11.3299999      -1.96406129E-03
  -11.3199997      -2.07098247E-03
  -11.3100004      -2.17598677E-03
  -11.3000002      -2.27845763E-03
  -11.2900000      -2.37770448E-03
  -11.2799997      -2.47298204E-03
  -11.2700005      -2.56351219E-03
  -11.2600002      -2.64850142E-03
  -11.2500000      -2.72716559E-03
  -11.2399998      -2.79874471E-03
  -11.2299995      -2.86252750E-03
  -11.2200003      -2.91786343E-03
  -11.2100000      -2.96418765E-03
  -11.1999998      -3.00103636E-03
  -11.1899996      -3.02808243E-03
  -11.1800003      -3.04514822E-03
  -11.1700001      -3.05223395E-03
  -11.1599998      -3.04954057E-03
  -11.1499996      -3.03747063E-03
  -11.1400003      -3.01663671E-03
  -11.1300001      -2.98784254E-03
  -11.1199999      -2.95205391E-03
  -11.1099997      -2.91036256E-03
  -11.1000004      -2.86393077E-03
  -11.0900002      -2.81393039E-03
  -11.0799999      -2.76148855E-03
  -11.0699997      -2.70762900E-03
  -11.0600004      -2.65322323E-03
  -11.0500002      -2.59895599E-03
  -11.0400000      -2.54530250E-03
  -11.0299997      -2.49252259E-03
  -11.0200005      -2.44066492E-03
  -11.0100002      -2.38959026E-03
  -11.0000000      -2.33899476E-03
  -10.9899998      -2.28844141E-03
  -10.9799995      -2.23739911E-03
  -10.9700003      -2.18526553E-03
  -10.9600000      -2.13140016E-03
  -10.9499998      -2.07515270E-03
  -10.9399996      -2.01587961E-03
  -10.9300003      -1.95296784E-03
  -10.9200001      -1.88584777E-03
  -10.9099998      -1.81400997E-03
  -10.8999996      -1.73701893E-03
  -10.8900003      -1.65452319E-03
  -10.8800001      -1.56625907E-03
  -10.8699999      -1.47205556E-03
  -10.8599997      -1.37183047E-03
  -10.8500004      -1.26557390E-03
  -10.8400002      -1.15334231E-03
  -10.8299999      -1.03523990E-03
  -10.8199997      -9.11407289E-04
  -10.8100004      -7.82013114E-04
  -10.8000002      -6.47248002E-04
  -10.7900000      -5.07333258E-04
  -10.7799997      -3.62515217E-04
  -10.7700005      -2.13077510E-04
  -10.7600002      -5.93342302E-05
  -10.7500000       9.83630744E-05
  -10.7399998       2.59660796E-04
  -10.7299995       4.24210157E-04
  -10.7200003       5.91709162E-04
  -10.7100000       7.61931238E-04
  -10.6999998       9.34766140E-04
  -10.6899996       1.11023488E-03
  -10.6800003       1.28850969E-03
  -10.6700001       1.46991271E-03
  -10.6599998       1.65488885E-03
  -10.6499996       1.84399239E-03
  -10.6400003       2.03783321E-03
  -10.6300001       2.23703147E-03
  -10.6199999       2.44217273E-03
  -10.6099997       2.65377271E-03
  -10.6000004       2.87224841E-03
  -10.5900002       3.09791043E-03
  -10.5799999       3.33094620E-03
  -10.5699997       3.57145723E-03
  -10.5600004       3.81946634E-03
  -10.5500002       4.07493534E-03
  -10.5400000       4.33779694E-03
  -10.5299997       4.60793963E-03
  -10.5200005       4.88521531E-03
  -10.5100002       5.16940886E-03
  -10.5000000       5.46020037E-03
  -10.4899998       5.75712649E-03
  -10.4799995       6.05952088E-03
  -10.4700003       6.36650808E-03
  -10.4600000       6.67696726E-03
  -10.4499998       6.98952470E-03
  -10.4399996       7.30260834E-03
  -10.4300003       7.61445006E-03
  -10.4200001       7.92317186E-03
  -10.4099998       8.22682492E-03
  -10.3999996       8.52347165E-03
  -10.3900003       8.81121680E-03
  -10.3800001       9.08828340E-03
  -10.3699999       9.35301557E-03
  -10.3599997       9.60392226E-03
  -10.3500004       9.83969215E-03
  -10.3400002       1.00592142E-02
  -10.3299999       1.02615627E-02
  -10.3199997       1.04460567E-02
  -10.3100004       1.06122233E-02
  -10.3000002       1.07598528E-02
  -10.2900000       1.08890068E-02
  -10.2799997       1.09999981E-02
  -10.2700005       1.10934377E-02
  -10.2600002       1.11702075E-02
  -10.2500000       1.12314615E-02
  -10.2399998       1.12786256E-02
  -10.2299995       1.13133350E-02
  -10.2200003       1.13374693E-02
  -10.2100000       1.13530783E-02
  -10.1999998       1.13623701E-02
  -10.1899996       1.13676703E-02
  -10.1800003       1.13713713E-02
  -10.1700001       1.13758957E-02
  -10.1599998       1.13836182E-02
  -10.1499996       1.13968188E-02
  -10.1400003       1.14175929E-02
  -10.1300001       1.14477975E-02
  -10.1199999       1.14889797E-02
  -10.1099997       1.15423333E-02
  -10.1000004       1.16086733E-02
  -10.0900002       1.16884252E-02
  -10.0799999       1.17816404E-02
  -10.0699997       1.18880272E-02
  -10.0600004       1.20070018E-02
  -10.0500002       1.21377325E-02
  -10.0400000       1.22791687E-02
  -10.0299997       1.24301258E-02
  -10.0200005       1.25892507E-02
  -10.0100002       1.27551043E-02
  -10.0000000       1.29261175E-02
  -9.98999977       1.31006753E-02
  -9.97999954       1.32771218E-02
  -9.97000027       1.34538459E-02
  -9.96000004       1.36293275E-02
  -9.94999981       1.38022145E-02
  -9.93999958       1.39714582E-02
  -9.93000031       1.41363544E-02
  -9.92000008       1.42966332E-02
  -9.90999985       1.44525254E-02
  -9.89999962       1.46047221E-02
  -9.89000034       1.47544295E-02
  -9.88000011       1.49033414E-02
  -9.86999989       1.50535256E-02
  -9.85999966       1.52073978E-02
  -9.85000038       1.53676365E-02
  -9.84000015       1.55370859E-02
  -9.82999992       1.57186594E-02
  -9.81999969       1.59152504E-02
  -9.81000042       1.61296278E-02
  -9.80000019       1.63644254E-02
  -9.78999996       1.66219492E-02
  -9.77999973       1.69043057E-02
  -9.77000046       1.72131788E-02
  -9.76000023       1.75499972E-02
  -9.75000000       1.79158226E-02
  -9.73999977       1.83114763E-02
  -9.72999954       1.87374409E-02
  -9.72000027       1.91939175E-02
  -9.71000004       1.96808092E-02
  -9.69999981       2.01976933E-02
  -9.68999958       2.07437109E-02
  -9.68000031       2.13175789E-02
  -9.67000008       2.19174232E-02
  -9.65999985       2.25408245E-02
  -9.64999962       2.31847707E-02
  -9.64000034       2.38456838E-02
  -9.63000011       2.45194398E-02
  -9.61999989       2.52014678E-02
  -9.60999966       2.58869082E-02
  -9.60000038       2.65705902E-02
  -9.59000015       2.72473563E-02
  -9.57999992       2.79119648E-02
  -9.56999969       2.85592712E-02
  -9.56000042       2.91842837E-02
  -9.55000019       2.97822207E-02
  -9.53999996       3.03486455E-02
  -9.52999973       3.08793299E-02
  -9.52000046       3.13704573E-02
  -9.51000023       3.18186693E-02
  -9.50000000       3.22211422E-02
  -9.48999977       3.25755514E-02
  -9.47999954       3.28802392E-02
  -9.47000027       3.31342965E-02
  -9.46000004       3.33375372E-02
  -9.44999981       3.34905796E-02
  -9.43999958       3.35949324E-02
  -9.43000031       3.36529836E-02
  -9.42000008       3.36680040E-02
  -9.40999985       3.36441919E-02
  -9.39999962       3.35865431E-02
  -9.39000034       3.35009247E-02
  -9.38000011       3.33938003E-02
  -9.36999989       3.32723595E-02
  -9.35999966       3.31441015E-02
  -9.35000038       3.30169983E-02
  -9.34000015       3.28992344E-02
  -9.32999992       3.27990279E-02
  -9.31999969       3.27246487E-02
  -9.31000042       3.26841883E-02
  -9.30000019       3.26856039E-02
  -9.28999996       3.27366069E-02
  -9.27999973       3.28444317E-02
  -9.27000046       3.30159180E-02
  -9.26000023       3.32574099E-02
  -9.25000000       3.35746519E-02
  -9.23999977       3.39727663E-02
  -9.22999954       3.44562009E-02
  -9.22000027       3.50287333E-02
  -9.21000004       3.56932431E-02
  -9.19999981       3.64520997E-02
  -9.18999958       3.73067334E-02
  -9.18000031       3.82578671E-02
  -9.17000008       3.93052734E-02
  -9.15999985       4.04479317E-02
  -9.14999962       4.16839644E-02
  -9.14000034       4.30106632E-02
  -9.13000011       4.44243923E-02
  -9.11999989       4.59208228E-02
  -9.10999966       4.74948920E-02
  -9.10000038       4.91408147E-02
  -9.09000015       5.08521497E-02
  -9.07999992       5.26217893E-02
  -9.06999969       5.44420630E-02
  -9.06000042       5.63046448E-02
  -9.05000019       5.82004637E-02
  -9.03999996       6.01199977E-02
  -9.02999973       6.20531142E-02
  -9.02000046       6.39892146E-02
  -9.01000023       6.59174100E-02
  -9.00000000       6.78266808E-02
  -8.98999977       6.97057843E-02
  -8.97999954       7.15437382E-02
  -8.97000027       7.33295009E-02
  -8.96000004       7.50525594E-02
  -8.94999981       7.67025799E-02
  -8.93999958       7.82695413E-02
  -8.93000031       7.97440261E-02
  -8.92000008       8.11170936E-02
  -8.90999985       8.23802426E-02
  -8.89999962       8.35260451E-02
  -8.89000034       8.45473781E-02
  -8.88000011       8.54383633E-02
  -8.86999989       8.61939639E-02
  -8.85999966       8.68100226E-02
  -8.85000038       8.72834474E-02
  -8.84000015       8.76123309E-02
  -8.82999992       8.77954736E-02
  -8.81999969       8.78328010E-02
  -8.81000042       8.77254233E-02
  -8.80000019       8.74751508E-02
  -8.78999996       8.70848373E-02
  -8.77999973       8.65582079E-02
  -8.77000046       8.58998820E-02
  -8.76000023       8.51152465E-02
  -8.75000000       8.42105523E-02
  -8.73999977       8.31927136E-02
  -8.72999954       8.20691660E-02
  -8.72000027       8.08481872E-02
  -8.71000004       7.95384422E-02
  -8.69999981       7.81489983E-02
  -8.68999958       7.66895190E-02
  -8.68000031       7.51694739E-02
  -8.67000008       7.35988915E-02
  -8.65999985       7.19873831E-02
  -8.64999962       7.03446120E-02
  -8.64000034       6.86797872E-02
  -8.63000011       6.70017451E-02
  -8.61999989       6.53189719E-02
  -8.60999966       6.36392385E-02
  -8.60000038       6.19695857E-02
  -8.59000015       6.03168122E-02
  -8.57999992       5.86869009E-02
  -8.56999969       5.70854433E-02
  -8.56000042       5.55173196E-02
  -8.55000019       5.39871417E-02
  -8.53999996       5.24987541E-02
  -8.52999973       5.10555245E-02
  -8.52000046       4.96604666E-02
  -8.51000023       4.83159088E-02
  -8.50000000       4.70234491E-02
  -8.48999977       4.57844846E-02
  -8.47999954       4.45993654E-02
  -8.47000027       4.34681401E-02
  -8.46000004       4.23903652E-02
  -8.44999981       4.13647071E-02
  -8.43999958       4.03896086E-02
  -8.43000031       3.94632444E-02
  -8.42000008       3.85832600E-02
  -8.40999985       3.77474502E-02
  -8.39999962       3.69534083E-02
  -8.39000034       3.61989737E-02
  -8.38000011       3.54822017E-02
  -8.36999989       3.48014086E-02
  -8.35999966       3.41555364E-02
  -8.35000038       3.35438885E-02
  -8.34000015       3.29662859E-02
  -8.32999992       3.24231014E-02
  -8.31999969       3.19155268E-02
  -8.31000042       3.14451046E-02
  -8.30000019       3.10139433E-02
  -8.28999996       3.06246746E-02
  -8.27999973       3.02807856E-02
  -8.27000046       2.99859922E-02
  -8.26000023       2.97444314E-02
  -8.25000000       2.95608956E-02
  -8.23999977       2.94401664E-02
  -8.22999954       2.93876603E-02
  -8.22000027       2.94086412E-02
  -8.21000004       2.95084938E-02
  -8.19999981       2.96927784E-02
  -8.18999958       2.99671646E-02
  -8.18000031       3.03369928E-02
  -8.17000008       3.08078732E-02
  -8.15999985       3.13850567E-02
  -8.14999962       3.20736319E-02
  -8.14000034       3.28784436E-02
  -8.13000011       3.38037051E-02
  -8.11999989       3.48534994E-02
  -8.10999966       3.60313728E-02
  -8.10000038       3.73398326E-02
  -8.09000015       3.87812518E-02
  -8.07999992       4.03572060E-02
  -8.06999969       4.20686305E-02
  -8.06000042       4.39154804E-02
  -8.05000019       4.58973721E-02
  -8.03999996       4.80127968E-02
  -8.02999973       5.02599552E-02
  -8.02000046       5.26360348E-02
  -8.01000023       5.51373847E-02
  -8.00000000       5.77600412E-02
  -7.98999977       6.04990907E-02
  -7.98000002       6.33494183E-02
  -7.96999979       6.63047656E-02
  -7.96000004       6.93590492E-02
  -7.94999981       7.25053921E-02
  -7.94000006       7.57363737E-02
  -7.92999983       7.90443420E-02
  -7.92000008       8.24206695E-02
  -7.90999985       8.58569369E-02
  -7.90000010       8.93443301E-02
  -7.88999987       9.28733572E-02
  -7.88000011       9.64345485E-02
  -7.86999989      0.100018673    
  -7.86000013      0.103616476    
  -7.84999990      0.107218705    
  -7.84000015      0.110816084    
  -7.82999992      0.114399970    
  -7.82000017      0.117961913    
  -7.80999994      0.121493571    
  -7.80000019      0.124986865    
  -7.78999996      0.128434405    
  -7.78000021      0.131829232    
  -7.76999998      0.135165021    
  -7.76000023      0.138436154    
  -7.75000000      0.141637579    
  -7.73999977      0.144765332    
  -7.73000002      0.147815943    
  -7.71999979      0.150787100    
  -7.71000004      0.153676525    
  -7.69999981      0.156483233    
  -7.69000006      0.159206524    
  -7.67999983      0.161846325    
  -7.67000008      0.164403304    
  -7.65999985      0.166878179    
  -7.65000010      0.169272631    
  -7.63999987      0.171588853    
  -7.63000011      0.173829556    
  -7.61999989      0.175997838    
  -7.61000013      0.178098619    
  -7.59999990      0.180135861    
  -7.59000015      0.182115361    
  -7.57999992      0.184043184    
  -7.57000017      0.185924992    
  -7.55999994      0.187767699    
  -7.55000019      0.189577401    
  -7.53999996      0.191361234    
  -7.53000021      0.193125442    
  -7.51999998      0.194876671    
  -7.51000023      0.196621627    
  -7.50000000      0.198366717    
  -7.48999977      0.200118273    
  -7.48000002      0.201882392    
  -7.46999979      0.203665704    
  -7.46000004      0.205474362    
  -7.44999981      0.207313746    
  -7.44000006      0.209189355    