  -16.0000000       0.00000000    
  -15.9899998       0.00000000    
  -15.9799995       0.00000000    
  -15.9700003       0.00000000    
  -15.9600000       0.00000000    
  -15.9499998       0.00000000    
  -15.9399996       0.00000000    
  -15.9300003       0.00000000    
  -15.9200001       0.00000000    
  -15.9099998       0.00000000    
  -15.8999996       0.00000000    
  -15.8900003       0.00000000    
  -15.8800001       8.40779079E-45
  -15.8699999       1.14345955E-42
  -15.8599997       2.23801378E-41
  -15.8500004       2.54723831E-40
  -15.8400002       2.21034374E-39
  -15.8299999       1.60874192E-38
  -15.8199997       1.00493223E-37
  -15.8100004       5.38913426E-37
  -15.8000002       2.48011802E-36
  -15.7900000       9.82422561E-36
  -15.7799997       3.36408862E-35
  -15.7700005       9.98818583E-35
  -15.7600002       2.56958427E-34
  -15.7500000       5.68465257E-34
  -15.7399998       1.05838563E-33
  -15.7299995       1.56497273E-33
  -15.7200003       1.48801321E-33
  -15.7100000      -4.80650319E-34
  -15.6999998      -6.38484891E-33
  -15.6899996      -1.84324494E-32
  -15.6800003      -3.76638911E-32
  -15.6700001      -6.22305005E-32
  -15.6599998      -8.58328401E-32
  -15.6499996      -9.51092891E-32
  -15.6400003      -6.00184435E-32
  -15.6300001       9.27989607E-32
  -15.6199999       5.23544213E-31
  -15.6099997       1.49357325E-30
  -15.6000004       3.21457042E-30
  -15.5900002       5.31682113E-30
  -15.5799999       5.81819637E-30
  -15.5699997       7.97503710E-33
  -15.5600004      -1.92359987E-29
  -15.5500002      -5.69404438E-29
  -15.5400000      -1.04722754E-28
  -15.5299997      -1.24073788E-28
  -15.5200005      -3.54810493E-29
  -15.5100002       2.61878782E-28
  -15.5000000       8.08591769E-28
  -15.4899998       1.43055833E-27
  -15.4799995       1.56785373E-27
  -15.4700003       2.54651633E-28
  -15.4600000      -3.48403269E-27
  -15.4499998      -9.59876551E-27
  -15.4399996      -1.54795633E-26
  -15.4300003      -1.47843719E-26
  -15.4200001       1.62123569E-27
  -15.4099998       4.05458790E-26
  -15.3999996       9.64391085E-26
  -15.3900003       1.39572211E-25
  -15.3800001       1.11495271E-25
  -15.3699999      -5.82498282E-26
  -15.3599997      -4.02263028E-25
  -15.3500004      -8.36220959E-25
  -15.3400002      -1.08636599E-24
  -15.3299999      -6.97194824E-25
  -15.3199997       7.89983799E-25
  -15.3100004       3.44026067E-24
  -15.3000002       6.39772663E-24
  -15.2900000       7.52841516E-24
  -15.2799997       3.73108331E-24
  -15.2700005      -7.59142858E-24
  -15.2600002      -2.58273045E-23
  -15.2500000      -4.40760758E-23
  -15.2399998      -4.77761806E-23
  -15.2299995      -1.79549507E-23
  -15.2200003       5.86014916E-23
  -15.2100000       1.73009250E-22
  -15.1999998       2.78058348E-22
  -15.1899996       2.84578353E-22
  -15.1800003       8.57007065E-23
  -15.1700001      -3.81592619E-22
  -15.1599998      -1.04675466E-21
  -15.1499996      -1.62616347E-21
  -15.1400003      -1.62083870E-21
  -15.1300001      -4.65303483E-22
  -15.1199999       2.13771682E-21
  -15.1099997       5.76076609E-21
  -15.1000004       8.87878948E-21
  -15.0900002       8.90933216E-21
  -15.0799999       3.00204887E-21
  -15.0699997      -1.02995659E-20
  -15.0600004      -2.88760286E-20
  -15.0500002      -4.53183565E-20
  -15.0400000      -4.71874809E-20
  -15.0299997      -2.07131535E-20
  -15.0200005       4.16067389E-20
  -15.0100002       1.31137234E-19
  -15.0000000       2.15304541E-19
  -14.9899998       2.38302049E-19
  -14.9799995       1.36498979E-19
  -14.9700003      -1.29451530E-19
  -14.9600000      -5.32332962E-19
  -14.9499998      -9.43337657E-19
  -14.9399996      -1.13023167E-18
  -14.9300003      -8.14098699E-19
  -14.9200001       2.05606184E-19
  -14.9099998       1.88015527E-18
  -14.8999996       3.75894321E-18
  -14.8900003       4.95331467E-18
  -14.8800001       4.31711187E-18
  -14.8699999       8.92338974E-19
  -14.8599997      -5.44416985E-18
  -14.8500004      -1.33480299E-17
  -14.8400002      -1.97354475E-17
  -14.8299999      -2.02497933E-17
  -14.8199997      -1.06945528E-17
  -14.8100004       1.07008791E-17
  -14.8000002       4.08287351E-17
  -14.7900000       7.01993577E-17
  -14.7799997       8.37238732E-17
  -14.7700005       6.47649531E-17
  -14.7600002       2.38465004E-18
  -14.7500000      -9.99029039E-17
  -14.7399998      -2.17269986E-16
  -14.7299995      -3.03000732E-16
  -14.7200003      -2.98023857E-16
  -14.7100000      -1.51654566E-16
  -14.6999998       1.50051066E-16
  -14.6899996       5.57422112E-16
  -14.6800003       9.44992519E-16
  -14.6700001       1.12735850E-15
  -14.6599998       9.10507373E-16
  -14.6499996       1.73772118E-16
  -14.6400003      -1.03857600E-15
  -14.6300001      -2.45176439E-15
  -14.6199999      -3.56259644E-15
  -14.6099997      -3.74129244E-15
  -14.6000004      -2.43733074E-15
  -14.5900002       5.49097049E-16
  -14.5799999       4.81402621E-15
  -14.5699997       9.22958863E-15
  -14.5600004       1.20674184E-14
  -14.5500002       1.14244678E-14
  -14.5400000       5.91200664E-15
  -14.5299997      -4.55530042E-15
  -14.5200005      -1.81428630E-14
  -14.5100002      -3.09705298E-14
  -14.5000000      -3.77337457E-14
  -14.4899998      -3.31400116E-14
  -14.4799995      -1.39403412E-14
  -14.4700003       1.89801855E-14
  -14.4600000       5.92211555E-14
  -14.4499998       9.49926783E-14
  -14.4399996       1.11288576E-13
  -14.4300003       9.40930276E-14
  -14.4200001       3.58579912E-14
  -14.4099998      -5.92519469E-14
  -14.3999996      -1.72313918E-13
  -14.3900003      -2.70687146E-13
  -14.3800001      -3.14258033E-13
  -14.3699999      -2.66580865E-13
  -14.3599997      -1.08806776E-13
  -14.3500004       1.47393802E-13
  -14.3400002       4.52657660E-13
  -14.3299999       7.22919120E-13
  -14.3199997       8.55063524E-13
  -14.3100004       7.54375349E-13
  -14.3000002       3.68733418E-13
  -14.2900000      -2.79368461E-13
  -14.2799997      -1.07413546E-12
  -14.2700005      -1.81163743E-12
  -14.2600002      -2.23510576E-12
  -14.2500000      -2.09906138E-12
  -14.2399998      -1.25134354E-12
  -14.2299995       2.87130074E-13
  -14.2200003       2.27087598E-12
  -14.2100000       4.23212897E-12
  -14.1999998       5.55369986E-12
  -14.1899996       5.61240420E-12
  -14.1800003       3.97089479E-12
  -14.1700001       5.73428295E-13
  -14.1599998      -4.11428400E-12
  -14.1499996      -9.08245007E-12
  -14.1400003      -1.29156807E-11
  -14.1300001      -1.40997457E-11
  -14.1199999      -1.14533999E-11
  -14.1099997      -4.58968454E-12
  -14.1000004       5.72703994E-12
  -14.0900002       1.74696611E-11
  -14.0799999       2.75892208E-11
  -14.0699997       3.26363311E-11
  -14.0600004       2.96811950E-11
  -14.0500002       1.73344741E-11
  -14.0400000      -3.41493153E-12
  -14.0299997      -2.88505556E-11
  -14.0200005      -5.29036641E-11
  -14.0100002      -6.83292103E-11
  -14.0000000      -6.85318122E-11
  -13.9899998      -4.96543882E-11
  -13.9799995      -1.23663406E-11
  -13.9700003       3.72560698E-11
  -13.9600000       8.82320605E-11
  -13.9499998       1.26726130E-10
  -13.9399996       1.39380604E-10
  -13.9300003       1.17222287E-10
  -13.9200001       5.91129298E-11
  -13.9099998      -2.63618849E-11
  -13.8999996      -1.21425134E-10
  -13.8900003      -2.02368747E-10
  -13.8800001      -2.45096443E-10
  -13.8699999      -2.31748787E-10
  -13.8599997      -1.56681806E-10
  -13.8500004      -2.99687219E-11
  -13.8400002       1.22977031E-10
  -13.8299999       2.66140471E-10
  -13.8199997       3.61288499E-10
  -13.8100004       3.78109988E-10
  -13.8000002       3.03449155E-10
  -13.7900000       1.46875095E-10
  -13.7799997      -5.94560512E-11
  -13.7700005      -2.67279782E-10
  -13.7600002      -4.23898083E-10
  -13.7500000      -4.86255147E-10
  -13.7399998      -4.33601238E-10
  -13.7299995      -2.74935880E-10
  -13.7200003      -4.85554791E-11
  -13.7100000       1.86906712E-10
  -13.6999998       3.68102160E-10
  -13.6899996       4.45227244E-10
  -13.6800003       3.97705507E-10
  -13.6700001       2.42321052E-10
  -13.6599998       3.05955053E-11
  -13.6499996      -1.64878680E-10
  -13.6400003      -2.72114942E-10
  -13.6300001      -2.43612436E-10
  -13.6199999      -7.52939100E-11
  -13.6099997       1.85996676E-10
  -13.6000004       4.50263410E-10
  -13.5900002       6.07102701E-10
  -13.5799999       5.58594448E-10
  -13.5699997       2.53834259E-10
  -13.5600004      -2.85037882E-10
  -13.5500002      -9.54376800E-10
  -13.5400000      -1.58336722E-09
  -13.5299997      -1.97057592E-09
  -13.5200005      -1.93575334E-09
  -13.5100002      -1.37468503E-09
  -13.5000000      -3.02384756E-10
  -13.4899998       1.12883591E-09
  -13.4799995       2.64483235E-09
  -13.4700003       3.89907218E-09
  -13.4600000       4.54756410E-09
  -13.4499998       4.33307257E-09
  -13.4399996       3.15824500E-09
  -13.4300003       1.12809884E-09
  -13.4200001      -1.45164214E-09
  -13.4099998      -4.12370316E-09
  -13.3999996      -6.36739639E-09
  -13.3900003      -7.70672326E-09
  -13.3800001      -7.81331089E-09
  -13.3699999      -6.57925670E-09
  -13.3599997      -4.14188195E-09
  -13.3500004      -8.54568194E-10
  -13.3400002       2.78810353E-09
  -13.3299999       6.25045482E-09
  -13.3199997       9.05419473E-09
  -13.3100004       1.08498606E-08
  -13.3000002       1.14451515E-08
  -13.2900000       1.07887628E-08
  -13.2799997       8.92382879E-09
  -13.2700005       5.93625327E-09
  -13.2600002       1.92572758E-09
  -13.2500000      -2.98069702E-09
  -13.2399998      -8.56954507E-09
  -13.2299995      -1.44545318E-08
  -13.2200003      -1.99994776E-08
  -13.2100000      -2.42957121E-08
  -13.1999998      -2.62330779E-08
  -13.1899996      -2.46817162E-08
  -13.1800003      -1.87686844E-08
  -13.1700001      -8.19677481E-09
  -13.1599998       6.47545040E-09
  -13.1499996       2.36837696E-08
  -13.1400003       4.09155305E-08
  -13.1300001       5.50114585E-08
  -13.1199999       6.26921164E-08
  -13.1099997       6.12266504E-08
  -13.1000004       4.91107883E-08
  -13.0900002       2.65969273E-08
  -13.0799999      -4.06856726E-09
  -13.0699997      -3.87951431E-08
  -13.0600004      -7.22001516E-08
  -13.0500002      -9.84868791E-08
  -13.0400000      -1.12490802E-07
  -13.0299997      -1.10685612E-07
  -13.0200005      -9.19358101E-08
  -13.0100002      -5.78272363E-08
  -13.0000000      -1.24937030E-08
  -12.9899998       3.80329652E-08
  -12.9799995       8.68176286E-08
  -12.9700003       1.27152319E-07
  -12.9600000       1.53588644E-07
  -12.9499998       1.62668314E-07
  -12.9399996       1.53229450E-07
  -12.9300003       1.26276660E-07
  -12.9200001       8.45134025E-08
  -12.9099998       3.17158850E-08
  -12.8999996      -2.78472196E-08
  -12.8900003      -8.97811248E-08
  -12.8800001      -1.49641650E-07
  -12.8699999      -2.02767396E-07
  -12.8599997      -2.44027007E-07
  -12.8500004      -2.67709339E-07
  -12.8400002      -2.67781957E-07
  -12.8299999      -2.38657265E-07
  -12.8199997      -1.76451692E-07
  -12.8100004      -8.05406657E-08
  -12.8000002       4.49522020E-08
  -12.7900000       1.90183457E-07
  -12.7799997       3.39566327E-07
  -12.7700005       4.72978257E-07
  -12.7600002       5.68233133E-07
  -12.7500000       6.04545733E-07
  -12.7399998       5.66432789E-07
  -12.7299995       4.47302284E-07
  -12.7200003       2.51947682E-07
  -12.7100000      -2.69652811E-09
  -12.6999998      -2.88878567E-07
  -12.6899996      -5.71367877E-07
  -12.6800003      -8.12329176E-07
  -12.6700001      -9.76916681E-07
  -12.6599998      -1.03860543E-06
  -12.6499996      -9.83311452E-07
  -12.6400003      -8.11588677E-07
  -12.6300001      -5.38572522E-07
  -12.6199999      -1.91779392E-07
  -12.6099997       1.92741467E-07
  -12.6000004       5.75143588E-07
  -12.5900002       9.16580746E-07
  -12.5799999       1.18334447E-06
  -12.5699997       1.34988204E-06
  -12.5600004       1.40054283E-06
  -12.5500002       1.33017920E-06
  -12.5400000       1.14390787E-06
  -12.5299997       8.56357190E-07
  -12.5200005       4.90613047E-07
  -12.5100002       7.68910482E-08
  -12.5000000      -3.49242157E-07
  -12.4899998      -7.49376170E-07
  -12.4799995      -1.08572942E-06
  -12.4700003      -1.32561968E-06
  -12.4600000      -1.44662738E-06
  -12.4499998      -1.44176818E-06
  -12.4399996      -1.32368700E-06
  -12.4300003      -1.12675843E-06
  -12.4200001      -9.06117862E-07
  -12.4099998      -7.33055458E-07
  -12.3999996      -6.86842782E-07
  -12.3900003      -8.43797920E-07
  -12.3800001      -1.26507302E-06
  -12.3699999      -1.98510816E-06
  -12.3599997      -3.00279680E-06
  -12.3500004      -4.27710575E-06
  -12.3400002      -5.72821637E-06
  -12.3299999      -7.24430265E-06
  -12.3199997      -8.69308860E-06
  -12.3100004      -9.93644244E-06
  -12.3000002      -1.08457562E-05
  -12.2900000      -1.13157857E-05
  -12.2799997      -1.12749867E-05
  -12.2700005      -1.06911702E-05
  -12.2600002      -9.57221346E-06
  -12.2500000      -7.96244058E-06
  -12.2399998      -5.93602908E-06
  -12.2299995      -3.58896204E-06
  -12.2200003      -1.03098546E-06
  -12.2100000       1.62152730E-06
  -12.1999998       4.25152348E-06
  -12.1899996       6.74640205E-06
  -12.1800003       9.00303985E-06
  -12.1700001       1.09334196E-05
  -12.1599998       1.24711514E-05
  -12.1499996       1.35785067E-05
  -12.1400003       1.42528315E-05
  -12.1300001       1.45306476E-05
  -12.1199999       1.44876403E-05
  -12.1099997       1.42331410E-05
  -12.1000004       1.38986015E-05
  -12.0900002       1.36208646E-05
  -12.0799999       1.35223518E-05
  -12.0699997       1.36912849E-05
  -12.0600004       1.41655210E-05
  -12.0500002       1.49232919E-05
  -12.0400000       1.58830208E-05
  -12.0299997       1.69128107E-05
  -12.0200005       1.78483479E-05
  -12.0100002       1.85162662E-05
  -12.0000000       1.87590085E-05
  -11.9899998       1.84568253E-05
  -11.9799995       1.75432669E-05
  -11.9700003       1.60118234E-05
  -11.9600000       1.39131289E-05
  -11.9499998       1.13440592E-05
  -11.9399996       8.43138514E-06
  -11.9300003       5.31350315E-06
  -11.9200001       2.12367172E-06
  -11.9099998      -1.02252181E-06
  -11.8999996      -4.03412332E-06
  -11.8900003      -6.84621091E-06
  -11.8800001      -9.41704184E-06
  -11.8699999      -1.17229802E-05
  -11.8599997      -1.37533816E-05
  -11.8500004      -1.55070666E-05
  -11.8400002      -1.69911473E-05
  -11.8299999      -1.82218701E-05
  -11.8199997      -1.92263215E-05
  -11.8100004      -2.00433296E-05
  -11.8000002      -2.07220710E-05
  -11.7900000      -2.13175335E-05
  -11.7799997      -2.18829391E-05
  -11.7700005      -2.24603373E-05
  -11.7600002      -2.30713413E-05
  -11.7500000      -2.37103104E-05
  -11.7399998      -2.43420036E-05
  -11.7299995      -2.49047935E-05
  -11.7200003      -2.53193866E-05
  -11.7100000      -2.55016093E-05
  -11.6999998      -2.53768030E-05
  -11.6899996      -2.48929537E-05
  -11.6800003      -2.40297068E-05
  -11.6700001      -2.28015178E-05
  -11.6599998      -2.12542454E-05
  -11.6499996      -1.94561544E-05
  -11.6400003      -1.74853576E-05
  -11.6300001      -1.54164791E-05
  -11.6199999      -1.33093972E-05
  -11.6099997      -1.12021007E-05
  -11.6000004      -9.10874587E-06
  -11.5900002      -7.02252100E-06
  -11.5799999      -4.92199160E-06
  -11.5699997      -2.77880531E-06
  -11.5600004      -5.64746244E-07
  -11.5500002       1.74340698E-06
  -11.5400000       4.16174407E-06
  -11.5299997       6.69939118E-06
  -11.5200005       9.35976368E-06
  -11.5100002       1.21413614E-05
  -11.5000000       1.50369451E-05
  -11.4899998       1.80305342E-05
  -11.4799995       2.10927283E-05
  -11.4700003       2.41757316E-05
  -11.4600000       2.72098896E-05
  -11.4499998       3.01036416E-05
  -11.4399996       3.27479938E-05
  -11.4300003       3.50257287E-05
  -11.4200001       3.68242545E-05
  -11.4099998       3.80500423E-05
  -11.3999996       3.86420215E-05
  -11.3900003       3.85812673E-05
  -11.3800001       3.78952100E-05
  -11.3699999       3.66552995E-05
  -11.3599997       3.49688671E-05
  -11.3500004       3.29664690E-05
  -11.3400002       3.07873561E-05
  -11.3299999       2.85652841E-05
  -11.3199997       2.64171085E-05
  -11.3100004       2.44353450E-05
  -11.3000002       2.26851389E-05
  -11.2900000       2.12050836E-05
  -11.2799997       2.00105515E-05
  -11.2700005       1.90980845E-05
  -11.2600002       1.84493656E-05
  -11.2500000       1.80339503E-05
  -11.2399998       1.78105238E-05
  -11.2299995       1.77271704E-05
  -11.2200003       1.77215625E-05
  -11.2100000       1.77221918E-05
  -11.1999998       1.76514950E-05
  -11.1899996       1.74311372E-05
  -11.1800003       1.69892719E-05
  -11.1700001       1.62685719E-05
  -11.1599998       1.52337670E-05
  -11.1499996       1.38770693E-05
  -11.1400003       1.22202810E-05
  -11.1300001       1.03130405E-05
  -11.1199999       8.22749007E-06
  -11.1099997       6.05040714E-06
  -11.1000004       3.87443106E-06
  -11.0900002       1.79010738E-06
  -11.0799999      -1.19841033E-07
  -11.0699997      -1.78341600E-06
  -11.0600004      -3.13956139E-06
  -11.0500002      -4.13682073E-06
  -11.0400000      -4.73191540E-06
  -11.0299997      -4.88968863E-06
  -11.0200005      -4.58529530E-06
  -11.0100002      -3.80860638E-06
  -11.0000000      -2.56982867E-06
  -10.9899998      -9.04461956E-07
  -10.9799995       1.12431132E-06
  -10.9700003       3.42747103E-06
  -10.9600000       5.89669071E-06
  -10.9499998       8.41490237E-06
  -10.9399996       1.08688109E-05
  -10.9300003       1.31606739E-05
  -10.9200001       1.52165394E-05
  -10.9099998       1.69890154E-05
  -10.8999996       1.84540186E-05
  -10.8900003       1.96026522E-05
  -10.8800001       2.04306943E-05
  -10.8699999       2.09290338E-05
  -10.8599997       2.10780236E-05
  -10.8500004       2.08477213E-05
  -10.8400002       2.02041811E-05
  -10.8299999       1.91201525E-05
  -10.8199997       1.75870337E-05
  -10.8100004       1.56244114E-05
  -10.8000002       1.32839932E-05
  -10.7900000       1.06461039E-05
  -10.7799997       7.80907976E-06
  -10.7700005       4.87375155E-06
  -10.7600002       1.92681978E-06
  -10.7500000      -9.72635462E-07
  -10.7399998      -3.79993298E-06
  -10.7299995      -6.56285738E-06
  -10.7200003      -9.29125872E-06
  -10.7100000      -1.20205441E-05
  -10.6999998      -1.47730707E-05
  -10.6899996      -1.75419736E-05
  -10.6800003      -2.02814426E-05
  -10.6700001      -2.29058896E-05
  -10.6599998      -2.52983300E-05
  -10.6499996      -2.73260684E-05
  -10.6400003      -2.88601786E-05
  -10.6300001      -2.97944225E-05
  -10.6199999      -3.00596785E-05
  -10.6099997      -2.96310136E-05
  -10.6000004      -2.85266779E-05
  -10.5900002      -2.68001222E-05
  -10.5799999      -2.45277060E-05
  -10.5699997      -2.17957240E-05
  -10.5600004      -1.86900925E-05
  -10.5500002      -1.52909870E-05
  -10.5400000      -1.16730453E-05
  -10.5299997      -7.91004550E-06
  -10.5200005      -4.08149663E-06
  -10.5100002      -2.77988136E-07
  -10.5000000       3.39749022E-06
  -10.4899998       6.83394092E-06
  -10.4799995       9.92230252E-06
  -10.4700003       1.25691695E-05
  -10.4600000       1.47110304E-05
  -10.4499998       1.63255190E-05
  -10.4399996       1.74365377E-05
  -10.4300003       1.81115975E-05
  -10.4200001       1.84515429E-05
  -10.4099998       1.85746321E-05
  -10.3999996       1.85982208E-05
  -10.3900003       1.86217367E-05
  -10.3800001       1.87140758E-05
  -10.3699999       1.89072871E-05
  -10.3599997       1.91968920E-05
  -10.3500004       1.95477041E-05
  -10.3400002       1.99030201E-05
  -10.3299999       2.01949279E-05
  -10.3199997       2.03537202E-05
  -10.3100004       2.03153268E-05
  -10.3000002       2.00263785E-05
  -10.2900000       1.94471813E-05
  -10.2799997       1.85531208E-05
  -10.2700005       1.73347853E-05
  -10.2600002       1.57969098E-05
  -10.2500000       1.39559315E-05
  -10.2399998       1.18360986E-05
  -10.2299995       9.46436012E-06
  -10.2200003       6.86484600E-06
  -10.2100000       4.05416495E-06
  -10.1999998       1.03901675E-06
  -10.1899996      -2.18282025E-06
  -10.1800003      -5.61772094E-06
  -10.1700001      -9.26828125E-06
  -10.1599998      -1.31238066E-05
  -10.1499996      -1.71513220E-05
  -10.1400003      -2.12892301E-05
  -10.1300001      -2.54452025E-05
  -10.1199999      -2.94989841E-05
  -10.1099997      -3.33097196E-05
  -10.1000004      -3.67267712E-05
  -10.0900002      -3.96024407E-05
  -10.0799999      -4.18050513E-05
  -10.0699997      -4.32310917E-05
  -10.0600004      -4.38152929E-05
  -10.0500002      -4.35377115E-05
  -10.0400000      -4.24269419E-05
  -10.0299997      -4.05584069E-05
  -10.0200005      -3.80473175E-05
  -10.0100002      -3.50359951E-05
  -10.0000000      -3.16767255E-05
  -9.98999977      -2.81123266E-05
  -9.97999954      -2.44575895E-05
  -9.97000027      -2.07853645E-05
  -9.96000004      -1.71204611E-05
  -9.94999981      -1.34429947E-05
  -9.93999958      -9.70090696E-06
  -9.93000031      -5.82898247E-06
  -9.92000008      -1.77019069E-06
  -9.90999985       2.50548783E-06
  -9.89999962       6.98867643E-06
  -9.89000034       1.16270230E-05
  -9.88000011       1.63302229E-05
  -9.86999989       2.09816608E-05
  -9.85999966       2.54532242E-05
  -9.85000038       2.96199669E-05
  -9.84000015       3.33720054E-05
  -9.82999992       3.66226268E-05
  -9.81999969       3.93128757E-05
  -9.81000042       4.14136812E-05
  -9.80000019       4.29265419E-05
  -9.78999996       4.38829884E-05
  -9.77999973       4.43425197E-05
  -9.77000046       4.43878271E-05
  -9.76000023       4.41165903E-05
  -9.75000000       4.36298251E-05
  -9.73999977       4.30183936E-05
  -9.72999954       4.23499550E-05
  -9.72000027       4.16595431E-05
  -9.71000004       4.09459572E-05
  -9.69999981       4.01750112E-05
  -9.68999958       3.92887305E-05
  -9.68000031       3.82179278E-05
  -9.67000008       3.68951478E-05
  -9.65999985       3.52651587E-05
  -9.64999962       3.32915079E-05
  -9.64000034       3.09594470E-05
  -9.63000011       2.82765504E-05
  -9.61999989       2.52730479E-05
  -9.60999966       2.20029069E-05
  -9.60000038       1.85456047E-05
  -9.59000015       1.50070637E-05
  -9.57999992       1.15174389E-05
  -9.56999969       8.22386755E-06
  -9.56000042       5.27796692E-06
  -9.55000019       2.81954226E-06
  -9.53999996       9.60308171E-07
  -9.52999973      -2.28427439E-07
  -9.52000046      -7.20281548E-07
  -9.51000023      -5.29425279E-07
  -9.50000000       3.01513268E-07
  -9.48999977       1.71734973E-06
  -9.47999954       3.66497466E-06
  -9.47000027       6.10232200E-06
  -9.46000004       8.99902625E-06
  -9.44999981       1.23293958E-05
  -9.43999958       1.60606869E-05
  -9.43000031       2.01413386E-05
  -9.42000008       2.44935709E-05
  -9.40999985       2.90129628E-05
  -9.39999962       3.35750883E-05
  -9.39000034       3.80467864E-05
  -9.38000011       4.22984413E-05
  -9.36999989       4.62134230E-05
  -9.35999966       4.96927933E-05
  -9.35000038       5.26549484E-05
  -9.34000015       5.50325094E-05
  -9.32999992       5.67689312E-05
  -9.31999969       5.78177132E-05
  -9.31000042       5.81452223E-05
  -9.30000019       5.77362407E-05
  -9.28999996       5.66000563E-05
  -9.27999973       5.47740237E-05
  -9.27000046       5.23222698E-05
  -9.26000023       4.93286025E-05
  -9.25000000       4.58848735E-05
  -9.23999977       4.20773140E-05
  -9.22999954       3.79744597E-05
  -9.22000027       3.36196863E-05
  -9.21000004       2.90303542E-05
  -9.19999981       2.42036458E-05
  -9.18999958       1.91275903E-05
  -9.18000031       1.37943516E-05
  -9.17000008       8.21241883E-06
  -9.15999985       2.41451312E-06
  -9.14999962      -3.54111080E-06
  -9.14000034      -9.57667635E-06
  -9.13000011      -1.56071546E-05
  -9.11999989      -2.15562341E-05
  -9.10999966      -2.73719252E-05
  -9.10000038      -3.30372277E-05
  -9.09000015      -3.85722597E-05
  -9.07999992      -4.40256736E-05
  -9.06999969      -4.94564156E-05
  -9.06000042      -5.49097713E-05
  -9.05000019      -6.03939916E-05
  -9.03999996      -6.58646823E-05
  -9.02999973      -7.12224282E-05
  -9.02000046      -7.63258577E-05
  -9.01000023      -8.10171696E-05
  -9.00000000      -8.51535660E-05
  -8.98999977      -8.86347552E-05
  -8.97999954      -9.14182892E-05
  -8.97000027      -9.35174176E-05
  -8.96000004      -9.49827299E-05
  -8.94999981      -9.58740566E-05
  -8.93999958      -9.62330814E-05
  -8.93000031      -9.60674442E-05
  -8.92000008      -9.53523704E-05
  -8.90999985      -9.40496902E-05
  -8.89999962      -9.21371684E-05
  -8.89000034      -8.96359852E-05
  -8.88000011      -8.66243136E-05
  -8.86999989      -8.32294900E-05
  -8.85999966      -7.95985543E-05
  -8.85000038      -7.58562164E-05
  -8.84000015      -7.20640965E-05
  -8.82999992      -6.81960883E-05
  -8.81999969      -6.41396982E-05
  -8.81000042      -5.97242142E-05
  -8.80000019      -5.47671516E-05
  -8.78999996      -4.91231694E-05
  -8.77999973      -4.27192681E-05
  -8.77000046      -3.55645534E-05
  -8.76000023      -2.77323761E-05
  -8.75000000      -1.93232809E-05
  -8.73999977      -1.04238934E-05
  -8.72999954      -1.07875599E-06
  -8.72000027       8.71362317E-06
  -8.71000004       1.89785842E-05
  -8.69999981       2.97260904E-05
  -8.68999958       4.09103523E-05
  -8.68000031       5.24054703E-05
  -8.67000008       6.40081780E-05
  -8.65999985       7.54681823E-05
  -8.64999962       8.65362526E-05
  -8.64000034       9.70121400E-05
  -8.63000011       1.06774765E-04
  -8.61999989       1.15783376E-04
  -8.60999966       1.24049489E-04
  -8.60000038       1.31591267E-04
  -8.59000015       1.38388990E-04
  -8.57999992       1.44359976E-04
  -8.56999969       1.49364656E-04
  -8.56000042       1.53242654E-04
  -8.55000019       1.55866830E-04
  -8.53999996       1.57194387E-04
  -8.52999973       1.57295712E-04
  -8.52000046       1.56348673E-04
  -8.51000023       1.54598922E-04
  -8.50000000       1.52299472E-04
  -8.48999977       1.49650601E-04
  -8.47999954       1.46761391E-04
  -8.47000027       1.43645986E-04
  -8.46000004       1.40255303E-04
  -8.44999981       1.36531686E-04
  -8.43999958       1.32466288E-04
  -8.43000031       1.28137384E-04
  -8.42000008       1.23715916E-04
  -8.40999985       1.19437296E-04
  -8.39999962       1.15549810E-04
  -8.39000034       1.12259710E-04
  -8.38000011       1.09692650E-04
  -8.36999989       1.07885433E-04
  -8.35999966       1.06809333E-04
  -8.35000038       1.06414358E-04
  -8.34000015       1.06676205E-04
  -8.32999992       1.07626438E-04
  -8.31999969       1.09352695E-04
  -8.31000042       1.11968504E-04
  -8.30000019       1.15563220E-04
  -8.28999996       1.20151024E-04
  -8.27999973       1.25639359E-04
  -8.27000046       1.31830093E-04
  -8.26000023       1.38455711E-04
  -8.25000000       1.45239508E-04
  -8.23999977       1.51960456E-04
  -8.22999954       1.58500712E-04
  -8.22000027       1.64859754E-04
  -8.21000004       1.71129926E-04
  -8.19999981       1.77441150E-04
  -8.18999958       1.83893761E-04
  -8.18000031       1.90501101E-04
  -8.17000008       1.97160771E-04
  -8.15999985       2.03663454E-04
  -8.14999962       2.09734688E-04
  -8.14000034       2.15094507E-04
  -8.13000011       2.19513604E-04
  -8.11999989       2.22846589E-04
  -8.10999966       2.25031501E-04
  -8.10000038       2.26057004E-04
  -8.09000015       2.25910728E-04
  -8.07999992       2.24529183E-04
  -8.06999969       2.21769937E-04
  -8.06000042       2.17419409E-04
  -8.05000019       2.11236649E-04
  -8.03999996       2.03020987E-04
  -8.02999973       1.92681546E-04
  -8.02000046       1.80285366E-04
  -8.01000023       1.66065744E-04
  -8.00000000       1.50385982E-04
  -7.98999977       1.33667490E-04
  -7.98000002       1.16303672E-04
  -7.96999979       9.85862498E-05
  -7.96000004       8.06663375E-05
  -7.94999981       6.25621469E-05
  -7.94000006       4.42089513E-05
  -7.92999983       2.55335162E-05
  -7.92000008       6.52629979E-06
  -7.90999985      -1.27135145E-05
  -7.90000010      -3.19764222E-05
  -7.88999987      -5.09845049E-05
  -7.88000011      -6.94621704E-05
  -7.86999989      -8.72107121E-05
  -7.86000013      -1.04159597E-04
  -7.84999990      -1.20375735E-04
  -7.84000015      -1.36026531E-04
  -7.82999992      -1.51308370E-04
  -7.82000017      -1.66364087E-04
  -7.80999994      -1.81217489E-04
  -7.80000019      -1.95745451E-04
  -7.78999996      -2.09696562E-04
  -7.78000021      -2.22747374E-04
  -7.76999998      -2.34575855E-04
  -7.76000023      -2.44926108E-04
  -7.75000000      -2.53642211E-04
  -7.73999977      -2.60661502E-04
  -7.73000002      -2.65974231E-04
  -7.71999979      -2.69566255E-04
  -7.71000004      -2.71371042E-04
  -7.69999981      -2.71251425E-04
  -7.69000006      -2.69020209E-04
  -7.67999983      -2.64495640E-04
  -7.67000008      -2.57572188E-04
  -7.65999985      -2.48282391E-04
  -7.65000010      -2.36826643E-04
  -7.63999987      -2.23559124E-04
  -7.63000011      -2.08931888E-04
  -7.61999989      -1.93413303E-04
  -7.61000013      -1.77405629E-04
  -7.59999990      -1.61185366E-04
  -7.59000015      -1.44882812E-04
  -7.57999992      -1.28504165E-04
  -7.57000017      -1.11985464E-04
  -7.55999994      -9.52593109E-05
  -7.55000019      -7.83127325E-05
  -7.53999996      -6.12187505E-05
  -7.53000021      -4.41350057E-05
  -7.51999998      -2.72730704E-05
  -7.51000023      -1.08514550E-05
  -7.50000000       4.95096401E-06
  -7.48999977       2.00264694E-05
  -7.48000002       3.43464344E-05
  -7.46999979       4.79459195E-05
  -7.46000004       6.08922564E-05
  -7.44999981       7.32497501E-05
  -7.44000006       8.50520446E-05