  -16.0000000       0.00000000    
  -15.9899998       0.00000000    
  -15.9799995       0.00000000    
  -15.9700003       0.00000000    
  -15.9600000       0.00000000    
  -15.9499998       0.00000000    
  -15.9399996       0.00000000    
  -15.9300003       0.00000000    
  -15.9200001       0.00000000    
  -15.9099998       0.00000000    
  -15.8999996       0.00000000    
  -15.8900003       0.00000000    
  -15.8800001       0.00000000    
  -15.8699999       0.00000000    
  -15.8599997      -0.00000000    
  -15.8500004      -0.00000000    
  -15.8400002      -9.80908925E-45
  -15.8299999      -1.28919459E-43
  -15.8199997      -1.21632707E-42
  -15.8100004      -9.08742054E-42
  -15.8000002      -5.60014918E-41
  -15.7900000      -2.93895728E-40
  -15.7799997      -1.34300865E-39
  -15.7700005      -5.43163744E-39
  -15.7600002      -1.96807591E-38
  -15.7500000      -6.44733332E-38
  -15.7399998      -1.92248576E-37
  -15.7299995      -5.24223872E-37
  -15.7200003      -1.31080534E-36
  -15.7100000      -3.00783904E-36
  -15.6999998      -6.32329721E-36
  -15.6899996      -1.21174082E-35
  -15.6800003      -2.09423803E-35
  -15.6700001      -3.19424289E-35
  -15.6599998      -4.09336463E-35
  -15.6499996      -3.79502095E-35
  -15.6400003      -5.55586779E-36
  -15.6300001       7.93083309E-35
  -15.6199999       2.35926492E-34
  -15.6099997       4.59381447E-34
  -15.6000004       6.90073683E-34
  -15.5900002       7.84042518E-34
  -15.5799999       5.08763276E-34
  -15.5699997      -4.00239480E-34
  -15.5600004      -2.09233182E-33
  -15.5500002      -4.37154227E-33
  -15.5400000      -6.46303471E-33
  -15.5299997      -6.94276718E-33
  -15.5200005      -4.03969911E-33
  -15.5100002       3.56142903E-33
  -15.5000000       1.55483152E-32
  -15.4899998       2.89603164E-32
  -15.4799995       3.81420175E-32
  -15.4700003       3.63691634E-32
  -15.4600000       1.90119225E-32
  -15.4499998      -1.33147804E-32
  -15.4399996      -5.43356630E-32
  -15.4300003      -9.66461480E-32
  -15.4200001      -1.39962327E-31
  -15.4099998      -1.95925403E-31
  -15.3999996      -2.77418030E-31
  -15.3900003      -3.63110793E-31
  -15.3800001      -3.44756741E-31
  -15.3699999       4.79241406E-33
  -15.3599997       9.75171682E-31
  -15.3500004       2.70734405E-30
  -15.3400002       4.82878597E-30
  -15.3299999       6.08248248E-30
  -15.3199997       4.27806630E-30
  -15.3100004      -3.01289302E-30
  -15.3000002      -1.67608342E-29
  -15.2900000      -3.40754123E-29
  -15.2799997      -4.62581319E-29
  -15.2700005      -3.92700245E-29
  -15.2600002       1.38953353E-30
  -15.2500000       8.08395974E-29
  -15.2399998       1.82589907E-28
  -15.2299995       2.60458168E-28
  -15.2200003       2.43717792E-28
  -15.2100000       6.27800620E-29
  -15.1999998      -3.05514119E-28
  -15.1899996      -7.87695862E-28
  -15.1800003      -1.18711963E-27
  -15.1700001      -1.21418202E-27
  -15.1599998      -5.92341806E-28
  -15.1499996       7.76386850E-28
  -15.1400003       2.64919291E-27
  -15.1300001       4.37937249E-27
  -15.1199999       5.03872500E-27
  -15.1099997       3.74256914E-27
  -15.1000004       8.16015855E-29
  -15.0900002      -5.53529291E-27
  -15.0799999      -1.18311517E-26
  -15.0699997      -1.69716151E-26
  -15.0600004      -1.90570136E-26
  -15.0500002      -1.64127041E-26
  -15.0400000      -7.36046282E-27
  -15.0299997       1.03553109E-26
  -15.0200005       3.95120429E-26
  -15.0100002       8.11630328E-26
  -15.0000000       1.29103645E-25
  -14.9899998       1.62157089E-25
  -14.9799995       1.39158244E-25
  -14.9700003       5.13533196E-27
  -14.9600000      -2.82624013E-25
  -14.9499998      -7.06819223E-25
  -14.9399996      -1.13433731E-24
  -14.9300003      -1.28633158E-24
  -14.9200001      -7.82509293E-25
  -14.9099998       6.99420447E-25
  -14.8999996       3.15142398E-24
  -14.8900003       5.93218628E-24
  -14.8800001       7.60876301E-24
  -14.8699999       6.17237904E-24
  -14.8599997      -1.93905400E-25
  -14.8500004      -1.18265341E-23
  -14.8400002      -2.61567801E-23
  -14.8299999      -3.69224548E-23
  -14.8199997      -3.49922226E-23
  -14.8100004      -1.15385762E-23
  -14.8000002       3.65675494E-23
  -14.7900000       1.00677180E-22
  -14.7799997       1.56642886E-22
  -14.7700005       1.67285566E-22
  -14.7600002       9.39884097E-23
  -14.7500000      -8.28154950E-23
  -14.7399998      -3.39661342E-22
  -14.7299995      -5.93520012E-22
  -14.7200003      -7.06724556E-22
  -14.7100000      -5.24680753E-22
  -14.6999998       5.28720990E-23
  -14.6899996       9.83853084E-22
  -14.6800003       2.01523735E-21
  -14.6700001       2.68192089E-21
  -14.6599998       2.41477911E-21
  -14.6499996       7.67796224E-22
  -14.6400003      -2.28146329E-21
  -14.6300001      -6.06781408E-21
  -14.6199999      -9.16514503E-21
  -14.6099997      -9.64958206E-21
  -14.6000004      -5.75820821E-21
  -14.5900002       3.16068317E-21
  -14.5799999       1.57100791E-20
  -14.5699997       2.79810160E-20
  -14.5600004       3.40408636E-20
  -14.5500002       2.76435780E-20
  -14.5400000       4.98993918E-21
  -14.5299997      -3.22186558E-20
  -14.5200005      -7.47089690E-20
  -14.5100002      -1.06000391E-19
  -14.5000000      -1.06246232E-19
  -14.4899998      -5.95017898E-20
  -14.4799995       3.72160610E-20
  -14.4700003       1.66295150E-19
  -14.4600000       2.87396744E-19
  -14.4499998       3.44324916E-19
  -14.4399996       2.81999649E-19
  -14.4300003       7.06925030E-20
  -14.4200001      -2.69732431E-19
  -14.4099998      -6.55988088E-19
  -14.3999996      -9.48354404E-19
  -14.3900003      -9.84415653E-19
  -14.3800001      -6.36617948E-19
  -14.3699999       1.20493590E-19
  -14.3599997       1.15724667E-18
  -14.3500004       2.17754386E-18
  -14.3400002       2.77042867E-18
  -14.3299999       2.52815595E-18
  -14.3199997       1.20881631E-18
  -14.3100004      -1.10454513E-18
  -14.3000002      -3.91265818E-18
  -14.2900000      -6.33729909E-18
  -14.2799997      -7.31871291E-18
  -14.2700005      -5.95328339E-18
  -14.2600002      -1.89026735E-18
  -14.2500000       4.34369414E-18
  -14.2399998       1.12393422E-17
  -14.2299995       1.65303840E-17
  -14.2200003       1.77721492E-17
  -14.2100000       1.31704756E-17
  -14.1999998       2.43365780E-18
  -14.1899996      -1.26561620E-17
  -14.1800003      -2.82419247E-17
  -14.1700001      -3.91261790E-17
  -14.1599998      -4.01877462E-17
  -14.1499996      -2.81682229E-17
  -14.1400003      -3.30192489E-18
  -14.1300001       2.98178328E-17
  -14.1199999       6.26295102E-17
  -14.1099997       8.44286046E-17
  -14.1000004       8.53532535E-17
  -14.0900002       5.97977666E-17
  -14.0799999       9.21415013E-18
  -14.0699997      -5.67541787E-17
  -14.0600004      -1.21523936E-16
  -14.0500002      -1.65279302E-16
  -14.0400000      -1.70415167E-16
  -14.0299997      -1.27306961E-16
  -14.0200005      -3.86535478E-17
  -14.0100002       7.91801767E-17
  -14.0000000       1.98681200E-16
  -13.9899998       2.87336763E-16
  -13.9799995       3.16033842E-16
  -13.9700003       2.67492819E-16
  -13.9600000       1.42299312E-16
  -13.9499998      -3.93687580E-17
  -13.9399996      -2.41064915E-16
  -13.9300003      -4.17746459E-16
  -13.9200001      -5.25829583E-16
  -13.9099998      -5.33017240E-16
  -13.8999996      -4.25474655E-16
  -13.8900003      -2.10893562E-16
  -13.8800001       8.26671930E-17
  -13.8699999       4.11074671E-16
  -13.8599997       7.19905425E-16
  -13.8500004       9.50399237E-16
  -13.8400002       1.04529827E-15
  -13.8299999       9.55465976E-16
  -13.8199997       6.48752063E-16
  -13.8100004       1.21922650E-16
  -13.8000002      -5.85531483E-16
  -13.7900000      -1.37975621E-15
  -13.7799997      -2.10959569E-15
  -13.7700005      -2.57957531E-15
  -13.7600002      -2.58366140E-15
  -13.7500000      -1.95892272E-15
  -13.7399998      -6.50129657E-16
  -13.7299995       1.23185823E-15
  -13.7200003       3.38001404E-15
  -13.7100000       5.31034177E-15
  -13.6999998       6.44220225E-15
  -13.6899996       6.23526067E-15
  -13.6800003       4.35838897E-15
  -13.6700001       8.47755202E-16
  -13.6599998      -3.79812072E-15
  -13.6499996      -8.63351969E-15
  -13.6400003      -1.24165704E-14
  -13.6300001      -1.38863140E-14
  -13.6199999      -1.21145202E-14
  -13.6099997      -6.84560932E-15
  -13.6000004       1.27913166E-15
  -13.5900002       1.07055308E-14
  -13.5799999       1.92090776E-14
  -13.5699997       2.43798173E-14
  -13.5600004       2.42573753E-14
  -13.5500002       1.79607085E-14
  -13.5400000       6.12790941E-15
  -13.5299997      -8.99750160E-15
  -13.5200005      -2.39232530E-14
  -13.5100002      -3.46824586E-14
  -13.5000000      -3.78716020E-14
  -13.4899998      -3.16937130E-14
  -13.4799995      -1.67021345E-14
  -13.4700003       4.02166627E-15
  -13.4600000       2.53988132E-14
  -13.4499998       4.15468881E-14
  -13.4399996       4.73859945E-14
  -13.4300003       4.02423320E-14
  -13.4200001       2.09699574E-14
  -13.4099998      -5.82025349E-15
  -13.3999996      -3.26310702E-14
  -13.3900003      -5.09561299E-14
  -13.3800001      -5.37528125E-14
  -13.3699999      -3.78544005E-14
  -13.3599997      -5.58033818E-15
  -13.3500004       3.50725613E-14
  -13.3400002       7.19439631E-14
  -13.3299999       9.17486166E-14
  -13.3199997       8.39738164E-14
  -13.3100004       4.46093053E-14
  -13.3000002      -2.14246159E-14
  -13.2900000      -1.00076353E-13
  -13.2799997      -1.70599131E-13
  -13.2700005      -2.10327510E-13
  -13.2600002      -2.00777776E-13
  -13.2500000      -1.33532820E-13
  -13.2399998      -1.42278682E-14
  -13.2299995       1.36730728E-13
  -13.2200003       2.87330462E-13
  -13.2100000       4.00610128E-13
  -13.1999998       4.43403886E-13
  -13.1899996       3.95048306E-13
  -13.1800003       2.53732988E-13
  -13.1700001       3.86172858E-14
  -13.1599998      -2.13150935E-13
  -13.1499996      -4.54050290E-13
  -13.1400003      -6.36660050E-13
  -13.1300001      -7.24334655E-13
  -13.1199999      -6.99231688E-13
  -13.1099997      -5.65483153E-13
  -13.1000004      -3.46620193E-13
  -13.0900002      -7.80316160E-14
  -13.0799999       2.03225945E-13
  -13.0699997       4.68013486E-13
  -13.0600004       7.00864063E-13
  -13.0500002       8.99727124E-13
  -13.0400000       1.06938763E-12
  -13.0299997       1.21042824E-12
  -13.0200005       1.30747334E-12
  -13.0100002       1.32136619E-12
  -13.0000000       1.18953003E-12
  -12.9899998       8.36948891E-13
  -12.9799995       1.97315214E-13
  -12.9700003      -7.59359372E-13
  -12.9600000      -1.99914369E-12
  -12.9499998      -3.40454943E-12
  -12.9399996      -4.77036032E-12
  -12.9300003      -5.81999119E-12
  -12.9200001      -6.24334959E-12
  -12.9099998      -5.75221598E-12
  -12.8999996      -4.14449725E-12
  -12.8900003      -1.36540887E-12
  -12.8800001       2.44743960E-12
  -12.8699999       6.94637750E-12
  -12.8599997       1.15907128E-11
  -12.8500004       1.56997488E-11
  -12.8400002       1.85365421E-11
  -12.8299999       1.94111862E-11
  -12.8199997       1.77884842E-11
  -12.8100004       1.33834593E-11
  -12.8000002       6.23000002E-12
  -12.7900000      -3.28784634E-12
  -12.7799997      -1.44461778E-11
  -12.7700005      -2.62309480E-11
  -12.7600002      -3.74192621E-11
  -12.7500000      -4.66810098E-11
  -12.7399998      -5.26888012E-11
  -12.7299995      -5.42263595E-11
  -12.7200003      -5.02895503E-11
  -12.7100000      -4.01788117E-11
  -12.6999998      -2.35856543E-11
  -12.6899996      -6.76739806E-13
  -12.6800003       2.78225724E-11
  -12.6700001       6.05495099E-11
  -12.6599998       9.54416407E-11
  -12.6499996       1.29711172E-10
  -12.6400003       1.59881761E-10
  -12.6300001       1.81914706E-10
  -12.6199999       1.91446206E-10
  -12.6099997       1.84145185E-10
  -12.6000004       1.56183552E-10
  -12.5900002       1.04789816E-10
  -12.5799999       2.88376319E-11
  -12.5699997      -7.05945233E-11
  -12.5600004      -1.89763649E-10
  -12.5500002      -3.21971894E-10
  -12.5400000      -4.57504673E-10
  -12.5299997      -5.83839199E-10
  -12.5200005      -6.86144863E-10
  -12.5100002      -7.48077988E-10
  -12.5000000      -7.52854334E-10
  -12.4899998      -6.84567236E-10
  -12.4799995      -5.29710220E-10
  -12.4700003      -2.78847556E-10
  -12.4600000       7.16360235E-11
  -12.4499998       5.17788090E-10
  -12.4399996       1.04645292E-09
  -12.4300003       1.63385994E-09
  -12.4200001       2.24457186E-09
  -12.4099998       2.83092305E-09
  -12.3999996       3.33306449E-09
  -12.3900003       3.67970565E-09
  -12.3800001       3.78959841E-09
  -12.3699999       3.57375396E-09
  -12.3599997       2.93834224E-09
  -12.3500004       1.78817394E-09
  -12.3400002       3.06175849E-11
  -12.3299999      -2.42017895E-09
  -12.3199997      -5.63895819E-09
  -12.3100004      -9.68504033E-09
  -12.3000002      -1.45982275E-08
  -12.2900000      -2.03950741E-08
  -12.2799997      -2.70656830E-08
  -12.2700005      -3.45711904E-08
  -12.2600002      -4.28421814E-08
  -12.2500000      -5.17780450E-08
  -12.2399998      -6.12474196E-08
  -12.2299995      -7.10897368E-08
  -12.2200003      -8.11177969E-08
  -12.2100000      -9.11212723E-08
  -12.1999998      -1.00870814E-07
  -12.1899996      -1.10122691E-07
  -12.1800003      -1.18623554E-07
  -12.1700001      -1.26115268E-07
  -12.1599998      -1.32339764E-07
  -12.1499996      -1.37043699E-07
  -12.1400003      -1.39983058E-07
  -12.1300001      -1.40927895E-07
  -12.1199999      -1.39666952E-07
  -12.1099997      -1.36012176E-07
  -12.1000004      -1.29803311E-07
  -12.0900002      -1.20911750E-07
  -12.0799999      -1.09243850E-07
  -12.0699997      -9.47432781E-08
  -12.0600004      -7.73920803E-08
  -12.0500002      -5.72106309E-08
  -12.0400000      -3.42564483E-08
  -12.0299997      -8.62230376E-09
  -12.0200005       1.95662189E-08
  -12.0100002       5.01529165E-08
  -12.0000000       8.29530080E-08
  -11.9899998       1.17754226E-07
  -11.9799995       1.54317547E-07
  -11.9700003       1.92376987E-07
  -11.9600000       2.31639362E-07
  -11.9499998       2.71784018E-07
  -11.9399996       3.12462646E-07
  -11.9300003       3.53300095E-07
  -11.9200001       3.93895618E-07
  -11.9099998       4.33825136E-07
  -11.8999996       4.72644075E-07
  -11.8900003       5.09890697E-07
  -11.8800001       5.45089847E-07
  -11.8699999       5.77757078E-07
  -11.8599997       6.07403138E-07
  -11.8500004       6.33538662E-07
  -11.8400002       6.55679059E-07
  -11.8299999       6.73350314E-07
  -11.8199997       6.86094950E-07
  -11.8100004       6.93478398E-07
  -11.8000002       6.95095366E-07
  -11.7900000       6.90576996E-07
  -11.7799997       6.79596269E-07
  -11.7700005       6.61874424E-07
  -11.7600002       6.37185394E-07
  -11.7500000       6.05360015E-07
  -11.7399998       5.66288520E-07
  -11.7299995       5.19923049E-07
  -11.7200003       4.66277726E-07
  -11.7100000       4.05429631E-07
  -11.6999998       3.37517804E-07
  -11.6899996       2.62742390E-07
  -11.6800003       1.81363248E-07
  -11.6700001       9.36986453E-08
  -11.6599998       1.23533711E-10
  -11.6499996      -9.89321904E-08
  -11.6400003      -2.02985561E-07
  -11.6300001      -3.11503129E-07
  -11.6199999      -4.23903316E-07
  -11.6099997      -5.39559608E-07
  -11.6000004      -6.57804208E-07
  -11.5900002      -7.77931803E-07
  -11.5799999      -8.99203314E-07
  -11.5699997      -1.02084925E-06
  -11.5600004      -1.14207251E-06
  -11.5500002      -1.26204986E-06
  -11.5400000      -1.37993345E-06
  -11.5299997      -1.49484936E-06
  -11.5200005      -1.60589821E-06
  -11.5100002      -1.71215402E-06
  -11.5000000      -1.81266432E-06
  -11.4899998      -1.90645255E-06
  -11.4799995      -1.99252031E-06
  -11.4700003      -2.06985374E-06
  -11.4600000      -2.13743056E-06
  -11.4499998      -2.19422895E-06
  -11.4399996      -2.23923735E-06
  -11.4300003      -2.27146325E-06
  -11.4200001      -2.28994372E-06
  -11.4099998      -2.29375155E-06
  -11.3999996      -2.28200133E-06
  -11.3900003      -2.25385293E-06
  -11.3800001      -2.20851621E-06
  -11.3699999      -2.14524880E-06
  -11.3599997      -2.06335881E-06
  -11.3500004      -1.96220276E-06
  -11.3400002      -1.84118494E-06
  -11.3299999      -1.69975669E-06
  -11.3199997      -1.53741598E-06
  -11.3100004      -1.35370487E-06
  -11.3000002      -1.14821205E-06
  -11.2900000      -9.20569846E-07
  -11.2799997      -6.70455961E-07
  -11.2700005      -3.97592117E-07
  -11.2600002      -1.01744490E-07
  -11.2500000       2.17277247E-07
  -11.2399998       5.59621185E-07
  -11.2299995       9.25395568E-07
  -11.2200003       1.31467027E-06
  -11.2100000       1.72748105E-06
  -11.1999998       2.16382932E-06
  -11.1899996       2.62368803E-06
  -11.1800003       3.10700034E-06
  -11.1700001       3.61368143E-06
  -11.1599998       4.14361557E-06
  -11.1499996       4.69665656E-06
  -11.1400003       5.27262227E-06
  -11.1300001       5.87129580E-06
  -11.1199999       6.49241974E-06
  -11.1099997       7.13569807E-06
  -11.1000004       7.80079608E-06
  -11.0900002       8.48733998E-06
  -11.0799999       9.19492322E-06
  -11.0699997       9.92310834E-06
  -11.0600004       1.06714342E-05
  -11.0500002       1.14394170E-05
  -11.0400000       1.22265583E-05
  -11.0299997       1.30323406E-05
  -11.0200005       1.38562391E-05
  -11.0100002       1.46977172E-05
  -11.0000000       1.55562266E-05
  -10.9899998       1.64312132E-05
  -10.9799995       1.73221106E-05
  -10.9700003       1.82283475E-05
  -10.9600000       1.91493364E-05
  -10.9499998       2.00844752E-05
  -10.9399996       2.10331527E-05
  -10.9300003       2.19947306E-05
  -10.9200001       2.29685556E-05
  -10.9099998       2.39539477E-05
  -10.8999996       2.49502009E-05
  -10.8900003       2.59565877E-05
  -10.8800001       2.69723587E-05
  -10.8699999       2.79967498E-05
  -10.8599997       2.90289809E-05
  -10.8500004       3.00682586E-05
  -10.8400002       3.11137883E-05
  -10.8299999       3.21647676E-05
  -10.8199997       3.32204145E-05
  -10.8100004       3.42799103E-05
  -10.8000002       3.53424657E-05
  -10.7900000       3.64072876E-05
  -10.7799997       3.74735828E-05
  -10.7700005       3.85405474E-05
  -10.7600002       3.96074065E-05
  -10.7500000       4.06733670E-05
  -10.7399998       4.17376941E-05
  -10.7299995       4.27996420E-05
  -10.7200003       4.38585303E-05
  -10.7100000       4.49137005E-05
  -10.6999998       4.59645635E-05
  -10.6899996       4.70105915E-05
  -10.6800003       4.80513045E-05
  -10.6700001       4.90862840E-05
  -10.6599998       5.01151699E-05
  -10.6499996       5.11376638E-05
  -10.6400003       5.21535258E-05
  -10.6300001       5.31625701E-05
  -10.6199999       5.41646696E-05
  -10.6099997       5.51597514E-05
  -10.6000004       5.61478118E-05
  -10.5900002       5.71289274E-05
  -10.5799999       5.81032255E-05
  -10.5699997       5.90709278E-05
  -10.5600004       6.00323147E-05
  -10.5500002       6.09877316E-05
  -10.5400000       6.19375860E-05
  -10.5299997       6.28823109E-05
  -10.5200005       6.38224083E-05
  -10.5100002       6.47584093E-05
  -10.5000000       6.56908451E-05
  -10.4899998       6.66202686E-05
  -10.4799995       6.75472547E-05
  -10.4700003       6.84723636E-05
  -10.4600000       6.93961774E-05
  -10.4499998       7.03192272E-05
  -10.4399996       7.12421024E-05
  -10.4300003       7.21652978E-05
  -10.4200001       7.30893225E-05
  -10.4099998       7.40146352E-05
  -10.3999996       7.49416504E-05
  -10.3900003       7.58707538E-05
  -10.3800001       7.68022728E-05
  -10.3699999       7.77364694E-05
  -10.3599997       7.86735836E-05
  -10.3500004       7.96138193E-05
  -10.3400002       8.05573145E-05
  -10.3299999       8.15041712E-05
  -10.3199997       8.24544477E-05
  -10.3100004       8.34081729E-05
  -10.3000002       8.43653106E-05
  -10.2900000       8.53257443E-05
  -10.2799997       8.62893430E-05
  -10.2700005       8.72558667E-05
  -10.2600002       8.82250097E-05
  -10.2500000       8.91964373E-05
  -10.2399998       9.01696985E-05
  -10.2299995       9.11443567E-05
  -10.2200003       9.21199171E-05
  -10.2100000       9.30958558E-05
  -10.1999998       9.40716782E-05
  -10.1899996       9.50469112E-05
  -10.1800003       9.60210818E-05
  -10.1700001       9.69937319E-05
  -10.1599998       9.79645265E-05
  -10.1499996       9.89330292E-05
  -10.1400003       9.98990072E-05
  -10.1300001       1.00862140E-04
  -10.1199999       1.01822225E-04
  -10.1099997       1.02779100E-04
  -10.1000004       1.03732644E-04
  -10.0900002       1.04682847E-04
  -10.0799999       1.05629741E-04
  -10.0699997       1.06573425E-04
  -10.0600004       1.07514112E-04
  -10.0500002       1.08452099E-04
  -10.0400000       1.09387773E-04
  -10.0299997       1.10321584E-04
  -10.0200005       1.11254056E-04
  -10.0100002       1.12185837E-04
  -10.0000000       1.13117654E-04
  -9.98999977       1.14050235E-04
  -9.97999954       1.14984468E-04
  -9.97000027       1.15921219E-04
  -9.96000004       1.16861440E-04
  -9.94999981       1.17806121E-04
  -9.93999958       1.18756303E-04
  -9.93000031       1.19713033E-04
  -9.92000008       1.20677345E-04
  -9.90999985       1.21650410E-04
  -9.89999962       1.22633341E-04
  -9.89000034       1.23627280E-04
  -9.88000011       1.24633472E-04
  -9.86999989       1.25653081E-04
  -9.85999966       1.26687388E-04
  -9.85000038       1.27737687E-04
  -9.84000015       1.28805259E-04
  -9.82999992       1.29891516E-04
  -9.81999969       1.30997796E-04
  -9.81000042       1.32125497E-04
  -9.80000019       1.33276131E-04
  -9.78999996       1.34451169E-04
  -9.77999973       1.35652168E-04
  -9.77000046       1.36880713E-04
  -9.76000023       1.38138450E-04
  -9.75000000       1.39427051E-04
  -9.73999977       1.40748249E-04
  -9.72999954       1.42103789E-04
  -9.72000027       1.43495432E-04
  -9.71000004       1.44924998E-04
  -9.69999981       1.46394304E-04
  -9.68999958       1.47905230E-04
  -9.68000031       1.49459564E-04
  -9.67000008       1.51059212E-04
  -9.65999985       1.52705965E-04
  -9.64999962       1.54401641E-04
  -9.64000034       1.56147915E-04
  -9.63000011       1.57946488E-04
  -9.61999989       1.59798801E-04
  -9.60999966       1.61706223E-04
  -9.60000038       1.63669902E-04
  -9.59000015       1.65690828E-04
  -9.57999992       1.67769773E-04
  -9.56999969       1.69907260E-04
  -9.56000042       1.72103581E-04
  -9.55000019       1.74358807E-04
  -9.53999996       1.76672736E-04
  -9.52999973       1.79044815E-04
  -9.52000046       1.81474359E-04
  -9.51000023       1.83960336E-04
  -9.50000000       1.86501318E-04
  -9.48999977       1.89095692E-04
  -9.47999954       1.91741521E-04
  -9.47000027       1.94436565E-04
  -9.46000004       1.97178349E-04
  -9.44999981       1.99964197E-04
  -9.43999958       2.02791169E-04
  -9.43000031       2.05656310E-04
  -9.42000008       2.08556492E-04
  -9.40999985       2.11488514E-04
  -9.39999962       2.14449174E-04
  -9.39000034       2.17435489E-04
  -9.38000011       2.20444446E-04
  -9.36999989       2.23473224E-04
  -9.35999966       2.26519333E-04
  -9.35000038       2.29580473E-04
  -9.34000015       2.32654682E-04
  -9.32999992       2.35740445E-04
  -9.31999969       2.38836743E-04
  -9.31000042       2.41942893E-04
  -9.30000019       2.45058880E-04
  -9.28999996       2.48185068E-04
  -9.27999973       2.51322461E-04
  -9.27000046       2.54472747E-04
  -9.26000023       2.57638167E-04
  -9.25000000       2.60821369E-04
  -9.23999977       2.64025846E-04
  -9.22999954       2.67255557E-04
  -9.22000027       2.70515040E-04
  -9.21000004       2.73809215E-04
  -9.19999981       2.77143699E-04
  -9.18999958       2.80524429E-04
  -9.18000031       2.83957808E-04
  -9.17000008       2.87450443E-04
  -9.15999985       2.91009375E-04
  -9.14999962       2.94641854E-04
  -9.14000034       2.98355153E-04
  -9.13000011       3.02156695E-04
  -9.11999989       3.06053902E-04
  -9.10999966       3.10054020E-04
  -9.10000038       3.14164237E-04
  -9.09000015       3.18391423E-04
  -9.07999992       3.22742126E-04
  -9.06999969       3.27222631E-04
  -9.06000042       3.31838703E-04
  -9.05000019       3.36595665E-04
  -9.03999996       3.41498177E-04
  -9.02999973       3.46550427E-04
  -9.02000046       3.51755793E-04
  -9.01000023       3.57117096E-04
  -9.00000000       3.62636318E-04
  -8.98999977       3.68314562E-04
  -8.97999954       3.74152383E-04
  -8.97000027       3.80149315E-04
  -8.96000004       3.86304164E-04
  -8.94999981       3.92614835E-04
  -8.93999958       3.99078417E-04
  -8.93000031       4.05691011E-04
  -8.92000008       4.12448106E-04
  -8.90999985       4.19344142E-04
  -8.89999962       4.26372892E-04
  -8.89000034       4.33527253E-04
  -8.88000011       4.40799369E-04
  -8.86999989       4.48180741E-04
  -8.85999966       4.55662026E-04
  -8.85000038       4.63233475E-04
  -8.84000015       4.70884785E-04
  -8.82999992       4.78604867E-04
  -8.81999969       4.86382662E-04
  -8.81000042       4.94206441E-04
  -8.80000019       5.02064300E-04
  -8.78999996       5.09944279E-04
  -8.77999973       5.17834094E-04
  -8.77000046       5.25721523E-04
  -8.76000023       5.33594401E-04
  -8.75000000       5.41440619E-04
  -8.73999977       5.49248361E-04
  -8.72999954       5.57006162E-04
  -8.72000027       5.64702612E-04
  -8.71000004       5.72326826E-04
  -8.69999981       5.79868734E-04
  -8.68999958       5.87318384E-04
  -8.68000031       5.94666519E-04
  -8.67000008       6.01904525E-04
  -8.65999985       6.09024544E-04
  -8.64999962       6.16019242E-04
  -8.64000034       6.22882042E-04
  -8.63000011       6.29607122E-04
  -8.61999989       6.36189303E-04
  -8.60999966       6.42623811E-04
  -8.60000038       6.48907153E-04
  -8.59000015       6.55035838E-04
  -8.57999992       6.61007361E-04
  -8.56999969       6.66819804E-04
  -8.56000042       6.72471535E-04
  -8.55000019       6.77961856E-04
  -8.53999996       6.83290011E-04
  -8.52999973       6.88456115E-04
  -8.52000046       6.93460286E-04
  -8.51000023       6.98303338E-04
  -8.50000000       7.02985970E-04
  -8.48999977       7.07509520E-04
  -8.47999954       7.11875502E-04
  -8.47000027       7.16085604E-04
  -8.46000004       7.20141630E-04
  -8.44999981       7.24045676E-04
  -8.43999958       7.27799896E-04
  -8.43000031       7.31406733E-04
  -8.42000008       7.34868518E-04
  -8.40999985       7.38187809E-04
  -8.39999962       7.41367345E-04
  -8.39000034       7.44409568E-04
  -8.38000011       7.47317623E-04
  -8.36999989       7.50094594E-04
  -8.35999966       7.52743566E-04
  -8.35000038       7.55268324E-04
  -8.34000015       7.57672766E-04
  -8.32999992       7.59960734E-04
  -8.31999969       7.62136653E-04
  -8.31000042       7.64205353E-04
  -8.30000019       7.66172016E-04
  -8.28999996       7.68041995E-04
  -8.27999973       7.69821345E-04
  -8.27000046       7.71516119E-04
  -8.26000023       7.73133419E-04
  -8.25000000       7.74680055E-04
  -8.23999977       7.76163768E-04
  -8.22999954       7.77592417E-04
  -8.22000027       7.78974209E-04
  -8.21000004       7.80317874E-04
  -8.19999981       7.81632378E-04
  -8.18999958       7.82927091E-04
  -8.18000031       7.84211850E-04
  -8.17000008       7.85496668E-04
  -8.15999985       7.86791847E-04
  -8.14999962       7.88108155E-04
  -8.14000034       7.89456535E-04
  -8.13000011       7.90848164E-04
  -8.11999989       7.92294682E-04
  -8.10999966       7.93807791E-04
  -8.10000038       7.95399479E-04
  -8.09000015       7.97081564E-04
  -8.07999992       7.98866677E-04
  -8.06999969       8.00766982E-04
  -8.06000042       8.02795112E-04
  -8.05000019       8.04963580E-04
  -8.03999996       8.07284727E-04
  -8.02999973       8.09771183E-04
  -8.02000046       8.12435464E-04
  -8.01000023       8.15289561E-04
  -8.00000000       8.18345929E-04
  -7.98999977       8.21616617E-04
  -7.98000002       8.25112860E-04
  -7.96999979       8.28846241E-04
  -7.96000004       8.32827762E-04
  -7.94999981       8.37067957E-04
  -7.94000006       8.41576897E-04
  -7.92999983       8.46364477E-04
  -7.92000008       8.51439720E-04
  -7.90999985       8.56811123E-04
  -7.90000010       8.62486195E-04
  -7.88999987       8.68472503E-04
  -7.88000011       8.74776335E-04
  -7.86999989       8.81403685E-04
  -7.86000013       8.88359209E-04
  -7.84999990       8.95647681E-04
  -7.84000015       9.03272245E-04
  -7.82999992       9.11235809E-04
  -7.82000017       9.19540005E-04
  -7.80999994       9.28186579E-04
  -7.80000019       9.37175762E-04
  -7.78999996       9.46507265E-04
  -7.78000021       9.56180040E-04
  -7.76999998       9.66192340E-04
  -7.76000023       9.76542127E-04
  -7.75000000       9.87226493E-04
  -7.73999977       9.98241827E-04
  -7.73000002       1.00958429E-03
  -7.71999979       1.02124934E-03
  -7.71000004       1.03323220E-03
  -7.69999981       1.04552752E-03
  -7.69000006       1.05812983E-03
  -7.67999983       1.07103307E-03
  -7.67000008       1.08423154E-03
  -7.65999985       1.09771837E-03
  -7.65000010       1.11148739E-03
  -7.63999987       1.12553209E-03
  -7.63000011       1.13984570E-03
  -7.61999989       1.15442183E-03
  -7.61000013       1.16925361E-03
  -7.59999990       1.18433475E-03
  -7.59000015       1.19965908E-03
  -7.57999992       1.21522020E-03
  -7.57000017       1.23101287E-03
  -7.55999994       1.24703103E-03
  -7.55000019       1.26327027E-03
  -7.53999996       1.27972534E-03
  -7.53000021       1.29639241E-03
  -7.51999998       1.31326728E-03
  -7.51000023       1.33034703E-03
  -7.50000000       1.34762854E-03
  -7.48999977       1.36510958E-03
  -7.48000002       1.38278841E-03
  -7.46999979       1.40066375E-03
  -7.46000004       1.41873502E-03
  -7.44999981       1.43700186E-03
  -7.44000006       1.45546522E-03