  -16.0000000       0.00000000    
  -15.9899998       0.00000000    
  -15.9799995       0.00000000    
  -15.9700003       0.00000000    
  -15.9600000       0.00000000    
  -15.9499998       0.00000000    
  -15.9399996       0.00000000    
  -15.9300003       0.00000000    
  -15.9200001       0.00000000    
  -15.9099998       0.00000000    
  -15.8999996       0.00000000    
  -15.8900003       0.00000000    
  -15.8800001       0.00000000    
  -15.8699999       0.00000000    
  -15.8599997      -0.00000000    
  -15.8500004       0.00000000    
  -15.8400002       1.68155816E-44
  -15.8299999       2.43825933E-43
  -15.8199997       2.22526196E-42
  -15.8100004       1.50653598E-41
  -15.8000002       8.25729133E-41
  -15.7900000       3.83585836E-40
  -15.7799997       1.55239908E-39
  -15.7700005       5.56213896E-39
  -15.7600002       1.77937916E-38
  -15.7500000       5.09821416E-38
  -15.7399998       1.30638572E-37
  -15.7299995       2.97467414E-37
  -15.7200003       5.93352324E-37
  -15.7100000       1.00503287E-36
  -15.6999998       1.33390161E-36
  -15.6899996       9.84966458E-37
  -15.6800003      -1.24657153E-36
  -15.6700001      -7.15559371E-36
  -15.6599998      -1.84603166E-35
  -15.6499996      -3.50130951E-35
  -15.6400003      -5.16616049E-35
  -15.6300001      -5.42494948E-35
  -15.6199999      -1.65155737E-35
  -15.6099997       9.83683290E-35
  -15.6000004       3.24810854E-34
  -15.5900002       6.59537141E-34
  -15.5799999       9.91948622E-34
  -15.5699997       1.00188587E-33
  -15.5600004       7.83677059E-35
  -15.5500002      -2.57937348E-33
  -15.5400000      -7.38679695E-33
  -15.5299997      -1.30349893E-32
  -15.5200005      -1.45391063E-32
  -15.5100002      -2.02318337E-33
  -15.5000000       3.65847637E-32
  -15.4899998       1.04601294E-31
  -15.4799995       1.75392961E-31
  -15.4700003       1.68409725E-31
  -15.4600000      -5.26965771E-32
  -15.4499998      -6.17459911E-31
  -15.4399996      -1.48266833E-30
  -15.4300003      -2.18039983E-30
  -15.4200001      -1.62649260E-30
  -15.4099998       1.69305906E-30
  -15.3999996       8.75444622E-30
  -15.3900003       1.80690281E-29
  -15.3800001       2.33787523E-29
  -15.3699999       1.28300051E-29
  -15.3599997      -2.73171345E-29
  -15.3500004      -1.01593274E-28
  -15.3400002      -1.87345919E-28
  -15.3299999      -2.17876940E-28
  -15.3199997      -8.45225171E-29
  -15.3100004       3.18608781E-28
  -15.3000002       9.92230730E-28
  -15.2900000       1.69054182E-27
  -15.2799997       1.81890621E-27
  -15.2700005       5.11281437E-28
  -15.2600002      -2.95676623E-27
  -15.2500000      -8.36584217E-27
  -15.2399998      -1.35765103E-26
  -15.2299995      -1.39937192E-26
  -15.2200003      -3.43115860E-27
  -15.2100000       2.27199290E-26
  -15.1999998       6.19610367E-26
  -15.1899996       9.85593755E-26
  -15.1800003       1.00977586E-25
  -15.1700001       2.87084017E-26
  -15.1599998      -1.46661728E-25
  -15.1499996      -4.07077471E-25
  -15.1400003      -6.52134695E-25
  -15.1300001      -6.86578581E-25
  -15.1199999      -2.63880481E-25
  -15.1099997       7.89573148E-25
  -15.1000004       2.37867438E-24
  -15.0900002       3.94016813E-24
  -15.0799999       4.37444592E-24
  -15.0699997       2.27909212E-24
  -15.0600004      -3.39327138E-24
  -15.0500002      -1.23040331E-23
  -15.0400000      -2.16695862E-23
  -15.0299997      -2.58433199E-23
  -15.0200005      -1.73757595E-23
  -15.0100002       9.83861089E-24
  -15.0000000       5.55292507E-23
  -14.9899998       1.07690734E-22
  -14.9799995       1.39953896E-22
  -14.9700003       1.15566217E-22
  -14.9600000       9.63857667E-25
  -14.9499998      -2.11497143E-22
  -14.9399996      -4.77912889E-22
  -14.9300003      -6.87172569E-22
  -14.9200001      -6.72195067E-22
  -14.9099998      -2.62227159E-22
  -14.8999996       6.22641627E-22
  -14.8900003       1.85684155E-21
  -14.8800001       3.02425350E-21
  -14.8699999       3.43186291E-21
  -14.8599997       2.28601520E-21
  -14.8500004      -9.49135025E-22
  -14.8400002      -6.07706534E-21
  -14.8299999      -1.17527599E-20
  -14.8199997      -1.53874432E-20
  -14.8100004      -1.36431939E-20
  -14.8000002      -3.65517703E-21
  -14.7900000       1.51700158E-20
  -14.7799997       3.93283636E-20
  -14.7700005       6.02802766E-20
  -14.7600002       6.54459808E-20
  -14.7500000       4.18605961E-20
  -14.7399998      -1.76656682E-20
  -14.7299995      -1.07376070E-19
  -14.7200003      -2.03282324E-19
  -14.7100000      -2.63478041E-19
  -14.6999998      -2.37246386E-19
  -14.6899996      -8.37976677E-20
  -14.6800003       2.02637110E-19
  -14.6700001       5.69511112E-19
  -14.6599998       8.96376339E-19
  -14.6499996       1.01117298E-18
  -14.6400003       7.39297222E-19
  -14.6300001      -1.89278699E-20
  -14.6199999      -1.20204336E-18
  -14.6099997      -2.52656176E-18
  -14.6000004      -3.49197811E-18
  -14.5900002      -3.48397597E-18
  -14.5799999      -1.98128947E-18
  -14.5699997       1.17098769E-18
  -14.5600004       5.50637094E-18
  -14.5500002       9.81886217E-18
  -14.5400000       1.22994974E-17
  -14.5299997       1.09935645E-17
  -14.5200005       4.54047214E-18
  -14.5100002      -6.97822221E-18
  -14.5000000      -2.13828405E-17
  -14.4899998      -3.42898922E-17
  -14.4799995      -3.98506535E-17
  -14.4700003      -3.24151039E-17
  -14.4600000      -8.86367453E-18
  -14.4499998       2.90305951E-17
  -14.4399996       7.31318519E-17
  -14.4300003       1.09321897E-16
  -14.4200001       1.20362005E-16
  -14.4099998       9.11572490E-17
  -14.3999996       1.53822474E-17
  -14.3900003      -9.85136111E-17
  -14.3800001      -2.24446155E-16
  -14.3699999      -3.21293414E-16
  -14.3599997      -3.42090614E-16
  -14.3500004      -2.48925063E-16
  -14.3400002      -3.01820041E-17
  -14.3299999       2.85302031E-16
  -14.3199997       6.23450130E-16
  -14.3100004       8.74613081E-16
  -14.3000002       9.19340868E-16
  -14.2900000       6.66691162E-16
  -14.2799997       9.58321297E-17
  -14.2700005      -7.12551485E-16
  -14.2600002      -1.56937862E-15
  -14.2500000      -2.20519755E-15
  -14.2399998      -2.33467585E-15
  -14.2299995      -1.74704452E-15
  -14.2200003      -3.99866652E-16
  -14.2100000       1.51441698E-15
  -14.1999998       3.55956025E-15
  -14.1899996       5.12406695E-15
  -14.1800003       5.56692499E-15
  -14.1700001       4.41458453E-15
  -14.1599998       1.55928389E-15
  -14.1499996      -2.60503035E-15
  -14.1400003      -7.16939529E-15
  -14.1300001      -1.08553439E-14
  -14.1199999      -1.23136322E-14
  -14.1099997      -1.05203796E-14
  -14.1000004      -5.17050468E-15
  -14.0900002       3.05439488E-15
  -14.0799999       1.24556762E-14
  -14.0699997       2.05880574E-14
  -14.0600004       2.48149550E-14
  -14.0500002       2.30420761E-14
  -14.0400000       1.44456794E-14
  -14.0299997      -2.35496831E-17
  -14.0200005      -1.75556659E-14
  -14.0100002      -3.39216604E-14
  -14.0000000      -4.44072710E-14
  -13.9899998      -4.50564472E-14
  -13.9799995      -3.39163139E-14
  -13.9700003      -1.19227790E-14
  -13.9600000       1.68877634E-14
  -13.9499998       4.60077058E-14
  -13.9399996       6.78756639E-14
  -13.9300003       7.57919389E-14
  -13.9200001       6.58558630E-14
  -13.9099998       3.83777144E-14
  -13.8999996      -1.70255422E-15
  -13.8900003      -4.56289059E-14
  -13.8800001      -8.27868725E-14
  -13.8699999      -1.03375824E-13
  -13.8599997      -1.01110790E-13
  -13.8500004      -7.51871574E-14
  -13.8400002      -3.08768548E-14
  -13.8299999       2.15366767E-14
  -13.8199997       6.93172191E-14
  -13.8100004       1.00701565E-13
  -13.8000002       1.08249218E-13
  -13.7900000       9.11096692E-14
  -13.7799997       5.54373543E-14
  -13.7700005       1.26816045E-14
  -13.7600002      -2.38884924E-14
  -13.7500000      -4.34768832E-14
  -13.7399998      -4.15675896E-14
  -13.7299995      -2.19558800E-14
  -13.7200003       3.86596764E-15
  -13.7100000       2.00919180E-14
  -13.6999998       1.20010110E-14
  -13.6899996      -2.81341587E-14
  -13.6800003      -9.65122351E-14
  -13.6700001      -1.76362397E-13
  -13.6599998      -2.40598746E-13
  -13.6499996      -2.58439212E-13
  -13.6400003      -2.04610146E-13
  -13.6300001      -6.87534001E-14
  -13.6199999       1.37773663E-13
  -13.6099997       3.80163484E-13
  -13.6000004       6.04826736E-13
  -13.5900002       7.50146961E-13
  -13.5799999       7.61241927E-13
  -13.5699997       6.05267138E-13
  -13.5600004       2.83238222E-13
  -13.5500002      -1.65146393E-13
  -13.5400000      -6.65680835E-13
  -13.5299997      -1.12261654E-12
  -13.5200005      -1.43789071E-12
  -13.5100002      -1.53229957E-12
  -13.5000000      -1.36356508E-12
  -13.4899998      -9.36853459E-13
  -13.4799995      -3.05121867E-13
  -13.4700003       4.40730867E-13
  -13.4600000       1.18930343E-12
  -13.4499998       1.82919825E-12
  -13.4399996       2.26746226E-12
  -13.4300003       2.44174819E-12
  -13.4200001       2.32415996E-12
  -13.4099998       1.91754555E-12
  -13.3999996       1.24748053E-12
  -13.3900003       3.54527172E-13
  -13.3800001      -7.09041333E-13
  -13.3699999      -1.87596011E-12
  -13.3599997      -3.05529907E-12
  -13.3500004      -4.12291121E-12
  -13.3400002      -4.91772421E-12
  -13.3299999      -5.25066622E-12
  -13.3199997      -4.93045231E-12
  -13.3100004      -3.80561251E-12
  -13.3000002      -1.81616712E-12
  -13.2900000       9.57034040E-13
  -13.2799997       4.26032907E-12
  -13.2700005       7.66677520E-12
  -13.2600002       1.06162718E-11
  -13.2500000       1.24966018E-11
  -13.2399998       1.27551789E-11
  -13.2299995       1.10215908E-11
  -13.2200003       7.21494782E-12
  -13.2100000       1.60948479E-12
  -13.1999998      -5.16200234E-12
  -13.1899996      -1.21756138E-11
  -13.1800003      -1.83483454E-11
  -13.1700001      -2.26133626E-11
  -13.1599998      -2.41063246E-11
  -13.1499996      -2.23261201E-11
  -13.1400003      -1.72376679E-11
  -13.1300001      -9.29573085E-12
  -13.1199999       6.14561950E-13
  -13.1099997       1.13073301E-11
  -13.1000004       2.14684295E-11
  -13.0900002       2.98363487E-11
  -13.0799999       3.53583100E-11
  -13.0699997       3.72981888E-11
  -13.0600004       3.52870302E-11
  -13.0500002       2.93229087E-11
  -13.0400000       1.97382510E-11
  -13.0299997       7.15737409E-12
  -13.0200005      -7.53737003E-12
  -13.0100002      -2.32240147E-11
  -13.0000000      -3.85522517E-11
  -12.9899998      -5.19691894E-11
  -12.9799995      -6.17876722E-11
  -12.9700003      -6.63209765E-11
  -12.9600000      -6.40926201E-11
  -12.9499998      -5.41064346E-11
  -12.9399996      -3.61359623E-11
  -12.9300003      -1.09717756E-11
  -12.9200001       1.94432456E-11
  -12.9099998       5.20525116E-11
  -12.8999996       8.29334310E-11
  -12.8900003       1.07749892E-10
  -12.8800001       1.22359692E-10
  -12.8699999       1.23486443E-10
  -12.8599997       1.09339870E-10
  -12.8500004       8.00653085E-11
  -12.8400002       3.79251804E-11
  -12.8299999      -1.28411587E-11
  -12.8199997      -6.64760538E-11
  -12.8100004      -1.16419388E-10
  -12.8000002      -1.56173185E-10
  -12.7900000      -1.80181634E-10
  -12.7799997      -1.84592799E-10
  -12.7700005      -1.67794181E-10
  -12.7600002      -1.30656805E-10
  -12.7500000      -7.64732444E-11
  -12.7399998      -1.06197568E-11
  -12.7299995       5.99948771E-11
  -12.7200003       1.27619026E-10
  -12.7100000       1.84414040E-10
  -12.6999998       2.23219651E-10
  -12.6899996       2.38288084E-10
  -12.6800003       2.25954894E-10
  -12.6700001       1.85211152E-10
  -12.6599998       1.18128243E-10
  -12.6499996       3.00642566E-11
  -12.6400003      -7.04310638E-11
  -12.6300001      -1.72094256E-10
  -12.6199999      -2.61860644E-10
  -12.6099997      -3.26204841E-10
  -12.6000004      -3.52824214E-10
  -12.5900002      -3.32490924E-10
  -12.5799999      -2.60826638E-10
  -12.5699997      -1.39709092E-10
  -12.5600004       2.19692164E-11
  -12.5500002       2.08410914E-10
  -12.5400000       3.97996941E-10
  -12.5299997       5.65308189E-10
  -12.5200005       6.83899437E-10
  -12.5100002       7.29514948E-10
  -12.5000000       6.83358814E-10
  -12.4899998       5.35016920E-10
  -12.4799995       2.84679169E-10
  -12.4700003      -5.55929261E-11
  -12.4600000      -4.61669925E-10
  -12.4499998      -8.98223551E-10
  -12.4399996      -1.32054112E-09
  -12.4300003      -1.67710013E-09
  -12.4200001      -1.91268734E-09
  -12.4099998      -1.97186267E-09
  -12.3999996      -1.80259074E-09
  -12.3900003      -1.35989286E-09
  -12.3800001      -6.09375050E-10
  -12.3699999       4.69514427E-10
  -12.3599997       1.88070981E-09
  -12.3500004       3.60946673E-09
  -12.3400002       5.62126257E-09
  -12.3299999       7.86191645E-09
  -12.3199997       1.02590993E-08
  -12.3100004       1.27252511E-08
  -12.3000002       1.51618060E-08
  -12.2900000       1.74643819E-08
  -12.2799997       1.95284908E-08
  -12.2700005       2.12552056E-08
  -12.2600002       2.25561703E-08
  -12.2500000       2.33575363E-08
  -12.2399998       2.36024249E-08
  -12.2299995       2.32518467E-08
  -12.2200003       2.22841905E-08
  -12.2100000       2.06935518E-08
  -12.1999998       1.84873947E-08
  -12.1899996       1.56839377E-08
  -12.1800003       1.23097079E-08
  -12.1700001       8.39750669E-09
  -12.1599998       3.98496569E-09
  -12.1499996      -8.86323070E-10
  -12.1400003      -6.17123375E-09
  -12.1300001      -1.18212560E-08
  -12.1199999      -1.77844548E-08
  -12.1099997      -2.40053168E-08
  -12.1000004      -3.04245980E-08
  -12.0900002      -3.69790101E-08
  -12.0799999      -4.36007035E-08
  -12.0699997      -5.02166309E-08
  -12.0600004      -5.67476732E-08
  -12.0500002      -6.31078620E-08
  -12.0400000      -6.92037574E-08
  -12.0299997      -7.49343272E-08
  -12.0200005      -8.01915903E-08
  -12.0100002      -8.48622150E-08
  -12.0000000      -8.88298999E-08
  -11.9899998      -9.19786416E-08
  -11.9799995      -9.41966078E-08
  -11.9700003      -9.53799955E-08
  -11.9600000      -9.54368105E-08
  -11.9499998      -9.42899874E-08
  -11.9399996      -9.18798193E-08
  -11.9300003      -8.81655922E-08
  -11.9200001      -8.31262454E-08
  -11.9099998      -7.67605144E-08
  -11.8999996      -6.90867807E-08
  -11.8900003      -6.01424830E-08
  -11.8800001      -4.99835799E-08
  -11.8699999      -3.86836767E-08
  -11.8599997      -2.63329873E-08
  -11.8500004      -1.30369751E-08
  -11.8400002       1.08559106E-09
  -11.8299999       1.59052060E-08
  -11.8199997       3.12845252E-08
  -11.8100004       4.70818016E-08
  -11.8000002       6.31542960E-08
  -11.7900000       7.93613424E-08
  -11.7799997       9.55668824E-08
  -11.7700005       1.11641292E-07
  -11.7600002       1.27462044E-07
  -11.7500000       1.42913763E-07
  -11.7399998       1.57887470E-07
  -11.7299995       1.72279357E-07
  -11.7200003       1.85989322E-07
  -11.7100000       1.98919651E-07
  -11.6999998       2.10973624E-07
  -11.6899996       2.22054368E-07
  -11.6800003       2.32063783E-07
  -11.6700001       2.40901500E-07
  -11.6599998       2.48463692E-07
  -11.6499996       2.54642458E-07
  -11.6400003       2.59324878E-07
  -11.6300001       2.62392660E-07
  -11.6199999       2.63723052E-07
  -11.6099997       2.63189975E-07
  -11.6000004       2.60667207E-07
  -11.5900002       2.56031967E-07
  -11.5799999       2.49170085E-07
  -11.5699997       2.39981290E-07
  -11.5600004       2.28384735E-07
  -11.5500002       2.14324302E-07
  -11.5400000       1.97772835E-07
  -11.5299997       1.78735121E-07
  -11.5200005       1.57249175E-07
  -11.5100002       1.33386379E-07
  -11.5000000       1.07250592E-07
  -11.4899998       7.89757948E-08
  -11.4799995       4.87231517E-08
  -11.4700003       1.66775589E-08
  -11.4600000      -1.69565570E-08
  -11.4499998      -5.19592547E-08
  -11.4399996      -8.81005775E-08
  -11.4300003      -1.25145476E-07
  -11.4200001      -1.62860630E-07
  -11.4099998      -2.01020342E-07
  -11.3999996      -2.39413907E-07
  -11.3900003      -2.77851598E-07
  -11.3800001      -3.16170372E-07
  -11.3699999      -3.54238523E-07
  -11.3599997      -3.91957997E-07
  -11.3500004      -4.29265839E-07
  -11.3400002      -4.66132406E-07
  -11.3299999      -5.02559658E-07
  -11.3199997      -5.38575193E-07
  -11.3100004      -5.74228409E-07
  -11.3000002      -6.09582969E-07
  -11.2900000      -6.44710440E-07
  -11.2799997      -6.79682842E-07
  -11.2700005      -7.14566227E-07
  -11.2600002      -7.49413346E-07
  -11.2500000      -7.84257793E-07
  -11.2399998      -8.19108209E-07
  -11.2299995      -8.53944925E-07
  -11.2200003      -8.88717238E-07
  -11.2100000      -9.23343919E-07
  -11.1999998      -9.57714064E-07
  -11.1899996      -9.91693582E-07
  -11.1800003      -1.02513036E-06
  -11.1700001      -1.05786489E-06
  -11.1599998      -1.08973870E-06
  -11.1499996      -1.12060536E-06
  -11.1400003      -1.15034118E-06
  -11.1300001      -1.17885349E-06
  -11.1199999      -1.20608740E-06
  -11.1099997      -1.23203120E-06
  -11.1000004      -1.25672113E-06
  -11.0900002      -1.28023817E-06
  -11.0799999      -1.30270894E-06
  -11.0699997      -1.32430011E-06
  -11.0600004      -1.34521338E-06
  -11.0500002      -1.36567735E-06
  -11.0400000      -1.38593737E-06
  -11.0299997      -1.40624581E-06
  -11.0200005      -1.42684974E-06
  -11.0100002      -1.44798094E-06
  -11.0000000      -1.46984314E-06
  -10.9899998      -1.49259949E-06
  -10.9799995      -1.51636516E-06
  -10.9700003      -1.54119925E-06
  -10.9600000      -1.56710064E-06
  -10.9499998      -1.59400599E-06
  -10.9399996      -1.62179049E-06
  -10.9300003      -1.65027222E-06
  -10.9200001      -1.67922201E-06
  -10.9099998      -1.70837131E-06
  -10.8999996      -1.73742023E-06
  -10.8900003      -1.76604988E-06
  -10.8800001      -1.79393464E-06
  -10.8699999      -1.82075087E-06
  -10.8599997      -1.84618295E-06
  -10.8500004      -1.86993771E-06
  -10.8400002      -1.89174091E-06
  -10.8299999      -1.91134814E-06
  -10.8199997      -1.92854463E-06
  -10.8100004      -1.94315044E-06
  -10.8000002      -1.95501434E-06
  -10.7900000      -1.96402243E-06
  -10.7799997      -1.97009172E-06
  -10.7700005      -1.97316899E-06
  -10.7600002      -1.97322947E-06
  -10.7500000      -1.97027362E-06
  -10.7399998      -1.96431961E-06
  -10.7299995      -1.95539860E-06
  -10.7200003      -1.94354925E-06
  -10.7100000      -1.92880839E-06
  -10.6999998      -1.91120193E-06
  -10.6899996      -1.89074763E-06
  -10.6800003      -1.86743830E-06
  -10.6700001      -1.84124895E-06
  -10.6599998      -1.81212886E-06
  -10.6499996      -1.78000414E-06
  -10.6400003      -1.74478419E-06
  -10.6300001      -1.70636110E-06
  -10.6199999      -1.66461541E-06
  -10.6099997      -1.61942262E-06
  -10.6000004      -1.57065949E-06
  -10.5900002      -1.51820552E-06
  -10.5799999      -1.46195043E-06
  -10.5699997      -1.40179964E-06
  -10.5600004      -1.33767901E-06
  -10.5500002      -1.26953512E-06
  -10.5400000      -1.19734364E-06
  -10.5299997      -1.12111206E-06
  -10.5200005      -1.04087826E-06
  -10.5100002      -9.56718509E-07
  -10.5000000      -8.68746156E-07
  -10.4899998      -7.77111268E-07
  -10.4799995      -6.81999495E-07
  -10.4700003      -5.83632755E-07
  -10.4600000      -4.82269400E-07
  -10.4499998      -3.78196773E-07
  -10.4399996      -2.71732574E-07
  -10.4300003      -1.63221031E-07
  -10.4200001      -5.30282449E-08
  -10.4099998       5.84578501E-08
  -10.3999996       1.70833601E-07
  -10.3900003       2.83685040E-07
  -10.3800001       3.96589826E-07
  -10.3699999       5.09125755E-07
  -10.3599997       6.20876790E-07
  -10.3500004       7.31440252E-07
  -10.3400002       8.40435177E-07
  -10.3299999       9.47510955E-07
  -10.3199997       1.05235392E-06
  -10.3100004       1.15469538E-06
  -10.3000002       1.25431745E-06
  -10.2900000       1.35105699E-06
  -10.2799997       1.44480771E-06
  -10.2700005       1.53552298E-06
  -10.2600002       1.62321544E-06
  -10.2500000       1.70795386E-06
  -10.2399998       1.78986238E-06
  -10.2299995       1.86911745E-06
  -10.2200003       1.94594418E-06
  -10.2100000       2.02061051E-06
  -10.1999998       2.09342033E-06
  -10.1899996       2.16471062E-06
  -10.1800003       2.23483994E-06
  -10.1700001       2.30417868E-06
  -10.1599998       2.37310110E-06
  -10.1499996       2.44197372E-06
  -10.1400003       2.51114398E-06
  -10.1300001       2.58092791E-06
  -10.1199999       2.65160543E-06
  -10.1099997       2.72340685E-06
  -10.1000004       2.79651113E-06
  -10.0900002       2.87103830E-06
  -10.0799999       2.94704978E-06
  -10.0699997       3.02455055E-06
  -10.0600004       3.10348855E-06
  -10.0500002       3.18376055E-06
  -10.0400000       3.26521968E-06
  -10.0299997       3.34767515E-06
  -10.0200005       3.43090460E-06
  -10.0100002       3.51465610E-06
  -10.0000000       3.59865680E-06
  -9.98999977       3.68261635E-06
  -9.97999954       3.76624189E-06
  -9.97000027       3.84923487E-06
  -9.96000004       3.93130904E-06
  -9.94999981       4.01219631E-06
  -9.93999958       4.09165796E-06
  -9.93000031       4.16949797E-06
  -9.92000008       4.24557402E-06
  -9.90999985       4.31981016E-06
  -9.89999962       4.39219548E-06
  -9.89000034       4.46279955E-06
  -9.88000011       4.53177518E-06
  -9.86999989       4.59934654E-06
  -9.85999966       4.66581560E-06
  -9.85000038       4.73155114E-06
  -9.84000015       4.79697655E-06
  -9.82999992       4.86256022E-06
  -9.81999969       4.92879917E-06
  -9.81000042       4.99621046E-06
  -9.80000019       5.06531524E-06
  -9.78999996       5.13663144E-06
  -9.77999973       5.21066386E-06
  -9.77000046       5.28788451E-06
  -9.76000023       5.36873722E-06
  -9.75000000       5.45361627E-06
  -9.73999977       5.54286817E-06
  -9.72999954       5.63677077E-06
  -9.72000027       5.73553825E-06
  -9.71000004       5.83929932E-06
  -9.69999981       5.94809171E-06
  -9.68999958       6.06186632E-06
  -9.68000031       6.18046533E-06
  -9.67000008       6.30364411E-06
  -9.65999985       6.43105113E-06
  -9.64999962       6.56224483E-06
  -9.64000034       6.69668634E-06
  -9.63000011       6.83375629E-06
  -9.61999989       6.97276164E-06
  -9.60999966       7.11293478E-06
  -9.60000038       7.25344717E-06
  -9.59000015       7.39342067E-06
  -9.57999992       7.53194945E-06
  -9.56999969       7.66808989E-06
  -9.56000042       7.80089249E-06
  -9.55000019       7.92941591E-06
  -9.53999996       8.05273430E-06
  -9.52999973       8.16994816E-06
  -9.52000046       8.28021075E-06
  -9.51000023       8.38272354E-06
  -9.50000000       8.47675619E-06
  -9.48999977       8.56165843E-06
  -9.47999954       8.63687455E-06
  -9.47000027       8.70193708E-06
  -9.46000004       8.75650130E-06
  -9.44999981       8.80034077E-06
  -9.43999958       8.83336907E-06
  -9.43000031       8.85564441E-06
  -9.42000008       8.86738781E-06
  -9.40999985       8.86898761E-06
  -9.39999962       8.86101316E-06
  -9.39000034       8.84421752E-06
  -9.38000011       8.81954657E-06
  -9.36999989       8.78813353E-06
  -9.35999966       8.75128899E-06
  -9.35000038       8.71052816E-06
  -9.34000015       8.66750634E-06
  -9.32999992       8.62405523E-06
  -9.31999969       8.58213843E-06
  -9.31000042       8.54383597E-06
  -9.30000019       8.51132336E-06
  -9.28999996       8.48685522E-06
  -9.27999973       8.47273895E-06
  -9.27000046       8.47129468E-06
  -9.26000023       8.48483887E-06
  -9.25000000       8.51566347E-06
  -9.23999977       8.56597308E-06
  -9.22999954       8.63789046E-06
  -9.22000027       8.73338831E-06
  -9.21000004       8.85428744E-06
  -9.19999981       9.00222585E-06
  -9.18999958       9.17861416E-06
  -9.18000031       9.38464109E-06
  -9.17000008       9.62124795E-06
  -9.15999985       9.88910142E-06
  -9.14999962       1.01885762E-05
  -9.14000034       1.05197732E-05
  -9.13000011       1.08824779E-05
  -9.11999989       1.12761591E-05
  -9.10999966       1.16999800E-05
  -9.10000038       1.21527819E-05
  -9.09000015       1.26330824E-05
  -9.07999992       1.31391089E-05
  -9.06999969       1.36687968E-05
  -9.06000042       1.42197878E-05
  -9.05000019       1.47894716E-05
  -9.03999996       1.53750007E-05
  -9.02999973       1.59732954E-05
  -9.02000046       1.65810907E-05
  -9.01000023       1.71949869E-05
  -9.00000000       1.78114315E-05
  -8.98999977       1.84267956E-05
  -8.97999954       1.90373939E-05
  -8.97000027       1.96395104E-05
  -8.96000004       2.02294577E-05
  -8.94999981       2.08035854E-05
  -8.93999958       2.13583244E-05
  -8.93000031       2.18901951E-05
  -8.92000008       2.23958050E-05
  -8.90999985       2.28719491E-05
  -8.89999962       2.33155861E-05
  -8.89000034       2.37238764E-05
  -8.88000011       2.40942300E-05
  -8.86999989       2.44242747E-05
  -8.85999966       2.47119224E-05
  -8.85000038       2.49553759E-05
  -8.84000015       2.51531546E-05
  -8.82999992       2.53040289E-05
  -8.81999969       2.54071074E-05
  -8.81000042       2.54617808E-05
  -8.80000019       2.54677580E-05
  -8.78999996       2.54250717E-05
  -8.77999973       2.53340186E-05
  -8.77000046       2.51951860E-05
  -8.76000023       2.50094417E-05
  -8.75000000       2.47779153E-05
  -8.73999977       2.45019619E-05
  -8.72999954       2.41831931E-05
  -8.72000027       2.38234061E-05
  -8.71000004       2.34245417E-05
  -8.69999981       2.29887210E-05
  -8.68999958       2.25181666E-05
  -8.68000031       2.20152524E-05
  -8.67000008       2.14823995E-05
  -8.65999985       2.09220743E-05
  -8.64999962       2.03367799E-05
  -8.64000034       1.97290228E-05
  -8.63000011       1.91012878E-05
  -8.61999989       1.84559467E-05
  -8.60999966       1.77953316E-05
  -8.60000038       1.71216379E-05
  -8.59000015       1.64369667E-05
  -8.57999992       1.57432878E-05
  -8.56999969       1.50424266E-05
  -8.56000042       1.43360994E-05
  -8.55000019       1.36258477E-05
  -8.53999996       1.29131176E-05
  -8.52999973       1.21991543E-05
  -8.52000046       1.14850700E-05
  -8.51000023       1.07718352E-05
  -8.50000000       1.00602920E-05
  -8.48999977       9.35112166E-06
  -8.47999954       8.64495996E-06
  -8.47000027       7.94221978E-06
  -8.46000004       7.24328402E-06
  -8.44999981       6.54843643E-06
  -8.43999958       5.85789167E-06
  -8.43000031       5.17177114E-06
  -8.42000008       4.49015033E-06
  -8.40999985       3.81307837E-06
  -8.39999962       3.14056501E-06
  -8.39000034       2.47264893E-06
  -8.38000011       1.80935535E-06
  -8.36999989       1.15079592E-06
  -8.35999966       4.97055908E-07
  -8.35000038      -1.51693385E-07
  -8.34000015      -7.95150299E-07
  -8.32999992      -1.43298280E-06
  -8.31999969      -2.06475261E-06
  -8.31000042      -2.68992380E-06
  -8.30000019      -3.30787930E-06
  -8.28999996      -3.91787216E-06
  -8.27999973      -4.51902133E-06
  -8.27000046      -5.11032840E-06
  -8.26000023      -5.69068789E-06
  -8.25000000      -6.25889561E-06
  -8.23999977      -6.81357551E-06
  -8.22999954      -7.35328967E-06
  -8.22000027      -7.87648878E-06
  -8.21000004      -8.38152755E-06
  -8.19999981      -8.86670477E-06
  -8.18999958      -9.33023603E-06
  -8.18000031      -9.77027139E-06
  -8.17000008      -1.01848927E-05
  -8.15999985      -1.05722238E-05
  -8.14999962      -1.09303346E-05
  -8.14000034      -1.12573462E-05
  -8.13000011      -1.15513931E-05
  -8.11999989      -1.18106982E-05
  -8.10999966      -1.20335681E-05
  -8.10000038      -1.22184329E-05
  -8.09000015      -1.23638774E-05
  -8.07999992      -1.24686012E-05
  -8.06999969      -1.25315055E-05
  -8.06000042      -1.25516344E-05
  -8.05000019      -1.25282522E-05
  -8.03999996      -1.24608059E-05
  -8.02999973      -1.23489617E-05
  -8.02000046      -1.21925950E-05
  -8.01000023      -1.19918122E-05
  -8.00000000      -1.17469317E-05
  -7.98999977      -1.14584745E-05
  -7.98000002      -1.11271411E-05
  -7.96999979      -1.07538208E-05
  -7.96000004      -1.03395560E-05
  -7.94999981      -9.88559623E-06
  -7.94000006      -9.39326401E-06
  -7.92999983      -8.86403177E-06
  -7.92000008      -8.29948658E-06
  -7.90999985      -7.70133283E-06
  -7.90000010      -7.07139498E-06
  -7.88999987      -6.41153156E-06
  -7.88000011      -5.72371164E-06
  -7.86999989      -5.00991700E-06
  -7.86000013      -4.27223040E-06
  -7.84999990      -3.51270182E-06
  -7.84000015      -2.73345245E-06
  -7.82999992      -1.93655205E-06
  -7.82000017      -1.12415398E-06
  -7.80999994      -2.98274557E-07
  -7.80000019       5.38987194E-07
  -7.78999996       1.38561154E-06
  -7.78000021       2.23963798E-06
  -7.76999998       3.09914276E-06
  -7.76000023       3.96228143E-06
  -7.75000000       4.82732094E-06
  -7.73999977       5.69256417E-06
  -7.73000002       6.55649956E-06
  -7.71999979       7.41763597E-06
  -7.71000004       8.27467466E-06
  -7.69999981       9.12635642E-06
  -7.69000006       9.97161169E-06
  -7.67999983       1.08094428E-05
  -7.67000008       1.16390438E-05
  -7.65999985       1.24596909E-05
  -7.65000010       1.32708647E-05
  -7.63999987       1.40721377E-05
  -7.63000011       1.48632134E-05
  -7.61999989       1.56440128E-05
  -7.61000013       1.64145240E-05
  -7.59999990       1.71749271E-05
  -7.59000015       1.79254948E-05
  -7.57999992       1.86666948E-05
  -7.57000017       1.93990709E-05
  -7.55999994       2.01233615E-05
  -7.55000019       2.08403344E-05
  -7.53999996       2.15509117E-05
  -7.53000021       2.22561175E-05
  -7.51999998       2.29569832E-05
  -7.51000023       2.36546857E-05
  -7.50000000       2.43504546E-05
  -7.48999977       2.50455323E-05
  -7.48000002       2.57411484E-05
  -7.46999979       2.64386017E-05
  -7.46000004       2.71391818E-05
  -7.44999981       2.78441148E-05
  -7.44000006       2.85546448E-05