  -16.0000000       0.00000000    
  -15.9899998       0.00000000    
  -15.9799995       0.00000000    
  -15.9700003       0.00000000    
  -15.9600000       0.00000000    
  -15.9499998       0.00000000    
  -15.9399996       0.00000000    
  -15.9300003       0.00000000    
  -15.9200001       0.00000000    
  -15.9099998       0.00000000    
  -15.8999996       0.00000000    
  -15.8900003       0.00000000    
  -15.8800001       0.00000000    
  -15.8699999       0.00000000    
  -15.8599997      -0.00000000    
  -15.8500004      -7.00649232E-45
  -15.8400002      -1.09301280E-43
  -15.8299999      -1.11263098E-42
  -15.8199997      -8.51148687E-42
  -15.8100004      -5.26131521E-41
  -15.8000002      -2.72712299E-40
  -15.7900000      -1.21622757E-39
  -15.7799997      -4.75056575E-39
  -15.7700005      -1.64531231E-38
  -15.7600002      -5.09386565E-38
  -15.7500000      -1.41597757E-37
  -15.7399998      -3.53595830E-37
  -15.7299995      -7.89669845E-37
  -15.7200003      -1.55712877E-36
  -15.7100000      -2.63033919E-36
  -15.6999998      -3.51021239E-36
  -15.6899996      -2.59754244E-36
  -15.6800003       3.65129646E-36
  -15.6700001       2.13256658E-35
  -15.6599998       5.83016499E-35
  -15.6499996       1.20317598E-34
  -15.6400003       2.02037334E-34
  -15.6300001       2.72982275E-34
  -15.6199999       2.62786262E-34
  -15.6099997       5.75186490E-35
  -15.6000004      -4.74099785E-34
  -15.5900002      -1.40555044E-33
  -15.5799999      -2.62497127E-33
  -15.5699997      -3.68883866E-33
  -15.5600004      -3.74304364E-33
  -15.5500002      -1.64005229E-33
  -15.5400000       3.62952799E-33
  -15.5299997       1.21776711E-32
  -15.5200005       2.23236648E-32
  -15.5100002       2.99953127E-32
  -15.5000000       2.89980350E-32
  -15.4899998       1.26056297E-32
  -15.4799995      -2.35120793E-32
  -15.4700003      -7.76471971E-32
  -15.4600000      -1.38856975E-31
  -15.4499998      -1.85522784E-31
  -15.4399996      -1.86749824E-31
  -15.4300003      -1.07515051E-31
  -15.4200001       8.11723871E-32
  -15.4099998       3.85286917E-31
  -15.3999996       7.63405434E-31
  -15.3900003       1.10044741E-30
  -15.3800001       1.19722426E-30
  -15.3699999       8.06293957E-31
  -15.3599997      -2.57052896E-31
  -15.3500004      -1.93569783E-30
  -15.3400002      -3.76730141E-30
  -15.3299999      -4.90643969E-30
  -15.3199997      -4.51222215E-30
  -15.3100004      -2.50443529E-30
  -15.3000002      -2.81542276E-31
  -15.2900000      -5.05255825E-31
  -15.2799997      -4.93087831E-30
  -15.2700005      -1.01226246E-29
  -15.2600002      -3.10679320E-30
  -15.2500000       3.79995066E-29
  -15.2399998       1.31698990E-28
  -15.2299995       2.65584632E-28
  -15.2200003       3.60775477E-28
  -15.2100000       2.53093484E-28
  -15.1999998      -2.68265430E-28
  -15.1899996      -1.32605342E-27
  -15.1800003      -2.72562170E-27
  -15.1700001      -3.71766148E-27
  -15.1599998      -2.94825940E-27
  -15.1499996       1.14342817E-27
  -15.1400003       9.29870023E-27
  -15.1300001       1.99141526E-26
  -15.1199999       2.76832831E-26
  -15.1099997       2.36362464E-26
  -15.1000004      -2.00132182E-27
  -15.0900002      -5.34102898E-26
  -15.0799999      -1.20443184E-25
  -15.0699997      -1.71630902E-25
  -15.0600004      -1.55630337E-25
  -15.0500002      -1.80524270E-26
  -15.0400000       2.63843897E-25
  -15.0299997       6.36285099E-25
  -15.0200005       9.35473465E-25
  -15.0100002       8.98114591E-25
  -15.0000000       2.47277202E-25
  -14.9899998      -1.13857921E-24
  -14.9799995      -3.01368315E-24
  -14.9700003      -4.61162011E-24
  -14.9600000      -4.69701312E-24
  -14.9499998      -1.95558027E-24
  -14.9399996       4.25203995E-24
  -14.9300003       1.29550658E-23
  -14.9200001       2.08916400E-23
  -14.9099998       2.26941540E-23
  -14.8999996       1.24865401E-23
  -14.8900003      -1.30062637E-23
  -14.8800001      -5.05667476E-23
  -14.8699999      -8.75346061E-23
  -14.8599997      -1.02204289E-22
  -14.8500004      -6.97323064E-23
  -14.8400002       2.59507691E-23
  -14.8299999       1.76823563E-22
  -14.8199997       3.38361451E-22
  -14.8100004       4.28965597E-22
  -14.8000002       3.49528136E-22
  -14.7900000       2.57548776E-23
  -14.7799997      -5.34915044E-22
  -14.7700005      -1.19315886E-21
  -14.7600002      -1.66571224E-21
  -14.7500000      -1.58203159E-21
  -14.7399998      -6.22856550E-22
  -14.7299995       1.28122098E-21
  -14.7200003       3.75773935E-21
  -14.7100000       5.91003665E-21
  -14.6999998       6.45246760E-21
  -14.6899996       4.12323242E-21
  -14.6800003      -1.67096835E-21
  -14.6700001      -1.01669383E-20
  -14.6599998      -1.88303466E-20
  -14.6499996      -2.35728493E-20
  -14.6400003      -1.98470033E-20
  -14.6300001      -4.57140477E-21
  -14.6199999       2.15885190E-20
  -14.6099997       5.24817050E-20
  -14.6000004       7.63860195E-20
  -14.5900002       7.84827156E-20
  -14.5799999       4.60610645E-20
  -14.5699997      -2.45619651E-20
  -14.5600004      -1.21720933E-19
  -14.5500002      -2.15861285E-19
  -14.5400000      -2.63787199E-19
  -14.5299997      -2.21083923E-19
  -14.5200005      -6.10904289E-20
  -14.5100002       2.04879635E-19
  -14.5000000       5.14368977E-19
  -14.4899998       7.56645578E-19
  -14.4799995       7.97647214E-19
  -14.4700003       5.26161006E-19
  -14.4600000      -8.90832742E-20
  -14.4499998      -9.50826743E-19
  -14.4399996      -1.81726824E-18
  -14.4300003      -2.33906846E-18
  -14.4200001      -2.15612650E-18
  -14.4099998      -1.03888136E-18
  -14.3999996       9.65529465E-19
  -14.3900003       3.43950715E-18
  -14.3800001       5.61183233E-18
  -14.3699999       6.52101343E-18
  -14.3599997       5.31597257E-18
  -14.3500004       1.62706716E-18
  -14.3400002      -4.11156906E-18
  -14.3299999      -1.05307231E-17
  -14.3199997      -1.55038992E-17
  -14.3100004      -1.66737294E-17
  -14.3000002      -1.22464933E-17
  -14.2900000      -1.84582976E-18
  -14.2799997       1.28733275E-17
  -14.2700005       2.81547564E-17
  -14.2600002       3.88115294E-17
  -14.2500000       3.96206245E-17
  -14.2399998       2.71549383E-17
  -14.2299995       1.52420994E-18
  -14.2200003      -3.26205821E-17
  -14.2100000      -6.63792920E-17
  -14.1999998      -8.84410592E-17
  -14.1899996      -8.82393793E-17
  -14.1800003      -5.96749998E-17
  -14.1700001      -4.27762640E-18
  -14.1599998       6.73976043E-17
  -14.1499996       1.37015692E-16
  -14.1400003       1.82523331E-16
  -14.1300001       1.84290705E-16
  -14.1199999       1.31755591E-16
  -14.1099997       2.85229842E-17
  -14.1000004      -1.05991608E-16
  -14.0900002      -2.39488428E-16
  -14.0799999      -3.34096476E-16
  -14.0699997      -3.56458596E-16
  -14.0600004      -2.87882014E-16
  -14.0500002      -1.31503612E-16
  -14.0400000       8.59626673E-17
  -14.0299997       3.18858671E-16
  -14.0200005       5.12662456E-16
  -14.0100002       6.16876943E-16
  -14.0000000       5.97187398E-16
  -13.9899998       4.43610186E-16
  -13.9799995       1.72731975E-16
  -13.9700003      -1.75861761E-16
  -13.9600000      -5.47030659E-16
  -13.9499998      -8.78553108E-16
  -13.9399996      -1.10824298E-15
  -13.9300003      -1.17900771E-15
  -13.9200001      -1.04328000E-15
  -13.9099998      -6.69685053E-16
  -13.8999996      -5.44757262E-17
  -13.8900003       7.62270413E-16
  -13.8800001       1.67990689E-15
  -13.8699999       2.52841558E-15
  -13.8599997       3.07814822E-15
  -13.8500004       3.07662526E-15
  -13.8400002       2.31377256E-15
  -13.8299999       7.05757169E-16
  -13.8199997      -1.62453254E-15
  -13.8100004      -4.30067765E-15
  -13.8000002      -6.70993073E-15
  -13.7900000      -8.10333043E-15
  -13.7799997      -7.77527626E-15
  -13.7700005      -5.29049325E-15
  -13.7600002      -6.99727565E-16
  -13.7500000       5.32888163E-15
  -13.7399998       1.15297625E-14
  -13.7299995       1.62478876E-14
  -13.7200003       1.78208346E-14
  -13.7100000       1.50618619E-14
  -13.6999998       7.72043680E-15
  -13.6899996      -3.22615220E-15
  -13.6800003      -1.55781692E-14
  -13.6700001      -2.62809014E-14
  -13.6599998      -3.21219864E-14
  -13.6499996      -3.06186622E-14
  -13.6400003      -2.08680746E-14
  -13.6300001      -4.10004816E-15
  -13.6199999       1.62893770E-14
  -13.6099997       3.53300593E-14
  -13.6000004       4.76335009E-14
  -13.5900002       4.88696404E-14
  -13.5799999       3.71827643E-14
  -13.5699997       1.41164495E-14
  -13.5600004      -1.53087212E-14
  -13.5500002      -4.35284268E-14
  -13.5400000      -6.22668082E-14
  -13.5299997      -6.48692525E-14
  -13.5200005      -4.85225738E-14
  -13.5100002      -1.56833215E-14
  -13.5000000       2.58389789E-14
  -13.4899998       6.43860507E-14
  -13.4799995       8.73520345E-14
  -13.4700003       8.48458267E-14
  -13.4600000       5.31515953E-14
  -13.4499998      -3.07166588E-15
  -13.4399996      -7.07091991E-14
  -13.4300003      -1.30603712E-13
  -13.4200001      -1.62170218E-13
  -13.4099998      -1.49234398E-13
  -13.3999996      -8.56088746E-14
  -13.3900003       2.12380992E-14
  -13.3800001       1.49777109E-13
  -13.3699999       2.67917741E-13
  -13.3599997       3.40054184E-13
  -13.3500004       3.36254272E-13
  -13.3400002       2.41392735E-13
  -13.3299999       6.17316799E-14
  -13.3199997      -1.73195483E-13
  -13.3100004      -4.14556762E-13
  -13.3000002      -6.03787745E-13
  -13.2900000      -6.85963927E-13
  -13.2799997      -6.23973421E-13
  -13.2700005      -4.09934429E-13
  -13.2600002      -7.06473454E-14
  -13.2500000       3.34909943E-13
  -13.2399998       7.26158229E-13
  -13.2299995       1.01761785E-12
  -13.2200003       1.13806490E-12
  -13.2100000       1.04758942E-12
  -13.1999998       7.48239524E-13
  -13.1899996       2.85335557E-13
  -13.1800003      -2.61209782E-13
  -13.1700001      -7.93709716E-13
  -13.1599998      -1.21762485E-12
  -13.1499996      -1.46140326E-12
  -13.1400003      -1.49024456E-12
  -13.1300001      -1.31037238E-12
  -13.1199999      -9.62973191E-13
  -13.1099997      -5.09859136E-13
  -13.1000004      -1.53129005E-14
  -13.0900002       4.70242389E-13
  -13.0799999       9.19546882E-13
  -13.0699997       1.32765207E-12
  -13.0600004       1.70092586E-12
  -13.0500002       2.03935588E-12
  -13.0400000       2.31824239E-12
  -13.0299997       2.47643225E-12
  -13.0200005       2.41719145E-12
  -13.0100002       2.02477683E-12
  -13.0000000       1.19536000E-12
  -12.9899998      -1.23670632E-13
  -12.9799995      -1.89562754E-12
  -12.9700003      -3.96873159E-12
  -12.9600000      -6.07235616E-12
  -12.9499998      -7.84105246E-12
  -12.9399996      -8.86604592E-12
  -12.9300003      -8.76729245E-12
  -12.9200001      -7.27350905E-12
  -12.9099998      -4.29434396E-12
  -12.8999996       3.09964016E-14
  -12.8900003       5.32064063E-12
  -12.8800001       1.09779416E-11
  -12.8699999       1.62578857E-11
  -12.8599997       2.03619864E-11
  -12.8500004       2.25462860E-11
  -12.8400002       2.22250777E-11
  -12.8299999       1.90547196E-11
  -12.8199997       1.29869561E-11
  -12.8100004       4.28777066E-12
  -12.8000002      -6.47542870E-12
  -12.7900000      -1.84709800E-11
  -12.7799997      -3.06553949E-11
  -12.7700005      -4.18340154E-11
  -12.7600002      -5.07269469E-11
  -12.7500000      -5.60425387E-11
  -12.7399998      -5.65642810E-11
  -12.7299995      -5.12574705E-11
  -12.7200003      -3.93977836E-11
  -12.7100000      -2.07167443E-11
  -12.6999998       4.45121197E-12
  -12.6899996       3.50444257E-11
  -12.6800003       6.92016791E-11
  -12.6700001       1.04270169E-10
  -12.6599998       1.36913869E-10
  -12.6499996       1.63327379E-10
  -12.6400003       1.79542520E-10
  -12.6300001       1.81798299E-10
  -12.6199999       1.66932704E-10
  -12.6099997       1.32751948E-10
  -12.6000004       7.83399665E-11
  -12.5900002       4.28482770E-12
  -12.5799999      -8.71828998E-11
  -12.5699997      -1.92127717E-10
  -12.5600004      -3.04904574E-10
  -12.5500002      -4.18193535E-10
  -12.5400000      -5.23073473E-10
  -12.5299997      -6.09155615E-10
  -12.5200005      -6.64823363E-10
  -12.5100002      -6.77642720E-10
  -12.5000000      -6.35012154E-10
  -12.4899998      -5.25104960E-10
  -12.4799995      -3.38118089E-10
  -12.4700003      -6.77996825E-11
  -12.4600000       2.86841301E-10
  -12.4499998       7.19781457E-10
  -12.4399996       1.21635180E-09
  -12.4300003       1.75192771E-09
  -12.4200001       2.29108799E-09
  -12.4099998       2.78737100E-09
  -12.3999996       3.18370064E-09
  -12.3900003       3.41346795E-09
  -12.3800001       3.40223560E-09
  -12.3699999       3.06995895E-09
  -12.3599997       2.33363595E-09
  -12.3500004       1.11026754E-09
  -12.3400002      -6.79968803E-10
  -12.3299999      -3.11039372E-09
  -12.3199997      -6.24444096E-09
  -12.3100004      -1.01322435E-08
  -12.3000002      -1.48073083E-08
  -12.2900000      -2.02833768E-08
  -12.2799997      -2.65515698E-08
  -12.2700005      -3.35779760E-08
  -12.2600002      -4.13018597E-08
  -12.2500000      -4.96345507E-08
  -12.2399998      -5.84592073E-08
  -12.2299995      -6.76314968E-08
  -12.2200003      -7.69811948E-08
  -12.2100000      -8.63146070E-08
  -12.1999998      -9.54180166E-08
  -12.1899996      -1.04061634E-07
  -12.1800003      -1.12004180E-07
  -12.1700001      -1.18997953E-07
  -12.1599998      -1.24794042E-07
  -12.1499996      -1.29147665E-07
  -12.1400003      -1.31823342E-07
  -12.1300001      -1.32600050E-07
  -12.1199999      -1.31275741E-07
  -12.1099997      -1.27671683E-07
  -12.1000004      -1.21636162E-07
  -12.0900002      -1.13047598E-07
  -12.0799999      -1.01817200E-07
  -12.0699997      -8.78908892E-08
  -12.0600004      -7.12506747E-08
  -12.0500002      -5.19152934E-08
  -12.0400000      -2.99403631E-08
  -12.0299997      -5.41778622E-09
  -12.0200005       2.15252989E-08
  -12.0100002       5.07281577E-08
  -12.0000000       8.19983796E-08
  -11.9899998       1.15114133E-07
  -11.9799995       1.49826150E-07
  -11.9700003       1.85860131E-07
  -11.9600000       2.22918231E-07
  -11.9499998       2.60680935E-07
  -11.9399996       2.98808374E-07
  -11.9300003       3.36941383E-07
  -11.9200001       3.74703120E-07
  -11.9099998       4.11700256E-07
  -11.8999996       4.47525110E-07
  -11.8900003       4.81757581E-07
  -11.8800001       5.13968359E-07
  -11.8699999       5.43721910E-07
  -11.8599997       5.70580539E-07
  -11.8500004       5.94108315E-07
  -11.8400002       6.13875045E-07
  -11.8299999       6.29461226E-07
  -11.8199997       6.40462304E-07
  -11.8100004       6.46493618E-07
  -11.8000002       6.47195293E-07
  -11.7900000       6.42236898E-07
  -11.7799997       6.31323019E-07
  -11.7700005       6.14198086E-07
  -11.7600002       5.90650927E-07
  -11.7500000       5.60519823E-07
  -11.7399998       5.23695746E-07
  -11.7299995       4.80125834E-07
  -11.7200003       4.29815657E-07
  -11.7100000       3.72830613E-07
  -11.6999998       3.09296269E-07
  -11.6899996       2.39398020E-07
  -11.6800003       1.63379795E-07
  -11.6700001       8.15418773E-08
  -11.6599998      -5.76191761E-09
  -11.6499996      -9.81271526E-08
  -11.6400003      -1.95102615E-07
  -11.6300001      -2.96193548E-07
  -11.6199999      -4.00864650E-07
  -11.6099997      -5.08543565E-07
  -11.6000004      -6.18621584E-07
  -11.5900002      -7.30456804E-07
  -11.5799999      -8.43373243E-07
  -11.5699997      -9.56662348E-07
  -11.5600004      -1.06958305E-06
  -11.5500002      -1.18136302E-06
  -11.5400000      -1.29119974E-06
  -11.5299997      -1.39826307E-06
  -11.5200005      -1.50169808E-06
  -11.5100002      -1.60062905E-06
  -11.5000000      -1.69416342E-06
  -11.4899998      -1.78139453E-06
  -11.4799995      -1.86140676E-06
  -11.4700003      -1.93327878E-06
  -11.4600000      -1.99608439E-06
  -11.4499998      -2.04889716E-06
  -11.4399996      -2.09079280E-06
  -11.4300003      -2.12085320E-06
  -11.4200001      -2.13816952E-06
  -11.4099998      -2.14185047E-06
  -11.3999996      -2.13102612E-06
  -11.3900003      -2.10485859E-06
  -11.3800001      -2.06254799E-06
  -11.3699999      -2.00333943E-06
  -11.3599997      -1.92652919E-06
  -11.3500004      -1.83147029E-06
  -11.3400002      -1.71757267E-06
  -11.3299999      -1.58430407E-06
  -11.3199997      -1.43118950E-06
  -11.3100004      -1.25780662E-06
  -11.3000002      -1.06378388E-06
  -11.2900000      -8.48795423E-07
  -11.2799997      -6.12557471E-07
  -11.2700005      -3.54826852E-07
  -11.2600002      -7.53973950E-08
  -11.2500000       2.25900237E-07
  -11.2399998       5.49199740E-07
  -11.2299995       8.94598884E-07
  -11.2200003       1.26215991E-06
  -11.2100000       1.65190875E-06
  -11.1999998       2.06383720E-06
  -11.1899996       2.49790219E-06
  -11.1800003       2.95402879E-06
  -11.1700001       3.43211013E-06
  -11.1599998       3.93201208E-06
  -11.1499996       4.45357273E-06
  -11.1400003       4.99660609E-06
  -11.1300001       5.56090072E-06
  -11.1199999       6.14622286E-06
  -11.1099997       6.75231331E-06
  -11.1000004       7.37889241E-06
  -11.0900002       8.02565228E-06
  -11.0799999       8.69226278E-06
  -11.0699997       9.37836921E-06
  -11.0600004       1.00835932E-05
  -11.0500002       1.08075310E-05
  -11.0400000       1.15497587E-05
  -11.0299997       1.23098343E-05
  -11.0200005       1.30872977E-05
  -11.0100002       1.38816731E-05
  -11.0000000       1.46924713E-05
  -10.9899998       1.55191901E-05
  -10.9799995       1.63613222E-05
  -10.9700003       1.72183445E-05
  -10.9600000       1.80897296E-05
  -10.9499998       1.89749444E-05
  -10.9399996       1.98734415E-05
  -10.9300003       2.07846715E-05
  -10.9200001       2.17080706E-05
  -10.9099998       2.26430711E-05
  -10.8999996       2.35890930E-05
  -10.8900003       2.45455267E-05
  -10.8800001       2.55117684E-05
  -10.8699999       2.64871833E-05
  -10.8599997       2.74711256E-05
  -10.8500004       2.84629368E-05
  -10.8400002       2.94619513E-05
  -10.8299999       3.04674923E-05
  -10.8199997       3.14788849E-05
  -10.8100004       3.24954563E-05
  -10.8000002       3.35165460E-05
  -10.7900000       3.45414956E-05
  -10.7799997       3.55696611E-05
  -10.7700005       3.66004206E-05
  -10.7600002       3.76331554E-05
  -10.7500000       3.86672655E-05
  -10.7399998       3.97021577E-05
  -10.7299995       4.07372536E-05
  -10.7200003       4.17719784E-05
  -10.7100000       4.28057792E-05
  -10.6999998       4.38381176E-05
  -10.6899996       4.48684696E-05
  -10.6800003       4.58963368E-05
  -10.6700001       4.69212755E-05
  -10.6599998       4.79428418E-05
  -10.6499996       4.89606864E-05
  -10.6400003       4.99744965E-05
  -10.6300001       5.09840356E-05
  -10.6199999       5.19891182E-05
  -10.6099997       5.29896643E-05
  -10.6000004       5.39856483E-05
  -10.5900002       5.49771175E-05
  -10.5799999       5.59641812E-05
  -10.5699997       5.69470358E-05
  -10.5600004       5.79258849E-05
  -10.5500002       5.89010160E-05
  -10.5400000       5.98727311E-05
  -10.5299997       6.08413466E-05
  -10.5200005       6.18072227E-05
  -10.5100002       6.27707122E-05
  -10.5000000       6.37321791E-05
  -10.4899998       6.46919943E-05
  -10.4799995       6.56505435E-05
  -10.4700003       6.66081905E-05
  -10.4600000       6.75653573E-05
  -10.4499998       6.85223640E-05
  -10.4399996       6.94796108E-05
  -10.4300003       7.04374252E-05
  -10.4200001       7.13961199E-05
  -10.4099998       7.23559860E-05
  -10.3999996       7.33172201E-05
  -10.3900003       7.42799966E-05
  -10.3800001       7.52444175E-05
  -10.3699999       7.62104974E-05
  -10.3599997       7.71782215E-05
  -10.3500004       7.81474373E-05
  -10.3400002       7.91179918E-05
  -10.3299999       8.00896596E-05
  -10.3199997       8.10621204E-05
  -10.3100004       8.20350833E-05
  -10.3000002       8.30081626E-05
  -10.2900000       8.39809582E-05
  -10.2799997       8.49530406E-05
  -10.2700005       8.59239954E-05
  -10.2600002       8.68932912E-05
  -10.2500000       8.78604769E-05
  -10.2399998       8.88250579E-05
  -10.2299995       8.97865029E-05
  -10.2200003       9.07443246E-05
  -10.2100000       9.16980207E-05
  -10.1999998       9.26471330E-05
  -10.1899996       9.35911812E-05
  -10.1800003       9.45297797E-05
  -10.1700001       9.54625721E-05
  -10.1599998       9.63892526E-05
  -10.1499996       9.73095812E-05
  -10.1400003       9.82233687E-05
  -10.1300001       9.91305351E-05
  -10.1199999       1.00031015E-04
  -10.1099997       1.00924859E-04
  -10.1000004       1.01812140E-04
  -10.0900002       1.02693091E-04
  -10.0799999       1.03567887E-04
  -10.0699997       1.04436884E-04
  -10.0600004       1.05300474E-04
  -10.0500002       1.06159154E-04
  -10.0400000       1.07013489E-04
  -10.0299997       1.07864093E-04
  -10.0200005       1.08711756E-04
  -10.0100002       1.09557295E-04
  -10.0000000       1.10401619E-04
  -9.98999977       1.11245688E-04
  -9.97999954       1.12090573E-04
  -9.97000027       1.12937356E-04
  -9.96000004       1.13787202E-04
  -9.94999981       1.14641276E-04
  -9.93999958       1.15500799E-04
  -9.93000031       1.16367024E-04
  -9.92000008       1.17241223E-04
  -9.90999985       1.18124655E-04
  -9.89999962       1.19018616E-04
  -9.89000034       1.19924458E-04
  -9.88000011       1.20843542E-04
  -9.86999989       1.21777237E-04
  -9.85999966       1.22726982E-04
  -9.85000038       1.23694233E-04
  -9.84000015       1.24680548E-04
  -9.82999992       1.25687482E-04
  -9.81999969       1.26716739E-04
  -9.81000042       1.27769992E-04
  -9.80000019       1.28848988E-04
  -9.78999996       1.29955602E-04
  -9.77999973       1.31091627E-04
  -9.77000046       1.32258938E-04
  -9.76000023       1.33459427E-04
  -9.75000000       1.34694987E-04
  -9.73999977       1.35967493E-04
  -9.72999954       1.37278927E-04
  -9.72000027       1.38631134E-04
  -9.71000004       1.40026124E-04
  -9.69999981       1.41465876E-04
  -9.68999958       1.42952325E-04
  -9.68000031       1.44487407E-04
  -9.67000008       1.46073129E-04
  -9.65999985       1.47711311E-04
  -9.64999962       1.49403815E-04
  -9.64000034       1.51152373E-04
  -9.63000011       1.52958572E-04
  -9.61999989       1.54823851E-04
  -9.60999966       1.56749462E-04
  -9.60000038       1.58736453E-04
  -9.59000015       1.60785596E-04
  -9.57999992       1.62897442E-04
  -9.56999969       1.65072270E-04
  -9.56000042       1.67309947E-04
  -9.55000019       1.69610197E-04
  -9.53999996       1.71972293E-04
  -9.52999973       1.74395274E-04
  -9.52000046       1.76877817E-04
  -9.51000023       1.79418217E-04
  -9.50000000       1.82014686E-04
  -9.48999977       1.84664881E-04
  -9.47999954       1.87366299E-04
  -9.47000027       1.90116116E-04
  -9.46000004       1.92911277E-04
  -9.44999981       1.95748595E-04
  -9.43999958       1.98624548E-04
  -9.43000031       2.01535659E-04
  -9.42000008       2.04478449E-04
  -9.40999985       2.07449251E-04
  -9.39999962       2.10444632E-04
  -9.39000034       2.13461230E-04
  -9.38000011       2.16495857E-04
  -9.36999989       2.19545647E-04
  -9.35999966       2.22607996E-04
  -9.35000038       2.25680662E-04
  -9.34000015       2.28761841E-04
  -9.32999992       2.31850092E-04
  -9.31999969       2.34944644E-04
  -9.31000042       2.38045192E-04
  -9.30000019       2.41151953E-04
  -9.28999996       2.44265888E-04
  -9.27999973       2.47388438E-04
  -9.27000046       2.50521669E-04
  -9.26000023       2.53668375E-04
  -9.25000000       2.56831816E-04
  -9.23999977       2.60015950E-04
  -9.22999954       2.63225258E-04
  -9.22000027       2.66464718E-04
  -9.21000004       2.69740005E-04
  -9.19999981       2.73057231E-04
  -9.18999958       2.76422856E-04
  -9.18000031       2.79843807E-04
  -9.17000008       2.83327216E-04
  -9.15999985       2.86880590E-04
  -9.14999962       2.90511496E-04
  -9.14000034       2.94227677E-04
  -9.13000011       2.98036844E-04
  -9.11999989       3.01946653E-04
  -9.10999966       3.05964466E-04
  -9.10000038       3.10097734E-04
  -9.09000015       3.14353296E-04
  -9.07999992       3.18737846E-04
  -9.06999969       3.23257555E-04
  -9.06000042       3.27918126E-04
  -9.05000019       3.32724652E-04
  -9.03999996       3.37681646E-04
  -9.02999973       3.42792802E-04
  -9.02000046       3.48061265E-04
  -9.01000023       3.53489275E-04
  -9.00000000       3.59078287E-04
  -8.98999977       3.64828942E-04
  -8.97999954       3.70741152E-04
  -8.97000027       3.76813696E-04
  -8.96000004       3.83044651E-04
  -8.94999981       3.89431283E-04
  -8.93999958       3.95969866E-04
  -8.93000031       4.02655773E-04
  -8.92000008       4.09483764E-04
  -8.90999985       4.16447612E-04
  -8.89999962       4.23540449E-04
  -8.89000034       4.30754444E-04
  -8.88000011       4.38081101E-04
  -8.86999989       4.45511396E-04
  -8.85999966       4.53035522E-04
  -8.85000038       4.60643088E-04
  -8.84000015       4.68323095E-04
  -8.82999992       4.76064219E-04
  -8.81999969       4.83854674E-04
  -8.81000042       4.91682382E-04
  -8.80000019       4.99535003E-04
  -8.78999996       5.07400138E-04
  -8.77999973       5.15265157E-04
  -8.77000046       5.23117487E-04
  -8.76000023       5.30944730E-04
  -8.75000000       5.38734312E-04
  -8.73999977       5.46474126E-04
  -8.72999954       5.54152357E-04
  -8.72000027       5.61757362E-04
  -8.71000004       5.69278025E-04
  -8.69999981       5.76703635E-04
  -8.68999958       5.84024063E-04
  -8.68000031       5.91229706E-04
  -8.67000008       5.98311541E-04
  -8.65999985       6.05261186E-04
  -8.64999962       6.12070609E-04
  -8.64000034       6.18732942E-04
  -8.63000011       6.25241490E-04
  -8.61999989       6.31590548E-04
  -8.60999966       6.37775112E-04
  -8.60000038       6.43790758E-04
  -8.59000015       6.49633701E-04
  -8.57999992       6.55300857E-04
  -8.56999969       6.60789898E-04
  -8.56000042       6.66098902E-04
  -8.55000019       6.71226764E-04
  -8.53999996       6.76172669E-04
  -8.52999973       6.80936850E-04
  -8.52000046       6.85519481E-04
  -8.51000023       6.89921377E-04
  -8.50000000       6.94143993E-04
  -8.48999977       6.98188902E-04
  -8.47999954       7.02058140E-04
  -8.47000027       7.05754268E-04
  -8.46000004       7.09279731E-04
  -8.44999981       7.12637440E-04
  -8.43999958       7.15830480E-04
  -8.43000031       7.18862051E-04
  -8.42000008       7.21735531E-04
  -8.40999985       7.24454585E-04
  -8.39999962       7.27022882E-04
  -8.39000034       7.29444379E-04
  -8.38000011       7.31723092E-04
  -8.36999989       7.33862980E-04
  -8.35999966       7.35868525E-04
  -8.35000038       7.37744092E-04
  -8.34000015       7.39494630E-04
  -8.32999992       7.41124968E-04
  -8.31999969       7.42640404E-04
  -8.31000042       7.44046294E-04
  -8.30000019       7.45348458E-04
  -8.28999996       7.46553182E-04
  -8.27999973       7.47666927E-04
  -8.27000046       7.48696562E-04
  -8.26000023       7.49649364E-04
  -8.25000000       7.50532839E-04
  -8.23999977       7.51354964E-04
  -8.22999954       7.52124528E-04
  -8.22000027       7.52849854E-04
  -8.21000004       7.53540255E-04
  -8.19999981       7.54205161E-04
  -8.18999958       7.54854467E-04
  -8.18000031       7.55498419E-04
  -8.17000008       7.56147434E-04
  -8.15999985       7.56812806E-04
  -8.14999962       7.57505302E-04
  -8.14000034       7.58236973E-04
  -8.13000011       7.59019284E-04
  -8.11999989       7.59864226E-04
  -8.10999966       7.60784198E-04
  -8.10000038       7.61791540E-04
  -8.09000015       7.62898999E-04
  -8.07999992       7.64118857E-04
  -8.06999969       7.65464152E-04
  -8.06000042       7.66947400E-04
  -8.05000019       7.68581056E-04
  -8.03999996       7.70377927E-04
  -8.02999973       7.72350235E-04
  -8.02000046       7.74509914E-04
  -8.01000023       7.76869128E-04
  -8.00000000       7.79439521E-04
  -7.98999977       7.82232382E-04
  -7.98000002       7.85258831E-04
  -7.96999979       7.88529404E-04
  -7.96000004       7.92054576E-04
  -7.94999981       7.95843836E-04
  -7.94000006       7.99906848E-04
  -7.92999983       8.04252224E-04
  -7.92000008       8.08888988E-04
  -7.90999985       8.13824241E-04
  -7.90000010       8.19065550E-04
  -7.88999987       8.24619958E-04
  -7.88000011       8.30493693E-04
  -7.86999989       8.36691645E-04
  -7.86000013       8.43219575E-04
  -7.84999990       8.50081095E-04
  -7.84000015       8.57280276E-04
  -7.82999992       8.64820264E-04
  -7.82000017       8.72702862E-04
  -7.80999994       8.80930224E-04
  -7.80000019       8.89503339E-04
  -7.78999996       8.98422673E-04
  -7.78000021       9.07687936E-04
  -7.76999998       9.17298486E-04
  -7.76000023       9.27253335E-04
  -7.75000000       9.37550212E-04
  -7.73999977       9.48187022E-04
  -7.73000002       9.59160912E-04
  -7.71999979       9.70468856E-04
  -7.71000004       9.82107245E-04
  -7.69999981       9.94071714E-04
  -7.69000006       1.00635854E-03
  -7.67999983       1.01896259E-03
  -7.67000008       1.03187934E-03
  -7.65999985       1.04510365E-03
  -7.65000010       1.05863018E-03
  -7.63999987       1.07245368E-03
  -7.63000011       1.08656823E-03
  -7.61999989       1.10096857E-03
  -7.61000013       1.11564877E-03
  -7.59999990       1.13060372E-03
  -7.59000015       1.14582793E-03
  -7.57999992       1.16131629E-03
  -7.57000017       1.17706321E-03
  -7.55999994       1.19306426E-03
  -7.55000019       1.20931445E-03
  -7.53999996       1.22581027E-03
  -7.53000021       1.24254765E-03
  -7.51999998       1.25952309E-03
  -7.51000023       1.27673370E-03
  -7.50000000       1.29417714E-03
  -7.48999977       1.31185155E-03
  -7.48000002       1.32975483E-03
  -7.46999979       1.34788605E-03
  -7.46000004       1.36624521E-03
  -7.44999981       1.38483150E-03
  -7.44000006       1.40364596E-03