  -16.0000000       0.00000000    
  -15.9899998       0.00000000    
  -15.9799995       0.00000000    
  -15.9700003       0.00000000    
  -15.9600000       0.00000000    
  -15.9499998       0.00000000    
  -15.9399996       0.00000000    
  -15.9300003       0.00000000    
  -15.9200001       0.00000000    
  -15.9099998       0.00000000    
  -15.8999996       0.00000000    
  -15.8900003       0.00000000    
  -15.8800001       0.00000000    
  -15.8699999       0.00000000    
  -15.8599997       0.00000000    
  -15.8500004       1.40129846E-45
  -15.8400002       1.40129846E-45
  -15.8299999      -2.66246708E-44
  -15.8199997      -2.56437619E-43
  -15.8100004      -1.41811405E-42
  -15.8000002      -5.66965359E-42
  -15.7900000      -1.74279490E-41
  -15.7799997      -4.11042879E-41
  -15.7700005      -6.74402912E-41
  -15.7600002      -3.47844318E-41
  -15.7500000       2.43716632E-40
  -15.7399998       1.16303288E-39
  -15.7299995       3.32258236E-39
  -15.7200003       7.25810807E-39
  -15.7100000       1.27522644E-38
  -15.6999998       1.78322348E-38
  -15.6899996       1.79909683E-38
  -15.6800003       5.97032319E-39
  -15.6700001      -3.01740057E-38
  -15.6599998      -1.19748554E-37
  -15.6499996      -3.50137313E-37
  -15.6400003      -9.48203112E-37
  -15.6300001      -2.36541082E-36
  -15.6199999      -5.19691584E-36
  -15.6099997      -9.55543100E-36
  -15.6000004      -1.33864858E-35
  -15.5900002      -9.55440144E-36
  -15.5799999       1.70418528E-35
  -15.5699997       8.81593040E-35
  -15.5600004       2.19007317E-34
  -15.5500002       3.84679608E-34
  -15.5400000       4.66233615E-34
  -15.5299997       2.01315759E-34
  -15.5200005      -7.94174085E-34
  -15.5100002      -2.82743144E-33
  -15.5000000      -5.65836989E-33
  -15.4899998      -7.79697395E-33
  -15.4799995      -5.91991041E-33
  -15.4700003       4.80068734E-33
  -15.4600000       2.83480719E-32
  -15.4499998       6.27002163E-32
  -15.4399996       9.26222428E-32
  -15.4300003       8.42273735E-32
  -15.4200001      -1.11463453E-32
  -15.4099998      -2.34320646E-31
  -15.3999996      -5.71630207E-31
  -15.3900003      -8.93145874E-31
  -15.3800001      -9.09185729E-31
  -15.3699999      -2.05018158E-31
  -15.3599997       1.57784970E-30
  -15.3500004       4.38329016E-30
  -15.3400002       7.28138064E-30
  -15.3299999       8.15303096E-30
  -15.3199997       3.92785061E-30
  -15.3100004      -8.18549642E-30
  -15.3000002      -2.83098311E-29
  -15.2900000      -5.08701112E-29
  -15.2799997      -6.24572160E-29
  -15.2700005      -4.30506732E-29
  -15.2600002       2.68381528E-29
  -15.2500000       1.52160045E-28
  -15.2399998       3.05351835E-28
  -15.2299995       4.12761261E-28
  -15.2200003       3.58745282E-28
  -15.2100000       2.12098813E-29
  -15.1999998      -6.55746405E-28
  -15.1899996      -1.56540308E-27
  -15.1800003      -2.35832144E-27
  -15.1700001      -2.44293813E-27
  -15.1599998      -1.13546561E-27
  -15.1499996       2.00696017E-27
  -15.1400003       6.71906036E-27
  -15.1300001       1.15951152E-26
  -15.1199999       1.39730193E-26
  -15.1099997       1.04501490E-26
  -15.1000004      -1.77691920E-27
  -15.0900002      -2.28811370E-26
  -15.0799999      -4.82998948E-26
  -15.0699997      -6.76605567E-26
  -15.0600004      -6.60635263E-26
  -15.0500002      -2.87007442E-26
  -15.0400000       5.13177685E-26
  -15.0299997       1.63833887E-25
  -15.0200005       2.75047522E-25
  -15.0100002       3.28490013E-25
  -15.0000000       2.57974452E-25
  -14.9899998       1.37130141E-26
  -14.9799995      -4.02966667E-25
  -14.9700003      -9.07797365E-25
  -14.9600000      -1.32152158E-24
  -14.9499998      -1.39494511E-24
  -14.9399996      -8.80991181E-25
  -14.9300003       3.52378768E-25
  -14.9200001       2.19626370E-24
  -14.9099998       4.21037035E-24
  -14.8999996       5.62638593E-24
  -14.8900003       5.49287122E-24
  -14.8800001       2.97388492E-24
  -14.8699999      -2.24412113E-24
  -14.8599997      -9.54797639E-24
  -14.8500004      -1.71575180E-23
  -14.8400002      -2.22216043E-23
  -14.8299999      -2.13720342E-23
  -14.8199997      -1.17424076E-23
  -14.8100004       7.70623388E-24
  -14.8000002       3.48880172E-23
  -14.7900000       6.37886938E-23
  -14.7799997       8.46609941E-23
  -14.7700005       8.56109215E-23
  -14.7600002       5.56965271E-23
  -14.7500000      -1.07649742E-23
  -14.7399998      -1.09515313E-22
  -14.7299995      -2.22643987E-22
  -14.7200003      -3.17591942E-22
  -14.7100000      -3.50634965E-22
  -14.6999998      -2.76124187E-22
  -14.6899996      -6.15310812E-23
  -14.6800003       2.93702987E-22
  -14.6700001       7.40024281E-22
  -14.6599998       1.16738833E-21
  -14.6499996       1.41107965E-21
  -14.6400003       1.28112021E-21
  -14.6300001       6.18045332E-22
  -14.6199999      -6.30768283E-22
  -14.6099997      -2.33173854E-21
  -14.6000004      -4.11149114E-21
  -14.5900002      -5.36450215E-21
  -14.5799999      -5.35337318E-21
  -14.5699997      -3.41357002E-21
  -14.5600004       7.59721469E-22
  -14.5500002       6.80994453E-21
  -14.5400000       1.35111358E-20
  -14.5299997       1.87810906E-20
  -14.5200005       2.00227452E-20
  -14.5100002       1.48252738E-20
  -14.5000000       1.93588112E-21
  -14.4899998      -1.77362322E-20
  -14.4799995      -4.04423433E-20
  -14.4700003      -5.96448597E-20
  -14.4600000      -6.71033082E-20
  -14.4499998      -5.50515581E-20
  -14.4399996      -1.91420289E-20
  -14.4300003       3.85817459E-20
  -14.4200001       1.07746013E-19
  -14.4099998       1.69845693E-19
  -14.3999996       2.01356764E-19
  -14.3900003       1.79794647E-19
  -14.3800001       9.17154793E-20
  -14.3699999      -5.93964858E-20
  -14.3599997      -2.48107319E-19
  -14.3500004      -4.27612103E-19
  -14.3400002      -5.37639894E-19
  -14.3299999      -5.19494757E-19
  -14.3199997      -3.35535166E-19
  -14.3100004       1.19500804E-20
  -14.3000002       4.68882109E-19
  -14.2900000       9.30560508E-19
  -14.2799997       1.25932220E-18
  -14.2700005       1.31771681E-18
  -14.2600002       1.01086734E-18
  -14.2500000       3.27040434E-19
  -14.2399998      -6.36923643E-19
  -14.2299995      -1.67710104E-18
  -14.2200003      -2.51700100E-18
  -14.2100000      -2.87220704E-18
  -14.1999998      -2.53195250E-18
  -14.1899996      -1.43632324E-18
  -14.1800003       2.75389803E-19
  -14.1700001       2.26566858E-18
  -14.1599998       4.05812823E-18
  -14.1499996       5.14784067E-18
  -14.1400003       5.13823214E-18
  -14.1300001       3.86765708E-18
  -14.1199999       1.48616170E-18
  -14.1099997      -1.54772524E-18
  -14.1000004      -4.55965776E-18
  -14.0900002      -6.82445553E-18
  -14.0799999      -7.76130582E-18
  -14.0699997      -7.10227779E-18
  -14.0600004      -4.97908755E-18
  -14.0500002      -1.89342283E-18
  -14.0400000       1.42910888E-18
  -14.0299997       4.26228303E-18
  -14.0200005       6.10970572E-18
  -14.0100002       6.86098590E-18
  -14.0000000       6.80908569E-18
  -13.9899998       6.50553564E-18
  -13.9799995       6.48734593E-18
  -13.9700003       6.96387641E-18
  -13.9600000       7.58381354E-18
  -13.9499998       7.39744148E-18
  -13.9399996       5.08060784E-18
  -13.9300003      -5.94428635E-19
  -13.9200001      -1.01511770E-17
  -13.9099998      -2.28507767E-17
  -13.8999996      -3.63996296E-17
  -13.8900003      -4.71030820E-17
  -13.8800001      -5.05424096E-17
  -13.8699999      -4.27009426E-17
  -13.8599997      -2.13084753E-17
  -13.8500004       1.29481617E-17
  -13.8400002       5.57357407E-17
  -13.8299999       9.92237357E-17
  -13.8199997       1.33215413E-16
  -13.8100004       1.47157734E-16
  -13.8000002       1.32670519E-16
  -13.7900000       8.60385760E-17
  -13.7799997       1.00321160E-17
  -13.7700005      -8.55008093E-17
  -13.7600002      -1.84592990E-16
  -13.7500000      -2.67654709E-16
  -13.7399998      -3.15117194E-16
  -13.7299995      -3.11531068E-16
  -13.7200003      -2.49252415E-16
  -13.7100000      -1.30881109E-16
  -13.6999998       3.01579728E-17
  -13.6899996       2.11122803E-16
  -13.6800003       3.83345433E-16
  -13.6700001       5.16886398E-16
  -13.6599998       5.85579182E-16
  -13.6499996       5.71518117E-16
  -13.6400003       4.68192062E-16
  -13.6300001       2.81772048E-16
  -13.6199999       3.04744587E-17
  -13.6099997      -2.57716206E-16
  -13.6000004      -5.48413970E-16
  -13.5900002      -8.04662718E-16
  -13.5799999      -9.90688465E-16
  -13.5699997      -1.07526206E-15
  -13.5600004      -1.03462120E-15
  -13.5500002      -8.55080448E-16
  -13.5400000      -5.35508629E-16
  -13.5299997      -8.96998693E-17
  -13.5200005       4.51644373E-16
  -13.5100002       1.03991135E-15
  -13.5000000       1.60945704E-15
  -13.4899998       2.08127959E-15
  -13.4799995       2.37015573E-15
  -13.4700003       2.39530075E-15
  -13.4600000       2.09375851E-15
  -13.4499998       1.43488461E-15
  -13.4399996       4.33433959E-16
  -13.4300003      -8.41566197E-16
  -13.4200001      -2.26485302E-15
  -13.4099998      -3.66182296E-15
  -13.3999996      -4.82496648E-15
  -13.3900003      -5.53892208E-15
  -13.3800001      -5.61159624E-15
  -13.3699999      -4.90731333E-15
  -13.3599997      -3.37725885E-15
  -13.3500004      -1.08203102E-15
  -13.3400002       1.79805571E-15
  -13.3299999       4.96820822E-15
  -13.3199997       8.04123105E-15
  -13.3100004       1.05759102E-14
  -13.3000002       1.21286893E-14
  -13.2900000       1.23137923E-14
  -13.2799997       1.08651457E-14
  -13.2700005       7.69232971E-15
  -13.2600002       2.92231237E-15
  -13.2500000      -3.08090574E-15
  -13.2399998      -9.72508003E-15
  -13.2299995      -1.62306742E-14
  -13.2200003      -2.17043705E-14
  -13.2100000      -2.52405756E-14
  -13.1999998      -2.60420161E-14
  -13.1899996      -2.35458778E-14
  -13.1800003      -1.75386100E-14
  -13.1700001      -8.24148150E-15
  -13.1599998       3.65036980E-15
  -13.1499996       1.69876591E-14
  -13.1400003       3.02519647E-14
  -13.1300001       4.17035689E-14
  -13.1199999       4.95801215E-14
  -13.1099997       5.23260431E-14
  -13.1000004       4.88255473E-14
  -13.0900002       3.86086122E-14
  -13.0799999       2.19996581E-14
  -13.0699997       1.83075610E-16
  -13.0600004      -2.48328918E-14
  -13.0500002      -5.03607606E-14
  -13.0400000      -7.32822209E-14
  -13.0299997      -9.03822983E-14
  -13.0200005      -9.87385358E-14
  -13.0100002      -9.61246057E-14
  -13.0000000      -8.13810282E-14
  -12.9899998      -5.47016080E-14
  -12.9799995      -1.77887337E-14
  -12.9700003       2.61611631E-14
  -12.9600000       7.26648288E-14
  -12.9499998       1.16351929E-13
  -12.9399996       1.51532947E-13
  -12.9300003       1.72881173E-13
  -12.9200001       1.76153010E-13
  -12.9099998       1.58852884E-13
  -12.8999996       1.20744533E-13
  -12.8900003       6.41210107E-14
  -12.8800001      -6.22991081E-15
  -12.8699999      -8.33876289E-14
  -12.8599997      -1.58967606E-13
  -12.8500004      -2.24027584E-13
  -12.8400002      -2.70105932E-13
  -12.8299999      -2.90260979E-13
  -12.8199997      -2.79978135E-13
  -12.8100004      -2.37827417E-13
  -12.8000002      -1.65790829E-13
  -12.7900000      -6.92201220E-14
  -12.7799997       4.35629519E-14
  -12.7700005       1.61974953E-13
  -12.7600002       2.74109376E-13
  -12.7500000       3.67816048E-13
  -12.7399998       4.31832494E-13
  -12.7299995       4.56889518E-13
  -12.7200003       4.36720105E-13
  -12.7100000       3.68909764E-13
  -12.6999998       2.55521515E-13
  -12.6899996       1.03420222E-13
  -12.6800003      -7.57881984E-14
  -12.6700001      -2.66278942E-13
  -12.6599998      -4.49057377E-13
  -12.6499996      -6.03537944E-13
  -12.6400003      -7.09589126E-13
  -12.6300001      -7.49889679E-13
  -12.6199999      -7.12341210E-13
  -12.6099997      -5.92219741E-13
  -12.6000004      -3.93714710E-13
  -12.5900002      -1.30541289E-13
  -12.5799999       1.74601910E-13
  -12.5699997       4.91801695E-13
  -12.5600004       7.86815058E-13
  -12.5500002       1.02477358E-12
  -12.5400000       1.17426696E-12
  -12.5299997       1.21127002E-12
  -12.5200005       1.12237921E-12
  -12.5100002       9.06917174E-13
  -12.5000000       5.77618303E-13
  -12.4899998       1.59806684E-13
  -12.4799995      -3.10795606E-13
  -12.4700003      -7.91337427E-13
  -12.4600000      -1.23576334E-12
  -12.4499998      -1.59893832E-12
  -12.4399996      -1.84055418E-12
  -12.4300003      -1.92848970E-12
  -12.4200001      -1.84140355E-12
  -12.4099998      -1.57046056E-12
  -12.3999996      -1.12017611E-12
  -12.3900003      -5.08386681E-13
  -12.3800001       2.34607445E-13
  -12.3699999       1.06770268E-12
  -12.3599997       1.94144071E-12
  -12.3500004       2.80118832E-12
  -12.3400002       3.59093181E-12
  -12.3299999       4.25750147E-12
  -12.3199997       4.75485927E-12
  -12.3100004       5.04805876E-12
  -12.3000002       5.11640079E-12
  -12.2900000       4.95528618E-12
  -12.2799997       4.57650411E-12
  -12.2700005       4.00675023E-12
  -12.2600002       3.28453410E-12
  -12.2500000       2.45581095E-12
  -12.2399998       1.56888077E-12
  -12.2299995       6.69275616E-13
  -12.2200003      -2.04717970E-13
  -12.2100000      -1.02541651E-12
  -12.1999998      -1.77752409E-12
  -12.1899996      -2.45834256E-12
  -12.1800003      -3.07663031E-12
  -12.1700001      -3.65039552E-12
  -12.1599998      -4.20410018E-12
  -12.1499996      -4.76572601E-12
  -12.1400003      -5.36403907E-12
  -12.1300001      -6.02613966E-12
  -12.1199999      -6.77534764E-12
  -12.1099997      -7.62935548E-12
  -12.1000004      -8.59837462E-12
  -12.0900002      -9.68335308E-12
  -12.0799999      -1.08741618E-11
  -12.0699997      -1.21480603E-11
  -12.0600004      -1.34687443E-11
  -12.0500002      -1.47863232E-11
  -12.0400000      -1.60386218E-11
  -12.0299997      -1.71539311E-11
  -12.0200005      -1.80551372E-11
  -12.0100002      -1.86648457E-11
  -12.0000000      -1.89110585E-11
  -11.9899998      -1.87325693E-11
  -11.9799995      -1.80833664E-11
  -11.9700003      -1.69356890E-11
  -11.9600000      -1.52813005E-11
  -11.9499998      -1.31312808E-11
  -11.9399996      -1.05141711E-11
  -11.9300003      -7.47381410E-12
  -11.9200001      -4.06667235E-12
  -11.9099998      -3.59558412E-13
  -11.8999996       3.57228396E-12
  -11.8900003       7.64646766E-12
  -11.8800001       1.17752483E-11
  -11.8699999       1.58671323E-11
  -11.8599997       1.98299085E-11
  -11.8500004       2.35747567E-11
  -11.8400002       2.70214268E-11
  -11.8299999       3.01040616E-11
  -11.8199997       3.27767466E-11
  -11.8100004       3.50182661E-11
  -11.8000002       3.68345285E-11
  -11.7900000       3.82580009E-11
  -11.7799997       3.93443750E-11
  -11.7700005       4.01660857E-11
  -11.7600002       4.08041483E-11
  -11.7500000       4.13383112E-11
  -11.7399998       4.18378596E-11
  -11.7299995       4.23535373E-11
  -11.7200003       4.29115944E-11
  -11.7100000       4.35104869E-11
  -11.6999998       4.41200375E-11
  -11.6899996       4.46832744E-11
  -11.6800003       4.51199286E-11
  -11.6700001       4.53312700E-11
  -11.6599998       4.52060611E-11
  -11.6499996       4.46272741E-11
  -11.6400003       4.34785888E-11
  -11.6300001       4.16522303E-11
  -11.6199999       3.90557552E-11
  -11.6099997       3.56191708E-11
  -11.6000004       3.13008994E-11
  -11.5900002       2.60921042E-11
  -11.5799999       2.00195364E-11
  -11.5699997       1.31449504E-11
  -11.5600004       5.56278417E-12
  -11.5500002      -2.60538292E-12
  -11.5400000      -1.12177993E-11
  -11.5299997      -2.01204262E-11
  -11.5200005      -2.91555079E-11
  -11.5100002      -3.81690859E-11
  -11.5000000      -4.70170118E-11
  -11.4899998      -5.55706002E-11
  -11.4799995      -6.37188219E-11
  -11.4700003      -7.13719778E-11
  -11.4600000      -7.84623477E-11
  -11.4499998      -8.49454604E-11
  -11.4399996      -9.08003533E-11
  -11.4300003      -9.60300034E-11
  -11.4200001      -1.00660140E-10
  -11.4099998      -1.04737267E-10
  -11.3999996      -1.08325265E-10
  -11.3900003      -1.11499733E-10
  -11.3800001      -1.14341675E-10
  -11.3699999      -1.16929896E-10
  -11.3599997      -1.19333640E-10
  -11.3500004      -1.21605753E-10
  -11.3400002      -1.23777946E-10
  -11.3299999      -1.25857783E-10
  -11.3199997      -1.27828748E-10
  -11.3100004      -1.29651151E-10
  -11.3000002      -1.31267289E-10
  -11.2900000      -1.32604858E-10
  -11.2799997      -1.33582409E-10
  -11.2700005      -1.34113512E-10
  -11.2600002      -1.34110709E-10
  -11.2500000      -1.33487832E-10
  -11.2399998      -1.32162961E-10
  -11.2299995      -1.30059158E-10
  -11.2200003      -1.27106534E-10
  -11.2100000      -1.23245206E-10
  -11.1999998      -1.18427032E-10
  -11.1899996      -1.12621489E-10
  -11.1800003      -1.05816710E-10
  -11.1700001      -9.80258374E-11
  -11.1599998      -8.92858149E-11
  -11.1499996      -7.96606739E-11
  -11.1400003      -6.92380042E-11
  -11.1300001      -5.81253899E-11
  -11.1199999      -4.64439008E-11
  -11.1099997      -3.43195923E-11
  -11.1000004      -2.18769291E-11
  -11.0900002      -9.22962748E-12
  -11.0799999       3.52431647E-12
  -11.0699997       1.63059011E-11
  -11.0600004       2.90578915E-11
  -11.0500002       4.17436224E-11
  -11.0400000       5.43420899E-11
  -11.0299997       6.68461259E-11
  -11.0200005       7.92601609E-11
  -11.0100002       9.15912762E-11
  -11.0000000       1.03856868E-10
  -10.9899998       1.16076523E-10
  -10.9799995       1.28277736E-10
  -10.9700003       1.40496073E-10
  -10.9600000       1.52776888E-10
  -10.9499998       1.65173430E-10
  -10.9399996       1.77747025E-10
  -10.9300003       1.90564231E-10
  -10.9200001       2.03688108E-10
  -10.9099998       2.17176138E-10
  -10.8999996       2.31074743E-10
  -10.8900003       2.45412607E-10
  -10.8800001       2.60200972E-10
  -10.8699999       2.75434925E-10
  -10.8599997       2.91090901E-10
  -10.8500004       3.07135983E-10
  -10.8400002       3.23526844E-10
  -10.8299999       3.40219408E-10
  -10.8199997       3.57167740E-10
  -10.8100004       3.74331233E-10
  -10.8000002       3.91672444E-10
  -10.7900000       4.09157846E-10
  -10.7799997       4.26753910E-10
  -10.7700005       4.44428605E-10
  -10.7600002       4.62151123E-10
  -10.7500000       4.79885742E-10
  -10.7399998       4.97595465E-10
  -10.7299995       5.15243015E-10
  -10.7200003       5.32790423E-10
  -10.7100000       5.50203716E-10
  -10.6999998       5.67451530E-10
  -10.6899996       5.84509552E-10
  -10.6800003       6.01358463E-10
  -10.6700001       6.17989382E-10
  -10.6599998       6.34401531E-10
  -10.6499996       6.50602017E-10
  -10.6400003       6.66606548E-10
  -10.6300001       6.82444157E-10
  -10.6199999       6.98150315E-10
  -10.6099997       7.13774650E-10
  -10.6000004       7.29377392E-10
  -10.5900002       7.45026929E-10
  -10.5799999       7.60801311E-10
  -10.5699997       7.76781528E-10
  -10.5600004       7.93046739E-10
  -10.5500002       8.09666334E-10
  -10.5400000       8.26698654E-10
  -10.5299997       8.44178949E-10
  -10.5200005       8.62120098E-10
  -10.5100002       8.80507389E-10
  -10.5000000       8.99300800E-10
  -10.4899998       9.18436494E-10
  -10.4799995       9.37829037E-10
  -10.4700003       9.57380397E-10
  -10.4600000       9.76981385E-10
  -10.4499998       9.96517757E-10
  -10.4399996       1.01587283E-09
  -10.4300003       1.03492959E-09
  -10.4200001       1.05357123E-09
  -10.4099998       1.07168052E-09
  -10.3999996       1.08913867E-09
  -10.3900003       1.10582454E-09
  -10.3800001       1.12161636E-09
  -10.3699999       1.13639265E-09
  -10.3599997       1.15003596E-09
  -10.3500004       1.16244026E-09
  -10.3400002       1.17351462E-09
  -10.3299999       1.18319399E-09
  -10.3199997       1.19144461E-09
  -10.3100004       1.19827048E-09
  -10.3000002       1.20371657E-09
  -10.2900000       1.20786825E-09
  -10.2799997       1.21084631E-09
  -10.2700005       1.21279964E-09
  -10.2600002       1.21389332E-09
  -10.2500000       1.21429711E-09
  -10.2399998       1.21417421E-09
  -10.2299995       1.21367250E-09
  -10.2200003       1.21292221E-09
  -10.2100000       1.21203458E-09
  -10.1999998       1.21110810E-09
  -10.1899996       1.21023436E-09
  -10.1800003       1.20950761E-09
  -10.1700001       1.20903243E-09
  -10.1599998       1.20892818E-09
  -10.1499996       1.20932719E-09
  -10.1400003       1.21036892E-09
  -10.1300001       1.21219512E-09
  -10.1199999       1.21493648E-09
  -10.1099997       1.21870314E-09
  -10.1000004       1.22357302E-09
  -10.0900002       1.22958554E-09
  -10.0799999       1.23673494E-09
  -10.0699997       1.24498312E-09
  -10.0600004       1.25424804E-09
  -10.0500002       1.26442279E-09
  -10.0400000       1.27537891E-09
  -10.0299997       1.28698230E-09
  -10.0200005       1.29908828E-09
  -10.0100002       1.31157363E-09
  -10.0000000       1.32431976E-09
  -9.98999977       1.33722944E-09
  -9.97999954       1.35023104E-09
  -9.97000027       1.36326916E-09
  -9.96000004       1.37630596E-09
  -9.94999981       1.38932776E-09
  -9.93999958       1.40232659E-09
  -9.93000031       1.41530110E-09
  -9.92000008       1.42826484E-09
  -9.90999985       1.44123613E-09
  -9.89999962       1.45424461E-09
  -9.89000034       1.46733814E-09
  -9.88000011       1.48058588E-09
  -9.86999989       1.49407531E-09
  -9.85999966       1.50793111E-09
  -9.85000038       1.52229729E-09
  -9.84000015       1.53735569E-09
  -9.82999992       1.55329660E-09
  -9.81999969       1.57033408E-09
  -9.81000042       1.58870184E-09
  -9.80000019       1.60861591E-09
  -9.78999996       1.63030256E-09
  -9.77999973       1.65397329E-09
  -9.77000046       1.67982306E-09
  -9.76000023       1.70800574E-09
  -9.75000000       1.73864556E-09
  -9.73999977       1.77182591E-09
  -9.72999954       1.80756987E-09
  -9.72000027       1.84585314E-09
  -9.71000004       1.88660798E-09
  -9.69999981       1.92970684E-09
  -9.68999958       1.97498018E-09
  -9.68000031       2.02223838E-09
  -9.67000008       2.07126249E-09
  -9.65999985       2.12182005E-09
  -9.64999962       2.17366214E-09
  -9.64000034       2.22653873E-09
  -9.63000011       2.28017294E-09
  -9.61999989       2.33425923E-09
  -9.60999966       2.38846853E-09
  -9.60000038       2.44242959E-09
  -9.59000015       2.49572207E-09
  -9.57999992       2.54792409E-09
  -9.56999969       2.59857158E-09
  -9.56000042       2.64720379E-09
  -9.55000019       2.69337930E-09
  -9.53999996       2.73668532E-09
  -9.52999973       2.77677459E-09
  -9.52000046       2.81335955E-09
  -9.51000023       2.84623014E-09
  -9.50000000       2.87525492E-09
  -9.48999977       2.90037350E-09
  -9.47999954       2.92161428E-09
  -9.47000027       2.93903679E-09
  -9.46000004       2.95279134E-09
  -9.44999981       2.96304159E-09
  -9.43999958       2.97001002E-09
  -9.43000031       2.97394331E-09
  -9.42000008       2.97511171E-09
  -9.40999985       2.97381963E-09
  -9.39999962       2.97041258E-09
  -9.39000034       2.96527003E-09
  -9.38000011       2.95882585E-09
  -9.36999989       2.95158209E-09
  -9.35999966       2.94409097E-09
  -9.35000038       2.93696334E-09
  -9.34000015       2.93086955E-09
  -9.32999992       2.92648972E-09
  -9.31999969       2.92454305E-09
  -9.31000042       2.92576785E-09
  -9.30000019       2.93086422E-09
  -9.28999996       2.94051250E-09
  -9.27999973       2.95535640E-09
  -9.27000046       2.97597280E-09
  -9.26000023       3.00289016E-09
  -9.25000000       3.03656078E-09
  -9.23999977       3.07738390E-09
  -9.22999954       3.12569215E-09
  -9.22000027       3.18172355E-09
  -9.21000004       3.24564997E-09
  -9.19999981       3.31758621E-09
  -9.18999958       3.39757311E-09
  -9.18000031       3.48558382E-09
  -9.17000008       3.58152996E-09
  -9.15999985       3.68526498E-09
  -9.14999962       3.79660570E-09
  -9.14000034       3.91529476E-09
  -9.13000011       4.04101774E-09
  -9.11999989       4.17338653E-09
  -9.10999966       4.31193925E-09
  -9.10000038       4.45612702E-09
  -9.09000015       4.60533789E-09
  -9.07999992       4.75885287E-09
  -9.06999969       4.91593477E-09
  -9.06000042       5.07570030E-09
  -9.05000019       5.23730526E-09
  -9.03999996       5.39979927E-09
  -9.02999973       5.56223068E-09
  -9.02000046       5.72364556E-09
  -9.01000023       5.88304916E-09
  -9.00000000       6.03951511E-09
  -8.98999977       6.19207929E-09
  -8.97999954       6.33987129E-09
  -8.97000027       6.48202825E-09
  -8.96000004       6.61774546E-09
  -8.94999981       6.74629419E-09
  -8.93999958       6.86698254E-09
  -8.93000031       6.97917013E-09
  -8.92000008       7.08230719E-09
  -8.90999985       7.17581328E-09
  -8.89999962       7.25921057E-09
  -8.89000034       7.33210026E-09
  -8.88000011       7.39401784E-09
  -8.86999989       7.44472128E-09
  -8.85999966       7.48393258E-09
  -8.85000038       7.51149543E-09
  -8.84000015       7.52736895E-09
  -8.82999992       7.53153895E-09
  -8.81999969       7.52412532E-09
  -8.81000042       7.50535012E-09
  -8.80000019       7.47547180E-09
  -8.78999996       7.43485495E-09
  -8.77999973       7.38393169E-09
  -8.77000046       7.32328687E-09
  -8.76000023       7.25346627E-09
  -8.75000000       7.17516047E-09
  -8.73999977       7.08910441E-09
  -8.72999954       6.99606240E-09
  -8.72000027       6.89689772E-09
  -8.71000004       6.79244305E-09
  -8.69999981       6.68357325E-09
  -8.68999958       6.57115384E-09
  -8.68000031       6.45600418E-09
  -8.67000008       6.33897779E-09
  -8.65999985       6.22087226E-09
  -8.64999962       6.10238482E-09
  -8.64000034       5.98420868E-09
  -8.63000011       5.86696425E-09
  -8.61999989       5.75122039E-09
  -8.60999966       5.63744385E-09
  -8.60000038       5.52608315E-09
  -8.59000015       5.41746470E-09
  -8.57999992       5.31190159E-09
  -8.56999969       5.20963983E-09
  -8.56000042       5.11088460E-09
  -8.55000019       5.01584285E-09
  -8.53999996       4.92468599E-09
  -8.52999973       4.83756901E-09
  -8.52000046       4.75464246E-09
  -8.51000023       4.67600847E-09
  -8.50000000       4.60173899E-09
  -8.48999977       4.53194238E-09
  -8.47999954       4.46663861E-09
  -8.47000027       4.40581660E-09
  -8.46000004       4.34940350E-09
  -8.44999981       4.29731983E-09
  -8.43999958       4.24945279E-09
  -8.43000031       4.20567670E-09
  -8.42000008       4.16579171E-09
  -8.40999985       4.12971035E-09
  -8.39999962       4.09725764E-09
  -8.39000034       4.06832124E-09
  -8.38000011       4.04283140E-09
  -8.36999989       4.02077882E-09
  -8.35999966       4.00209110E-09
  -8.35000038       3.98684286E-09
  -8.34000015       3.97506295E-09
  -8.32999992       3.96688282E-09
  -8.31999969       3.96243882E-09
  -8.31000042       3.96187527E-09
  -8.30000019       3.96539690E-09
  -8.28999996       3.97322397E-09
  -8.27999973       3.98562250E-09
  -8.27000046       4.00284650E-09
  -8.26000023       4.02519351E-09
  -8.25000000       4.05296552E-09
  -8.23999977       4.08650935E-09
  -8.22999954       4.12615808E-09
  -8.22000027       4.17228785E-09
  -8.21000004       4.22523350E-09
  -8.19999981       4.28541114E-09
  -8.18999958       4.35317515E-09
  -8.18000031       4.42894432E-09
  -8.17000008       4.51310855E-09
  -8.15999985       4.60612837E-09
  -8.14999962       4.70837680E-09
  -8.14000034       4.82027174E-09
  -8.13000011       4.94210406E-09
  -8.11999989       5.07422770E-09
  -8.10999966       5.21683896E-09
  -8.10000038       5.37021272E-09
  -8.09000015       5.53445823E-09
  -8.07999992       5.70968073E-09
  -8.06999969       5.89582028E-09
  -8.06000042       6.09287198E-09
  -8.05000019       6.30065555E-09
  -8.03999996       6.51901999E-09
  -8.02999973       6.74762779E-09
  -8.02000046       6.98615255E-09
  -8.01000023       7.23419769E-09
  -8.00000000       7.49128493E-09
  -7.98999977       7.75692577E-09
  -7.98000002       8.03053712E-09
  -7.96999979       8.31151148E-09
  -7.96000004       8.59917382E-09
  -7.94999981       8.89282958E-09
  -7.94000006       9.19174958E-09
  -7.92999983       9.49525436E-09
  -7.92000008       9.80254367E-09
  -7.90999985       1.01129594E-08
  -7.90000010       1.04257216E-08
  -7.88999987       1.07400986E-08
  -7.88000011       1.10554872E-08
  -7.86999989       1.13711822E-08
  -7.86000013       1.16865353E-08
  -7.84999990       1.20009682E-08
  -7.84000015       1.23138522E-08
  -7.82999992       1.26246684E-08
  -7.82000017       1.29328175E-08
  -7.80999994       1.32377727E-08
  -7.80000019       1.35390694E-08
  -7.78999996       1.38362468E-08
  -7.78000021       1.41288385E-08
  -7.76999998       1.44164511E-08
  -7.76000023       1.46987382E-08
  -7.75000000       1.49753223E-08
  -7.73999977       1.52460036E-08
  -7.73000002       1.55105617E-08
  -7.71999979       1.57688067E-08
  -7.71000004       1.60206142E-08
  -7.69999981       1.62659610E-08
  -7.69000006       1.65047833E-08
  -7.67999983       1.67371201E-08
  -7.67000008       1.69630621E-08
  -7.65999985       1.71827779E-08
  -7.65000010       1.73964807E-08
  -7.63999987       1.76043446E-08
  -7.63000011       1.78067019E-08
  -7.61999989       1.80039237E-08
  -7.61000013       1.81964008E-08
  -7.59999990       1.83845561E-08
  -7.59000015       1.85688247E-08
  -7.57999992       1.87497236E-08
  -7.57000017       1.89276754E-08
  -7.55999994       1.91032328E-08
  -7.55000019       1.92769996E-08
  -7.53999996       1.94495069E-08
  -7.53000021       1.96213321E-08
  -7.51999998       1.97930454E-08
  -7.51000023       1.99652526E-08
  -7.50000000       2.01384562E-08
  -7.48999977       2.03133563E-08
  -7.48000002       2.04904254E-08
  -7.46999979       2.06700932E-08
  -7.46000004       2.08529993E-08
  -7.44999981       2.10395790E-08
  -7.44000006       2.12303188E-08