  -16.0000000       0.00000000    
  -15.9899998       0.00000000    
  -15.9799995       0.00000000    
  -15.9700003       0.00000000    
  -15.9600000       0.00000000    
  -15.9499998       0.00000000    
  -15.9399996       0.00000000    
  -15.9300003       0.00000000    
  -15.9200001       0.00000000    
  -15.9099998       0.00000000    
  -15.8999996       0.00000000    
  -15.8900003       0.00000000    
  -15.8800001       0.00000000    
  -15.8699999       0.00000000    
  -15.8599997      -0.00000000    
  -15.8500004      -0.00000000    
  -15.8400002      -0.00000000    
  -15.8299999      -4.20389539E-45
  -15.8199997      -1.40129846E-44
  -15.8100004       9.80908925E-45
  -15.8000002       6.81031054E-43
  -15.7900000       6.52584695E-42
  -15.7799997       4.25938681E-41
  -15.7700005       2.21640576E-40
  -15.7600002       9.72882287E-40
  -15.7500000       3.70786657E-39
  -15.7399998       1.24853928E-38
  -15.7299995       3.75646808E-38
  -15.7200003       1.01713518E-37
  -15.7100000       2.48823636E-37
  -15.6999998       5.50266231E-37
  -15.6899996       1.09610167E-36
  -15.6800003       1.94647289E-36
  -15.6700001       3.00941585E-36
  -15.6599998       3.81960402E-36
  -15.6499996       3.24060166E-36
  -15.6400003      -7.78868143E-37
  -15.6300001      -1.11012793E-35
  -15.6199999      -3.04994321E-35
  -15.6099997      -5.94985821E-35
  -15.6000004      -9.28403142E-35
  -15.5900002      -1.15303713E-34
  -15.5799999      -9.89677163E-35
  -15.5699997      -5.40903252E-36
  -15.5600004       2.03091353E-34
  -15.5500002       5.40652188E-34
  -15.5400000       9.64619756E-34
  -15.5299997       1.33980789E-33
  -15.5200005       1.41423569E-33
  -15.5100002       8.24430943E-34
  -15.5000000      -8.49870477E-34
  -15.4899998      -3.95644472E-33
  -15.4799995      -8.52367778E-33
  -15.4700003      -1.38251977E-32
  -15.4600000      -1.76913105E-32
  -15.4499998      -1.56531825E-32
  -15.4399996      -4.55581341E-34
  -15.4300003       3.67160047E-32
  -15.4200001       1.01091844E-31
  -15.4099998       1.83162485E-31
  -15.3999996       2.42208589E-31
  -15.3900003       1.92318881E-31
  -15.3800001      -9.04180968E-32
  -15.3699999      -7.11840023E-31
  -15.3599997      -1.63251715E-30
  -15.3500004      -2.48402006E-30
  -15.3400002      -2.42110854E-30
  -15.3299999      -2.03540702E-31
  -15.3199997       5.24033576E-30
  -15.3100004       1.36164391E-29
  -15.3000002       2.16628209E-29
  -15.2900000       2.20485230E-29
  -15.2799997       4.41746037E-30
  -15.2700005      -3.95733796E-29
  -15.2600002      -1.06550883E-28
  -15.2500000      -1.69613184E-28
  -15.2399998      -1.71897060E-28
  -15.2299995      -3.74381492E-29
  -15.2200003       2.89207174E-28
  -15.2100000       7.73643122E-28
  -15.1999998       1.21497281E-27
  -15.1899996       1.21530474E-27
  -15.1800003       2.71331198E-28
  -15.1700001      -1.94987118E-27
  -15.1599998      -5.16616302E-27
  -15.1499996      -8.02946155E-27
  -15.1400003      -8.00667857E-27
  -15.1300001      -2.02805546E-27
  -15.1199999       1.17938080E-26
  -15.1099997       3.15617825E-26
  -15.1000004       4.91323834E-26
  -15.0900002       4.97186765E-26
  -15.0799999       1.58549810E-26
  -15.0699997      -6.28980617E-26
  -15.0600004      -1.75884711E-25
  -15.0500002      -2.78630873E-25
  -15.0400000      -2.91490637E-25
  -15.0299997      -1.20985760E-25
  -15.0200005       2.90098174E-25
  -15.0100002       8.91766430E-25
  -15.0000000       1.46373318E-24
  -14.9899998       1.60853127E-24
  -14.9799995       8.53650347E-25
  -14.9700003      -1.11050750E-24
  -14.9600000      -4.09490951E-24
  -14.9499998      -7.10999624E-24
  -14.9399996      -8.31493867E-24
  -14.9300003      -5.45336270E-24
  -14.9200001       3.10321945E-24
  -14.9099998       1.68606728E-23
  -14.8999996       3.18086955E-23
  -14.8900003       4.00442488E-23
  -14.8800001       3.14152591E-23
  -14.8699999      -2.25681607E-24
  -14.8599997      -6.09178523E-23
  -14.8500004      -1.30113405E-22
  -14.8400002      -1.78531958E-22
  -14.8299999      -1.63348822E-22
  -14.8199997      -4.59278542E-23
  -14.8100004       1.83609155E-22
  -14.8000002       4.80429973E-22
  -14.7900000       7.31047170E-22
  -14.7799997       7.67253992E-22
  -14.7700005       4.19242438E-22
  -14.7600002      -3.94515145E-22
  -14.7500000      -1.56439392E-21
  -14.7399998      -2.71990314E-21
  -14.7299995      -3.25137335E-21
  -14.7200003      -2.47031331E-21
  -14.7100000       8.68608495E-23
  -14.6999998       4.27823144E-21
  -14.6899996       9.04580565E-21
  -14.6800003       1.23754588E-20
  -14.6700001       1.17117983E-20
  -14.6599998       4.89379761E-21
  -14.6499996      -8.54359150E-21
  -14.6400003      -2.61276031E-20
  -14.6300001      -4.19070539E-20
  -14.6199999      -4.72781606E-20
  -14.6099997      -3.35556543E-20
  -14.6000004       3.95853906E-21
  -14.5900002       6.15068174E-20
  -14.5799999       1.23892307E-19
  -14.5699997       1.65182346E-19
  -14.5600004       1.54754610E-19
  -14.5500002       6.87401435E-20
  -14.5400000      -9.55346755E-20
  -14.5299997      -3.07108406E-19
  -14.5200005      -4.97586413E-19
  -14.5100002      -5.72076095E-19
  -14.5000000      -4.37395427E-19
  -14.4899998      -4.36843613E-20
  -14.4799995       5.72241170E-19
  -14.4700003       1.25981386E-18
  -14.4600000       1.76343305E-18
  -14.4499998       1.78020786E-18
  -14.4399996       1.06509895E-18
  -14.4300003      -4.39069537E-19
  -14.4200001      -2.48997929E-18
  -14.4099998      -4.50746474E-18
  -14.3999996      -5.65708490E-18
  -14.3900003      -5.07509013E-18
  -14.3800001      -2.20454283E-18
  -14.3699999       2.84590022E-18
  -14.3599997       9.05548366E-18
  -14.3500004       1.45030371E-17
  -14.3400002       1.67394622E-17
  -14.3299999       1.35219736E-17
  -14.3199997       3.76880899E-18
  -14.3100004      -1.15491470E-17
  -14.3000002      -2.89495380E-17
  -14.2900000      -4.27574589E-17
  -14.2799997      -4.63797953E-17
  -14.2700005      -3.44151174E-17
  -14.2600002      -5.11839759E-18
  -14.2500000       3.75689883E-17
  -14.2399998       8.33363225E-17
  -14.2299995       1.16904152E-16
  -14.2200003       1.21735853E-16
  -14.2100000       8.55198146E-17
  -14.1999998       6.05401124E-18
  -14.1899996      -1.04440651E-16
  -14.1800003      -2.18642987E-16
  -14.1700001      -2.98533242E-16
  -14.1599998      -3.04983795E-16
  -14.1499996      -2.10858714E-16
  -14.1400003      -1.41920900E-17
  -14.1300001       2.53070522E-16
  -14.1199999       5.25121199E-16
  -14.1099997       7.13775183E-16
  -14.1000004       7.30922994E-16
  -14.0900002       5.17640469E-16
  -14.0799999       7.21826125E-17
  -14.0699997      -5.32718767E-16
  -14.0600004      -1.15193177E-15
  -14.0500002      -1.59402368E-15
  -14.0400000      -1.66941935E-15
  -14.0299997      -1.25096517E-15
  -14.0200005      -3.30746117E-16
  -14.0100002       9.45879892E-16
  -14.0000000       2.28553968E-15
  -13.9899998       3.29948767E-15
  -13.9799995       3.59873891E-15
  -13.9700003       2.91233263E-15
  -13.9600000       1.19770459E-15
  -13.9499998      -1.29247148E-15
  -13.9399996      -4.01713591E-15
  -13.9300003      -6.24160537E-15
  -13.9200001      -7.21076692E-15
  -13.9099998      -6.36549072E-15
  -13.8999996      -3.54686216E-15
  -13.8900003       8.74683385E-16
  -13.8800001       5.99821172E-15
  -13.8699999       1.05442905E-14
  -13.8599997       1.31448197E-14
  -13.8500004       1.27121341E-14
  -13.8400002       8.79514035E-15
  -13.8299999       1.81793875E-15
  -13.8199997      -6.88740489E-15
  -13.8100004      -1.52973219E-14
  -13.8000002      -2.11410987E-14
  -13.7900000      -2.24829395E-14
  -13.7799997      -1.82982681E-14
  -13.7700005      -8.88117264E-15
  -13.7600002       4.05524901E-15
  -13.7500000       1.76556208E-14
  -13.7399998       2.85477683E-14
  -13.7299995       3.36854602E-14
  -13.7200003       3.11981886E-14
  -13.7100000       2.10098984E-14
  -13.6999998       5.02663613E-15
  -13.6899996      -1.32054080E-14
  -13.6800003      -2.93278653E-14
  -13.6700001      -3.92941024E-14
  -13.6599998      -4.04921424E-14
  -13.6499996      -3.25390620E-14
  -13.6400003      -1.74839781E-14
  -13.6300001       6.91804260E-16
  -13.6199999       1.71854006E-14
  -13.6099997       2.78034635E-14
  -13.6000004       3.02918159E-14
  -13.5900002       2.51268021E-14
  -13.5799999       1.54534266E-14
  -13.5699997       6.09444652E-15
  -13.5600004       1.85041018E-15
  -13.5500002       5.57807703E-15
  -13.5400000       1.66827493E-14
  -13.5299997       3.06238392E-14
  -13.5200005       3.97947632E-14
  -13.5100002       3.57419714E-14
  -13.5000000       1.22340043E-14
  -13.4899998      -3.16844803E-14
  -13.4799995      -8.96853867E-14
  -13.4700003      -1.48095999E-13
  -13.4600000      -1.88243017E-13
  -13.4499998      -1.90996172E-13
  -13.4399996      -1.42581544E-13
  -13.4300003      -4.01636766E-14
  -13.4200001       1.04525865E-13
  -13.4099998       2.64981965E-13
  -13.3999996       4.03879024E-13
  -13.3900003       4.80852554E-13
  -13.3800001       4.62632862E-13
  -13.3699999       3.33146298E-13
  -13.3599997       1.00831615E-13
  -13.3500004      -1.99238250E-13
  -13.3400002      -5.09770503E-13
  -13.3299999      -7.61975118E-13
  -13.3199997      -8.90651051E-13
  -13.3100004      -8.50294769E-13
  -13.3000002      -6.28248321E-13
  -13.2900000      -2.51232249E-13
  -13.2799997       2.17020222E-13
  -13.2700005       6.87234124E-13
  -13.2600002       1.06304180E-12
  -13.2500000       1.26233139E-12
  -13.2399998       1.23639770E-12
  -13.2299995       9.82058293E-13
  -13.2200003       5.43455634E-13
  -13.2100000       2.77083472E-15
  -13.1999998      -5.38076907E-13
  -13.1899996      -9.80273480E-13
  -13.1800003      -1.24974304E-12
  -13.1700001      -1.31205778E-12
  -13.1599998      -1.17689452E-12
  -13.1499996      -8.91166535E-13
  -13.1400003      -5.23136276E-13
  -13.1300001      -1.42398707E-13
  -13.1199999       1.98185991E-13
  -13.1099997       4.73130595E-13
  -13.1000004       6.84367276E-13
  -13.0900002       8.50947242E-13
  -13.0799999       9.92146469E-13
  -13.0699997       1.11025468E-12
  -13.0600004       1.17995815E-12
  -13.0500002       1.14963171E-12
  -13.0400000       9.56267075E-13
  -13.0299997       5.51149946E-13
  -13.0200005      -7.09350927E-14
  -13.0100002      -8.48816297E-13
  -13.0000000      -1.64808792E-12
  -12.9899998      -2.27679724E-12
  -12.9799995      -2.52436700E-12
  -12.9700003      -2.21745929E-12
  -12.9600000      -1.28017031E-12
  -12.9499998       2.17793069E-13
  -12.9399996       2.04096440E-12
  -12.9300003       3.80725963E-12
  -12.9200001       5.04908355E-12
  -12.9099998       5.30860468E-12
  -12.8999996       4.24954256E-12
  -12.8900003       1.76112976E-12
  -12.8800001      -1.97131591E-12
  -12.8699999      -6.45004493E-12
  -12.8599997      -1.09132555E-11
  -12.8500004      -1.44451118E-11
  -12.8400002      -1.61304546E-11
  -12.8299999      -1.52264486E-11
  -12.8199997      -1.13185841E-11
  -12.8100004      -4.43052886E-12
  -12.8000002       4.93351627E-12
  -12.7900000       1.58219236E-11
  -12.7799997       2.69372424E-11
  -12.7700005       3.67868722E-11
  -12.7600002       4.38564775E-11
  -12.7500000       4.67795802E-11
  -12.7399998       4.44829867E-11
  -12.7299995       3.62982248E-11
  -12.7200003       2.20393807E-11
  -12.7100000       2.05622043E-12
  -12.6999998      -2.27279359E-11
  -12.6899996      -5.07884221E-11
  -12.6800003      -7.99871974E-11
  -12.6700001      -1.07594267E-10
  -12.6599998      -1.30369812E-10
  -12.6499996      -1.44735696E-10
  -12.6400003      -1.47057699E-10
  -12.6300001      -1.34040876E-10
  -12.6199999      -1.03215332E-10
  -12.6099997      -5.34617628E-11
  -12.6000004       1.44961439E-11
  -12.5900002       9.77164877E-11
  -12.5799999       1.90861812E-10
  -12.5699997       2.86280444E-10
  -12.5600004       3.74374115E-10
  -12.5500002       4.44242310E-10
  -12.5400000       4.84555895E-10
  -12.5299997       4.84585261E-10
  -12.5200005       4.35294745E-10
  -12.5100002       3.30416944E-10
  -12.5000000       1.67435593E-10
  -12.4899998      -5.15782625E-11
  -12.4799995      -3.19308080E-10
  -12.4700003      -6.22738805E-10
  -12.4600000      -9.42936951E-10
  -12.4499998      -1.25509958E-09
  -12.4399996      -1.52892787E-09
  -12.4300003      -1.72938819E-09
  -12.4200001      -1.81792525E-09
  -12.4099998      -1.75415682E-09
  -12.3999996      -1.49804635E-09
  -12.3900003      -1.01247399E-09
  -12.3800001      -2.66062367E-10
  -12.3699999       7.63949681E-10
  -12.3599997       2.08903828E-09
  -12.3500004       3.70718012E-09
  -12.3400002       5.60131719E-09
  -12.3299999       7.73866393E-09
  -12.3199997       1.00709121E-08
  -12.3100004       1.25353381E-08
  -12.3000002       1.50566795E-08
  -12.2900000       1.75496186E-08
  -12.2799997       1.99217229E-08
  -12.2700005       2.20765983E-08
  -12.2600002       2.39171527E-08
  -12.2500000       2.53488590E-08
  -12.2399998       2.62828710E-08
  -12.2299995       2.66390696E-08
  -12.2200003       2.63487987E-08
  -12.2100000       2.53573997E-08
  -12.1999998       2.36262672E-08
  -12.1899996       2.11344737E-08
  -12.1800003       1.78796675E-08
  -12.1700001       1.38783030E-08
  -12.1599998       9.16503939E-09
  -12.1499996       3.79140186E-09
  -12.1400003      -2.17613771E-09
  -12.1300001      -8.65860272E-09
  -12.1199999      -1.55671191E-08
  -12.1099997      -2.28055921E-08
  -12.1000004      -3.02731351E-08
  -12.0900002      -3.78661795E-08
  -12.0799999      -4.54802525E-08
  -12.0699997      -5.30113589E-08
  -12.0600004      -6.03570811E-08
  -12.0500002      -6.74174743E-08
  -12.0400000      -7.40958086E-08
  -12.0299997      -8.02992375E-08
  -12.0200005      -8.59393339E-08
  -12.0100002      -9.09325948E-08
  -12.0000000      -9.52005834E-08
  -11.9899998      -9.86699789E-08
  -11.9799995      -1.01272349E-07
  -11.9700003      -1.02943758E-07
  -11.9600000      -1.03624323E-07
  -11.9499998      -1.03257918E-07
  -11.9399996      -1.01792210E-07
  -11.9300003      -9.91792390E-08
  -11.9200001      -9.53764143E-08
  -11.9099998      -9.03482658E-08
  -11.8999996      -8.40683256E-08
  -11.8900003      -7.65216512E-08
  -11.8800001      -6.77068783E-08
  -11.8699999      -5.76383137E-08
  -11.8599997      -4.63470506E-08
  -11.8500004      -3.38815838E-08
  -11.8400002      -2.03077253E-08
  -11.8299999      -5.70731329E-09
  -11.8199997       9.82327730E-09
  -11.8100004       2.61750035E-08
  -11.8000002       4.32284040E-08
  -11.7900000       6.08558182E-08
  -11.7799997       7.89230867E-08
  -11.7700005       9.72912346E-08
  -11.7600002       1.15817926E-07
  -11.7500000       1.34358388E-07
  -11.7399998       1.52766333E-07
  -11.7299995       1.70894651E-07
  -11.7200003       1.88595848E-07
  -11.7100000       2.05722259E-07
  -11.6999998       2.22126062E-07
  -11.6899996       2.37658867E-07
  -11.6800003       2.52171446E-07
  -11.6700001       2.65512909E-07
  -11.6599998       2.77530603E-07
  -11.6499996       2.88069941E-07
  -11.6400003       2.96975202E-07
  -11.6300001       3.04090804E-07
  -11.6199999       3.09263868E-07
  -11.6099997       3.12347311E-07
  -11.6000004       3.13203032E-07
  -11.5900002       3.11706287E-07
  -11.5799999       3.07748365E-07
  -11.5699997       3.01240135E-07
  -11.5600004       2.92112730E-07
  -11.5500002       2.80319284E-07
  -11.5400000       2.65833933E-07
  -11.5299997       2.48651531E-07
  -11.5200005       2.28786178E-07
  -11.5100002       2.06269917E-07
  -11.5000000       1.81152316E-07
  -11.4899998       1.53498831E-07
  -11.4799995       1.23390791E-07
  -11.4700003       9.09242672E-08
  -11.4600000       5.62089753E-08
  -11.4499998       1.93664835E-08
  -11.4399996      -1.94721377E-08
  -11.4300003      -6.01696186E-08
  -11.4200001      -1.02585297E-07
  -11.4099998      -1.46578401E-07
  -11.3999996      -1.92010233E-07
  -11.3900003      -2.38745429E-07
  -11.3800001      -2.86652295E-07
  -11.3699999      -3.35601641E-07
  -11.3599997      -3.85465086E-07
  -11.3500004      -4.36112856E-07
  -11.3400002      -4.87412194E-07
  -11.3299999      -5.39225255E-07
  -11.3199997      -5.91409389E-07
  -11.3100004      -6.43816918E-07
  -11.3000002      -6.96297263E-07
  -11.2900000      -7.48697687E-07
  -11.2799997      -8.00865678E-07
  -11.2700005      -8.52651056E-07
  -11.2600002      -9.03906766E-07
  -11.2500000      -9.54489792E-07
  -11.2399998      -1.00426234E-06
  -11.2299995      -1.05309073E-06
  -11.2200003      -1.10084693E-06
  -11.2100000      -1.14740851E-06
  -11.1999998      -1.19266008E-06
  -11.1899996      -1.23649443E-06
  -11.1800003      -1.27881412E-06
  -11.1700001      -1.31953323E-06
  -11.1599998      -1.35857931E-06
  -11.1499996      -1.39589349E-06
  -11.1400003      -1.43143188E-06
  -11.1300001      -1.46516413E-06
  -11.1199999      -1.49707375E-06
  -11.1099997      -1.52715609E-06
  -11.1000004      -1.55541659E-06
  -11.0900002      -1.58187026E-06
  -11.0799999      -1.60653883E-06
  -11.0699997      -1.62945162E-06
  -11.0600004      -1.65064239E-06
  -11.0500002      -1.67015082E-06
  -11.0400000      -1.68802114E-06
  -11.0299997      -1.70430110E-06
  -11.0200005      -1.71904196E-06
  -11.0100002      -1.73229432E-06
  -11.0000000      -1.74410786E-06
  -10.9899998      -1.75453147E-06
  -10.9799995      -1.76360777E-06
  -10.9700003      -1.77137088E-06
  -10.9600000      -1.77784875E-06
  -10.9499998      -1.78305640E-06
  -10.9399996      -1.78699781E-06
  -10.9300003      -1.78966957E-06
  -10.9200001      -1.79105223E-06
  -10.9099998      -1.79111862E-06
  -10.8999996      -1.78982805E-06
  -10.8900003      -1.78713458E-06
  -10.8800001      -1.78298035E-06
  -10.8699999      -1.77730374E-06
  -10.8599997      -1.77003790E-06
  -10.8500004      -1.76111291E-06
  -10.8400002      -1.75046182E-06
  -10.8299999      -1.73801698E-06
  -10.8199997      -1.72372165E-06
  -10.8100004      -1.70752048E-06
  -10.8000002      -1.68937299E-06
  -10.7900000      -1.66924247E-06
  -10.7799997      -1.64709604E-06
  -10.7700005      -1.62290587E-06
  -10.7600002      -1.59664387E-06
  -10.7500000      -1.56828105E-06
  -10.7399998      -1.53778490E-06
  -10.7299995      -1.50512267E-06
  -10.7200003      -1.47025514E-06
  -10.7100000      -1.43314912E-06
  -10.6999998      -1.39376868E-06
  -10.6899996      -1.35208541E-06
  -10.6800003      -1.30808041E-06
  -10.6700001      -1.26173768E-06
  -10.6599998      -1.21305084E-06
  -10.6499996      -1.16202295E-06
  -10.6400003      -1.10866233E-06
  -10.6300001      -1.05298489E-06
  -10.6199999      -9.95012670E-07
  -10.6099997      -9.34781042E-07
  -10.6000004      -8.72333999E-07
  -10.5900002      -8.07734523E-07
  -10.5799999      -7.41059068E-07
  -10.5699997      -6.72408362E-07
  -10.5600004      -6.01901263E-07
  -10.5500002      -5.29679596E-07
  -10.5400000      -4.55902921E-07
  -10.5299997      -3.80738726E-07
  -10.5200005      -3.04373685E-07
  -10.5100002      -2.26994814E-07
  -10.5000000      -1.48790932E-07
  -10.4899998      -6.99571814E-08
  -10.4799995       9.31357036E-09
  -10.4700003       8.88294167E-08
  -10.4600000       1.68391054E-07
  -10.4499998       2.47796919E-07
  -10.4399996       3.26830843E-07
  -10.4300003       4.05265780E-07
  -10.4200001       4.82857217E-07
  -10.4099998       5.59346915E-07
  -10.3999996       6.34458843E-07
  -10.3900003       7.07906395E-07
  -10.3800001       7.79392167E-07
  -10.3699999       8.48617049E-07
  -10.3599997       9.15280509E-07
  -10.3500004       9.79095944E-07
  -10.3400002       1.03978869E-06
  -10.3299999       1.09710459E-06
  -10.3199997       1.15081548E-06
  -10.3100004       1.20072093E-06
  -10.3000002       1.24665348E-06
  -10.2900000       1.28847933E-06
  -10.2799997       1.32609728E-06
  -10.2700005       1.35944310E-06
  -10.2600002       1.38848850E-06
  -10.2500000       1.41324210E-06
  -10.2399998       1.43374609E-06
  -10.2299995       1.45007527E-06
  -10.2200003       1.46233651E-06
  -10.2100000       1.47066260E-06
  -10.1999998       1.47520973E-06
  -10.1899996       1.47615435E-06
  -10.1800003       1.47368701E-06
  -10.1700001       1.46801028E-06
  -10.1599998       1.45933689E-06
  -10.1499996       1.44788385E-06
  -10.1400003       1.43387467E-06
  -10.1300001       1.41753458E-06
  -10.1199999       1.39909218E-06
  -10.1099997       1.37877601E-06
  -10.1000004       1.35681501E-06
  -10.0900002       1.33343713E-06
  -10.0799999       1.30886838E-06
  -10.0699997       1.28333056E-06
  -10.0600004       1.25704105E-06
  -10.0500002       1.23021027E-06
  -10.0400000       1.20303889E-06
  -10.0299997       1.17571722E-06
  -10.0200005       1.14842112E-06
  -10.0100002       1.12131181E-06
  -10.0000000       1.09453401E-06
  -9.98999977       1.06821528E-06
  -9.97999954       1.04246817E-06
  -9.97000027       1.01739283E-06
  -9.96000004       9.93076810E-07
  -9.94999981       9.69601729E-07
  -9.93999958       9.47047056E-07
  -9.93000031       9.25490383E-07
  -9.92000008       9.05013621E-07
  -9.90999985       8.85703798E-07
  -9.89999962       8.67650897E-07
  -9.89000034       8.50954336E-07
  -9.88000011       8.35720414E-07
  -9.86999989       8.22062134E-07
  -9.85999966       8.10097390E-07
  -9.85000038       7.99951295E-07
  -9.84000015       7.91756349E-07
  -9.82999992       7.85649831E-07
  -9.81999969       7.81779534E-07
  -9.81000042       7.80298762E-07
  -9.80000019       7.81372705E-07
  -9.78999996       7.85177235E-07
  -9.77999973       7.91900447E-07
  -9.77000046       8.01744761E-07
  -9.76000023       8.14921407E-07
  -9.75000000       8.31659690E-07
  -9.73999977       8.52197047E-07
  -9.72999954       8.76773697E-07
  -9.72000027       9.05625427E-07
  -9.71000004       9.38975347E-07
  -9.69999981       9.77026275E-07
  -9.68999958       1.01993919E-06
  -9.68000031       1.06782727E-06
  -9.67000008       1.12073917E-06
  -9.65999985       1.17865363E-06
  -9.64999962       1.24146334E-06
  -9.64000034       1.30897479E-06
  -9.63000011       1.38089786E-06
  -9.61999989       1.45685908E-06
  -9.60999966       1.53638541E-06
  -9.60000038       1.61892331E-06
  -9.59000015       1.70383669E-06
  -9.57999992       1.79041604E-06
  -9.56999969       1.87788714E-06
  -9.56000042       1.96541146E-06
  -9.55000019       2.05210267E-06
  -9.53999996       2.13703470E-06
  -9.52999973       2.21925598E-06
  -9.52000046       2.29779698E-06
  -9.51000023       2.37169866E-06
  -9.50000000       2.44002263E-06
  -9.48999977       2.50187031E-06
  -9.47999954       2.55639861E-06
  -9.47000027       2.60284719E-06
  -9.46000004       2.64054324E-06
  -9.44999981       2.66892903E-06
  -9.43999958       2.68756548E-06
  -9.43000031       2.69614975E-06
  -9.42000008       2.69454313E-06
  -9.40999985       2.68276858E-06
  -9.39999962       2.66101870E-06
  -9.39000034       2.62968319E-06
  -9.38000011       2.58934574E-06
  -9.36999989       2.54078418E-06
  -9.35999966       2.48498009E-06
  -9.35000038       2.42309761E-06
  -9.34000015       2.35649009E-06
  -9.32999992       2.28666886E-06
  -9.31999969       2.21530331E-06
  -9.31000042       2.14417582E-06
  -9.30000019       2.07517041E-06
  -9.28999996       2.01025205E-06
  -9.27999973       1.95141229E-06
  -9.27000046       1.90066146E-06
  -9.26000023       1.85999681E-06
  -9.25000000       1.83136933E-06
  -9.23999977       1.81666428E-06
  -9.22999954       1.81767632E-06
  -9.22000027       1.83610746E-06
  -9.21000004       1.87352214E-06
  -9.19999981       1.93135293E-06
  -9.18999958       2.01086277E-06
  -9.18000031       2.11313500E-06
  -9.17000008       2.23905408E-06
  -9.15999985       2.38928442E-06
  -9.14999962       2.56426802E-06
  -9.14000034       2.76419496E-06
  -9.13000011       2.98902796E-06
  -9.11999989       3.23847121E-06
  -9.10999966       3.51198946E-06
  -9.10000038       3.80879510E-06
  -9.09000015       4.12785948E-06
  -9.07999992       4.46791000E-06
  -9.06999969       4.82744508E-06
  -9.06000042       5.20471622E-06
  -9.05000019       5.59779210E-06
  -9.03999996       6.00452495E-06
  -9.02999973       6.42262830E-06
  -9.02000046       6.84966290E-06
  -9.01000023       7.28308214E-06
  -9.00000000       7.72024578E-06
  -8.98999977       8.15843305E-06
  -8.97999954       8.59489046E-06
  -8.97000027       9.02680313E-06
  -8.96000004       9.45132069E-06
  -8.94999981       9.86557188E-06
  -8.93999958       1.02666727E-05
  -8.93000031       1.06517518E-05
  -8.92000008       1.10180017E-05
  -8.90999985       1.13626220E-05
  -8.89999962       1.16829506E-05
  -8.89000034       1.19763881E-05
  -8.88000011       1.22404745E-05
  -8.86999989       1.24728658E-05
  -8.85999966       1.26713840E-05
  -8.85000038       1.28340198E-05
  -8.84000015       1.29589553E-05
  -8.82999992       1.30445806E-05
  -8.81999969       1.30895041E-05
  -8.81000042       1.30925882E-05
  -8.80000019       1.30529679E-05
  -8.78999996       1.29700247E-05
  -8.77999973       1.28434158E-05
  -8.77000046       1.26730329E-05
  -8.76000023       1.24590379E-05
  -8.75000000       1.22017991E-05
  -8.73999977       1.19019078E-05
  -8.72999954       1.15602124E-05
  -8.72000027       1.11777281E-05
  -8.71000004       1.07556953E-05
  -8.69999981       1.02955582E-05
  -8.68999958       9.79887682E-06
  -8.68000031       9.26737084E-06
  -8.67000008       8.70289932E-06
  -8.65999985       8.10738402E-06
  -8.64999962       7.48280763E-06
  -8.64000034       6.83121380E-06
  -8.63000011       6.15468844E-06
  -8.61999989       5.45533339E-06
  -8.60999966       4.73524506E-06
  -8.60000038       3.99651753E-06
  -8.59000015       3.24124767E-06
  -8.57999992       2.47144021E-06
  -8.56999969       1.68907923E-06
  -8.56000042       8.96030656E-07
  -8.55000019       9.40877669E-08
  -8.53999996      -7.15073156E-07
  -8.52999973      -1.52985126E-06
  -8.52000046      -2.34875210E-06
  -8.51000023      -3.17039644E-06
  -8.50000000      -3.99348482E-06
  -8.48999977      -4.81684219E-06
  -8.47999954      -5.63940694E-06
  -8.47000027      -6.46020226E-06
  -8.46000004      -7.27839324E-06
  -8.44999981      -8.09323319E-06
  -8.43999958      -8.90408137E-06
  -8.43000031      -9.71036570E-06
  -8.42000008      -1.05115614E-05
  -8.40999985      -1.13072147E-05
  -8.39999962      -1.20968789E-05
  -8.39000034      -1.28801548E-05
  -8.38000011      -1.36566068E-05
  -8.36999989      -1.44258447E-05
  -8.35999966      -1.51874647E-05
  -8.35000038      -1.59410374E-05
  -8.34000015      -1.66861064E-05
  -8.32999992      -1.74221550E-05
  -8.31999969      -1.81485884E-05
  -8.31000042      -1.88647573E-05
  -8.30000019      -1.95699340E-05
  -8.28999996      -2.02633037E-05
  -8.27999973      -2.09439368E-05
  -8.27000046      -2.16108838E-05
  -8.26000023      -2.22631061E-05
  -8.25000000      -2.28994886E-05
  -8.23999977      -2.35188672E-05
  -8.22999954      -2.41200287E-05
  -8.22000027      -2.47016378E-05
  -8.21000004      -2.52623813E-05
  -8.19999981      -2.58008695E-05
  -8.18999958      -2.63156726E-05
  -8.18000031      -2.68053627E-05
  -8.17000008      -2.72685047E-05
  -8.15999985      -2.77036888E-05
  -8.14999962      -2.81094908E-05
  -8.14000034      -2.84845701E-05
  -8.13000011      -2.88276242E-05
  -8.11999989      -2.91373672E-05
  -8.10999966      -2.94125603E-05
  -8.10000038      -2.96520811E-05
  -8.09000015      -2.98548566E-05
  -8.07999992      -3.00199081E-05
  -8.06999969      -3.01463369E-05
  -8.06000042      -3.02334247E-05
  -8.05000019      -3.02805329E-05
  -8.03999996      -3.02871667E-05
  -8.02999973      -3.02529625E-05
  -8.02000046      -3.01776745E-05
  -8.01000023      -3.00611900E-05
  -8.00000000      -2.99035109E-05
  -7.98999977      -2.97047918E-05
  -7.98000002      -2.94653109E-05
  -7.96999979      -2.91854758E-05
  -7.96000004      -2.88658630E-05
  -7.94999981      -2.85071837E-05
  -7.94000006      -2.81103130E-05
  -7.92999983      -2.76762657E-05
  -7.92000008      -2.72062061E-05
  -7.90999985      -2.67014657E-05
  -7.90000010      -2.61634832E-05
  -7.88999987      -2.55938721E-05
  -7.88000011      -2.49943951E-05
  -7.86999989      -2.43669529E-05
  -7.86000013      -2.37136082E-05
  -7.84999990      -2.30365586E-05
  -7.84000015      -2.23381358E-05
  -7.82999992      -2.16207864E-05
  -7.82000017      -2.08870460E-05
  -7.80999994      -2.01395324E-05
  -7.80000019      -1.93809083E-05
  -7.78999996      -1.86138859E-05
  -7.78000021      -1.78411683E-05
  -7.76999998      -1.70655094E-05
  -7.76000023      -1.62896031E-05
  -7.75000000      -1.55161451E-05
  -7.73999977      -1.47478004E-05
  -7.73000002      -1.39871381E-05
  -7.71999979      -1.32366577E-05
  -7.71000004      -1.24987519E-05
  -7.69999981      -1.17756790E-05
  -7.69000006      -1.10695473E-05
  -7.67999983      -1.03823331E-05
  -7.67000008      -9.71585087E-06
  -7.65999985      -9.07173944E-06
  -7.65000010      -8.45149862E-06
  -7.63999987      -7.85644352E-06
  -7.63000011      -7.28771920E-06
  -7.61999989      -6.74628882E-06
  -7.61000013      -6.23291680E-06
  -7.59999990      -5.74819205E-06
  -7.59000015      -5.29249746E-06
  -7.57999992      -4.86604495E-06
  -7.57000017      -4.46887179E-06
  -7.55999994      -4.10085931E-06
  -7.55000019      -3.76175376E-06
  -7.53999996      -3.45113585E-06
  -7.53000021      -3.16847149E-06
  -7.51999998      -2.91308083E-06
  -7.51000023      -2.68414260E-06
  -7.50000000      -2.48071615E-06
  -7.48999977      -2.30173191E-06
  -7.48000002      -2.14602801E-06
  -7.46999979      -2.01236435E-06
  -7.46000004      -1.89940818E-06
  -7.44999981      -1.80579434E-06
  -7.44000006      -1.73013689E-06