  -16.0000000       0.00000000    
  -15.9899998       0.00000000    
  -15.9799995       0.00000000    
  -15.9700003       0.00000000    
  -15.9600000       0.00000000    
  -15.9499998       0.00000000    
  -15.9399996       0.00000000    
  -15.9300003       0.00000000    
  -15.9200001       0.00000000    
  -15.9099998       0.00000000    
  -15.8999996       0.00000000    
  -15.8900003       0.00000000    
  -15.8800001       0.00000000    
  -15.8699999      -8.40881373E-40
  -15.8599997      -2.24061192E-38
  -15.8500004      -2.92255301E-37
  -15.8400002      -2.50184536E-36
  -15.8299999      -1.58191377E-35
  -15.8199997      -7.84112588E-35
  -15.8100004      -3.13867668E-34
  -15.8000002      -1.02142745E-33
  -15.7900000      -2.63801503E-33
  -15.7799997      -4.86134468E-33
  -15.7700005      -3.00025739E-33
  -15.7600002       2.19992445E-32
  -15.7500000       1.23122595E-31
  -15.7399998       4.11552327E-31
  -15.7299995       1.05621026E-30
  -15.7200003       2.18732114E-30
  -15.7100000       3.60276154E-30
  -15.6999998       4.23986255E-30
  -15.6899996       1.64738668E-30
  -15.6800003      -7.81127093E-30
  -15.6700001      -2.69045973E-29
  -15.6599998      -5.31047136E-29
  -15.6499996      -7.38864907E-29
  -15.6400003      -6.82937707E-29
  -15.6300001      -2.36832327E-29
  -15.6199999       3.17743082E-29
  -15.6099997       7.99628509E-30
  -15.6000004      -1.88276420E-28
  -15.5900002      -4.33236737E-28
  -15.5799999      -2.14647721E-29
  -15.5699997       2.53419832E-27
  -15.5600004       8.79934280E-27
  -15.5500002       1.78770333E-26
  -15.5400000       2.19004027E-26
  -15.5299997       2.05903713E-27
  -15.5200005      -6.80356601E-26
  -15.5100002      -2.01503770E-25
  -15.5000000      -3.53475457E-25
  -15.4899998      -3.64771945E-25
  -15.4799995       5.72649107E-26
  -15.4700003       1.23131415E-24
  -15.4600000       3.17388324E-24
  -15.4499998       5.05093162E-24
  -15.4399996       4.65497196E-24
  -15.4300003      -1.48525124E-24
  -15.4200001      -1.64837109E-23
  -15.4099998      -3.93163006E-23
  -15.3999996      -5.94502618E-23
  -15.3900003      -5.28467134E-23
  -15.3800001       1.48321911E-23
  -15.3699999       1.70711747E-22
  -15.3599997       3.99407319E-22
  -15.3500004       5.97996400E-22
  -15.3400002       5.48499809E-22
  -15.3299999      -4.53565202E-23
  -15.3199997      -1.40689508E-21
  -15.3100004      -3.40539474E-21
  -15.3000002      -5.21902782E-21
  -15.2900000      -5.14914721E-21
  -15.2799997      -9.13481541E-22
  -15.2700005       9.25708163E-21
  -15.2600002       2.46528467E-20
  -15.2500000       3.97787408E-20
  -15.2399998       4.30664316E-20
  -15.2299995       1.86638700E-20
  -15.2200003      -4.67252227E-20
  -15.2100000      -1.51581481E-19
  -15.1999998      -2.65000234E-19
  -15.1899996      -3.17669874E-19
  -15.1800003      -2.10170994E-19
  -15.1700001       1.50013405E-19
  -15.1599998       7.79849803E-19
  -15.1499996       1.53585943E-18
  -15.1400003       2.05334290E-18
  -15.1300001       1.77139922E-18
  -15.1199999       1.06012656E-19
  -15.1099997      -3.20508127E-18
  -15.1000004      -7.64871165E-18
  -15.0900002      -1.15586356E-17
  -15.0799999      -1.21094957E-17
  -15.0699997      -6.00102370E-18
  -15.0600004       8.99762816E-18
  -15.0500002       3.18441540E-17
  -15.0400000       5.61074558E-17
  -15.0299997       6.92293263E-17
  -15.0200005       5.46722445E-17
  -15.0100002      -2.00669157E-18
  -15.0000000      -1.03526961E-16
  -14.9899998      -2.30318926E-16
  -14.9799995      -3.34091182E-16
  -14.9700003      -3.42057103E-16
  -14.9600000      -1.77315932E-16
  -14.9499998       2.03816257E-16
  -14.9399996       7.65099609E-16
  -14.9300003       1.35198846E-15
  -14.9200001       1.68705733E-15
  -14.9099998       1.42452032E-15
  -14.8999996       2.76005130E-16
  -14.8900003      -1.80812227E-15
  -14.8800001      -4.45533655E-15
  -14.8699999      -6.77397955E-15
  -14.8599997      -7.44467761E-15
  -14.8500004      -5.07428894E-15
  -14.8400002       1.19413794E-15
  -14.8299999       1.09473748E-14
  -14.8199997       2.19128999E-14
  -14.8100004       2.98737407E-14
  -14.8000002       2.94213269E-14
  -14.7900000       1.56869773E-14
  -14.7799997      -1.31732546E-14
  -14.7700005      -5.34291917E-14
  -14.7600002      -9.42583075E-14
  -14.7500000      -1.18488620E-13
  -14.7399998      -1.06495819E-13
  -14.7299995      -4.32420145E-14
  -14.7200003       7.29172921E-14
  -14.7100000       2.22487027E-13
  -14.6999998       3.61954146E-13
  -14.6899996       4.29408787E-13
  -14.6800003       3.60533923E-13
  -14.6700001       1.13432694E-13
  -14.6599998      -3.03587071E-13
  -14.6499996      -8.11106499E-13
  -14.6400003      -1.25611967E-12
  -14.6300001      -1.43741995E-12
  -14.6199999      -1.16136842E-12
  -14.6099997      -3.19727914E-13
  -14.6000004       1.03098129E-12
  -14.5900002       2.61846014E-12
  -14.5799999       3.96335005E-12
  -14.5699997       4.46916896E-12
  -14.5600004       3.59295883E-12
  -14.5500002       1.06543702E-12
  -14.5400000      -2.90094056E-12
  -14.5299997      -7.49695792E-12
  -14.5200005      -1.13717629E-11
  -14.5100002      -1.29017535E-11
  -14.5000000      -1.06557922E-11
  -14.4899998      -3.96234478E-12
  -14.4799995       6.58477222E-12
  -14.4700003       1.88794778E-11
  -14.4600000       2.94886719E-11
  -14.4499998       3.43493810E-11
  -14.4399996       2.99067958E-11
  -14.4300003       1.44496741E-11
  -14.4200001      -1.07429369E-11
  -14.4099998      -4.08816349E-11
  -14.3999996      -6.81301682E-11
  -14.3900003      -8.31859998E-11
  -14.3800001      -7.77795467E-11
  -14.3699999      -4.75430008E-11
  -14.3599997       5.56933536E-12
  -14.3500004       7.21888452E-11
  -14.3400002       1.36446202E-10
  -14.3299999       1.79095780E-10
  -14.3199997       1.82409809E-10
  -14.3100004       1.35745845E-10
  -14.3000002       4.02509970E-11
  -14.2900000      -8.89002552E-11
  -14.2799997      -2.23895499E-10
  -14.2700005      -3.29599320E-10
  -14.2600002      -3.71951414E-10
  -14.2500000      -3.27545296E-10
  -14.2399998      -1.91816202E-10
  -14.2299995       1.67248247E-11
  -14.2200003       2.57982663E-10
  -14.2100000       4.77834106E-10
  -14.1999998       6.20371476E-10
  -14.1899996       6.41926790E-10
  -14.1800003       5.23174837E-10
  -14.1700001       2.75830109E-10
  -14.1599998      -5.82490445E-11
  -14.1499996      -4.15669277E-10
  -14.1400003      -7.25697780E-10
  -14.1300001      -9.26202059E-10
  -14.1199999      -9.76907111E-10
  -14.1099997      -8.66348715E-10
  -14.1000004      -6.10938189E-10
  -14.0900002      -2.47228404E-10
  -14.0799999       1.79201140E-10
  -14.0699997       6.23643248E-10
  -14.0600004       1.04690212E-09
  -14.0500002       1.41291079E-09
  -14.0400000       1.68095260E-09
  -14.0299997       1.79722504E-09
  -14.0200005       1.69231507E-09
  -14.0100002       1.29039068E-09
  -14.0000000       5.32423605E-10
  -13.9899998      -5.89753912E-10
  -13.9799995      -1.99771710E-09
  -13.9700003      -3.50256690E-09
  -13.9600000      -4.80681228E-09
  -13.9499998      -5.54196289E-09
  -13.9399996      -5.34258371E-09
  -13.9300003      -3.94622068E-09
  -13.9200001      -1.29717703E-09
  -13.9099998       2.37499664E-09
  -13.8999996       6.53156862E-09
  -13.8900003       1.03758309E-08
  -13.8800001       1.29835964E-08
  -13.8699999       1.34961002E-08
  -13.8599997       1.13382210E-08
  -13.8500004       6.41095932E-09
  -13.8400002      -7.94840527E-10
  -13.8299999      -9.20531118E-09
  -13.8199997      -1.73079595E-08
  -13.8100004      -2.34189006E-08
  -13.8000002      -2.60251625E-08
  -13.7900000      -2.41305234E-08
  -13.7799997      -1.75240107E-08
  -13.7700005      -6.90213176E-09
  -13.7600002       6.19599261E-09
  -13.7500000       1.96384295E-08
  -13.7399998       3.10886499E-08
  -13.7299995       3.84513612E-08
  -13.7200003       4.02765039E-08
  -13.7100000       3.60308618E-08
  -13.6999998       2.61782276E-08
  -13.6899996       1.20554535E-08
  -13.6800003      -4.41620207E-09
  -13.6700001      -2.11038493E-08
  -13.6599998      -3.60212695E-08
  -13.6499996      -4.75836224E-08
  -13.6400003      -5.47065504E-08
  -13.6300001      -5.67512366E-08
  -13.6199999      -5.33721511E-08
  -13.6099997      -4.43593287E-08
  -13.6000004      -2.95764142E-08
  -13.5900002      -9.06354547E-09
  -13.5799999       1.66864549E-08
  -13.5699997       4.63450505E-08
  -13.5600004       7.73930324E-08
  -13.5500002       1.05961412E-07
  -13.5400000       1.27022872E-07
  -13.5299997       1.35016919E-07
  -13.5200005       1.24878824E-07
  -13.5100002       9.33158120E-08
  -13.5000000       4.00596285E-08
  -13.4899998      -3.12314725E-08
  -13.4799995      -1.12723285E-07
  -13.4700003      -1.93012468E-07
  -13.4600000      -2.58606576E-07
  -13.4499998      -2.96103849E-07
  -13.4399996      -2.94695127E-07
  -13.4300003      -2.48506325E-07
  -13.4200001      -1.58276237E-07
  -13.4099998      -3.19706857E-08
  -13.3999996       1.15866364E-07
  -13.3900003       2.65963138E-07
  -13.3800001       3.97072483E-07
  -13.3699999       4.89121987E-07
  -13.3599997       5.26207828E-07
  -13.3500004       4.98913039E-07
  -13.3400002       4.05620625E-07
  -13.3299999       2.52695884E-07
  -13.3199997       5.36672573E-08
  -13.3100004      -1.72308674E-07
  -13.3000002      -4.02357955E-07
  -13.2900000      -6.11859207E-07
  -13.2799997      -7.76331092E-07
  -13.2700005      -8.73222518E-07
  -13.2600002      -8.83744349E-07
  -13.2500000      -7.94878247E-07
  -13.2399998      -6.01627391E-07
  -13.2299995      -3.09327703E-07
  -13.2200003       6.43816307E-08
  -13.2100000       4.88580781E-07
  -13.1999998       9.19773527E-07
  -13.1899996       1.30486774E-06
  -13.1800003       1.58661294E-06
  -13.1700001       1.71121314E-06
  -13.1599998       1.63716879E-06
  -13.1499996       1.34393304E-06
  -13.1400003       8.38684969E-07
  -13.1300001       1.59590442E-07
  -13.1199999      -6.25622874E-07
  -13.1099997      -1.42615136E-06
  -13.1000004      -2.13906992E-06
  -13.0900002      -2.66330221E-06
  -13.0799999      -2.91435140E-06
  -13.0699997      -2.83734357E-06
  -13.0600004      -2.41615885E-06
  -13.0500002      -1.67707492E-06
  -13.0400000      -6.86380531E-07
  -13.0299997       4.57499226E-07
  -13.0200005       1.63587083E-06
  -13.0100002       2.72355760E-06
  -13.0000000       3.60249896E-06
  -12.9899998       4.17330511E-06
  -12.9799995       4.36375467E-06
  -12.9700003       4.13400949E-06
  -12.9600000       3.47893229E-06
  -12.9499998       2.42840247E-06
  -12.9399996       1.04639707E-06
  -12.9300003      -5.70764939E-07
  -12.9200001      -2.29736793E-06
  -12.9099998      -3.98317161E-06
  -12.8999996      -5.46145702E-06
  -12.8900003      -6.56116981E-06
  -12.8800001      -7.12333122E-06
  -12.8699999      -7.02087573E-06
  -12.8599997      -6.17960814E-06
  -12.8500004      -4.59696503E-06
  -12.8400002      -2.35466996E-06
  -12.8299999       3.78306254E-07
  -12.8199997       3.35490404E-06
  -12.8100004       6.27177769E-06
  -12.8000002       8.80200332E-06
  -12.7900000       1.06345842E-05
  -12.7799997       1.15150897E-05
  -12.7700005       1.12813304E-05
  -12.7600002       9.88804186E-06
  -12.7500000       7.41676422E-06
  -12.7399998       4.06923255E-06
  -12.7299995       1.45445355E-07
  -12.7200003      -3.98997508E-06
  -12.7100000      -7.94789230E-06
  -12.6999998      -1.13551978E-05
  -12.6899996      -1.38909681E-05
  -12.6800003      -1.53141173E-05
  -12.6700001      -1.54810514E-05
  -12.6599998      -1.43532307E-05
  -12.6499996      -1.19963224E-05
  -12.6400003      -8.57293981E-06
  -12.6300001      -4.33061996E-06
  -12.6199999       4.13683665E-07
  -12.6099997       5.29286490E-06
  -12.6000004       9.91307297E-06
  -12.5900002       1.38821761E-05
  -12.5799999       1.68425486E-05
  -12.5699997       1.85069439E-05
  -12.5600004       1.86933557E-05
  -12.5500002       1.73542176E-05
  -12.5400000       1.45939503E-05
  -12.5299997       1.06700045E-05
  -12.5200005       5.97420103E-06
  -12.5100002       9.94450943E-07
  -12.5000000      -3.73991497E-06
  -12.4899998      -7.72246949E-06
  -12.4799995      -1.05351355E-05
  -12.4700003      -1.19056303E-05
  -12.4600000      -1.17486779E-05
  -12.4499998      -1.01860533E-05
  -12.4399996      -7.54377834E-06
  -12.4300003      -4.32785373E-06
  -12.4200001      -1.18375192E-06
  -12.4099998       1.15422756E-06
  -12.3999996       1.91875483E-06
  -12.3900003       3.63912989E-07
  -12.3800001      -4.18159289E-06
  -12.3699999      -1.22659912E-05
  -12.3599997      -2.42664537E-05
  -12.3500004      -4.03450613E-05
  -12.3400002      -6.04055313E-05
  -12.3299999      -8.40571010E-05
  -12.3199997      -1.10589281E-04
  -12.3100004      -1.38965348E-04
  -12.3000002      -1.67842969E-04
  -12.2900000      -1.95624263E-04
  -12.2799997      -2.20541086E-04
  -12.2700005      -2.40768713E-04
  -12.2600002      -2.54561222E-04
  -12.2500000      -2.60387198E-04
  -12.2399998      -2.57064996E-04
  -12.2299995      -2.43864182E-04
  -12.2200003      -2.20569971E-04
  -12.2100000      -1.87504527E-04
  -12.1999998      -1.45494414E-04
  -12.1899996      -9.57996963E-05
  -12.1800003      -4.00097706E-05
  -12.1700001       2.00792128E-05
  -12.1599998       8.25896423E-05
  -12.1499996       1.45685481E-04
  -12.1400003       2.07668403E-04
  -12.1300001       2.67063471E-04
  -12.1199999       3.22676438E-04
  -12.1099997       3.73629271E-04
  -12.1000004       4.19377990E-04
  -12.0900002       4.59710369E-04
  -12.0799999       4.94728272E-04
  -12.0699997       5.24806150E-04
  -12.0600004       5.50537137E-04
  -12.0500002       5.72649878E-04
  -12.0400000       5.91918360E-04
  -12.0299997       6.09054172E-04
  -12.0200005       6.24600158E-04
  -12.0100002       6.38832920E-04
  -12.0000000       6.51686278E-04
  -11.9899998       6.62709877E-04
  -11.9799995       6.71065063E-04
  -11.9700003       6.75557589E-04
  -11.9600000       6.74722367E-04
  -11.9499998       6.66922890E-04
  -11.9399996       6.50474045E-04
  -11.9300003       6.23777916E-04
  -11.9200001       5.85442525E-04
  -11.9099998       5.34389052E-04
  -11.8999996       4.69932216E-04
  -11.8900003       3.91841779E-04
  -11.8800001       3.00366286E-04
  -11.8699999       1.96239067E-04
  -11.8599997       8.06587632E-05
  -11.8500004      -4.47466300E-05
  -11.8400002      -1.77983267E-04
  -11.8299999      -3.16766003E-04
  -11.8199997      -4.58609429E-04
  -11.8100004      -6.00937055E-04
  -11.8000002      -7.41194352E-04
  -11.7900000      -8.76961800E-04
  -11.7799997      -1.00606855E-03
  -11.7700005      -1.12668041E-03
  -11.7600002      -1.23736600E-03
  -11.7500000      -1.33712881E-03
  -11.7399998      -1.42540620E-03
  -11.7299995      -1.50203134E-03
  -11.7200003      -1.56717119E-03
  -11.7100000      -1.62124634E-03
  -11.6999998      -1.66483002E-03
  -11.6899996      -1.69857079E-03
  -11.6800003      -1.72309869E-03
  -11.6700001      -1.73896586E-03
  -11.6599998      -1.74658641E-03
  -11.6499996      -1.74619607E-03
  -11.6400003      -1.73782953E-03
  -11.6300001      -1.72129041E-03
  -11.6199999      -1.69615180E-03
  -11.6099997      -1.66174909E-03
  -11.6000004      -1.61719939E-03
  -11.5900002      -1.56142958E-03
  -11.5799999      -1.49323395E-03
  -11.5699997      -1.41135231E-03
  -11.5600004      -1.31454947E-03
  -11.5500002      -1.20173290E-03
  -11.5400000      -1.07204192E-03
  -11.5299997      -9.24946566E-04
  -11.5200005      -7.60308176E-04
  -11.5100002      -5.78419305E-04
  -11.5000000      -3.80004320E-04
  -11.4899998      -1.66190817E-04
  -11.4799995       6.15487079E-05
  -11.4700003       3.01474851E-04
  -11.4600000       5.51654375E-04
  -11.4499998       8.10049707E-04
  -11.4399996       1.07459514E-03
  -11.4300003       1.34325668E-03
  -11.4200001       1.61408959E-03
  -11.4099998       1.88528153E-03
  -11.3999996       2.15520011E-03
  -11.3900003       2.42241868E-03
  -11.3800001       2.68574082E-03
  -11.3699999       2.94422847E-03
  -11.3599997       3.19720525E-03
  -11.3500004       3.44425952E-03
  -11.3400002       3.68522690E-03
  -11.3299999       3.92016396E-03
  -11.3199997       4.14932147E-03
  -11.3100004       4.37310385E-03
  -11.3000002       4.59204149E-03
  -11.2900000       4.80674673E-03
  -11.2799997       5.01790596E-03
  -11.2700005       5.22623817E-03
  -11.2600002       5.43248048E-03
  -11.2500000       5.63734584E-03
  -11.2399998       5.84150385E-03
  -11.2299995       6.04550913E-03
  -11.2200003       6.24977285E-03
  -11.2100000       6.45448780E-03
  -11.1999998       6.65961020E-03
  -11.1899996       6.86482806E-03
  -11.1800003       7.06956536E-03
  -11.1700001       7.27301277E-03
  -11.1599998       7.47419568E-03
  -11.1499996       7.67205004E-03
  -11.1400003       7.86549971E-03
  -11.1300001       8.05354491E-03
  -11.1199999       8.23533349E-03
  -11.1099997       8.41019396E-03
  -11.1000004       8.57766625E-03
  -11.0900002       8.73748772E-03
  -11.0799999       8.88960157E-03
  -11.0699997       9.03413352E-03
  -11.0600004       9.17136297E-03
  -11.0500002       9.30172484E-03
  -11.0400000       9.42580961E-03
  -11.0299997       9.54431947E-03
  -11.0200005       9.65810288E-03
  -11.0100002       9.76809114E-03
  -11.0000000       9.87525936E-03
  -10.9899998       9.98054724E-03
  -10.9799995       1.00848088E-02
  -10.9700003       1.01887099E-02
  -10.9600000       1.02926465E-02
  -10.9499998       1.03967302E-02
  -10.9399996       1.05007449E-02
  -10.9300003       1.06041525E-02
  -10.9200001       1.07061416E-02
  -10.9099998       1.08056944E-02
  -10.8999996       1.09016346E-02
  -10.8900003       1.09927300E-02
  -10.8800001       1.10777309E-02
  -10.8699999       1.11554284E-02
  -10.8599997       1.12247141E-02
  -10.8500004       1.12845767E-02
  -10.8400002       1.13341464E-02
  -10.8299999       1.13727134E-02
  -10.8199997       1.13997441E-02
  -10.8100004       1.14148986E-02
  -10.8000002       1.14180334E-02
  -10.7900000       1.14092296E-02
  -10.7799997       1.13888057E-02
  -10.7700005       1.13572339E-02
  -10.7600002       1.13152070E-02
  -10.7500000       1.12635270E-02
  -10.7399998       1.12031335E-02
  -10.7299995       1.11350296E-02
  -10.7200003       1.10602528E-02
  -10.7100000       1.09798703E-02
  -10.6999998       1.08949514E-02
  -10.6899996       1.08065857E-02
  -10.6800003       1.07158497E-02
  -10.6700001       1.06238127E-02
  -10.6599998       1.05315531E-02
  -10.6499996       1.04401251E-02
  -10.6400003       1.03505701E-02
  -10.6300001       1.02638807E-02
  -10.6199999       1.01810312E-02
  -10.6099997       1.01029230E-02
  -10.6000004       1.00304363E-02
  -10.5900002       9.96439345E-03
  -10.5799999       9.90561582E-03
  -10.5699997       9.85494629E-03
  -10.5600004       9.81319509E-03
  -10.5500002       9.78124794E-03
  -10.5400000       9.75997932E-03
  -10.5299997       9.75026097E-03
  -10.5200005       9.75292921E-03
  -10.5100002       9.76870488E-03
  -10.5000000       9.79815703E-03
  -10.4899998       9.84162465E-03
  -10.4799995       9.89913289E-03
  -10.4700003       9.97037068E-03
  -10.4600000       1.00546181E-02
  -10.4499998       1.01507483E-02
  -10.4399996       1.02572171E-02
  -10.4300003       1.03721628E-02
  -10.4200001       1.04933884E-02
  -10.4099998       1.06184790E-02
  -10.3999996       1.07449377E-02
  -10.3900003       1.08702751E-02
  -10.3800001       1.09921023E-02
  -10.3699999       1.11082578E-02
  -10.3599997       1.12169087E-02
  -10.3500004       1.13165649E-02
  -10.3400002       1.14061786E-02
  -10.3299999       1.14850812E-02
  -10.3199997       1.15530053E-02
  -10.3100004       1.16100023E-02
  -10.3000002       1.16564203E-02
  -10.2900000       1.16928741E-02
  -10.2799997       1.17201246E-02
  -10.2700005       1.17391273E-02
  -10.2600002       1.17510008E-02
  -10.2500000       1.17569547E-02
  -10.2399998       1.17583936E-02
  -10.2299995       1.17568709E-02
  -10.2200003       1.17540425E-02
  -10.2100000       1.17516853E-02
  -10.1999998       1.17516434E-02
  -10.1899996       1.17557850E-02
  -10.1800003       1.17658712E-02
  -10.1700001       1.17835309E-02
  -10.1599998       1.18102161E-02
  -10.1499996       1.18471319E-02
  -10.1400003       1.18952002E-02
  -10.1300001       1.19551411E-02
  -10.1199999       1.20274480E-02
  -10.1099997       1.21124666E-02
  -10.1000004       1.22103989E-02
  -10.0900002       1.23213734E-02
  -10.0799999       1.24454545E-02
  -10.0699997       1.25827007E-02
  -10.0600004       1.27330450E-02
  -10.0500002       1.28964428E-02
  -10.0400000       1.30727217E-02
  -10.0299997       1.32617569E-02
  -10.0200005       1.34633901E-02
  -10.0100002       1.36774350E-02
  -10.0000000       1.39039047E-02
  -9.98999977       1.41427880E-02
  -9.97999954       1.43942675E-02
  -9.97000027       1.46586169E-02
  -9.96000004       1.49361631E-02
  -9.94999981       1.52272899E-02
  -9.93999958       1.55323111E-02
  -9.93000031       1.58515871E-02
  -9.92000008       1.61852762E-02
  -9.90999985       1.65336411E-02
  -9.89999962       1.68967005E-02
  -9.89000034       1.72746312E-02
  -9.88000011       1.76676139E-02
  -9.86999989       1.80757958E-02
  -9.85999966       1.84994582E-02
  -9.85000038       1.89388767E-02
  -9.84000015       1.93942599E-02
  -9.82999992       1.98657829E-02
  -9.81999969       2.03534812E-02
  -9.81000042       2.08572224E-02
  -9.80000019       2.13768054E-02
  -9.78999996       2.19117869E-02
  -9.77999973       2.24618483E-02
  -9.77000046       2.30264254E-02
  -9.76000023       2.36051176E-02
  -9.75000000       2.41975226E-02
  -9.73999977       2.48032901E-02
  -9.72999954       2.54220273E-02
  -9.72000027       2.60533169E-02
  -9.71000004       2.66966503E-02
  -9.69999981       2.73513775E-02
  -9.68999958       2.80165635E-02
  -9.68000031       2.86911074E-02
  -9.67000008       2.93735415E-02
  -9.65999985       3.00622471E-02
  -9.64999962       3.07553671E-02
  -9.64000034       3.14507820E-02
  -9.63000011       3.21463123E-02
  -9.61999989       3.28396074E-02
  -9.60999966       3.35281938E-02
  -9.60000038       3.42096016E-02
  -9.59000015       3.48811597E-02
  -9.57999992       3.55404057E-02
  -9.56999969       3.61846238E-02
  -9.56000042       3.68112065E-02
  -9.55000019       3.74175906E-02
  -9.53999996       3.80013101E-02
  -9.52999973       3.85601446E-02
  -9.52000046       3.90920974E-02
  -9.51000023       3.95955816E-02
  -9.50000000       4.00694385E-02
  -9.48999977       4.05131243E-02
  -9.47999954       4.09265235E-02
  -9.47000027       4.13101874E-02
  -9.46000004       4.16651145E-02
  -9.44999981       4.19928879E-02
  -9.43999958       4.22956087E-02
  -9.43000031       4.25756201E-02
  -9.42000008       4.28359583E-02
  -9.40999985       4.30797972E-02
  -9.39999962       4.33108360E-02
  -9.39000034       4.35332358E-02
  -9.38000011       4.37511839E-02
  -9.36999989       4.39695567E-02
  -9.35999966       4.41931821E-02
  -9.35000038       4.44269590E-02
  -9.34000015       4.46759313E-02
  -9.32999992       4.49447967E-02
  -9.31999969       4.52382490E-02
  -9.31000042       4.55606021E-02
  -9.30000019       4.59158793E-02
  -9.28999996       4.63078469E-02
  -9.27999973       4.67400439E-02
  -9.27000046       4.72156890E-02
  -9.26000023       4.77379039E-02
  -9.25000000       4.83096577E-02
  -9.23999977       4.89334650E-02
  -9.22999954       4.96116877E-02
  -9.22000027       5.03463075E-02
  -9.21000004       5.11387289E-02
  -9.19999981       5.19900694E-02
  -9.18999958       5.29008694E-02
  -9.18000031       5.38709462E-02
  -9.17000008       5.48998453E-02
  -9.15999985       5.59865087E-02
  -9.14999962       5.71293198E-02
  -9.14000034       5.83263300E-02
  -9.13000011       5.95748164E-02
  -9.11999989       6.08717240E-02
  -9.10999966       6.22131079E-02
  -9.10000038       6.35946468E-02
  -9.09000015       6.50112629E-02
  -9.07999992       6.64572194E-02
  -9.06999969       6.79265037E-02
  -9.06000042       6.94125965E-02
  -9.05000019       7.09086284E-02
  -9.03999996       7.24075288E-02
  -9.02999973       7.39022344E-02
  -9.02000046       7.53853023E-02
  -9.01000023       7.68494979E-02
  -9.00000000       7.82873705E-02
  -8.98999977       7.96915740E-02
  -8.97999954       8.10550004E-02
  -8.97000027       8.23704898E-02
  -8.96000004       8.36313963E-02
  -8.94999981       8.48317370E-02
  -8.93999958       8.59657899E-02
  -8.93000031       8.70287865E-02
  -8.92000008       8.80166143E-02
  -8.90999985       8.89260247E-02
  -8.89999962       8.97543952E-02
  -8.89000034       9.04998779E-02
  -8.88000011       9.11614895E-02
  -8.86999989       9.17390659E-02
  -8.85999966       9.22331661E-02
  -8.85000038       9.26451012E-02
  -8.84000015       9.29772109E-02
  -8.82999992       9.32324827E-02
  -8.81999969       9.34148505E-02
  -8.81000042       9.35289115E-02
  -8.80000019       9.35795307E-02
  -8.78999996       9.35725570E-02
  -8.77999973       9.35140476E-02
  -8.77000046       9.34099779E-02
  -8.76000023       9.32670385E-02
  -8.75000000       9.30916518E-02
  -8.73999977       9.28903669E-02
  -8.72999954       9.26696509E-02
  -8.72000027       9.24357325E-02
  -8.71000004       9.21949446E-02
  -8.69999981       9.19527635E-02
  -8.68999958       9.17148590E-02
  -8.68000031       9.14863870E-02
  -8.67000008       9.12720039E-02
  -8.65999985       9.10762772E-02
  -8.64999962       9.09032077E-02
  -8.64000034       9.07564387E-02
  -8.63000011       9.06392559E-02
  -8.61999989       9.05545056E-02
  -8.60999966       9.05046463E-02
  -8.60000038       9.04918090E-02
  -8.59000015       9.05174240E-02
  -8.57999992       9.05826315E-02
  -8.56999969       9.06885117E-02
  -8.56000042       9.08355564E-02
  -8.55000019       9.10241082E-02
  -8.53999996       9.12544653E-02
  -8.52999973       9.15266946E-02
  -8.52000046       9.18409899E-02
  -8.51000023       9.21969265E-02
  -8.50000000       9.25942883E-02
  -8.48999977       9.30328295E-02
  -8.47999954       9.35115740E-02
  -8.47000027       9.40298811E-02
  -8.46000004       9.45862830E-02
  -8.44999981       9.51795653E-02
  -8.43999958       9.58079025E-02
  -8.43000031       9.64694768E-02
  -8.42000008       9.71623957E-02
  -8.40999985       9.78842527E-02
  -8.39999962       9.86331552E-02
  -8.39000034       9.94070172E-02
  -8.38000011      0.100204065    
  -8.36999989      0.101023369    
  -8.35999966      0.101863690    
  -8.35000038      0.102724865    
  -8.34000015      0.103607289    
  -8.32999992      0.104511388    
  -8.31999969      0.105438478    
  -8.31000042      0.106390014    
  -8.30000019      0.107367754    
  -8.28999996      0.108373843    
  -8.27999973      0.109410398    
  -8.27000046      0.110479958    
  -8.26000023      0.111585006    
  -8.25000000      0.112728372    
  -8.23999977      0.113912836    
  -8.22999954      0.115141138    
  -8.22000027      0.116416015    
  -8.21000004      0.117740333    
  -8.19999981      0.119116232    
  -8.18999958      0.120546319    
  -8.18000031      0.122032277    
  -8.17000008      0.123576246    
  -8.15999985      0.125179887    
  -8.14999962      0.126844361    
  -8.14000034      0.128570870    
  -8.13000011      0.130360395    
  -8.11999989      0.132213697    
  -8.10999966      0.134130985    
  -8.10000038      0.136112571    
  -8.09000015      0.138157696    
  -8.07999992      0.140265763    
  -8.06999969      0.142435595    
  -8.06000042      0.144665003    
  -8.05000019      0.146952152    
  -8.03999996      0.149294272    
  -8.02999973      0.151688561    
  -8.02000046      0.154131576    
  -8.01000023      0.156620100    
  -8.00000000      0.159149542    
  -7.98999977      0.161716148    
  -7.98000002      0.164314911    
  -7.96999979      0.166940913    
  -7.96000004      0.169589490    
  -7.94999981      0.172255576    
  -7.94000006      0.174933553    
  -7.92999983      0.177619293    
  -7.92000008      0.180307612    
  -7.90999985      0.182993725    
  -7.90000010      0.185672969    
  -7.88999987      0.188341543    
  -7.88000011      0.190993875    
  -7.86999989      0.193626553    
  -7.86000013      0.196234927    
  -7.84999990      0.198815003    
  -7.84000015      0.201363444    
  -7.82999992      0.203877389    
  -7.82000017      0.206354499    
  -7.80999994      0.208793178    
  -7.80000019      0.211192057    
  -7.78999996      0.213550881    
  -7.78000021      0.215869397    
  -7.76999998      0.218148977    
  -7.76000023      0.220390186    
  -7.75000000      0.222594872    
  -7.73999977      0.224765047    
  -7.73000002      0.226903170    
  -7.71999979      0.229012251    
  -7.71000004      0.231095538    
  -7.69999981      0.233157232    
  -7.69000006      0.235201403    
  -7.67999983      0.237231478    
  -7.67000008      0.239252836    
  -7.65999985      0.241269216    
  -7.65000010      0.243285656    
  -7.63999987      0.245306864    
  -7.63000011      0.247336775    
  -7.61999989      0.249380589    
  -7.61000013      0.251442462    
  -7.59999990      0.253527761    
  -7.59000015      0.255641103    
  -7.57999992      0.257786453    
  -7.57000017      0.259968996    
  -7.55999994      0.262192488    
  -7.55000019      0.264461279    
  -7.53999996      0.266779572    
  -7.53000021      0.269151062    
  -7.51999998      0.271579325    
  -7.51000023      0.274067909    
  -7.50000000      0.276619881    
  -7.48999977      0.279238373    
  -7.48000002      0.281926006    
  -7.46999979      0.284684867    
  -7.46000004      0.287517428    
  -7.44999981      0.290424824    
  -7.44000006      0.293409467    