  -16.0000000       0.00000000    
  -15.9899998       0.00000000    
  -15.9799995       0.00000000    
  -15.9700003       0.00000000    
  -15.9600000       0.00000000    
  -15.9499998       0.00000000    
  -15.9399996       0.00000000    
  -15.9300003       0.00000000    
  -15.9200001       0.00000000    
  -15.9099998       0.00000000    
  -15.8999996       0.00000000    
  -15.8900003       0.00000000    
  -15.8800001       0.00000000    
  -15.8699999      -1.38728548E-43
  -15.8599997      -1.03037476E-41
  -15.8500004      -2.62957861E-40
  -15.8400002      -3.73991846E-39
  -15.8299999      -3.68047651E-38
  -15.8199997      -2.74816489E-37
  -15.8100004      -1.64908462E-36
  -15.8000002      -8.26277106E-36
  -15.7900000      -3.54972432E-35
  -15.7799997      -1.33195219E-34
  -15.7700005      -4.42308494E-34
  -15.7600002      -1.31165774E-33
  -15.7500000      -3.49286024E-33
  -15.7399998      -8.37001349E-33
  -15.7299995      -1.80141438E-32
  -15.7200003      -3.45473617E-32
  -15.7100000      -5.79310417E-32
  -15.6999998      -8.11699773E-32
  -15.6899996      -8.26998479E-32
  -15.6800003      -1.82729436E-32
  -15.6700001       1.80478256E-31
  -15.6599998       5.87331803E-31
  -15.6499996       1.22526234E-30
  -15.6400003       1.96158654E-30
  -15.6300001       2.37042028E-30
  -15.6199999       1.63481661E-30
  -15.6099997      -1.35805032E-30
  -15.6000004      -7.50675959E-30
  -15.5900002      -1.63793917E-29
  -15.5799999      -2.45700904E-29
  -15.5699997      -2.42544741E-29
  -15.5600004      -3.67376177E-30
  -15.5500002       4.78078977E-29
  -15.5400000       1.27747595E-28
  -15.5299997       2.02769753E-28
  -15.5200005       1.93630698E-28
  -15.5100002      -1.67127702E-29
  -15.5000000      -5.23803689E-28
  -15.4899998      -1.27181663E-27
  -15.4799995      -1.87715712E-27
  -15.4700003      -1.51483798E-27
  -15.4600000       9.21791094E-28
  -15.4499998       6.14186262E-27
  -15.4399996       1.31748769E-26
  -15.4300003       1.78823474E-26
  -15.4200001       1.24226349E-26
  -15.4099998      -1.24907712E-26
  -15.3999996      -6.08721683E-26
  -15.3900003      -1.20618521E-25
  -15.3800001      -1.53157961E-25
  -15.3699999      -9.37077022E-26
  -15.3599997       1.24609356E-25
  -15.3500004       5.14539702E-25
  -15.3400002       9.56559816E-25
  -15.3299999       1.14052011E-24
  -15.3199997       6.00859624E-25
  -15.3100004      -1.07519888E-24
  -15.3000002      -3.84290553E-24
  -15.2900000      -6.71326783E-24
  -15.2799997      -7.49441368E-24
  -15.2700005      -3.22332451E-24
  -15.2600002       8.31125233E-24
  -15.2500000       2.60040535E-23
  -15.2399998       4.27570846E-23
  -15.2299995       4.46747140E-23
  -15.2200003       1.46827793E-23
  -15.2100000      -5.77109118E-23
  -15.1999998      -1.61782359E-22
  -15.1899996      -2.52290087E-22
  -15.1800003      -2.48761594E-22
  -15.1700001      -6.01052056E-23
  -15.1599998       3.59234786E-22
  -15.1499996       9.32516187E-22
  -15.1400003       1.39931545E-21
  -15.1300001       1.32759439E-21
  -15.1199999       2.58016965E-22
  -15.1099997      -2.00073038E-21
  -15.1000004      -4.99518458E-21
  -15.0900002      -7.35591766E-21
  -15.0799999      -6.90934272E-21
  -15.0699997      -1.42943908E-21
  -15.0600004       9.92411475E-21
  -15.0500002       2.48518353E-20
  -15.0400000       3.67313945E-20
  -15.0299997       3.52503050E-20
  -15.0200005       9.93964539E-21
  -15.0100002      -4.32892501E-20
  -15.0000000      -1.14329479E-19
  -14.9899998      -1.73671054E-19
  -14.9799995      -1.75095692E-19
  -14.9700003      -7.07699931E-20
  -14.9600000       1.60926734E-19
  -14.9499998       4.81978601E-19
  -14.9399996       7.71553388E-19
  -14.9300003       8.34497128E-19
  -14.9200001       4.59869045E-19
  -14.9099998      -4.68142299E-19
  -14.8999996      -1.83337531E-18
  -14.8900003      -3.18499732E-18
  -14.8800001      -3.75152836E-18
  -14.8699999      -2.64529051E-18
  -14.8599997       7.25567730E-19
  -14.8500004       6.12417890E-18
  -14.8400002       1.20427943E-17
  -14.8299999       1.56532086E-17
  -14.8199997       1.34364365E-17
  -14.8100004       2.59794972E-18
  -14.8000002      -1.69766479E-17
  -14.7900000      -4.09119130E-17
  -14.7799997      -5.97193168E-17
  -14.7700005      -6.04264172E-17
  -14.7600002      -3.10128772E-17
  -14.7500000       3.28956991E-17
  -14.7399998       1.21105422E-16
  -14.7299995       2.05048399E-16
  -14.7200003       2.40838784E-16
  -14.7100000       1.81693014E-16
  -14.6999998      -9.73322127E-19
  -14.6899996      -2.93092882E-16
  -14.6800003      -6.20078357E-16
  -14.6700001      -8.47803906E-16
  -14.6599998      -8.12393588E-16
  -14.6499996      -3.80475844E-16
  -14.6400003       4.71904395E-16
  -14.6300001       1.58854560E-15
  -14.6199999       2.60754180E-15
  -14.6099997       3.01628856E-15
  -14.6000004       2.30354570E-15
  -14.5900002       1.89347730E-16
  -14.5799999      -3.13133173E-15
  -14.5699997      -6.83284961E-15
  -14.5600004      -9.50346572E-15
  -14.5500002      -9.46829861E-15
  -14.5400000      -5.38355252E-15
  -14.5299997       3.02611118E-15
  -14.5200005       1.43370931E-14
  -14.5100002       2.52223101E-14
  -14.5000000       3.09549139E-14
  -14.4899998       2.67291902E-14
  -14.4799995       9.61317851E-15
  -14.4700003      -1.93988671E-14
  -14.4600000      -5.40361619E-14
  -14.4499998      -8.29602703E-14
  -14.4399996      -9.21127595E-14
  -14.4300003      -6.91571298E-14
  -14.4200001      -9.10329094E-15
  -14.4099998       8.06364727E-14
  -14.3999996       1.77992143E-13
  -14.3900003       2.48789243E-13
  -14.3800001       2.55018771E-13
  -14.3699999       1.67853389E-13
  -14.3599997      -1.77637090E-14
  -14.3500004      -2.71935225E-13
  -14.3400002      -5.27553478E-13
  -14.3299999      -6.91132210E-13
  -14.3199997      -6.67470528E-13
  -14.3100004      -3.93969688E-13
  -14.3000002       1.24614945E-13
  -14.2900000       7.93584274E-13
  -14.2799997       1.43030694E-12
  -14.2700005       1.79853409E-12
  -14.2600002       1.67359800E-12
  -14.2500000       9.25517584E-13
  -14.2399998      -4.03568943E-13
  -14.2299995      -2.05670225E-12
  -14.2200003      -3.58020016E-12
  -14.2100000      -4.41538949E-12
  -14.1999998      -4.05522924E-12
  -14.1899996      -2.23200646E-12
  -14.1800003       9.18366403E-13
  -14.1700001       4.77795277E-12
  -14.1599998       8.30587335E-12
  -14.1499996       1.02548152E-11
  -14.1400003       9.51819613E-12
  -14.1300001       5.53024163E-12
  -14.1199999      -1.39710173E-12
  -14.1099997      -9.92722484E-12
  -14.1000004      -1.78404218E-11
  -14.0900002      -2.24948671E-11
  -14.0799999      -2.15434250E-11
  -14.0699997      -1.37449696E-11
  -14.0600004       3.61351492E-13
  -14.0500002       1.81643225E-11
  -14.0400000       3.52556317E-11
  -14.0299997       4.63246976E-11
  -14.0200005       4.65449311E-11
  -14.0100002       3.31441610E-11
  -14.0000000       6.72360128E-12
  -13.9899998      -2.81302013E-11
  -13.9799995      -6.32828651E-11
  -13.9700003      -8.86409349E-11
  -13.9600000      -9.46673503E-11
  -13.9499998      -7.52795534E-11
  -13.9399996      -3.03545175E-11
  -13.9300003       3.29736273E-11
  -13.9200001       1.00847782E-10
  -13.9099998       1.55265578E-10
  -13.8999996       1.78355608E-10
  -13.8900003       1.57446930E-10
  -13.8800001       8.96306293E-11
  -13.8699999      -1.55885391E-11
  -13.8599997      -1.36650663E-10
  -13.8500004      -2.43743081E-10
  -13.8400002      -3.05576286E-10
  -13.8299999      -2.97727953E-10
  -13.8199997      -2.10475734E-10
  -13.8100004      -5.38386696E-11
  -13.8000002       1.42020062E-10
  -13.7900000       3.31860289E-10
  -13.7799997       4.65313232E-10
  -13.7700005       4.99668973E-10
  -13.7600002       4.12361673E-10
  -13.7500000       2.09668866E-10
  -13.7399998      -7.12722520E-11
  -13.7299995      -3.68540198E-10
  -13.7200003      -6.08909034E-10
  -13.7100000      -7.25891958E-10
  -13.6999998      -6.77914280E-10
  -13.6899996      -4.61630983E-10
  -13.6800003      -1.16248899E-10
  -13.6700001       2.83192719E-10
  -13.6599998       6.42712938E-10
  -13.6499996       8.72635963E-10
  -13.6400003       9.11245079E-10
  -13.6300001       7.42304829E-10
  -13.6199999       4.01135458E-10
  -13.6099997      -3.31266369E-11
  -13.6000004      -4.57625771E-10
  -13.5900002      -7.73046627E-10
  -13.5799999      -9.10413578E-10
  -13.5699997      -8.49485426E-10
  -13.5600004      -6.22919105E-10
  -13.5500002      -3.04456349E-10
  -13.5400000       1.56475180E-11
  -13.5299997       2.60438920E-10
  -13.5200005       3.91524896E-10
  -13.5100002       4.20790319E-10
  -13.5000000       4.03414857E-10
  -13.4899998       4.13082263E-10
  -13.4799995       5.06718056E-10
  -13.4700003       6.90872193E-10
  -13.4600000       9.03130681E-10
  -13.4499998       1.01877806E-09
  -13.4399996       8.85681195E-10
  -13.4300003       3.80843301E-10
  -13.4200001      -5.27007549E-10
  -13.4099998      -1.72992065E-09
  -13.3999996      -2.96899305E-09
  -13.3900003      -3.87170740E-09
  -13.3800001      -4.03845180E-09
  -13.3699999      -3.16241322E-09
  -13.3599997      -1.15282384E-09
  -13.3500004       1.77600989E-09
  -13.3400002       5.08535392E-09
  -13.3299999       7.98413158E-09
  -13.3199997       9.59156488E-09
  -13.3100004       9.16280740E-09
  -13.3000002       6.32584385E-09
  -13.2900000       1.26491773E-09
  -13.2799997      -5.21172394E-09
  -13.2700005      -1.17606884E-08
  -13.2600002      -1.67540168E-08
  -13.2500000      -1.86521785E-08
  -13.2399998      -1.64204010E-08
  -13.2299995      -9.88340165E-09
  -13.2200003       8.58129054E-11
  -13.2100000       1.16200400E-08
  -13.1999998       2.21779786E-08
  -13.1899996       2.90856281E-08
  -13.1800003       3.01894580E-08
  -13.1700001       2.44661749E-08
  -13.1599998       1.24249171E-08
  -13.1499996      -3.82927778E-09
  -13.1400003      -2.09291713E-08
  -13.1300001      -3.49374929E-08
  -13.1199999      -4.22599200E-08
  -13.1099997      -4.05681071E-08
  -13.1000004      -2.94965634E-08
  -13.0900002      -1.09105898E-08
  -13.0799999       1.13637899E-08
  -13.0699997       3.23282272E-08
  -13.0600004       4.69602490E-08
  -13.0500002       5.14550997E-08
  -13.0400000       4.42471269E-08
  -13.0299997       2.65299906E-08
  -13.0200005       2.10584372E-09
  -13.0100002      -2.34422224E-08
  -13.0000000      -4.40787176E-08
  -12.9899998      -5.48249481E-08
  -12.9799995      -5.30576081E-08
  -12.9700003      -3.92384472E-08
  -12.9600000      -1.68472880E-08
  -12.9499998       8.50336157E-09
  -12.9399996       3.05699182E-08
  -12.9300003       4.42069670E-08
  -12.9200001       4.68463810E-08
  -12.9099998       3.92840676E-08
  -12.8999996       2.54958099E-08
  -12.8900003       1.14614833E-08
  -12.8800001       3.25882032E-09
  -12.8699999       4.92575536E-09
  -12.8599997       1.67050107E-08
  -12.8500004       3.42446640E-08
  -12.8400002       4.91182846E-08
  -12.8299999       5.07019244E-08
  -12.8199997       2.90753928E-08
  -12.8100004      -2.17056275E-08
  -12.8000002      -1.00792718E-07
  -12.7900000      -1.98985362E-07
  -12.7799997      -2.99003290E-07
  -12.7700005      -3.77758425E-07
  -12.7600002      -4.10333996E-07
  -12.7500000      -3.74946353E-07
  -12.7399998      -2.57891003E-07
  -12.7299995      -5.74231684E-08
  -12.7200003       2.14270983E-07
  -12.7100000       5.31457317E-07
  -12.6999998       8.57545388E-07
  -12.6899996       1.14952195E-06
  -12.6800003       1.36327583E-06
  -12.6700001       1.45882245E-06
  -12.6599998       1.40460133E-06
  -12.6499996       1.18040248E-06
  -12.6400003       7.78854201E-07
  -12.6300001       2.05938150E-07
  -12.6199999      -5.18940681E-07
  -12.6099997      -1.36267249E-06
  -12.6000004      -2.27770965E-06
  -12.5900002      -3.20105710E-06
  -12.5799999      -4.05369155E-06
  -12.5699997      -4.74146555E-06
  -12.5600004      -5.15871761E-06
  -12.5500002      -5.19538389E-06
  -12.5400000      -4.74788476E-06
  -12.5299997      -3.73296984E-06
  -12.5200005      -2.10317899E-06
  -12.5100002       1.38637375E-07
  -12.5000000       2.92818959E-06
  -12.4899998       6.13414159E-06
  -12.4799995       9.55970791E-06
  -12.4700003       1.29516220E-05
  -12.4600000       1.60152558E-05
  -12.4499998       1.84340115E-05
  -12.4399996       1.98896178E-05
  -12.4300003       2.00810009E-05
  -12.4200001       1.87389687E-05
  -12.4099998       1.56359110E-05
  -12.3999996       1.05904546E-05
  -12.3900003       3.46915158E-06
  -12.3800001      -5.81313088E-06
  -12.3699999      -1.72911441E-05
  -12.3599997      -3.09436655E-05
  -12.3500004      -4.66839629E-05
  -12.3400002      -6.43469975E-05
  -12.3299999      -8.36753461E-05
  -12.3199997      -1.04307786E-04
  -12.3100004      -1.25772480E-04
  -12.3000002      -1.47489758E-04
  -12.2900000      -1.68783256E-04
  -12.2799997      -1.88901235E-04
  -12.2700005      -2.07045872E-04
  -12.2600002      -2.22404749E-04
  -12.2500000      -2.34184292E-04
  -12.2399998      -2.41638307E-04
  -12.2299995      -2.44091294E-04
  -12.2200003      -2.40954425E-04
  -12.2100000      -2.31739992E-04
  -12.1999998      -2.16063185E-04
  -12.1899996      -1.93655869E-04
  -12.1800003      -1.64373996E-04
  -12.1700001      -1.28207699E-04
  -12.1599998      -8.53019446E-05
  -12.1499996      -3.59677178E-05
  -12.1400003       1.93063552E-05
  -12.1300001       7.98528199E-05
  -12.1199999       1.44835882E-04
  -12.1099997       2.13274689E-04
  -12.1000004       2.84084468E-04
  -12.0900002       3.56120989E-04
  -12.0799999       4.28232946E-04
  -12.0699997       4.99309506E-04
  -12.0600004       5.68316260E-04
  -12.0500002       6.34318742E-04
  -12.0400000       6.96488423E-04
  -12.0299997       7.54089619E-04
  -12.0200005       8.06461205E-04
  -12.0100002       8.52985773E-04
  -12.0000000       8.93067569E-04
  -11.9899998       9.26106703E-04
  -11.9799995       9.51498921E-04
  -11.9700003       9.68627224E-04
  -11.9600000       9.76881711E-04
  -11.9499998       9.75667848E-04
  -11.9399996       9.64432256E-04
  -11.9300003       9.42672079E-04
  -11.9200001       9.09949478E-04
  -11.9099998       8.65898677E-04
  -11.8999996       8.10226134E-04
  -11.8900003       7.42719974E-04
  -11.8800001       6.63255807E-04
  -11.8699999       5.71804296E-04
  -11.8599997       4.68455110E-04
  -11.8500004       3.53432522E-04
  -11.8400002       2.27118289E-04
  -11.8299999       9.00653686E-05
  -11.8199997      -5.69923759E-05
  -11.8100004      -2.13144260E-04
  -11.8000002      -3.77308112E-04
  -11.7900000      -5.48256794E-04
  -11.7799997      -7.24639394E-04
  -11.7700005      -9.05009860E-04
  -11.7600002      -1.08784775E-03
  -11.7500000      -1.27158139E-03
  -11.7399998      -1.45459757E-03
  -11.7299995      -1.63525192E-03
  -11.7200003      -1.81187282E-03
  -11.7100000      -1.98277296E-03
  -11.6999998      -2.14624987E-03
  -11.6899996      -2.30060448E-03
  -11.6800003      -2.44415249E-03
  -11.6700001      -2.57524778E-03
  -11.6599998      -2.69229687E-03
  -11.6499996      -2.79378216E-03
  -11.6400003      -2.87827128E-03
  -11.6300001      -2.94443523E-03
  -11.6199999      -2.99104932E-03
  -11.6099997      -3.01699690E-03
  -11.6000004      -3.02127469E-03
  -11.5900002      -3.00299074E-03
  -11.5799999      -2.96136900E-03
  -11.5699997      -2.89575220E-03
  -11.5600004      -2.80560809E-03
  -11.5500002      -2.69053271E-03
  -11.5400000      -2.55025667E-03
  -11.5299997      -2.38464377E-03
  -11.5200005      -2.19369354E-03
  -11.5100002      -1.97753659E-03
  -11.5000000      -1.73642836E-03
  -11.4899998      -1.47075311E-03
  -11.4799995      -1.18101307E-03
  -11.4700003      -8.67834606E-04
  -11.4600000      -5.31976402E-04
  -11.4499998      -1.74340821E-04
  -11.4399996       2.04022974E-04
  -11.4300003       6.01904292E-04
  -11.4200001       1.01793732E-03
  -11.4099998       1.45059964E-03
  -11.3999996       1.89823518E-03
  -11.3900003       2.35908036E-03
  -11.3800001       2.83129676E-03
  -11.3699999       3.31300986E-03
  -11.3599997       3.80234956E-03
  -11.3500004       4.29748045E-03
  -11.3400002       4.79662186E-03
  -11.3299999       5.29806549E-03
  -11.3199997       5.80017641E-03
  -11.3100004       6.30138675E-03
  -11.3000002       6.80018729E-03
  -11.2900000       7.29512796E-03
  -11.2799997       7.78480107E-03
  -11.2700005       8.26784689E-03
  -11.2600002       8.74296017E-03
  -11.2500000       9.20890458E-03
  -11.2399998       9.66451503E-03
  -11.2299995       1.01086935E-02
  -11.2200003       1.05404444E-02
  -11.2100000       1.09588355E-02
  -11.1999998       1.13630155E-02
  -11.1899996       1.17522068E-02
  -11.1800003       1.21257035E-02
  -11.1700001       1.24828676E-02
  -11.1599998       1.28231589E-02
  -11.1499996       1.31461453E-02
  -11.1400003       1.34515148E-02
  -11.1300001       1.37391137E-02
  -11.1199999       1.40089532E-02
  -11.1099997       1.42612280E-02
  -11.1000004       1.44962827E-02
  -11.0900002       1.47146182E-02
  -11.0799999       1.49168577E-02
  -11.0699997       1.51037117E-02
  -11.0600004       1.52759142E-02
  -11.0500002       1.54342307E-02
  -11.0400000       1.55793801E-02
  -11.0299997       1.57120358E-02
  -11.0200005       1.58328153E-02
  -11.0100002       1.59422383E-02
  -11.0000000       1.60407629E-02
  -10.9899998       1.61287617E-02
  -10.9799995       1.62065476E-02
  -10.9700003       1.62743535E-02
  -10.9600000       1.63323618E-02
  -10.9499998       1.63807068E-02
  -10.9399996       1.64194722E-02
  -10.9300003       1.64487008E-02
  -10.9200001       1.64683778E-02
  -10.9099998       1.64784696E-02
  -10.8999996       1.64788757E-02
  -10.8900003       1.64694563E-02
  -10.8800001       1.64500065E-02
  -10.8699999       1.64202731E-02
  -10.8599997       1.63799338E-02
  -10.8500004       1.63285881E-02
  -10.8400002       1.62657965E-02
  -10.8299999       1.61910411E-02
  -10.8199997       1.61037650E-02
  -10.8100004       1.60033647E-02
  -10.8000002       1.58892162E-02
  -10.7900000       1.57606509E-02
  -10.7799997       1.56170139E-02
  -10.7700005       1.54576469E-02
  -10.7600002       1.52819073E-02
  -10.7500000       1.50891570E-02
  -10.7399998       1.48788076E-02
  -10.7299995       1.46502843E-02
  -10.7200003       1.44030889E-02
  -10.7100000       1.41367624E-02
  -10.6999998       1.38509553E-02
  -10.6899996       1.35454098E-02
  -10.6800003       1.32200094E-02
  -10.6700001       1.28747709E-02
  -10.6599998       1.25099076E-02
  -10.6499996       1.21257752E-02
  -10.6400003       1.17228972E-02
  -10.6300001       1.13019645E-02
  -10.6199999       1.08637968E-02
  -10.6099997       1.04093188E-02
  -10.6000004       9.93954483E-03
  -10.5900002       9.45561938E-03
  -10.5799999       8.95877462E-03
  -10.5699997       8.45035817E-03
  -10.5600004       7.93183967E-03
  -10.5500002       7.40488386E-03
  -10.5400000       6.87128026E-03
  -10.5299997       6.33297814E-03
  -10.5200005       5.79201570E-03
  -10.5100002       5.25051774E-03
  -10.5000000       4.71054297E-03
  -10.4899998       4.17408627E-03
  -10.4799995       3.64292227E-03
  -10.4700003       3.11858626E-03
  -10.4600000       2.60232622E-03
  -10.4499998       2.09505297E-03
  -10.4399996       1.59734231E-03
  -10.4300003       1.10948598E-03
  -10.4200001       6.31492061E-04
  -10.4099998       1.63180783E-04
  -10.3999996      -2.95778067E-04
  -10.3900003      -7.45831290E-04
  -10.3800001      -1.18745281E-03
  -10.3699999      -1.62113644E-03
  -10.3599997      -2.04735994E-03
  -10.3500004      -2.46657687E-03
  -10.3400002      -2.87920749E-03
  -10.3299999      -3.28565459E-03
  -10.3199997      -3.68634937E-03
  -10.3100004      -4.08169487E-03
  -10.3000002      -4.47212113E-03
  -10.2900000      -4.85802628E-03
  -10.2799997      -5.23977401E-03
  -10.2700005      -5.61766513E-03
  -10.2600002      -5.99184958E-03
  -10.2500000      -6.36231247E-03
  -10.2399998      -6.72884146E-03
  -10.2299995      -7.09103467E-03
  -10.2200003      -7.44827930E-03
  -10.2100000      -7.79981492E-03
  -10.1999998      -8.14473350E-03
  -10.1899996      -8.48209392E-03
  -10.1800003      -8.81087221E-03
  -10.1700001      -9.13012214E-03
  -10.1599998      -9.43884905E-03
  -10.1499996      -9.73616540E-03
  -10.1400003      -1.00211566E-02
  -10.1300001      -1.02929845E-02
  -10.1199999      -1.05508175E-02
  -10.1099997      -1.07938815E-02
  -10.1000004      -1.10214278E-02
  -10.0900002      -1.12327961E-02
  -10.0799999      -1.14274202E-02
  -10.0699997      -1.16048027E-02
  -10.0600004      -1.17645888E-02
  -10.0500002      -1.19064730E-02
  -10.0400000      -1.20302578E-02
  -10.0299997      -1.21357879E-02
  -10.0200005      -1.22229699E-02
  -10.0100002      -1.22916820E-02
  -10.0000000      -1.23418579E-02
  -9.98999977      -1.23733515E-02
  -9.97999954      -1.23860557E-02
  -9.97000027      -1.23798307E-02
  -9.96000004      -1.23545071E-02
  -9.94999981      -1.23098688E-02
  -9.93999958      -1.22456532E-02
  -9.93000031      -1.21615389E-02
  -9.92000008      -1.20571051E-02
  -9.90999985      -1.19318394E-02
  -9.89999962      -1.17851142E-02
  -9.89000034      -1.16162440E-02
  -9.88000011      -1.14244539E-02
  -9.86999989      -1.12089496E-02
  -9.85999966      -1.09689692E-02
  -9.85000038      -1.07037565E-02
  -9.84000015      -1.04127293E-02
  -9.82999992      -1.00954296E-02
  -9.81999969      -9.75159369E-03
  -9.81000042      -9.38121602E-03
  -9.80000019      -8.98455456E-03
  -9.78999996      -8.56211223E-03
  -9.77999973      -8.11472256E-03
  -9.77000046      -7.64340023E-03
  -9.76000023      -7.14943651E-03
  -9.75000000      -6.63425308E-03
  -9.73999977      -6.09941874E-03
  -9.72999954      -5.54653723E-03
  -9.72000027      -4.97731753E-03
  -9.71000004      -4.39344253E-03
  -9.69999981      -3.79669643E-03
  -9.68999958      -3.18887364E-03
  -9.68000031      -2.57191248E-03
  -9.67000008      -1.94784487E-03
  -9.65999985      -1.31880911E-03
  -9.64999962      -6.87044812E-04
  -9.64000034      -5.48072203E-05
  -9.63000011       5.75691753E-04
  -9.61999989       1.20232231E-03
  -9.60999966       1.82312250E-03
  -9.60000038       2.43634707E-03
  -9.59000015       3.04044643E-03
  -9.57999992       3.63414595E-03
  -9.56999969       4.21633665E-03
  -9.56000042       4.78617242E-03
  -9.55000019       5.34302928E-03
  -9.53999996       5.88650862E-03
  -9.52999973       6.41649496E-03
  -9.52000046       6.93316571E-03
  -9.51000023       7.43692834E-03
  -9.50000000       7.92845339E-03
  -9.48999977       8.40858184E-03
  -9.47999954       8.87821801E-03
  -9.47000027       9.33830161E-03
  -9.46000004       9.78970155E-03
  -9.44999981       1.02331657E-02
  -9.43999958       1.06693506E-02
  -9.43000031       1.10987080E-02
  -9.42000008       1.15216142E-02
  -9.40999985       1.19382935E-02
  -9.39999962       1.23488475E-02
  -9.39000034       1.27531523E-02
  -9.38000011       1.31508568E-02
  -9.36999989       1.35412272E-02
  -9.35999966       1.39232706E-02
  -9.35000038       1.42955119E-02
  -9.34000015       1.46561442E-02
  -9.32999992       1.50030544E-02
  -9.31999969       1.53337866E-02
  -9.31000042       1.56457871E-02
  -9.30000019       1.59362499E-02
  -9.28999996       1.62022859E-02
  -9.27999973       1.64409447E-02
  -9.27000046       1.66492071E-02
  -9.26000023       1.68240517E-02
  -9.25000000       1.69624891E-02
  -9.23999977       1.70616489E-02
  -9.22999954       1.71188954E-02
  -9.22000027       1.71318594E-02
  -9.21000004       1.70985200E-02
  -9.19999981       1.70171261E-02
  -9.18999958       1.68863479E-02
  -9.18000031       1.67050324E-02
  -9.17000008       1.64722819E-02
  -9.15999985       1.61873791E-02
  -9.14999962       1.58497859E-02
  -9.14000034       1.54591519E-02
  -9.13000011       1.50153851E-02
  -9.11999989       1.45187182E-02
  -9.10999966       1.39697399E-02
  -9.10000038       1.33695090E-02
  -9.09000015       1.27194198E-02
  -9.07999992       1.20213171E-02
  -9.06999969       1.12774502E-02
  -9.06000042       1.04904557E-02
  -9.05000019       9.66338813E-03
  -9.03999996       8.79974477E-03
  -9.02999973       7.90346693E-03
  -9.02000046       6.97908737E-03
  -9.01000023       6.03156444E-03
  -9.00000000       5.06630680E-03
  -8.98999977       4.08904767E-03
  -8.97999954       3.10572144E-03
  -8.97000027       2.12237146E-03
  -8.96000004       1.14502222E-03
  -8.94999981       1.79653405E-04
  -8.93999958      -7.67827674E-04
  -8.93000031      -1.69142184E-03
  -8.92000008      -2.58517358E-03
  -8.90999985      -3.44289071E-03
  -8.89999962      -4.25835559E-03
  -8.89000034      -5.02520241E-03
  -8.88000011      -5.73708816E-03
  -8.86999989      -6.38779346E-03
  -8.85999966      -6.97136810E-03
  -8.85000038      -7.48215616E-03
  -8.84000015      -7.91485514E-03
  -8.82999992      -8.26466084E-03
  -8.81999969      -8.52696225E-03
  -8.81000042      -8.69751535E-03
  -8.80000019      -8.77236947E-03
  -8.78999996      -8.74772295E-03
  -8.77999973      -8.62011686E-03
  -8.77000046      -8.38635210E-03
  -8.76000023      -8.04360770E-03
  -8.75000000      -7.58940121E-03
  -8.73999977      -7.02174474E-03
  -8.72999954      -6.33900333E-03
  -8.72000027      -5.53988433E-03
  -8.71000004      -4.62344568E-03
  -8.69999981      -3.58906784E-03
  -8.68999958      -2.43646465E-03
  -8.68000031      -1.16560899E-03
  -8.67000008       2.22974224E-04
  -8.65999985       1.72829640E-03
  -8.64999962       3.34875984E-03
  -8.64000034       5.08211460E-03
  -8.63000011       6.92556659E-03
  -8.61999989       8.87570158E-03
  -8.60999966       1.09287817E-02
  -8.60000038       1.30805550E-02
  -8.59000015       1.53266517E-02
  -8.57999992       1.76622383E-02
  -8.56999969       2.00822949E-02
  -8.56000042       2.25814525E-02
  -8.55000019       2.51539685E-02
  -8.53999996       2.77937464E-02
  -8.52999973       3.04943137E-02
  -8.52000046       3.32491808E-02
  -8.51000023       3.60516608E-02
  -8.50000000       3.88954543E-02
  -8.48999977       4.17744555E-02
  -8.47999954       4.46830839E-02
  -8.47000027       4.76162396E-02
  -8.46000004       5.05691543E-02
  -8.44999981       5.35376109E-02
  -8.43999958       5.65175526E-02
  -8.43000031       5.95053062E-02
  -8.42000008       6.24972805E-02
  -8.40999985       6.54904768E-02
  -8.39999962       6.84821233E-02
  -8.39000034       7.14698881E-02
  -8.38000011       7.44520575E-02
  -8.36999989       7.74271190E-02
  -8.35999966       8.03940296E-02
  -8.35000038       8.33516866E-02
  -8.34000015       8.62990320E-02
  -8.32999992       8.92347544E-02
  -8.31999969       9.21574458E-02
  -8.31000042       9.50653329E-02
  -8.30000019       9.79566127E-02
  -8.28999996      0.100829348    
  -8.27999973      0.103681386    
  -8.27000046      0.106510594    
  -8.26000023      0.109314375    
  -8.25000000      0.112089872    
  -8.23999977      0.114833474    
  -8.22999954      0.117541097    
  -8.22000027      0.120207764    
  -8.21000004      0.122828275    
  -8.19999981      0.125396922    
  -8.18999958      0.127907902    
  -8.18000031      0.130355597    
  -8.17000008      0.132734388    
  -8.15999985      0.135038882    
  -8.14999962      0.137263626    
  -8.14000034      0.139403179    
  -8.13000011      0.141451627    
  -8.11999989      0.143403262    
  -8.10999966      0.145251796    
  -8.10000038      0.146991119    
  -8.09000015      0.148615226    
  -8.07999992      0.150118217    
  -8.06999969      0.151495025    
  -8.06000042      0.152740508    
  -8.05000019      0.153849885    
  -8.03999996      0.154818445    
  -8.02999973      0.155641109    
  -8.02000046      0.156312734    
  -8.01000023      0.156827793    
  -8.00000000      0.157180920    
  -7.98999977      0.157366619    
  -7.98000002      0.157380000    
  -7.96999979      0.157216519    
  -7.96000004      0.156872302    
  -7.94999981      0.156344146    
  -7.94000006      0.155629143    
  -7.92999983      0.154724777    
  -7.92000008      0.153628469    
  -7.90999985      0.152338237    
  -7.90000010      0.150852099    
  -7.88999987      0.149168834    
  -7.88000011      0.147288084    
  -7.86999989      0.145210490    
  -7.86000013      0.142937973    
  -7.84999990      0.140473247    
  -7.84000015      0.137820289    
  -7.82999992      0.134983525    
  -7.82000017      0.131968156    
  -7.80999994      0.128779739    
  -7.80000019      0.125424162    
  -7.78999996      0.121908233    
  -7.78000021      0.118239671    
  -7.76999998      0.114427224    
  -7.76000023      0.110480972    
  -7.75000000      0.106412008    
  -7.73999977      0.102232441    
  -7.73000002       9.79547873E-02
  -7.71999979       9.35917050E-02
  -7.71000004       8.91559720E-02
  -7.69999981       8.46600085E-02
  -7.69000006       8.01162571E-02
  -7.67999983       7.55371079E-02
  -7.67000008       7.09356219E-02
  -7.65999985       6.63248152E-02
  -7.65000010       6.17185384E-02
  -7.63999987       5.71305864E-02
  -7.63000011       5.25744446E-02
  -7.61999989       4.80630994E-02
  -7.61000013       4.36081849E-02
  -7.59999990       3.92202847E-02
  -7.59000015       3.49088982E-02
  -7.57999992       3.06826793E-02
  -7.57000017       2.65494436E-02
  -7.55999994       2.25169770E-02
  -7.55000019       1.85927916E-02
  -7.53999996       1.47845773E-02
  -7.53000021       1.10993143E-02
  -7.51999998       7.54382694E-03
  -7.51000023       4.12367797E-03
  -7.50000000       8.43645656E-04
  -7.48999977      -2.29255762E-03
  -7.48000002      -5.28214499E-03
  -7.46999979      -8.12255964E-03
  -7.46000004      -1.08114937E-02
  -7.44999981      -1.33464048E-02
  -7.44000006      -1.57249440E-02