  -16.0000000       0.00000000    
  -15.9899998       0.00000000    
  -15.9799995       0.00000000    
  -15.9700003       0.00000000    
  -15.9600000       0.00000000    
  -15.9499998       0.00000000    
  -15.9399996       0.00000000    
  -15.9300003       0.00000000    
  -15.9200001       0.00000000    
  -15.9099998       0.00000000    
  -15.8999996       0.00000000    
  -15.8900003       0.00000000    
  -15.8800001       0.00000000    
  -15.8699999       0.00000000    
  -15.8599997       0.00000000    
  -15.8500004      -0.00000000    
  -15.8400002      -0.00000000    
  -15.8299999      -0.00000000    
  -15.8199997      -1.40129846E-45
  -15.8100004      -1.12103877E-44
  -15.8000002      -8.54792063E-44
  -15.7900000      -5.10072641E-43
  -15.7799997      -2.58119177E-42
  -15.7700005      -1.12594332E-41
  -15.7600002      -4.32622875E-41
  -15.7500000      -1.48555854E-40
  -15.7399998      -4.60604003E-40
  -15.7299995      -1.29874023E-39
  -15.7200003      -3.34581728E-39
  -15.7100000      -7.89450497E-39
  -15.6999998      -1.70617154E-38
  -15.6899996      -3.36779665E-38
  -15.6800003      -6.02760407E-38
  -15.6700001      -9.63564213E-38
  -15.6599998      -1.33229404E-37
  -15.6499996      -1.46763134E-37
  -15.6400003      -9.08556522E-38
  -15.6300001       1.01618544E-37
  -15.6199999       4.99690522E-37
  -15.6099997       1.12598157E-36
  -15.6000004       1.87704167E-36
  -15.5900002       2.43316945E-36
  -15.5799999       2.21462967E-36
  -15.5699997       4.75960507E-37
  -15.5600004      -3.36799221E-36
  -15.5500002      -9.16421035E-36
  -15.5400000      -1.53494924E-35
  -15.5299997      -1.85957266E-35
  -15.5200005      -1.43842440E-35
  -15.5100002       9.69130933E-37
  -15.5000000       2.69563584E-35
  -15.4899998       5.55636894E-35
  -15.4799995       7.08426536E-35
  -15.4700003       5.47673035E-35
  -15.4600000       8.34750222E-37
  -15.4499998      -6.87839142E-35
  -15.4399996      -9.52212356E-35
  -15.4300003      -3.32508422E-36
  -15.4200001       2.34271134E-34
  -15.4099998       4.98670693E-34
  -15.3999996       4.48211863E-34
  -15.3900003      -4.26756750E-34
  -15.3800001      -2.49387004E-33
  -15.3699999      -5.37678977E-33
  -15.3599997      -7.26110942E-33
  -15.3500004      -4.66003760E-33
  -15.3400002       6.52458139E-33
  -15.3299999       2.79439722E-32
  -15.3199997       5.39914136E-32
  -15.3100004       6.73801179E-32
  -15.3000002       3.95546679E-32
  -15.2900000      -5.84642695E-32
  -15.2799997      -2.31554214E-31
  -15.2700005      -4.26953842E-31
  -15.2600002      -5.09491883E-31
  -15.2500000      -2.76491670E-31
  -15.2399998       4.54516128E-31
  -15.2299995       1.67471138E-30
  -15.2200003       2.97489220E-30
  -15.2100000       3.42374447E-30
  -15.1999998       1.72457491E-30
  -15.1899996      -3.17382610E-30
  -15.1800003      -1.10050925E-29
  -15.1700001      -1.89923264E-29
  -15.1599998      -2.13155095E-29
  -15.1499996      -1.03130103E-29
  -15.1400003       1.97301066E-29
  -15.1300001       6.64245113E-29
  -15.1199999       1.12914444E-28
  -15.1099997       1.25713103E-28
  -15.1000004       6.23224370E-29
  -15.0900002      -1.07466746E-28
  -15.0799999      -3.68704627E-28
  -15.0699997      -6.28970153E-28
  -15.0600004      -7.09409217E-28
  -15.0500002      -3.86464205E-28
  -15.0400000       4.98393547E-28
  -15.0299997       1.87405502E-27
  -15.0200005       3.28138480E-27
  -15.0100002       3.83064770E-27
  -15.0000000       2.40207895E-27
  -14.9899998      -1.83331428E-27
  -14.9799995      -8.63670495E-27
  -14.9700003      -1.59478632E-26
  -14.9600000      -1.96476239E-26
  -14.9499998      -1.44041872E-26
  -14.9399996       4.04721582E-27
  -14.9300003       3.54448116E-26
  -14.9200001       7.15285944E-26
  -14.9099998       9.46321055E-26
  -14.8999996       8.07645162E-26
  -14.8900003       8.78189388E-27
  -14.8800001      -1.25129129E-25
  -14.8699999      -2.92098652E-25
  -14.8599997      -4.22533277E-25
  -14.8500004      -4.15300409E-25
  -14.8400002      -1.71359608E-25
  -14.8299999       3.49573430E-25
  -14.8199997       1.06456493E-24
  -14.8100004       1.72528081E-24
  -14.8000002       1.93647958E-24
  -14.7900000       1.26657998E-24
  -14.7799997      -5.46988312E-25
  -14.7700005      -3.34381927E-24
  -14.7600002      -6.34008653E-24
  -14.7500000      -8.12171508E-24
  -14.7399998      -6.95975847E-24
  -14.7299995      -1.49111386E-24
  -14.7200003       8.35304618E-24
  -14.7100000       2.04878600E-23
  -14.6999998       3.03602807E-23
  -14.6899996       3.16699160E-23
  -14.6800003       1.83939171E-23
  -14.6700001      -1.21011097E-23
  -14.6599998      -5.57374974E-23
  -14.6499996      -9.96837393E-23
  -14.6400003      -1.23313651E-22
  -14.6300001      -1.03428866E-22
  -14.6199999      -2.36817637E-23
  -14.6099997       1.13882851E-22
  -14.6000004       2.79386184E-22
  -14.5900002       4.13303186E-22
  -14.5799999       4.37246490E-22
  -14.5699997       2.79168938E-22
  -14.5600004      -9.08155354E-23
  -14.5500002      -6.24559329E-22
  -14.5400000      -1.17597881E-21
  -14.5299997      -1.51413442E-21
  -14.5200005      -1.38023809E-21
  -14.5100002      -5.85625395E-22
  -14.5000000       8.71597445E-22
  -14.4899998       2.71244519E-21
  -14.4799995       4.35672313E-21
  -14.4700003       5.02039380E-21
  -14.4600000       3.94517937E-21
  -14.4499998       7.25839123E-22
  -14.4399996      -4.35618675E-21
  -14.4300003      -1.01278831E-20
  -14.4200001      -1.45908973E-20
  -14.4099998      -1.53527145E-20
  -14.3999996      -1.04087141E-20
  -14.3900003       8.87007723E-22
  -14.3800001       1.69691886E-20
  -14.3699999       3.37160983E-20
  -14.3599997       4.49606461E-20
  -14.3500004       4.40122932E-20
  -14.3400002       2.60115102E-20
  -14.3299999      -9.45713494E-21
  -14.3199997      -5.63931546E-20
  -14.3100004      -1.02054856E-19
  -14.3000002      -1.29043717E-19
  -14.2900000      -1.19940413E-19
  -14.2799997      -6.37255873E-20
  -14.2700005       3.77304413E-20
  -14.2600002       1.65478309E-19
  -14.2500000       2.83972862E-19
  -14.2399998       3.47733469E-19
  -14.2299995       3.13959116E-19
  -14.2200003       1.58651290E-19
  -14.2100000      -1.08304800E-19
  -14.1999998      -4.34798390E-19
  -14.1899996      -7.30087807E-19
  -14.1800003      -8.83013753E-19
  -14.1700001      -7.93257936E-19
  -14.1599998      -4.09023158E-19
  -14.1499996       2.39758895E-19
  -14.1400003       1.02541279E-18
  -14.1300001       1.73438247E-18
  -14.1199999       2.11138120E-18
  -14.1099997       1.93064761E-18
  -14.1000004       1.07853051E-18
  -14.0900002      -3.76593309E-19
  -14.0799999      -2.15360981E-18
  -14.0699997      -3.78805045E-18
  -14.0600004      -4.72845348E-18
  -14.0500002      -4.48664791E-18
  -14.0400000      -2.80811212E-18
  -14.0299997       1.86614053E-19
  -14.0200005       3.94146971E-18
  -14.0100002       7.52456177E-18
  -14.0000000       9.81878773E-18
  -13.9899998       9.81564527E-18
  -13.9799995       6.94583395E-18
  -13.9700003       1.35382407E-18
  -13.9600000      -5.98010762E-18
  -13.9499998      -1.33409832E-17
  -13.9399996      -1.86213245E-17
  -13.9300003      -1.98527681E-17
  -13.9200001      -1.58078831E-17
  -13.9099998      -6.50781204E-18
  -13.8999996       6.53267336E-18
  -13.8900003       2.04451717E-17
  -13.8800001       3.15643850E-17
  -13.8699999       3.63159387E-17
  -13.8599997       3.22373394E-17
  -13.8500004       1.88611986E-17
  -13.8400002      -1.81640508E-18
  -13.8299999      -2.54844139E-17
  -13.8199997      -4.63380392E-17
  -13.8100004      -5.84440160E-17
  -13.8000002      -5.73445143E-17
  -13.7900000      -4.14813806E-17
  -13.7799997      -1.30139647E-17
  -13.7700005       2.22822472E-17
  -13.7600002       5.61289228E-17
  -13.7500000       7.96854715E-17
  -13.7399998       8.58738876E-17
  -13.7299995       7.14790590E-17
  -13.7200003       3.84079612E-17
  -13.7100000      -6.34176132E-18
  -13.6999998      -5.21327603E-17
  -13.6899996      -8.72947060E-17
  -13.6800003      -1.02260011E-16
  -13.6700001      -9.23800470E-17
  -13.6599998      -5.95772998E-17
  -13.6499996      -1.22400355E-17
  -13.6400003       3.67792261E-17
  -13.6300001       7.36523735E-17
  -13.6199999       8.76556214E-17
  -13.6099997       7.46702226E-17
  -13.6000004       3.89785670E-17
  -13.5900002      -7.38006324E-18
  -13.5799999      -4.77724398E-17
  -13.5699997      -6.59696457E-17
  -13.5600004      -5.16491541E-17
  -13.5500002      -4.74279183E-18
  -13.5400000       6.28911839E-17
  -13.5299997       1.29380736E-16
  -13.5200005       1.68275390E-16
  -13.5100002       1.56359820E-16
  -13.5000000       8.18175792E-17
  -13.4899998      -4.96850568E-17
  -13.4799995      -2.13155153E-16
  -13.4700003      -3.67890735E-16
  -13.4600000      -4.66352359E-16
  -13.4499998      -4.66530448E-16
  -13.4399996      -3.44798631E-16
  -13.4300003      -1.05695610E-16
  -13.4200001       2.14516150E-16
  -13.4099998       5.52337321E-16
  -13.3999996       8.29372628E-16
  -13.3900003       9.70167503E-16
  -13.3800001       9.21419910E-16
  -13.3699999       6.67666733E-16
  -13.3599997       2.39002575E-16
  -13.3500004      -2.91849172E-16
  -13.3400002      -8.23214116E-16
  -13.3299999      -1.24610924E-15
  -13.3199997      -1.46880966E-15
  -13.3100004      -1.43820699E-15
  -13.3000002      -1.15240707E-15
  -13.2900000      -6.61090739E-16
  -13.2799997      -5.33939957E-17
  -13.2700005       5.63566542E-16
  -13.2600002       1.08972652E-15
  -13.2500000       1.45372358E-15
  -13.2399998       1.62516622E-15
  -13.2299995       1.61414399E-15
  -13.2200003       1.45853917E-15
  -13.2100000       1.20355049E-15
  -13.1999998       8.80639456E-16
  -13.1899996       4.93749852E-16
  -13.1800003       1.88712968E-17
  -13.1700001      -5.81038079E-16
  -13.1599998      -1.32891994E-15
  -13.1499996      -2.20222743E-15
  -13.1400003      -3.10834685E-15
  -13.1300001      -3.87774309E-15
  -13.1199999      -4.28231864E-15
  -13.1099997      -4.08007385E-15
  -13.1000004      -3.07932263E-15
  -13.0900002      -1.20849790E-15
  -13.0799999       1.42687390E-15
  -13.0699997       4.51843754E-15
  -13.0600004       7.57402038E-15
  -13.0500002       9.98561551E-15
  -13.0400000       1.11386425E-14
  -13.0299997       1.05435807E-14
  -13.0200005       7.96271364E-15
  -13.0100002       3.50241602E-15
  -13.0000000      -2.35417709E-15
  -12.9899998      -8.78853180E-15
  -12.9799995      -1.47611212E-14
  -12.9700003      -1.91817878E-14
  -12.9600000      -2.11056673E-14
  -12.9499998      -1.99165788E-14
  -12.9399996      -1.54609212E-14
  -12.9300003      -8.10419101E-15
  -12.9200001       1.30283239E-15
  -12.9099998       1.15420995E-14
  -12.8999996       2.12081685E-14
  -12.8900003       2.89155364E-14
  -12.8800001       3.34955486E-14
  -12.8699999       3.41500916E-14
  -12.8599997       3.05412196E-14
  -12.8500004       2.28117696E-14
  -12.8400002       1.15467481E-14
  -12.8299999      -2.30406789E-15
  -12.8199997      -1.75189470E-14
  -12.8100004      -3.26939132E-14
  -12.8000002      -4.63212774E-14
  -12.7900000      -5.68613421E-14
  -12.7799997      -6.28217029E-14
  -12.7700005      -6.28619471E-14
  -12.7600002      -5.59361890E-14
  -12.7500000      -4.14723086E-14
  -12.7399998      -1.95687176E-14
  -12.7299995       8.82787817E-15
  -12.7200003       4.18116571E-14
  -12.7100000       7.65218848E-14
  -12.6999998       1.09296063E-13
  -12.6899996       1.35982114E-13
  -12.6800003       1.52386296E-13
  -12.6700001       1.54803308E-13
  -12.6599998       1.40551782E-13
  -12.6499996       1.08430199E-13
  -12.6400003       5.90174678E-14
  -12.6300001      -5.23029716E-15
  -12.6199999      -8.00998536E-14
  -12.6099997      -1.59932384E-13
  -12.6000004      -2.38069194E-13
  -12.5900002      -3.07361395E-13
  -12.5799999      -3.60672457E-13
  -12.5699997      -3.91326484E-13
  -12.5600004      -3.93483423E-13
  -12.5500002      -3.62455156E-13
  -12.5400000      -2.95001735E-13
  -12.5299997      -1.89649904E-13
  -12.5200005      -4.70635019E-14
  -12.5100002       1.29529769E-13
  -12.5000000       3.33900035E-13
  -12.4899998       5.56440636E-13
  -12.4799995       7.83953523E-13
  -12.4700003       9.99700756E-13
  -12.4600000       1.18379579E-12
  -12.4499998       1.31395914E-12
  -12.4399996       1.36660876E-12
  -12.4300003       1.31819252E-12
  -12.4200001       1.14662685E-12
  -12.4099998       8.32694428E-13
  -12.3999996       3.61258088E-13
  -12.3900003      -2.77799187E-13
  -12.3800001      -1.08894404E-12
  -12.3699999      -2.07066178E-12
  -12.3599997      -3.21531387E-12
  -12.3500004      -4.50912268E-12
  -12.3400002      -5.93220915E-12
  -12.3299999      -7.45857022E-12
  -12.3199997      -9.05607360E-12
  -12.3100004      -1.06864829E-11
  -12.3000002      -1.23056947E-11
  -12.2900000      -1.38642197E-11
  -12.2799997      -1.53080777E-11
  -12.2700005      -1.65801834E-11
  -12.2600002      -1.76221451E-11
  -12.2500000      -1.83763543E-11
  -12.2399998      -1.87883337E-11
  -12.2299995      -1.88089006E-11
  -12.2200003      -1.83961336E-11
  -12.2100000      -1.75168786E-11
  -12.1999998      -1.61476874E-11
  -12.1899996      -1.42752450E-11
  -12.1800003      -1.18963442E-11
  -12.1700001      -9.01752457E-12
  -12.1599998      -5.65469763E-12
  -12.1499996      -1.83273795E-12
  -12.1400003       2.41473031E-12
  -12.1300001       7.04536603E-12
  -12.1199999       1.20079849E-11
  -12.1099997       1.72425546E-11
  -12.1000004       2.26804062E-11
  -12.0900002       2.82448214E-11
  -12.0799999       3.38522300E-11
  -12.0699997       3.94140276E-11
  -12.0600004       4.48389346E-11
  -12.0500002       5.00356562E-11
  -12.0400000       5.49158705E-11
  -12.0299997       5.93968069E-11
  -12.0200005       6.34035949E-11
  -12.0100002       6.68709671E-11
  -12.0000000       6.97441202E-11
  -11.9899998       7.19787563E-11
  -11.9799995       7.35406527E-11
  -11.9700003       7.44045103E-11
  -11.9600000       7.45525516E-11
  -11.9499998       7.39729597E-11
  -11.9399996       7.26583030E-11
  -11.9300003       7.06040643E-11
  -11.9200001       6.78073916E-11
  -11.9099998       6.42659120E-11
  -11.8999996       5.99771274E-11
  -11.8900003       5.49377731E-11
  -11.8800001       4.91435122E-11
  -11.8699999       4.25895465E-11
  -11.8599997       3.52713726E-11
  -11.8500004       2.71864319E-11
  -11.8400002       1.83361850E-11
  -11.8299999       8.72910078E-12
  -11.8199997      -1.61674515E-12
  -11.8100004      -1.26700300E-11
  -11.8000002      -2.43839358E-11
  -11.7900000      -3.66938528E-11
  -11.7799997      -4.95165541E-11
  -11.7700005      -6.27501315E-11
  -11.7600002      -7.62754027E-11
  -11.7500000      -8.99584643E-11
  -11.7399998      -1.03654224E-10
  -11.7299995      -1.17210519E-10
  -11.7200003      -1.30472702E-10
  -11.7100000      -1.43288381E-10
  -11.6999998      -1.55511409E-10
  -11.6899996      -1.67005867E-10
  -11.6800003      -1.77648840E-10
  -11.6700001      -1.87332205E-10
  -11.6599998      -1.95963232E-10
  -11.6499996      -2.03463843E-10
  -11.6400003      -2.09769022E-10
  -11.6300001      -2.14823714E-10
  -11.6199999      -2.18579335E-10
  -11.6099997      -2.20989976E-10
  -11.6000004      -2.22009494E-10
  -11.5900002      -2.21588095E-10
  -11.5799999      -2.19671670E-10
  -11.5699997      -2.16201584E-10
  -11.5600004      -2.11116555E-10
  -11.5500002      -2.04355477E-10
  -11.5400000      -1.95861230E-10
  -11.5299997      -1.85584603E-10
  -11.5200005      -1.73488168E-10
  -11.5100002      -1.59548638E-10
  -11.5000000      -1.43758630E-10
  -11.4899998      -1.26127012E-10
  -11.4799995      -1.06677431E-10
  -11.4700003      -8.54471771E-11
  -11.4600000      -6.24846355E-11
  -11.4499998      -3.78476625E-11
  -11.4399996      -1.16007455E-11
  -11.4300003       1.61859519E-11
  -11.4200001       4.54373969E-11
  -11.4099998       7.60751115E-11
  -11.3999996       1.08018178E-10
  -11.3900003       1.41183509E-10
  -11.3800001       1.75487000E-10
  -11.3699999       2.10844578E-10
  -11.3599997       2.47172893E-10
  -11.3500004       2.84389623E-10
  -11.3400002       3.22413568E-10
  -11.3299999       3.61163099E-10
  -11.3199997       4.00554950E-10
  -11.3100004       4.40502107E-10
  -11.3000002       4.80912032E-10
  -11.2900000       5.21684917E-10
  -11.2799997       5.62713431E-10
  -11.2700005       6.03882722E-10
  -11.2600002       6.45073883E-10
  -11.2500000       6.86164958E-10
  -11.2399998       7.27036986E-10
  -11.2299995       7.67578001E-10
  -11.2200003       8.07686973E-10
  -11.2100000       8.47279025E-10
  -11.1999998       8.86285378E-10
  -11.1899996       9.24657018E-10
  -11.1800003       9.62361302E-10
  -11.1700001       9.99380578E-10
  -11.1599998       1.03570919E-09
  -11.1499996       1.07134934E-09
  -11.1400003       1.10630383E-09
  -11.1300001       1.14057563E-09
  -11.1199999       1.17416654E-09
  -11.1099997       1.20707089E-09
  -11.1000004       1.23928223E-09
  -11.0900002       1.27078759E-09
  -11.0799999       1.30157651E-09
  -11.0699997       1.33163525E-09
  -11.0600004       1.36095746E-09
  -11.0500002       1.38953504E-09
  -11.0400000       1.41736911E-09
  -11.0299997       1.44445766E-09
  -11.0200005       1.47080470E-09
  -11.0100002       1.49641133E-09
  -11.0000000       1.52127710E-09
  -10.9899998       1.54539415E-09
  -10.9799995       1.56875080E-09
  -10.9700003       1.59132640E-09
  -10.9600000       1.61309410E-09
  -10.9499998       1.63401459E-09
  -10.9399996       1.65404790E-09
  -10.9300003       1.67314673E-09
  -10.9200001       1.69126657E-09
  -10.9099998       1.70836467E-09
  -10.8999996       1.72440684E-09
  -10.8900003       1.73936898E-09
  -10.8800001       1.75324399E-09
  -10.8699999       1.76604242E-09
  -10.8599997       1.77778803E-09
  -10.8500004       1.78852499E-09
  -10.8400002       1.79831039E-09
  -10.8299999       1.80721349E-09
  -10.8199997       1.81530690E-09
  -10.8100004       1.82266002E-09
  -10.8000002       1.82934068E-09
  -10.7900000       1.83539761E-09
  -10.7799997       1.84087001E-09
  -10.7700005       1.84577531E-09
  -10.7600002       1.85011362E-09
  -10.7500000       1.85386007E-09
  -10.7399998       1.85697902E-09
  -10.7299995       1.85941851E-09
  -10.7200003       1.86111482E-09
  -10.7100000       1.86201077E-09
  -10.6999998       1.86203908E-09
  -10.6899996       1.86116000E-09
  -10.6800003       1.85934246E-09
  -10.6700001       1.85656845E-09
  -10.6599998       1.85285687E-09
  -10.6499996       1.84825810E-09
  -10.6400003       1.84284732E-09
  -10.6300001       1.83673243E-09
  -10.6199999       1.83004056E-09
  -10.6099997       1.82292448E-09
  -10.6000004       1.81554716E-09
  -10.5900002       1.80808646E-09
  -10.5799999       1.80070869E-09
  -10.5699997       1.79358572E-09
  -10.5600004       1.78688087E-09
  -10.5500002       1.78074866E-09
  -10.5400000       1.77531134E-09
  -10.5299997       1.77069970E-09
  -10.5200005       1.76699977E-09
  -10.5100002       1.76430404E-09
  -10.5000000       1.76266957E-09
  -10.4899998       1.76214565E-09
  -10.4799995       1.76276205E-09
  -10.4700003       1.76452919E-09
  -10.4600000       1.76744430E-09
  -10.4499998       1.77148318E-09
  -10.4399996       1.77660120E-09
  -10.4300003       1.78274873E-09
  -10.4200001       1.78985915E-09
  -10.4099998       1.79783810E-09
  -10.3999996       1.80659077E-09
  -10.3900003       1.81600357E-09
  -10.3800001       1.82595339E-09
  -10.3699999       1.83630677E-09
  -10.3599997       1.84693383E-09
  -10.3500004       1.85768578E-09
  -10.3400002       1.86842852E-09
  -10.3299999       1.87903582E-09
  -10.3199997       1.88939753E-09
  -10.3100004       1.89942417E-09
  -10.3000002       1.90903893E-09
  -10.2900000       1.91821314E-09
  -10.2799997       1.92691352E-09
  -10.2700005       1.93515537E-09
  -10.2600002       1.94297156E-09
  -10.2500000       1.95040251E-09
  -10.2399998       1.95750394E-09
  -10.2299995       1.96435157E-09
  -10.2200003       1.97101802E-09
  -10.2100000       1.97758787E-09
  -10.1999998       1.98416350E-09
  -10.1899996       1.99084638E-09
  -10.1800003       1.99775951E-09
  -10.1700001       2.00501726E-09
  -10.1599998       2.01274619E-09
  -10.1499996       2.02108263E-09
  -10.1400003       2.03016248E-09
  -10.1300001       2.04011363E-09
  -10.1199999       2.05106265E-09
  -10.1099997       2.06313056E-09
  -10.1000004       2.07643058E-09
  -10.0900002       2.09108020E-09
  -10.0799999       2.10716844E-09
  -10.0699997       2.12479878E-09
  -10.0600004       2.14404139E-09
  -10.0500002       2.16498597E-09
  -10.0400000       2.18768847E-09
  -10.0299997       2.21218222E-09
  -10.0200005       2.23849517E-09
  -10.0100002       2.26664354E-09
  -10.0000000       2.29659247E-09
  -9.98999977       2.32831998E-09
  -9.97999954       2.36177033E-09
  -9.97000027       2.39691289E-09
  -9.96000004       2.43367460E-09
  -9.94999981       2.47203902E-09
  -9.93999958       2.51199217E-09
  -9.93000031       2.55354737E-09
  -9.92000008       2.59673860E-09
  -9.90999985       2.64163358E-09
  -9.89999962       2.68833200E-09
  -9.89000034       2.73695844E-09
  -9.88000011       2.78764567E-09
  -9.86999989       2.84055979E-09
  -9.85999966       2.89586199E-09
  -9.85000038       2.95371727E-09
  -9.84000015       3.01430214E-09
  -9.82999992       3.07779779E-09
  -9.81999969       3.14436543E-09
  -9.81000042       3.21417315E-09
  -9.80000019       3.28737482E-09
  -9.78999996       3.36414052E-09
  -9.77999973       3.44462370E-09
  -9.77000046       3.52896690E-09
  -9.76000023       3.61730668E-09
  -9.75000000       3.70976960E-09
  -9.73999977       3.80642406E-09
  -9.72999954       3.90735799E-09
  -9.72000027       4.01262001E-09
  -9.71000004       4.12218348E-09
  -9.69999981       4.23600266E-09
  -9.68999958       4.35400116E-09
  -9.68000031       4.47600756E-09
  -9.67000008       4.60185179E-09
  -9.65999985       4.73126027E-09
  -9.64999962       4.86394258E-09
  -9.64000034       4.99954034E-09
  -9.63000011       5.13765119E-09
  -9.61999989       5.27782174E-09
  -9.60999966       5.41955902E-09
  -9.60000038       5.56233681E-09
  -9.59000015       5.70558045E-09
  -9.57999992       5.84871129E-09
  -9.56999969       5.99114536E-09
  -9.56000042       6.13225737E-09
  -9.55000019       6.27145447E-09
  -9.53999996       6.40813802E-09
  -9.52999973       6.54170895E-09
  -9.52000046       6.67158773E-09
  -9.51000023       6.79720991E-09
  -9.50000000       6.91803947E-09
  -9.48999977       7.03359504E-09
  -9.47999954       7.14344761E-09
  -9.47000027       7.24724147E-09
  -9.46000004       7.34471195E-09
  -9.44999981       7.43567918E-09
  -9.43999958       7.52003437E-09
  -9.43000031       7.59783436E-09
  -9.42000008       7.66919861E-09
  -9.40999985       7.73440068E-09
  -9.39999962       7.79377274E-09
  -9.39000034       7.84778553E-09
  -9.38000011       7.89700838E-09
  -9.36999989       7.94212607E-09
  -9.35999966       7.98390243E-09
  -9.35000038       8.02321143E-09
  -9.34000015       8.06103184E-09
  -9.32999992       8.09839751E-09
  -9.31999969       8.13638845E-09
  -9.31000042       8.17615842E-09
  -9.30000019       8.21886292E-09
  -9.28999996       8.26569213E-09
  -9.27999973       8.31783709E-09
  -9.27000046       8.37649949E-09
  -9.26000023       8.44284465E-09
  -9.25000000       8.51799520E-09
  -9.23999977       8.60303739E-09
  -9.22999954       8.69903882E-09
  -9.22000027       8.80691875E-09
  -9.21000004       8.92755114E-09
  -9.19999981       9.06168651E-09
  -9.18999958       9.20995724E-09
  -9.18000031       9.37284561E-09
  -9.17000008       9.55065627E-09
  -9.15999985       9.74364589E-09
  -9.14999962       9.95180827E-09
  -9.14000034       1.01750386E-08
  -9.13000011       1.04130882E-08
  -9.11999989       1.06655502E-08
  -9.10999966       1.09318332E-08
  -9.10000038       1.12112541E-08
  -9.09000015       1.15029035E-08
  -9.07999992       1.18058194E-08
  -9.06999969       1.21188242E-08
  -9.06000042       1.24407160E-08
  -9.05000019       1.27701378E-08
  -9.03999996       1.31056472E-08
  -9.02999973       1.34457894E-08
  -9.02000046       1.37890472E-08
  -9.01000023       1.41338337E-08
  -9.00000000       1.44785552E-08
  -8.98999977       1.48215857E-08
  -8.97999954       1.51613158E-08
  -8.97000027       1.54960809E-08
  -8.96000004       1.58242557E-08
  -8.94999981       1.61442451E-08
  -8.93999958       1.64545018E-08
  -8.93000031       1.67535248E-08
  -8.92000008       1.70397900E-08
  -8.90999985       1.73119972E-08
  -8.89999962       1.75688122E-08
  -8.89000034       1.78090591E-08
  -8.88000011       1.80315922E-08
  -8.86999989       1.82354238E-08
  -8.85999966       1.84196924E-08
  -8.85000038       1.85837017E-08
  -8.84000015       1.87268174E-08
  -8.82999992       1.88485672E-08
  -8.81999969       1.89486649E-08
  -8.81000042       1.90269525E-08
  -8.80000019       1.90833678E-08
  -8.78999996       1.91179694E-08
  -8.77999973       1.91309510E-08
  -8.77000046       1.91226928E-08
  -8.76000023       1.90936689E-08
  -8.75000000       1.90443767E-08
  -8.73999977       1.89754932E-08
  -8.72999954       1.88877820E-08
  -8.72000027       1.87820852E-08
  -8.71000004       1.86593585E-08
  -8.69999981       1.85205611E-08
  -8.68999958       1.83667872E-08
  -8.68000031       1.81992004E-08
  -8.67000008       1.80190067E-08
  -8.65999985       1.78273876E-08
  -8.64999962       1.76256822E-08
  -8.64000034       1.74151342E-08
  -8.63000011       1.71971255E-08
  -8.61999989       1.69729386E-08
  -8.60999966       1.67438667E-08
  -8.60000038       1.65110698E-08
  -8.59000015       1.62757576E-08
  -8.57999992       1.60390758E-08
  -8.56999969       1.58020157E-08
  -8.56000042       1.55655719E-08
  -8.55000019       1.53306221E-08
  -8.53999996       1.50979780E-08
  -8.52999973       1.48683883E-08
  -8.52000046       1.46425148E-08
  -8.51000023       1.44210190E-08
  -8.50000000       1.42043994E-08
  -8.48999977       1.39931311E-08
  -8.47999954       1.37876661E-08
  -8.47000027       1.35882408E-08
  -8.46000004       1.33952822E-08
  -8.44999981       1.32088740E-08
  -8.43999958       1.30293261E-08
  -8.43000031       1.28568303E-08
  -8.42000008       1.26915571E-08
  -8.40999985       1.25337509E-08
  -8.39999962       1.23835742E-08
  -8.39000034       1.22411379E-08
  -8.38000011       1.21067005E-08
  -8.36999989       1.19805232E-08
  -8.35999966       1.18628405E-08
  -8.35000038       1.17539241E-08
  -8.34000015       1.16540662E-08
  -8.32999992       1.15636078E-08
  -8.31999969       1.14829835E-08
  -8.31000042       1.14126726E-08
  -8.30000019       1.13530119E-08
  -8.28999996       1.13045617E-08
  -8.27999973       1.12677894E-08
  -8.27000046       1.12432472E-08
  -8.26000023       1.12315632E-08
  -8.25000000       1.12332472E-08
  -8.23999977       1.12488356E-08
  -8.22999954       1.12790604E-08
  -8.22000027       1.13245822E-08
  -8.21000004       1.13859162E-08
  -8.19999981       1.14637713E-08
  -8.18999958       1.15587957E-08
  -8.18000031       1.16717276E-08
  -8.17000008       1.18031531E-08
  -8.15999985       1.19535315E-08
  -8.14999962       1.21235493E-08
  -8.14000034       1.23135759E-08
  -8.13000011       1.25242572E-08
  -8.11999989       1.27557493E-08
  -8.10999966       1.30085454E-08
  -8.10000038       1.32826115E-08
  -8.09000015       1.35781422E-08
  -8.07999992       1.38951917E-08
  -8.06999969       1.42335308E-08
  -8.06000042       1.45929810E-08
  -8.05000019       1.49733204E-08
  -8.03999996       1.53740203E-08
  -8.02999973       1.57946261E-08
  -8.02000046       1.62345088E-08
  -8.01000023       1.66929031E-08
  -8.00000000       1.71691035E-08
  -7.98999977       1.76622219E-08
  -7.98000002       1.81714661E-08
  -7.96999979       1.86958076E-08
  -7.96000004       1.92342942E-08
  -7.94999981       1.97859205E-08
  -7.94000006       2.03496349E-08
  -7.92999983       2.09244906E-08
  -7.92000008       2.15093365E-08
  -7.90999985       2.21031691E-08
  -7.90000010       2.27048513E-08
  -7.88999987       2.33134063E-08
  -7.88000011       2.39275924E-08
  -7.86999989       2.45463276E-08
  -7.86000013       2.51685659E-08
  -7.84999990       2.57931188E-08
  -7.84000015       2.64190341E-08
  -7.82999992       2.70452887E-08
  -7.82000017       2.76708150E-08
  -7.80999994       2.82943393E-08
  -7.80000019       2.89152506E-08
  -7.78999996       2.95324849E-08
  -7.78000021       3.01450456E-08
  -7.76999998       3.07521262E-08
  -7.76000023       3.13528759E-08
  -7.75000000       3.19464810E-08
  -7.73999977       3.25323128E-08
  -7.73000002       3.31097887E-08
  -7.71999979       3.36782726E-08
  -7.71000004       3.42373347E-08
  -7.69999981       3.47865026E-08
  -7.69000006       3.53255238E-08
  -7.67999983       3.58541214E-08
  -7.67000008       3.63720254E-08
  -7.65999985       3.68792321E-08
  -7.65000010       3.73756386E-08
  -7.63999987       3.78616107E-08
  -7.63000011       3.83372694E-08
  -7.61999989       3.88031438E-08
  -7.61000013       3.92594437E-08
  -7.59999990       3.97070927E-08
  -7.59000015       4.01464604E-08
  -7.57999992       4.05784313E-08
  -7.57000017       4.10040535E-08
  -7.55999994       4.14243218E-08
  -7.55000019       4.18404298E-08
  -7.53999996       4.22532800E-08
  -7.53000021       4.26642011E-08
  -7.51999998       4.30744791E-08
  -7.51000023       4.34854677E-08
  -7.50000000       4.38982610E-08
  -7.48999977       4.43141488E-08
  -7.48000002       4.47343353E-08
  -7.46999979       4.51599966E-08
  -7.46000004       4.55921310E-08
  -7.44999981       4.60319214E-08
  -7.44000006       4.64802383E-08