  -16.0000000       0.00000000    
  -15.9899998       0.00000000    
  -15.9799995       0.00000000    
  -15.9700003       0.00000000    
  -15.9600000       0.00000000    
  -15.9499998       0.00000000    
  -15.9399996       0.00000000    
  -15.9300003       0.00000000    
  -15.9200001       0.00000000    
  -15.9099998       0.00000000    
  -15.8999996       0.00000000    
  -15.8900003       0.00000000    
  -15.8800001       0.00000000    
  -15.8699999       0.00000000    
  -15.8599997      -0.00000000    
  -15.8500004      -0.00000000    
  -15.8400002      -0.00000000    
  -15.8299999      -2.80259693E-45
  -15.8199997      -2.10194770E-44
  -15.8100004      -1.37327250E-43
  -15.8000002      -7.39885589E-43
  -15.7900000      -3.47241759E-42
  -15.7799997      -1.43058560E-41
  -15.7700005      -5.25038509E-41
  -15.7600002      -1.73455527E-40
  -15.7500000      -5.19869119E-40
  -15.7399998      -1.42163691E-39
  -15.7299995      -3.56074424E-39
  -15.7200003      -8.18498573E-39
  -15.7100000      -1.72661257E-38
  -15.6999998      -3.33353855E-38
  -15.6899996      -5.85182855E-38
  -15.6800003      -9.21610570E-38
  -15.6700001      -1.26672247E-37
  -15.6599998      -1.42183545E-37
  -15.6499996      -1.02651088E-37
  -15.6400003       4.12106408E-38
  -15.6300001       3.34669601E-37
  -15.6199999       7.81340437E-37
  -15.6099997       1.28772683E-36
  -15.6000004       1.61025274E-36
  -15.5900002       1.34843960E-36
  -15.5799999       4.38304636E-38
  -15.5699997      -2.56945118E-36
  -15.5600004      -6.18277886E-36
  -15.5500002      -9.54264936E-36
  -15.5400000      -1.03747184E-35
  -15.5299997      -5.94723660E-36
  -15.5200005       5.52617946E-36
  -15.5100002       2.28843768E-35
  -15.5000000       4.03230550E-35
  -15.4899998       4.74840713E-35
  -15.4799995       3.27463023E-35
  -15.4700003      -1.00750068E-35
  -15.4600000      -7.38001584E-35
  -15.4499998      -1.33551655E-34
  -15.4399996      -1.51815853E-34
  -15.4300003      -9.58270284E-35
  -15.4200001       3.72967971E-35
  -15.4099998       2.01824666E-34
  -15.3999996       3.10410589E-34
  -15.3900003       2.78657227E-34
  -15.3800001       9.49289461E-35
  -15.3699999      -1.30043253E-34
  -15.3599997      -1.98293729E-34
  -15.3500004       1.74009970E-35
  -15.3400002       3.44684492E-34
  -15.3299999       1.92438447E-34
  -15.3199997      -1.19934614E-33
  -15.3100004      -3.98302816E-33
  -15.3000002      -6.61886706E-33
  -15.2900000      -5.28339381E-33
  -15.2799997       4.97983194E-33
  -15.2700005       2.63783489E-32
  -15.2600002       5.22779248E-32
  -15.2500000       6.21527944E-32
  -15.2399998       2.36485248E-32
  -15.2299995      -9.17087779E-32
  -15.2200003      -2.77433288E-31
  -15.2100000      -4.55460803E-31
  -15.1999998      -4.59399837E-31
  -15.1899996      -7.38624579E-32
  -15.1800003       8.41628376E-31
  -15.1700001       2.15441031E-30
  -15.1599998       3.26632640E-30
  -15.1499996       3.08446671E-30
  -15.1400003       3.43803369E-31
  -15.1300001      -5.61109721E-30
  -15.1199999      -1.37187736E-29
  -15.1099997      -2.02704337E-29
  -15.1000004      -1.90049774E-29
  -15.0900002      -3.12730135E-30
  -15.0799999       3.04001000E-29
  -15.0699997       7.52306153E-29
  -15.0600004       1.11383041E-28
  -15.0500002       1.06521669E-28
  -15.0400000       2.67604716E-29
  -15.0299997      -1.42034529E-28
  -15.0200005      -3.67695776E-28
  -15.0100002      -5.53127080E-28
  -15.0000000      -5.44496988E-28
  -14.9899998      -1.83133452E-28
  -14.9799995       5.96665230E-28
  -14.9700003       1.64951220E-27
  -14.9600000       2.53955973E-27
  -14.9499998       2.58094026E-27
  -14.9399996       1.06688286E-27
  -14.9300003      -2.30847779E-27
  -14.9200001      -6.94833385E-27
  -14.9099998      -1.10193961E-26
  -14.8999996      -1.16176385E-26
  -14.8900003      -5.70839858E-27
  -14.8800001       8.14926133E-27
  -14.8699999       2.77483580E-26
  -14.8599997       4.58310899E-26
  -14.8500004       5.06400291E-26
  -14.8400002       2.95063869E-26
  -14.8299999      -2.44486607E-26
  -14.8199997      -1.04175726E-25
  -14.8100004      -1.82792877E-25
  -14.8000002      -2.14837319E-25
  -14.7900000      -1.48897422E-25
  -14.7799997       4.77040121E-26
  -14.7700005       3.57794766E-25
  -14.7600002       6.89730721E-25
  -14.7500000       8.77115508E-25
  -14.7399998       7.19047208E-25
  -14.7299995       6.55272056E-26
  -14.7200003      -1.06869580E-24
  -14.7100000      -2.40435555E-24
  -14.6999998      -3.37366306E-24
  -14.6899996      -3.23216330E-24
  -14.6800003      -1.33252303E-24
  -14.6700001       2.48179072E-24
  -14.6599998       7.49187986E-24
  -14.6499996       1.19289408E-23
  -14.6400003       1.32230451E-23
  -14.6300001       8.79979073E-24
  -14.6199999      -2.65196774E-24
  -14.6099997      -1.97946611E-23
  -14.6000004      -3.77497648E-23
  -14.5900002      -4.84089575E-23
  -14.5799999      -4.24695133E-23
  -14.5699997      -1.31708083E-23
  -14.5600004       3.91133109E-23
  -14.5500002       1.03125647E-22
  -14.5400000       1.56018625E-22
  -14.5299997       1.67615108E-22
  -14.5200005       1.10258761E-22
  -14.5100002      -2.73695985E-23
  -14.5000000      -2.26711707E-22
  -14.4899998      -4.32285881E-22
  -14.4799995      -5.57490248E-22
  -14.4700003      -5.06965184E-22
  -14.4600000      -2.13694114E-22
  -14.4499998       3.18298433E-22
  -14.4399996       9.81469992E-22
  -14.4300003       1.56119324E-21
  -14.4200001       1.77586933E-21
  -14.4099998       1.36355615E-21
  -14.3999996       1.99570298E-22
  -14.3900003      -1.59024655E-21
  -14.3800001      -3.56924961E-21
  -14.3699999      -5.03015881E-21
  -14.3599997      -5.16190591E-21
  -14.3500004      -3.32868788E-21
  -14.3400002       6.04330411E-22
  -14.3299999       6.00923976E-21
  -14.3199997       1.14264573E-20
  -14.3100004       1.47918020E-20
  -14.3000002       1.39865288E-20
  -14.2900000       7.62230536E-21
  -14.2799997      -4.15054392E-21
  -14.2700005      -1.91097899E-20
  -14.2600002      -3.30044806E-20
  -14.2500000      -4.03670827E-20
  -14.2399998      -3.60670942E-20
  -14.2299995      -1.72942916E-20
  -14.2200003       1.46039917E-20
  -14.2100000       5.31454593E-20
  -14.1999998       8.72344932E-20
  -14.1899996       1.03488618E-19
  -14.1800003       9.01322556E-20
  -14.1700001       4.15917043E-20
  -14.1599998      -3.75851709E-20
  -14.1499996      -1.31041061E-19
  -14.1400003      -2.12404161E-19
  -14.1300001      -2.50990224E-19
  -14.1199999      -2.20637659E-19
  -14.1099997      -1.09633846E-19
  -14.1000004       7.12320316E-20
  -14.0900002       2.85636865E-19
  -14.0799999       4.76052524E-19
  -14.0699997       5.76004376E-19
  -14.0600004       5.28433995E-19
  -14.0500002       3.05945959E-19
  -14.0400000      -7.28996406E-20
  -14.0299997      -5.37249982E-19
  -14.0200005      -9.71928328E-19
  -14.0100002      -1.24067703E-18
  -14.0000000      -1.22125793E-18
  -13.9899998      -8.44692336E-19
  -13.9799995      -1.28016708E-19
  -13.9700003       8.10392413E-19
  -13.9600000       1.76110227E-18
  -13.9499998       2.46199039E-18
  -13.9399996       2.65967063E-18
  -13.9300003       2.18148000E-18
  -13.9200001       1.00018172E-18
  -13.9099998      -7.27786487E-19
  -13.8999996      -2.66604241E-18
  -13.8900003      -4.35087407E-18
  -13.8800001      -5.28781865E-18
  -13.8699999      -5.07468233E-18
  -13.8599997      -3.52352388E-18
  -13.8500004      -7.49750148E-19
  -13.8400002       2.80029837E-18
  -13.8299999       6.40068388E-18
  -13.8199997       9.17628677E-18
  -13.8100004       1.02923370E-17
  -13.8000002       9.16533076E-18
  -13.7900000       5.64656689E-18
  -13.7799997       1.29373607E-19
  -13.7700005      -6.45713316E-18
  -13.7600002      -1.27821863E-17
  -13.7500000      -1.73608502E-17
  -13.7399998      -1.88712886E-17
  -13.7299995      -1.64766189E-17
  -13.7200003      -1.00777465E-17
  -13.7100000      -4.32190832E-19
  -13.6999998       1.09016796E-17
  -13.6899996       2.17993144E-17
  -13.6800003       2.99482461E-17
  -13.6700001       3.33009580E-17
  -13.6599998       3.05133825E-17
  -13.6499996       2.12794992E-17
  -13.6400003       6.49094251E-18
  -13.6300001      -1.18157299E-17
  -13.6199999      -3.07215409E-17
  -13.6099997      -4.68566351E-17
  -13.6000004      -5.69332534E-17
  -13.5900002      -5.82991006E-17
  -13.5799999      -4.94318072E-17
  -13.5699997      -3.03067164E-17
  -13.5600004      -2.58605466E-18
  -13.5500002       3.04061601E-17
  -13.5400000       6.39443238E-17
  -13.5299997       9.24028375E-17
  -13.5200005       1.09982649E-16
  -13.5100002       1.11614776E-16
  -13.5000000       9.39492218E-17
  -13.4899998       5.62884297E-17
  -13.4799995       1.28443665E-18
  -13.4700003      -6.47983315E-17
  -13.4600000      -1.32424178E-16
  -13.4499998      -1.89823988E-16
  -13.4399996      -2.24696453E-16
  -13.4300003      -2.26385384E-16
  -13.4200001      -1.88198254E-16
  -13.4099998      -1.09424884E-16
  -13.3999996       3.40863594E-18
  -13.3900003       1.36440266E-16
  -13.3800001       2.69745477E-16
  -13.3699999       3.79952616E-16
  -13.3599997       4.43902518E-16
  -13.3500004       4.42807649E-16
  -13.3400002       3.66213530E-16
  -13.3299999       2.15022649E-16
  -13.3199997       2.93882610E-18
  -13.3100004      -2.44093111E-16
  -13.3000002      -4.90574272E-16
  -13.2900000      -6.96046942E-16
  -13.2799997      -8.21054076E-16
  -13.2700005      -8.33653480E-16
  -13.2600002      -7.15517371E-16
  -13.2500000      -4.66609381E-16
  -13.2399998      -1.07539316E-16
  -13.2299995       3.21052857E-16
  -13.2200003       7.62355011E-16
  -13.2100000       1.15027275E-15
  -13.1999998       1.41862603E-15
  -13.1899996       1.51145120E-15
  -13.1800003       1.39285230E-15
  -13.1700001       1.05472670E-15
  -13.1599998       5.20853582E-16
  -13.1499996      -1.53698933E-16
  -13.1400003      -8.88163120E-16
  -13.1300001      -1.58610477E-15
  -13.1199999      -2.14849759E-15
  -13.1099997      -2.48780628E-15
  -13.1000004      -2.54077612E-15
  -13.0900002      -2.27781093E-15
  -13.0799999      -1.70744213E-15
  -13.0699997      -8.75338724E-16
  -13.0600004       1.41674109E-16
  -13.0500002       1.24517676E-15
  -13.0400000       2.32635884E-15
  -13.0299997       3.27684267E-15
  -13.0200005       3.99751906E-15
  -13.0100002       4.40459547E-15
  -13.0000000       4.43300156E-15
  -12.9899998       4.03813386E-15
  -12.9799995       3.19739331E-15
  -12.9700003       1.91297288E-15
  -12.9600000       2.16751668E-16
  -12.9499998      -1.82277721E-15
  -12.9399996      -4.09280433E-15
  -12.9300003      -6.43002785E-15
  -12.9200001      -8.61900493E-15
  -12.9099998      -1.03980740E-14
  -12.8999996      -1.14752280E-14
  -12.8900003      -1.15550371E-14
  -12.8800001      -1.03757428E-14
  -12.8699999      -7.75354817E-15
  -12.8599997      -3.62890175E-15
  -12.8500004       1.89204354E-15
  -12.8400002       8.50858148E-15
  -12.8299999       1.57166472E-14
  -12.8199997       2.28260370E-14
  -12.8100004       2.90064637E-14
  -12.8000002       3.33612227E-14
  -12.7900000       3.50229150E-14
  -12.7799997       3.32603818E-14
  -12.7700005       2.75838126E-14
  -12.7600002       1.78326964E-14
  -12.7500000       4.23351683E-15
  -12.7399998      -1.25818884E-14
  -12.7299995      -3.15997466E-14
  -12.7200003      -5.14848547E-14
  -12.7100000      -7.06662851E-14
  -12.6999998      -8.74331193E-14
  -12.6899996      -1.00025341E-13
  -12.6800003      -1.06709793E-13
  -12.6700001      -1.05841259E-13
  -12.6599998      -9.59184717E-14
  -12.6499996      -7.56553362E-14
  -12.6400003      -4.40924254E-14
  -12.6300001      -7.69997895E-16
  -12.6199999       5.40274612E-14
  -12.6099997       1.18965100E-13
  -12.6000004       1.91326298E-13
  -12.5900002       2.66713734E-13
  -12.5799999       3.38861128E-13
  -12.5699997       3.99637815E-13
  -12.5600004       4.39321322E-13
  -12.5500002       4.47184987E-13
  -12.5400000       4.12413484E-13
  -12.5299997       3.25312639E-13
  -12.5200005       1.78732260E-13
  -12.5100002      -3.04135887E-14
  -12.5000000      -2.99673779E-13
  -12.4899998      -6.19790027E-13
  -12.4799995      -9.73783879E-13
  -12.4700003      -1.33653375E-12
  -12.4600000      -1.67494425E-12
  -12.4499998      -1.94877556E-12
  -12.4399996      -2.11215810E-12
  -12.4300003      -2.11575354E-12
  -12.4200001      -1.90948993E-12
  -12.4099998      -1.44572516E-12
  -12.3999996      -6.82654616E-13
  -12.3900003       4.12250881E-13
  -12.3800001       1.85906650E-12
  -12.3699999       3.66272030E-12
  -12.3599997       5.81101833E-12
  -12.3500004       8.27355892E-12
  -12.3400002       1.10016250E-11
  -12.3299999       1.39291391E-11
  -12.3199997       1.69744947E-11
  -12.3100004       2.00431893E-11
  -12.3000002       2.30310701E-11
  -12.2900000       2.58280133E-11
  -12.2799997       2.83217668E-11
  -12.2700005       3.04018130E-11
  -12.2600002       3.19631752E-11
  -12.2500000       3.29098415E-11
  -12.2399998       3.31578896E-11
  -12.2299995       3.26380450E-11
  -12.2200003       3.12976312E-11
  -12.2100000       2.91018598E-11
  -12.1999998       2.60342026E-11
  -12.1899996       2.20963178E-11
  -12.1800003       1.73070308E-11
  -12.1700001       1.17009432E-11
  -12.1599998       5.32684313E-12
  -12.1499996      -1.75408960E-12
  -12.1400003      -9.46975831E-12
  -12.1300001      -1.77385311E-11
  -12.1199999      -2.64701542E-11
  -12.1099997      -3.55664873E-11
  -12.1000004      -4.49221042E-11
  -12.0900002      -5.44249576E-11
  -12.0799999      -6.39572006E-11
  -12.0699997      -7.33962266E-11
  -12.0600004      -8.26160113E-11
  -12.0500002      -9.14885875E-11
  -12.0400000      -9.98853431E-11
  -12.0299997      -1.07678408E-10
  -12.0200005      -1.14741508E-10
  -12.0100002      -1.20950847E-10
  -12.0000000      -1.26185715E-10
  -11.9899998      -1.30329206E-10
  -11.9799995      -1.33269215E-10
  -11.9700003      -1.34900022E-10
  -11.9600000      -1.35124273E-10
  -11.9499998      -1.33855607E-10
  -11.9399996      -1.31021277E-10
  -11.9300003      -1.26565036E-10
  -11.9200001      -1.20449511E-10
  -11.9099998      -1.12657710E-10
  -11.8999996      -1.03193704E-10
  -11.8900003      -9.20824181E-11
  -11.8800001      -7.93685673E-11
  -11.8699999      -6.51144486E-11
  -11.8599997      -4.93985790E-11
  -11.8500004      -3.23128226E-11
  -11.8400002      -1.39609071E-11
  -11.8299999       5.54308682E-12
  -11.8199997       2.60755636E-11
  -11.8100004       4.75039279E-11
  -11.8000002       6.96868396E-11
  -11.7900000       9.24737786E-11
  -11.7799997       1.15705293E-10
  -11.7700005       1.39213044E-10
  -11.7600002       1.62819563E-10
  -11.7500000       1.86339097E-10
  -11.7399998       2.09578382E-10
  -11.7299995       2.32337760E-10
  -11.7200003       2.54412685E-10
  -11.7100000       2.75595657E-10
  -11.6999998       2.95678232E-10
  -11.6899996       3.14452936E-10
  -11.6800003       3.31715627E-10
  -11.6700001       3.47267631E-10
  -11.6599998       3.60917546E-10
  -11.6499996       3.72483294E-10
  -11.6400003       3.81793902E-10
  -11.6300001       3.88690802E-10
  -11.6199999       3.93029137E-10
  -11.6099997       3.94679373E-10
  -11.6000004       3.93527821E-10
  -11.5900002       3.89477089E-10
  -11.5799999       3.82445270E-10
  -11.5699997       3.72366055E-10
  -11.5600004       3.59186930E-10
  -11.5500002       3.42868012E-10
  -11.5400000       3.23379851E-10
  -11.5299997       3.00703351E-10
  -11.5200005       2.74828882E-10
  -11.5100002       2.45758247E-10
  -11.5000000       2.13506338E-10
  -11.4899998       1.78104143E-10
  -11.4799995       1.39602732E-10
  -11.4700003       9.80753673E-11
  -11.4600000       5.36202645E-11
  -11.4499998       6.36123662E-12
  -11.4399996      -4.35535566E-11
  -11.4300003      -9.59546331E-11
  -11.4200001      -1.50656390E-10
  -11.4099998      -2.07461895E-10
  -11.3999996      -2.66170364E-10
  -11.3900003      -3.26581345E-10
  -11.3800001      -3.88500537E-10
  -11.3699999      -4.51742810E-10
  -11.3599997      -5.16134802E-10
  -11.3500004      -5.81514670E-10
  -11.3400002      -6.47731369E-10
  -11.3299999      -7.14643233E-10
  -11.3199997      -7.82114873E-10
  -11.3100004      -8.50014836E-10
  -11.3000002      -9.18211118E-10
  -11.2900000      -9.86568938E-10
  -11.2799997      -1.05494835E-09
  -11.2700005      -1.12320087E-09
  -11.2600002      -1.19117105E-09
  -11.2500000      -1.25869526E-09
  -11.2399998      -1.32560574E-09
  -11.2299995      -1.39173240E-09
  -11.2200003      -1.45690782E-09
  -11.2100000      -1.52097268E-09
  -11.1999998      -1.58378022E-09
  -11.1899996      -1.64519942E-09
  -11.1800003      -1.70511616E-09
  -11.1700001      -1.76343573E-09
  -11.1599998      -1.82008397E-09
  -11.1499996      -1.87500193E-09
  -11.1400003      -1.92814986E-09
  -11.1300001      -1.97950056E-09
  -11.1199999      -2.02904027E-09
  -11.1099997      -2.07676876E-09
  -11.1000004      -2.12269580E-09
  -11.0900002      -2.16684537E-09
  -11.0799999      -2.20924479E-09
  -11.0699997      -2.24993024E-09
  -11.0600004      -2.28893970E-09
  -11.0500002      -2.32630848E-09
  -11.0400000      -2.36206721E-09
  -11.0299997      -2.39623588E-09
  -11.0200005      -2.42882581E-09
  -11.0100002      -2.45984055E-09
  -11.0000000      -2.48927678E-09
  -10.9899998      -2.51712762E-09
  -10.9799995      -2.54339194E-09
  -10.9700003      -2.56806332E-09
  -10.9600000      -2.59114707E-09
  -10.9499998      -2.61264654E-09
  -10.9399996      -2.63256816E-09
  -10.9300003      -2.65091682E-09
  -10.9200001      -2.66768585E-09
  -10.9099998      -2.68285860E-09
  -10.8999996      -2.69640665E-09
  -10.8900003      -2.70828937E-09
  -10.8800001      -2.71845746E-09
  -10.8699999      -2.72685741E-09
  -10.8599997      -2.73343903E-09
  -10.8500004      -2.73815015E-09
  -10.8400002      -2.74095280E-09
  -10.8299999      -2.74181589E-09
  -10.8199997      -2.74072454E-09
  -10.8100004      -2.73766898E-09
  -10.8000002      -2.73266054E-09
  -10.7900000      -2.72571810E-09
  -10.7799997      -2.71685741E-09
  -10.7700005      -2.70611600E-09
  -10.7600002      -2.69352896E-09
  -10.7500000      -2.67913070E-09
  -10.7399998      -2.66296207E-09
  -10.7299995      -2.64506816E-09
  -10.7200003      -2.62549849E-09
  -10.7100000      -2.60429678E-09
  -10.6999998      -2.58151145E-09
  -10.6899996      -2.55720778E-09
  -10.6800003      -2.53146393E-09
  -10.6700001      -2.50436627E-09
  -10.6599998      -2.47601384E-09
  -10.6499996      -2.44653431E-09
  -10.6400003      -2.41608422E-09
  -10.6300001      -2.38483921E-09
  -10.6199999      -2.35299691E-09
  -10.6099997      -2.32078556E-09
  -10.6000004      -2.28845187E-09
  -10.5900002      -2.25626540E-09
  -10.5799999      -2.22449414E-09
  -10.5699997      -2.19341367E-09
  -10.5600004      -2.16328222E-09
  -10.5500002      -2.13434448E-09
  -10.5400000      -2.10680295E-09
  -10.5299997      -2.08084350E-09
  -10.5200005      -2.05658912E-09
  -10.5100002      -2.03413708E-09
  -10.5000000      -2.01353267E-09
  -10.4899998      -1.99481853E-09
  -10.4799995      -1.97799532E-09
  -10.4700003      -1.96306660E-09
  -10.4600000      -1.95002881E-09
  -10.4499998      -1.93887484E-09
  -10.4399996      -1.92960714E-09
  -10.4300003      -1.92222993E-09
  -10.4200001      -1.91676253E-09
  -10.4099998      -1.91322336E-09
  -10.3999996      -1.91164018E-09
  -10.3900003      -1.91205785E-09
  -10.3800001      -1.91451055E-09
  -10.3699999      -1.91903116E-09
  -10.3599997      -1.92564720E-09
  -10.3500004      -1.93437355E-09
  -10.3400002      -1.94520311E-09
  -10.3299999      -1.95809635E-09
  -10.3199997      -1.97299155E-09
  -10.3100004      -1.98981143E-09
  -10.3000002      -2.00843453E-09
  -10.2900000      -2.02875494E-09
  -10.2799997      -2.05064499E-09
  -10.2700005      -2.07399875E-09
  -10.2600002      -2.09869100E-09
  -10.2500000      -2.12463869E-09
  -10.2399998      -2.15176454E-09
  -10.2299995      -2.18000995E-09
  -10.2200003      -2.20931273E-09
  -10.2100000      -2.23962271E-09
  -10.1999998      -2.27090280E-09
  -10.1899996      -2.30311437E-09
  -10.1800003      -2.33624098E-09
  -10.1700001      -2.37025777E-09
  -10.1599998      -2.40514630E-09
  -10.1499996      -2.44089438E-09
  -10.1400003      -2.47748932E-09
  -10.1300001      -2.51491938E-09
  -10.1199999      -2.55316235E-09
  -10.1099997      -2.59220334E-09
  -10.1000004      -2.63204281E-09
  -10.0900002      -2.67266143E-09
  -10.0799999      -2.71405809E-09
  -10.0699997      -2.75626699E-09
  -10.0600004      -2.79932078E-09
  -10.0500002      -2.84330781E-09
  -10.0400000      -2.88833735E-09
  -10.0299997      -2.93456082E-09
  -10.0200005      -2.98217473E-09
  -10.0100002      -3.03141534E-09
  -10.0000000      -3.08253401E-09
  -9.98999977      -3.13582338E-09
  -9.97999954      -3.19156013E-09
  -9.97000027      -3.25000515E-09
  -9.96000004      -3.31140870E-09
  -9.94999981      -3.37596284E-09
  -9.93999958      -3.44379725E-09
  -9.93000031      -3.51498608E-09
  -9.92000008      -3.58954400E-09
  -9.90999985      -3.66741526E-09
  -9.89999962      -3.74851128E-09
  -9.89000034      -3.83270349E-09
  -9.88000011      -3.91984400E-09
  -9.86999989      -4.00977829E-09
  -9.85999966      -4.10234824E-09
  -9.85000038      -4.19742507E-09
  -9.84000015      -4.29489155E-09
  -9.82999992      -4.39467485E-09
  -9.81999969      -4.49671278E-09
  -9.81000042      -4.60101601E-09
  -9.80000019      -4.70760453E-09
  -9.78999996      -4.81654983E-09
  -9.77999973      -4.92793895E-09
  -9.77000046      -5.04190822E-09
  -9.76000023      -5.15860110E-09
  -9.75000000      -5.27812993E-09
  -9.73999977      -5.40063194E-09
  -9.72999954      -5.52621326E-09
  -9.72000027      -5.65495872E-09
  -9.71000004      -5.78690651E-09
  -9.69999981      -5.92206817E-09
  -9.68999958      -6.06041706E-09
  -9.68000031      -6.20190077E-09
  -9.67000008      -6.34646424E-09
  -9.65999985      -6.49400755E-09
  -9.64999962      -6.64444499E-09
  -9.64000034      -6.79764112E-09
  -9.63000011      -6.95345292E-09
  -9.61999989      -7.11171300E-09
  -9.60999966      -7.27221083E-09
  -9.60000038      -7.43471951E-09
  -9.59000015      -7.59896679E-09
  -9.57999992      -7.76460052E-09
  -9.56999969      -7.93130095E-09
  -9.56000042      -8.09863643E-09
  -9.55000019      -8.26615043E-09
  -9.53999996      -8.43338288E-09
  -9.52999973      -8.59979821E-09
  -9.52000046      -8.76490258E-09
  -9.51000023      -8.92812846E-09
  -9.50000000      -9.08891185E-09
  -9.48999977      -9.24673671E-09
  -9.47999954      -9.40106837E-09
  -9.47000027      -9.55142809E-09
  -9.46000004      -9.69739222E-09
  -9.44999981      -9.83863924E-09
  -9.43999958      -9.97494531E-09
  -9.43000031      -1.01061408E-08
  -9.42000008      -1.02321849E-08
  -9.40999985      -1.03531388E-08
  -9.39999962      -1.04691829E-08
  -9.39000034      -1.05806457E-08
  -9.38000011      -1.06879146E-08
  -9.36999989      -1.07915064E-08
  -9.35999966      -1.08920855E-08
  -9.35000038      -1.09903677E-08
  -9.34000015      -1.10871738E-08
  -9.32999992      -1.11833867E-08
  -9.31999969      -1.12799272E-08
  -9.31000042      -1.13778089E-08
  -9.30000019      -1.14779706E-08
  -9.28999996      -1.15814132E-08
  -9.27999973      -1.16891341E-08
  -9.27000046      -1.18020687E-08
  -9.26000023      -1.19211245E-08
  -9.25000000      -1.20471748E-08
  -9.23999977      -1.21810269E-08
  -9.22999954      -1.23233983E-08
  -9.22000027      -1.24749509E-08
  -9.21000004      -1.26362449E-08
  -9.19999981      -1.28077611E-08
  -9.18999958      -1.29898750E-08
  -9.18000031      -1.31828273E-08
  -9.17000008      -1.33868321E-08
  -9.15999985      -1.36019880E-08
  -9.14999962      -1.38282932E-08
  -9.14000034      -1.40656553E-08
  -9.13000011      -1.43138976E-08
  -9.11999989      -1.45727430E-08
  -9.10999966      -1.48418371E-08
  -9.10000038      -1.51207882E-08
  -9.09000015      -1.54090589E-08
  -9.07999992      -1.57060995E-08
  -9.06999969      -1.60112705E-08
  -9.06000042      -1.63238862E-08
  -9.05000019      -1.66431722E-08
  -9.03999996      -1.69684178E-08
  -9.02999973      -1.72986727E-08
  -9.02000046      -1.76331199E-08
  -9.01000023      -1.79707840E-08
  -9.00000000      -1.83107289E-08
  -8.98999977      -1.86519511E-08
  -8.97999954      -1.89934362E-08
  -8.97000027      -1.93342036E-08
  -8.96000004      -1.96732231E-08
  -8.94999981      -2.00094856E-08
  -8.93999958      -2.03420196E-08
  -8.93000031      -2.06697415E-08
  -8.92000008      -2.09917150E-08
  -8.90999985      -2.13070059E-08
  -8.89999962      -2.16146070E-08
  -8.89000034      -2.19136140E-08
  -8.88000011      -2.22031620E-08
  -8.86999989      -2.24824461E-08
  -8.85999966      -2.27506813E-08
  -8.85000038      -2.30072654E-08
  -8.84000015      -2.32516548E-08
  -8.82999992      -2.34833575E-08
  -8.81999969      -2.37019915E-08
  -8.81000042      -2.39074396E-08
  -8.80000019      -2.40995828E-08
  -8.78999996      -2.42784655E-08
  -8.77999973      -2.44443026E-08
  -8.77000046      -2.45973109E-08
  -8.76000023      -2.47380321E-08
  -8.75000000      -2.48669316E-08
  -8.73999977      -2.49846295E-08
  -8.72999954      -2.50918788E-08
  -8.72000027      -2.51893955E-08
  -8.71000004      -2.52781565E-08
  -8.69999981      -2.53590429E-08
  -8.68999958      -2.54330690E-08
  -8.68000031      -2.55012687E-08
  -8.67000008      -2.55647130E-08
  -8.65999985      -2.56245656E-08
  -8.64999962      -2.56818051E-08
  -8.64000034      -2.57375277E-08
  -8.63000011      -2.57926303E-08
  -8.61999989      -2.58480100E-08
  -8.60999966      -2.59044590E-08
  -8.60000038      -2.59625850E-08
  -8.59000015      -2.60229829E-08
  -8.57999992      -2.60860595E-08
  -8.56999969      -2.61521844E-08
  -8.56000042      -2.62215814E-08
  -8.55000019      -2.62943782E-08
  -8.53999996      -2.63707651E-08
  -8.52999973      -2.64506959E-08
  -8.52000046      -2.65341331E-08
  -8.51000023      -2.66210183E-08
  -8.50000000      -2.67112430E-08
  -8.48999977      -2.68046740E-08
  -8.47999954      -2.69013309E-08
  -8.47000027      -2.70010592E-08
  -8.46000004      -2.71038374E-08
  -8.44999981      -2.72095892E-08
  -8.43999958      -2.73182987E-08
  -8.43000031      -2.74299818E-08
  -8.42000008      -2.75445586E-08
  -8.40999985      -2.76621623E-08
  -8.39999962      -2.77829955E-08
  -8.39000034      -2.79071344E-08
  -8.38000011      -2.80348118E-08
  -8.36999989      -2.81662924E-08
  -8.35999966      -2.83019119E-08
  -8.35000038      -2.84420540E-08
  -8.34000015      -2.85871185E-08
  -8.32999992      -2.87376558E-08
  -8.31999969      -2.88940072E-08
  -8.31000042      -2.90566273E-08
  -8.30000019      -2.92258679E-08
  -8.28999996      -2.94020399E-08
  -8.27999973      -2.95855518E-08
  -8.27000046      -2.97767411E-08
  -8.26000023      -2.99757659E-08
  -8.25000000      -3.01828820E-08
  -8.23999977      -3.03981658E-08
  -8.22999954      -3.06218553E-08
  -8.22000027      -3.08540322E-08
  -8.21000004      -3.10948671E-08
  -8.19999981      -3.13445199E-08
  -8.18999958      -3.16031041E-08
  -8.18000031      -3.18707336E-08
  -8.17000008      -3.21475433E-08
  -8.15999985      -3.24338423E-08
  -8.14999962      -3.27297336E-08
  -8.14000034      -3.30353522E-08
  -8.13000011      -3.33510393E-08
  -8.11999989      -3.36768693E-08
  -8.10999966      -3.40130448E-08
  -8.10000038      -3.43598217E-08
  -8.09000015      -3.47173206E-08
  -8.07999992      -3.50857619E-08
  -8.06999969      -3.54651348E-08
  -8.06000042      -3.58554253E-08
  -8.05000019      -3.62567363E-08
  -8.03999996      -3.66689115E-08
  -8.02999973      -3.70917661E-08
  -8.02000046      -3.75251332E-08
  -8.01000023      -3.79687144E-08
  -8.00000000      -3.84220691E-08
  -7.98999977      -3.88848633E-08
  -7.98000002      -3.93566459E-08
  -7.96999979      -3.98367241E-08
  -7.96000004      -4.03246077E-08
  -7.94999981      -4.08195788E-08
  -7.94000006      -4.13210230E-08
  -7.92999983      -4.18281232E-08
  -7.92000008      -4.23401509E-08
  -7.90999985      -4.28563567E-08
  -7.90000010      -4.33758842E-08
  -7.88999987      -4.38979875E-08
  -7.88000011      -4.44219737E-08
  -7.86999989      -4.49471784E-08
  -7.86000013      -4.54728699E-08
  -7.84999990      -4.59985259E-08
  -7.84000015      -4.65235850E-08
  -7.82999992      -4.70475818E-08
  -7.82000017      -4.75700155E-08
  -7.80999994      -4.80904276E-08
  -7.80000019      -4.86085376E-08
  -7.78999996      -4.91241359E-08
  -7.78000021      -4.96370092E-08
  -7.76999998      -5.01469870E-08
  -7.76000023      -5.06539379E-08
  -7.75000000      -5.11579543E-08
  -7.73999977      -5.16590219E-08
  -7.73000002      -5.21572687E-08
  -7.71999979      -5.26527515E-08
  -7.71000004      -5.31456763E-08
  -7.69999981      -5.36361675E-08
  -7.69000006      -5.41245022E-08
  -7.67999983      -5.46112595E-08
  -7.67000008      -5.50965034E-08
  -7.65999985      -5.55808874E-08
  -7.65000010      -5.60648168E-08
  -7.63999987      -5.65491618E-08
  -7.63000011      -5.70342351E-08
  -7.61999989      -5.75211203E-08
  -7.61000013      -5.80105066E-08
  -7.59999990      -5.85032680E-08
  -7.59000015      -5.90002820E-08
  -7.57999992      -5.95023621E-08
  -7.57000017      -6.00108621E-08
  -7.55999994      -6.05267161E-08
  -7.55000019      -6.10509900E-08
  -7.53999996      -6.15845792E-08
  -7.53000021      -6.21287413E-08
  -7.51999998      -6.26842436E-08
  -7.51000023      -6.32519743E-08
  -7.50000000      -6.38332480E-08
  -7.48999977      -6.44285478E-08
  -7.48000002      -6.50388401E-08
  -7.46999979      -6.56650627E-08
  -7.46000004      -6.63079973E-08
  -7.44999981      -6.69679920E-08
  -7.44000006      -6.76459848E-08