  -16.0000000       0.00000000    
  -15.9899998       0.00000000    
  -15.9799995       0.00000000    
  -15.9700003       0.00000000    
  -15.9600000       0.00000000    
  -15.9499998       0.00000000    
  -15.9399996       0.00000000    
  -15.9300003       0.00000000    
  -15.9200001       0.00000000    
  -15.9099998       0.00000000    
  -15.8999996       0.00000000    
  -15.8900003       0.00000000    
  -15.8800001       2.16438956E-40
  -15.8699999       2.91503712E-39
  -15.8599997       1.57173728E-38
  -15.8500004       2.30877991E-38
  -15.8400002      -2.26919390E-37
  -15.8299999      -1.85857825E-36
  -15.8199997      -7.32490895E-36
  -15.8100004      -1.63663367E-35
  -15.8000002      -6.26154574E-36
  -15.7900000       1.14937370E-34
  -15.7799997       5.57371391E-34
  -15.7700005       1.56832491E-33
  -15.7600002       2.93749279E-33
  -15.7500000       2.80526492E-33
  -15.7399998      -3.97867589E-33
  -15.7299995      -2.63631968E-32
  -15.7200003      -7.31776325E-32
  -15.7100000      -1.40963225E-31
  -15.6999998      -1.92385343E-31
  -15.6899996      -1.30666588E-31
  -15.6800003       2.14765333E-31
  -15.6700001       1.06108386E-30
  -15.6599998       2.54037570E-30
  -15.6499996       4.33862025E-30
  -15.6400003       4.93646050E-30
  -15.6300001       4.69656449E-31
  -15.6199999      -1.59355220E-29
  -15.6099997      -5.16832689E-29
  -15.6000004      -1.04322967E-28
  -15.5900002      -1.39190460E-28
  -15.5799999      -6.03399148E-29
  -15.5699997       2.96629106E-28
  -15.5600004       1.08833598E-27
  -15.5500002       2.22781966E-27
  -15.5400000       2.97436846E-27
  -15.5299997       1.53703413E-27
  -15.5200005      -4.77400670E-27
  -15.5100002      -1.80003160E-26
  -15.5000000      -3.59002740E-26
  -15.4899998      -4.67695324E-26
  -15.4799995      -2.59274760E-26
  -15.4700003       5.95090166E-26
  -15.4600000       2.29330000E-25
  -15.4499998       4.48753584E-25
  -15.4399996       5.78185395E-25
  -15.4300003       3.51042708E-25
  -15.4200001      -5.58367237E-25
  -15.4099998      -2.31439562E-24
  -15.3999996      -4.54155585E-24
  -15.3900003      -5.91899889E-24
  -15.3800001      -4.07241790E-24
  -15.3699999       3.76171241E-24
  -15.3599997       1.88985971E-23
  -15.3500004       3.82931858E-23
  -15.3400002       5.16548361E-23
  -15.3299999       4.09444748E-23
  -15.3199997      -1.46068830E-23
  -15.3100004      -1.25635679E-22
  -15.3000002      -2.73100793E-22
  -15.2900000      -3.89502483E-22
  -15.2799997      -3.55558189E-22
  -15.2700005      -3.08728825E-23
  -15.2600002       6.68560198E-22
  -15.2500000       1.65359635E-21
  -15.2399998       2.54820884E-21
  -15.2299995       2.65946847E-21
  -15.2200003       1.13109881E-21
  -15.2100000      -2.64971153E-21
  -15.1999998      -8.42571019E-21
  -15.1899996      -1.44288927E-20
  -15.1800003      -1.71206143E-20
  -15.1700001      -1.18076777E-20
  -15.1599998       5.49538571E-21
  -15.1499996       3.50433806E-20
  -15.1400003       7.00343387E-20
  -15.1300001       9.47095370E-20
  -15.1199999       8.61387891E-20
  -15.1099997       2.15673063E-20
  -15.1000004      -1.08552889E-19
  -15.0900002      -2.84854998E-19
  -15.0799999      -4.47409017E-19
  -15.0699997      -4.97550069E-19
  -15.0600004      -3.22013167E-19
  -15.0500002       1.57567425E-19
  -15.0400000       9.18110613E-19
  -15.0299997       1.77446413E-18
  -15.0200005       2.36011627E-18
  -15.0100002       2.18697434E-18
  -15.0000000       8.06572131E-19
  -14.9899998      -1.94125889E-18
  -14.9799995      -5.65834263E-18
  -14.9700003      -9.21451078E-18
  -14.9600000      -1.08141871E-17
  -14.9499998      -8.41973332E-18
  -14.9399996      -5.49989391E-19
  -14.9300003       1.26912336E-17
  -14.9200001       2.86917158E-17
  -14.9099998       4.19916087E-17
  -14.8999996       4.50166215E-17
  -14.8900003       3.01690438E-17
  -14.8800001      -6.87432129E-18
  -14.8699999      -6.34112489E-17
  -14.8599997      -1.26862983E-16
  -14.8500004      -1.74513258E-16
  -14.8400002      -1.77336962E-16
  -14.8299999      -1.08512531E-16
  -14.8199997       4.43919446E-17
  -14.8100004       2.66560713E-16
  -14.8000002       5.07204176E-16
  -14.7900000       6.80543645E-16
  -14.7799997       6.81100728E-16
  -14.7700005       4.14613575E-16
  -14.7600002      -1.59439473E-16
  -14.7500000      -9.84170228E-16
  -14.7399998      -1.87653903E-15
  -14.7299995      -2.53192442E-15
  -14.7200003      -2.57699716E-15
  -14.7100000      -1.67520787E-15
  -14.6999998       3.28275692E-16
  -14.6899996       3.25651960E-15
  -14.6800003       6.49888189E-15
  -14.6700001       9.01885784E-15
  -14.6599998       9.52322446E-15
  -14.6499996       6.80969597E-15
  -14.6400003       2.52839388E-16
  -14.6300001      -9.68290457E-15
  -14.6199999      -2.10784505E-14
  -14.6099997      -3.05494020E-14
  -14.6000004      -3.37641665E-14
  -14.5900002      -2.65546184E-14
  -14.5799999      -6.49461919E-15
  -14.5699997       2.54080509E-14
  -14.5600004       6.34694188E-14
  -14.5500002       9.71946319E-14
  -14.5400000       1.12805951E-13
  -14.5299997       9.66332049E-14
  -14.5200005       3.99787218E-14
  -14.5100002      -5.56353500E-14
  -14.5000000      -1.74544867E-13
  -14.4899998      -2.86307870E-13
  -14.4799995      -3.49968887E-13
  -14.4700003      -3.23763531E-13
  -14.4600000      -1.79088921E-13
  -14.4499998       8.44072262E-14
  -14.4399996       4.27417785E-13
  -14.4300003       7.68615586E-13
  -14.4200001       9.95630444E-13
  -14.4099998       9.90642898E-13
  -14.3999996       6.67317709E-13
  -14.3900003       1.07426902E-14
  -14.3800001      -8.91950684E-13
  -14.3699999      -1.84374369E-12
  -14.3599997      -2.56306825E-12
  -14.3500004      -2.74512813E-12
  -14.3400002      -2.15098425E-12
  -14.3299999      -7.04406206E-13
  -14.3199997       1.43228181E-12
  -14.3100004       3.83410968E-12
  -14.3000002       5.86431815E-12
  -14.2900000       6.80604574E-12
  -14.2799997       6.05661181E-12
  -14.2700005       3.34140983E-12
  -14.2600002      -1.11345872E-12
  -14.2500000      -6.51349157E-12
  -14.2399998      -1.15805161E-11
  -14.2299995      -1.48019826E-11
  -14.2200003      -1.48096466E-11
  -14.2100000      -1.08050105E-11
  -14.1999998      -2.91653247E-12
  -14.1899996       7.63062964E-12
  -14.1800003       1.86206415E-11
  -14.1700001       2.72529759E-11
  -14.1599998       3.07896070E-11
  -14.1499996       2.73037860E-11
  -14.1400003       1.63375268E-11
  -14.1300001      -7.30056965E-13
  -14.1199999      -2.07496780E-11
  -14.1099997      -3.93477091E-11
  -14.1000004      -5.18660948E-11
  -14.0900002      -5.44909361E-11
  -14.0799999      -4.52891370E-11
  -14.0699997      -2.48695994E-11
  -14.0600004       3.53628585E-12
  -14.0500002       3.46366998E-11
  -14.0400000       6.21739119E-11
  -14.0299997       8.02907532E-11
  -14.0200005       8.48247306E-11
  -14.0100002       7.41997713E-11
  -14.0000000       4.96959383E-11
  -13.9899998       1.50565237E-11
  -13.9799995      -2.44173969E-11
  -13.9700003      -6.29903421E-11
  -13.9600000      -9.54934465E-11
  -13.9499998      -1.17931873E-10
  -13.9399996      -1.27593866E-10
  -13.9300003      -1.22763105E-10
  -13.9200001      -1.02310327E-10
  -13.9099998      -6.55102431E-11
  -13.8999996      -1.23583938E-11
  -13.8900003       5.55434726E-11
  -13.8800001       1.33747055E-10
  -13.8699999       2.13836990E-10
  -13.8599997       2.83046364E-10
  -13.8500004       3.25164728E-10
  -13.8400002       3.23014171E-10
  -13.8299999       2.62320526E-10
  -13.8199997       1.36297307E-10
  -13.8100004      -5.01516016E-11
  -13.8000002      -2.77880607E-10
  -13.7900000      -5.13716625E-10
  -13.7799997      -7.14054205E-10
  -13.7700005      -8.31696156E-10
  -13.7600002      -8.24974922E-10
  -13.7500000      -6.67478961E-10
  -13.7399998      -3.56323360E-10
  -13.7299995       8.30274668E-11
  -13.7200003       5.96854566E-10
  -13.7100000       1.10875698E-09
  -13.6999998       1.53017754E-09
  -13.6899996       1.77434012E-09
  -13.6800003       1.77131443E-09
  -13.6700001       1.48163171E-09
  -13.6599998       9.06093534E-10
  -13.6499996       9.00386363E-11
  -13.6400003      -8.78753514E-10
  -13.6300001      -1.87836324E-09
  -13.6199999      -2.76623524E-09
  -13.6099997      -3.39629680E-09
  -13.6000004      -3.63781227E-09
  -13.5900002      -3.39405615E-09
  -13.5799999      -2.61900368E-09
  -13.5699997      -1.33034794E-09
  -13.5600004       3.82756077E-10
  -13.5500002       2.35880449E-09
  -13.5400000       4.37139658E-09
  -13.5299997       6.14619511E-09
  -13.5200005       7.38782013E-09
  -13.5100002       7.81587683E-09
  -13.5000000       7.20753190E-09
  -13.4899998       5.44210366E-09
  -13.4799995       2.54122945E-09
  -13.4700003      -1.30307332E-09
  -13.4600000      -5.72015857E-09
  -13.4499998      -1.01786206E-08
  -13.4399996      -1.40334526E-08
  -13.4300003      -1.66012022E-08
  -13.4200001      -1.72566548E-08
  -13.4099998      -1.55393813E-08
  -13.3999996      -1.12547269E-08
  -13.3900003      -4.55188243E-09
  -13.3800001       4.03726208E-09
  -13.3699999       1.36109435E-08
  -13.3599997       2.29680754E-08
  -13.3500004       3.07343981E-08
  -13.3400002       3.55333896E-08
  -13.3299999       3.61831987E-08
  -13.3199997       3.18949382E-08
  -13.3100004       2.24447358E-08
  -13.3000002       8.29207547E-09
  -13.2900000      -9.37866318E-09
  -13.2799997      -2.87097777E-08
  -13.2700005      -4.73209774E-08
  -13.2600002      -6.25537027E-08
  -13.2500000      -7.17903390E-08
  -13.2399998      -7.28175920E-08
  -13.2299995      -6.41917097E-08
  -13.2200003      -4.55565825E-08
  -13.2100000      -1.78629822E-08
  -13.1999998       1.65580598E-08
  -13.1899996       5.41023830E-08
  -13.1800003       9.01950088E-08
  -13.1700001       1.19775692E-07
  -13.1599998       1.37926747E-07
  -13.1499996       1.40572851E-07
  -13.1400003       1.25161634E-07
  -13.1300001       9.12221765E-08
  -13.1199999       4.07038101E-08
  -13.1099997      -2.19817498E-08
  -13.1000004      -9.02556536E-08
  -13.0900002      -1.55999217E-07
  -13.0799999      -2.10457571E-07
  -13.0699997      -2.45319711E-07
  -13.0600004      -2.53841989E-07
  -13.0500002      -2.31868327E-07
  -13.0400000      -1.78607465E-07
  -13.0299997      -9.70528404E-08
  -13.0200005       6.02714367E-09
  -13.0100002       1.20551078E-07
  -13.0000000       2.34010940E-07
  -12.9899998       3.32708936E-07
  -12.9799995       4.03233400E-07
  -12.9700003       4.34035854E-07
  -12.9600000       4.16955288E-07
  -12.9499998       3.48527777E-07
  -12.9399996       2.30922382E-07
  -12.9300003       7.23568547E-08
  -12.9200001      -1.13124962E-07
  -12.9099998      -3.06586514E-07
  -12.8999996      -4.85847352E-07
  -12.8900003      -6.27763541E-07
  -12.8800001      -7.10956101E-07
  -12.8699999      -7.18703632E-07
  -12.8599997      -6.41635495E-07
  -12.8500004      -4.79823029E-07
  -12.8400002      -2.43887087E-07
  -12.8299999       4.51718023E-08
  -12.8199997       3.57563295E-07
  -12.8100004       6.57654198E-07
  -12.8000002       9.07996252E-07
  -12.7900000       1.07396124E-06
  -12.7799997       1.12837563E-06
  -12.7700005       1.05550203E-06
  -12.7600002       8.53776385E-07
  -12.7500000       5.36870346E-07
  -12.7399998       1.32882960E-07
  -12.7299995      -3.18270537E-07
  -12.7200003      -7.68953953E-07
  -12.7100000      -1.16887622E-06
  -12.6999998      -1.47051605E-06
  -12.6899996      -1.63428649E-06
  -12.6800003      -1.63290099E-06
  -12.6700001      -1.45454180E-06
  -12.6599998      -1.10460485E-06
  -12.6499996      -6.05930495E-07
  -12.6400003       2.44686116E-09
  -12.6300001       6.67919608E-07
  -12.6199999       1.32816069E-06
  -12.6099997       1.91602430E-06
  -12.6000004       2.36526876E-06
  -12.5900002       2.61679043E-06
  -12.5799999       2.62494018E-06
  -12.5699997       2.36336905E-06
  -12.5600004       1.82973827E-06
  -12.5500002       1.04859589E-06
  -12.5400000       7.17933233E-08
  -12.5299997      -1.02397382E-06
  -12.5200005      -2.14259603E-06
  -12.5100002      -3.17662989E-06
  -12.5000000      -4.01728221E-06
  -12.4899998      -4.56519956E-06
  -12.4799995      -4.74074932E-06
  -12.4700003      -4.49249410E-06
  -12.4600000      -3.80275424E-06
  -12.4499998      -2.68957729E-06
  -12.4399996      -1.20495667E-06
  -12.4300003       5.70329348E-07
  -12.4200001       2.53440476E-06
  -12.4099998       4.57340320E-06
  -12.3999996       6.57078590E-06
  -12.3900003       8.41584642E-06
  -12.3800001       1.00106627E-05
  -12.3699999       1.12751486E-05
  -12.3599997       1.21502499E-05
  -12.3500004       1.25995421E-05
  -12.3400002       1.26096238E-05
  -12.3299999       1.21896301E-05
  -12.3199997       1.13700089E-05
  -12.3100004       1.02004969E-05
  -12.3000002       8.74711623E-06
  -12.2900000       7.08790685E-06
  -12.2799997       5.30733905E-06
  -12.2700005       3.48953927E-06
  -12.2600002       1.71086037E-06
  -12.2500000       3.26183240E-08
  -12.2399998      -1.50497669E-06
  -12.2299995      -2.88667638E-06
  -12.2200003      -4.12307418E-06
  -12.2100000      -5.24817597E-06
  -12.1999998      -6.31389139E-06
  -12.1899996      -7.38222525E-06
  -12.1800003      -8.51634468E-06
  -12.1700001      -9.77187574E-06
  -12.1599998      -1.11896725E-05
  -12.1499996      -1.27909216E-05
  -12.1400003      -1.45749509E-05
  -12.1300001      -1.65194579E-05
  -12.1199999      -1.85825520E-05
  -12.1099997      -2.07056601E-05
  -12.1000004      -2.28164245E-05
  -12.0900002      -2.48310826E-05
  -12.0799999      -2.66562001E-05
  -12.0699997      -2.81902194E-05
  -12.0600004      -2.93255671E-05
  -12.0500002      -2.99522380E-05
  -12.0400000      -2.99635576E-05
  -12.0299997      -2.92642853E-05
  -12.0200005      -2.77806357E-05
  -12.0100002      -2.54710103E-05
  -12.0000000      -2.23357511E-05
  -11.9899998      -1.84240562E-05
  -11.9799995      -1.38364048E-05
  -11.9700003      -8.72138025E-06
  -11.9600000      -3.26684290E-06
  -11.9499998       2.31378635E-06
  -11.9399996       7.79837410E-06
  -11.9300003       1.29738137E-05
  -11.9200001       1.76523354E-05
  -11.9099998       2.16844182E-05
  -11.8999996       2.49670375E-05
  -11.8900003       2.74469658E-05
  -11.8800001       2.91196666E-05
  -11.8699999       3.00248594E-05
  -11.8599997       3.02402204E-05
  -11.8500004       2.98743253E-05
  -11.8400002       2.90596345E-05
  -11.8299999       2.79455762E-05
  -11.8199997       2.66914285E-05
  -11.8100004       2.54582847E-05
  -11.8000002       2.43996747E-05
  -11.7900000       2.36507567E-05
  -11.7799997       2.33166866E-05
  -11.7700005       2.34614363E-05
  -11.7600002       2.40987520E-05
  -11.7500000       2.51870042E-05
  -11.7399998       2.66292664E-05
  -11.7299995       2.82792698E-05
  -11.7200003       2.99527946E-05
  -11.7100000       3.14432546E-05
  -11.6999998       3.25394103E-05
  -11.6899996       3.30429866E-05
  -11.6800003       3.27841735E-05
  -11.6700001       3.16333972E-05
  -11.6599998       2.95088885E-05
  -11.6499996       2.63799502E-05
  -11.6400003       2.22668186E-05
  -11.6300001       1.72380078E-05
  -11.6199999       1.14061049E-05
  -11.6099997       4.92259142E-06
  -11.6000004      -2.02811680E-06
  -11.5900002      -9.23562857E-06
  -11.5799999      -1.64718513E-05
  -11.5699997      -2.35008229E-05
  -11.5600004      -3.00899501E-05
  -11.5500002      -3.60221748E-05
  -11.5400000      -4.11079563E-05
  -11.5299997      -4.51960150E-05
  -11.5200005      -4.81815550E-05
  -11.5100002      -5.00111637E-05
  -11.5000000      -5.06840843E-05
  -11.4899998      -5.02499497E-05
  -11.4799995      -4.88038313E-05
  -11.4700003      -4.64793484E-05
  -11.4600000      -4.34410067E-05
  -11.4499998      -3.98762058E-05
  -11.4399996      -3.59874539E-05
  -11.4300003      -3.19845785E-05
  -11.4200001      -2.80767308E-05
  -11.4099998      -2.44637577E-05
  -11.3999996      -2.13267958E-05
  -11.3900003      -1.88183876E-05
  -11.3800001      -1.70526782E-05
  -11.3699999      -1.60967320E-05
  -11.3599997      -1.59642186E-05
  -11.3500004      -1.66124719E-05
  -11.3400002      -1.79437029E-05
  -11.3299999      -1.98106281E-05
  -11.3199997      -2.20260554E-05
  -11.3100004      -2.43755294E-05
  -11.3000002      -2.66317456E-05
  -11.2900000      -2.85692640E-05
  -11.2799997      -2.99782259E-05
  -11.2700005      -3.06760739E-05
  -11.2600002      -3.05166541E-05
  -11.2500000      -2.93966204E-05
  -11.2399998      -2.72592551E-05
  -11.2299995      -2.40962254E-05
  -11.2200003      -1.99476708E-05
  -11.2100000      -1.49010402E-05
  -11.1999998      -9.08884613E-06
  -11.1899996      -2.68530471E-06
  -11.1800003       4.09844733E-06
  -11.1700001       1.10209321E-05
  -11.1599998       1.78191149E-05
  -11.1499996       2.42196566E-05
  -11.1400003       2.99525382E-05
  -11.1300001       3.47665555E-05
  -11.1199999       3.84456107E-05
  -11.1099997       4.08243541E-05
  -11.1000004       4.18014315E-05
  -11.0900002       4.13483831E-05
  -11.0799999       3.95129391E-05
  -11.0699997       3.64157204E-05
  -11.0600004       3.22406013E-05
  -11.0500002       2.72197067E-05
  -11.0400000       2.16151166E-05
  -11.0299997       1.56996302E-05
  -11.0200005       9.73917940E-06
  -11.0100002       3.97880649E-06
  -11.0000000      -1.36666574E-06
  -10.9899998      -6.11727910E-06
  -10.9799995      -1.01289079E-05
  -10.9700003      -1.32922223E-05
  -10.9600000      -1.55314265E-05
  -10.9499998      -1.68041770E-05
  -10.9399996      -1.71032207E-05
  -10.9300003      -1.64593712E-05
  -10.9200001      -1.49445195E-05
  -10.9099998      -1.26729647E-05
  -10.8999996      -9.79939159E-06
  -10.8900003      -6.51248138E-06
  -10.8800001      -3.02395733E-06
  -10.8699999       4.45960239E-07
  -10.8599997       3.68493670E-06
  -10.8500004       6.50452785E-06
  -10.8400002       8.75358910E-06
  -10.8299999       1.03274306E-05
  -10.8199997       1.11718755E-05
  -10.8100004       1.12822199E-05
  -10.8000002       1.06979951E-05
  -10.7900000       9.49490368E-06
  -10.7799997       7.77549485E-06
  -10.7700005       5.66007111E-06
  -10.7600002       3.27886164E-06
  -10.7500000       7.66050505E-07
  -10.7399998      -1.74427760E-06
  -10.7299995      -4.12075224E-06
  -10.7200003      -6.23655797E-06
  -10.7100000      -7.97140365E-06
  -10.6999998      -9.21429091E-06
  -10.6899996      -9.86757914E-06
  -10.6800003      -9.85224142E-06
  -10.6700001      -9.11374173E-06
  -10.6599998      -7.62750597E-06
  -10.6499996      -5.40257906E-06
  -10.6400003      -2.48223228E-06
  -10.6300001       1.05931110E-06
  -10.6199999       5.12422412E-06
  -10.6099997       9.60169018E-06
  -10.6000004       1.43800316E-05
  -10.5900002       1.93583419E-05
  -10.5799999       2.44552029E-05
  -10.5699997       2.96128819E-05
  -10.5600004       3.47961977E-05
  -10.5500002       3.99864657E-05
  -10.5400000       4.51720298E-05
  -10.5299997       5.03376505E-05
  -10.5200005       5.54550788E-05
  -10.5100002       6.04767556E-05
  -10.5000000       6.53336829E-05
  -10.4899998       6.99374068E-05
  -10.4799995       7.41850745E-05
  -10.4700003       7.79661277E-05
  -10.4600000       8.11688442E-05
  -10.4499998       8.36856852E-05
  -10.4399996       8.54166283E-05
  -10.4300003       8.62708694E-05
  -10.4200001       8.61672888E-05
  -10.4099998       8.50348297E-05
  -10.3999996       8.28133052E-05
  -10.3900003       7.94552398E-05
  -10.3800001       7.49289320E-05
  -10.3699999       6.92222166E-05
  -10.3599997       6.23467058E-05
  -10.3500004       5.43420247E-05
  -10.3400002       4.52795393E-05
  -10.3299999       3.52653442E-05
  -10.3199997       2.44420917E-05
  -10.3100004       1.29892687E-05
  -10.3000002       1.12161320E-06
  -10.2900000      -1.09148978E-05
  -10.2799997      -2.28496483E-05
  -10.2700005      -3.43964821E-05
  -10.2600002      -4.52649183E-05
  -10.2500000      -5.51723788E-05
  -10.2399998      -6.38565252E-05
  -10.2299995      -7.10863751E-05
  -10.2200003      -7.66714511E-05
  -10.2100000      -8.04683805E-05
  -10.1999998      -8.23851515E-05
  -10.1899996      -8.23833616E-05
  -10.1800003      -8.04790470E-05
  -10.1700001      -7.67424499E-05
  -10.1599998      -7.12968977E-05
  -10.1499996      -6.43163075E-05
  -10.1400003      -5.60209774E-05
  -10.1300001      -4.66709898E-05
  -10.1199999      -3.65569649E-05
  -10.1099997      -2.59886274E-05
  -10.1000004      -1.52820194E-05
  -10.0900002      -4.74662556E-06
  -10.0799999       5.32590730E-06
  -10.0699997       1.46706288E-05
  -10.0600004       2.30547848E-05
  -10.0500002       3.02806493E-05
  -10.0400000       3.61861858E-05
  -10.0299997       4.06452855E-05
  -10.0200005       4.35686270E-05
  -10.0100002       4.49061954E-05
  -10.0000000       4.46514969E-05
  -9.98999977       4.28467974E-05
  -9.97999954       3.95878924E-05
  -9.97000027       3.50269002E-05
  -9.96000004       2.93715129E-05
  -9.94999981       2.28797926E-05
  -9.93999958       1.58506555E-05
  -9.93000031       8.61072294E-06
  -9.92000008       1.49919231E-06
  -9.90999985      -5.14757448E-06
  -9.89999962      -1.10102155E-05
  -9.89000034      -1.57979030E-05
  -9.88000011      -1.92572243E-05
  -9.86999989      -2.11780480E-05
  -9.85999966      -2.13972526E-05
  -9.85000038      -1.98006201E-05
  -9.84000015      -1.63233599E-05
  -9.82999992      -1.09493731E-05
  -9.81999969      -3.70881662E-06
  -9.81000042       5.32604599E-06
  -9.80000019       1.60467316E-05
  -9.78999996       2.83158988E-05
  -9.77999973       4.19749995E-05
  -9.77000046       5.68506839E-05
  -9.76000023       7.27588558E-05
  -9.75000000       8.95052872E-05
  -9.73999977       1.06882791E-04
  -9.72999954       1.24665967E-04
  -9.72000027       1.42605262E-04
  -9.71000004       1.60423137E-04
  -9.69999981       1.77814203E-04
  -9.68999958       1.94450200E-04
  -9.68000031       2.09990962E-04
  -9.67000008       2.24098680E-04
  -9.65999985       2.36453416E-04
  -9.64999962       2.46767187E-04
  -9.64000034       2.54793646E-04
  -9.63000011       2.60332075E-04
  -9.61999989       2.63226015E-04
  -9.60999966       2.63357360E-04
  -9.60000038       2.60639063E-04
  -9.59000015       2.55008665E-04
  -9.57999992       2.46424490E-04
  -9.56999969       2.34865976E-04
  -9.56000042       2.20337810E-04
  -9.55000019       2.02876865E-04
  -9.53999996       1.82560339E-04
  -9.52999973       1.59514238E-04
  -9.52000046       1.33920563E-04
  -9.51000023       1.06023283E-04
  -9.50000000       7.61323463E-05
  -9.48999977       4.46252925E-05
  -9.47999954       1.19459364E-05
  -9.47000027      -2.14016582E-05
  -9.46000004      -5.48648713E-05
  -9.44999981      -8.78602732E-05
  -9.43999958      -1.19797311E-04
  -9.43000031      -1.50105538E-04
  -9.42000008      -1.78261194E-04
  -9.40999985      -2.03809788E-04
  -9.39999962      -2.26379823E-04
  -9.39000034      -2.45685864E-04
  -9.38000011      -2.61520530E-04
  -9.36999989      -2.73738377E-04
  -9.35999966      -2.82236288E-04
  -9.35000038      -2.86935334E-04
  -9.34000015      -2.87769188E-04
  -9.32999992      -2.84681708E-04
  -9.31999969      -2.77632818E-04
  -9.31000042      -2.66610674E-04
  -9.30000019      -2.51645193E-04
  -9.28999996      -2.32818915E-04
  -9.27999973      -2.10271668E-04
  -9.27000046      -1.84198740E-04
  -9.26000023      -1.54843365E-04
  -9.25000000      -1.22487239E-04
  -9.23999977      -8.74420730E-05
  -9.22999954      -5.00446076E-05
  -9.22000027      -1.06557345E-05
  -9.21000004       3.03376928E-05
  -9.19999981       7.25216669E-05
  -9.18999958       1.15456649E-04
  -9.18000031       1.58684576E-04
  -9.17000008       2.01741073E-04
  -9.15999985       2.44170020E-04
  -9.14999962       2.85537855E-04
  -9.14000034       3.25443456E-04
  -9.13000011       3.63521045E-04
  -9.11999989       3.99436918E-04
  -9.10999966       4.32880333E-04
  -9.10000038       4.63554112E-04
  -9.09000015       4.91167884E-04
  -9.07999992       5.15436754E-04
  -9.06999969       5.36087435E-04
  -9.06000042       5.52869635E-04
  -9.05000019       5.65569673E-04
  -9.03999996       5.74022823E-04
  -9.02999973       5.78120991E-04
  -9.02000046       5.77814353E-04
  -9.01000023       5.73108206E-04
  -9.00000000       5.64056216E-04
  -8.98999977       5.50753844E-04
  -8.97999954       5.33333339E-04
  -8.97000027       5.11962280E-04
  -8.96000004       4.86843725E-04
  -8.94999981       4.58216877E-04
  -8.93999958       4.26355982E-04
  -8.93000031       3.91566224E-04
  -8.92000008       3.54176707E-04
  -8.90999985       3.14533245E-04
  -8.89999962       2.72992416E-04
  -8.89000034       2.29920464E-04
  -8.88000011       1.85697267E-04
  -8.86999989       1.40723627E-04
  -8.85999966       9.54305069E-05
  -8.85000038       5.02838411E-05
  -8.84000015       5.78285699E-06
  -8.82999992      -3.75511991E-05
  -8.81999969      -7.91941711E-05
  -8.81000042      -1.18642922E-04
  -8.80000019      -1.55438727E-04
  -8.78999996      -1.89184531E-04
  -8.77999973      -2.19552923E-04
  -8.77000046      -2.46283424E-04
  -8.76000023      -2.69171927E-04
  -8.75000000      -2.88056995E-04
  -8.73999977      -3.02808447E-04
  -8.72999954      -3.13322933E-04
  -8.72000027      -3.19528015E-04
  -8.71000004      -3.21393483E-04
  -8.69999981      -3.18945793E-04
  -8.68999958      -3.12280987E-04
  -8.68000031      -3.01570777E-04
  -8.67000008      -2.87060393E-04
  -8.65999985      -2.69058481E-04
  -8.64999962      -2.47922930E-04
  -8.64000034      -2.24045798E-04
  -8.63000011      -1.97842921E-04
  -8.61999989      -1.69748688E-04
  -8.60999966      -1.40215110E-04
  -8.60000038      -1.09711596E-04
  -8.59000015      -7.87212412E-05
  -8.57999992      -4.77298272E-05
  -8.56999969      -1.72071341E-05
  -8.56000042       1.24166918E-05
  -8.55000019       4.07737098E-05
  -8.53999996       6.75729971E-05
  -8.52999973       9.26021385E-05
  -8.52000046       1.15712908E-04
  -8.51000023       1.36794362E-04
  -8.50000000       1.55739617E-04
  -8.48999977       1.72416170E-04
  -8.47999954       1.86648831E-04
  -8.47000027       1.98220732E-04
  -8.46000004       2.06893892E-04
  -8.44999981       2.12444167E-04
  -8.43999958       2.14701504E-04
  -8.43000031       2.13586361E-04
  -8.42000008       2.09132049E-04
  -8.40999985       2.01490649E-04
  -8.39999962       1.90921783E-04
  -8.39000034       1.77769805E-04
  -8.38000011       1.62437602E-04
  -8.36999989       1.45364393E-04
  -8.35999966       1.27009625E-04
  -8.35000038       1.07846514E-04
  -8.34000015       8.83585817E-05
  -8.32999992       6.90357192E-05
  -8.31999969       5.03638694E-05
  -8.31000042       3.28068345E-05
  -8.30000019       1.67820035E-05
  -8.28999996       2.63543529E-06
  -8.27999973      -9.37693130E-06
  -8.27000046      -1.90957544E-05
  -8.26000023      -2.64490609E-05
  -8.25000000      -3.14299032E-05
  -8.23999977      -3.40655824E-05
  -8.22999954      -3.43876200E-05
  -8.22000027      -3.24083412E-05
  -8.21000004      -2.81116409E-05
  -8.19999981      -2.14566608E-05
  -8.18999958      -1.23919972E-05
  -8.18000031      -8.75027865E-07
  -8.17000008       1.31097049E-05
  -8.15999985       2.95388418E-05
  -8.14999962       4.83450895E-05
  -8.14000034       6.94188275E-05
  -8.13000011       9.26111315E-05
  -8.11999989       1.17737094E-04
  -8.10999966       1.44576392E-04
  -8.10000038       1.72872125E-04
  -8.09000015       2.02331619E-04
  -8.07999992       2.32630773E-04
  -8.06999969       2.63426249E-04
  -8.06000042       2.94372934E-04
  -8.05000019       3.25144618E-04
  -8.03999996       3.55451484E-04
  -8.02999973       3.85049789E-04
  -8.02000046       4.13739588E-04
  -8.01000023       4.41352197E-04
  -8.00000000       4.67730773E-04
  -7.98999977       4.92710737E-04
  -7.98000002       5.16107364E-04
  -7.96999979       5.37714572E-04
  -7.96000004       5.57315070E-04
  -7.94999981       5.74698613E-04
  -7.94000006       5.89681265E-04
  -7.92999983       6.02119078E-04
  -7.92000008       6.11910364E-04
  -7.90999985       6.18989056E-04
  -7.90000010       6.23309636E-04
  -7.88999987       6.24834502E-04
  -7.88000011       6.23526925E-04
  -7.86999989       6.19355531E-04
  -7.86000013       6.12308737E-04
  -7.84999990       6.02415181E-04
  -7.84000015       5.89758973E-04
  -7.82999992       5.74487844E-04
  -7.82000017       5.56805462E-04
  -7.80999994       5.36951819E-04
  -7.80000019       5.15178137E-04
  -7.78999996       4.91725106E-04
  -7.78000021       4.66812839E-04
  -7.76999998       4.40645294E-04
  -7.76000023       4.13428817E-04
  -7.75000000       3.85395804E-04
  -7.73999977       3.56823235E-04
  -7.73000002       3.28037364E-04
  -7.71999979       2.99399282E-04
  -7.71000004       2.71274301E-04
  -7.69999981       2.43995557E-04
  -7.69000006       2.17832072E-04
  -7.67999983       1.92972875E-04
  -7.67000008       1.69534789E-04
  -7.65999985       1.47588449E-04
  -7.65000010       1.27197272E-04
  -7.63999987       1.08451859E-04
  -7.63000011       9.14918564E-05
  -7.61999989       7.65047225E-05
  -7.61000013       6.37039993E-05
  -7.59999990       5.32940576E-05
  -7.59000015       4.54345100E-05
  -7.57999992       4.02179503E-05
  -7.57000017       3.76654862E-05
  -7.55999994       3.77420401E-05
  -7.55000019       4.03850972E-05
  -7.53999996       4.55324189E-05
  -7.53000021       5.31398873E-05
  -7.51999998       6.31833245E-05
  -7.51000023       7.56429363E-05
  -7.50000000       9.04787885E-05
  -7.48999977       1.07607724E-04
  -7.48000002       1.26890358E-04
  -7.46999979       1.48136081E-04
  -7.46000004       1.71119726E-04
  -7.44999981       1.95606670E-04
  -7.44000006       2.21375260E-04