  -16.0000000       0.00000000    
  -15.9899998       0.00000000    
  -15.9799995       0.00000000    
  -15.9700003       0.00000000    
  -15.9600000       0.00000000    
  -15.9499998       0.00000000    
  -15.9399996       0.00000000    
  -15.9300003       0.00000000    
  -15.9200001       0.00000000    
  -15.9099998       0.00000000    
  -15.8999996       0.00000000    
  -15.8900003       0.00000000    
  -15.8800001       0.00000000    
  -15.8699999      -1.12103877E-44
  -15.8599997      -4.20389539E-43
  -15.8500004      -1.04354697E-41
  -15.8400002      -1.57964172E-40
  -15.8299999      -1.74469926E-39
  -15.8199997      -1.48524619E-38
  -15.8100004      -1.01435153E-37
  -15.8000002      -5.74530173E-37
  -15.7900000      -2.77015550E-36
  -15.7799997      -1.16018903E-35
  -15.7700005      -4.28709792E-35
  -15.7600002      -1.41412544E-34
  -15.7500000      -4.19978509E-34
  -15.7399998      -1.12952701E-33
  -15.7299995      -2.75950568E-33
  -15.7200003      -6.12427083E-33
  -15.7100000      -1.22994465E-32
  -15.6999998      -2.21293571E-32
  -15.6899996      -3.48965158E-32
  -15.6800003      -4.58016592E-32
  -15.6700001      -4.24542568E-32
  -15.6599998      -1.91601134E-33
  -15.6499996       1.08054944E-31
  -15.6400003       3.17966496E-31
  -15.6300001       6.30534747E-31
  -15.6199999       9.80084496E-31
  -15.6099997       1.19082026E-30
  -15.6000004       9.64979393E-31
  -15.5900002      -5.61013848E-32
  -15.5799999      -2.12546381E-30
  -15.5699997      -5.13396086E-30
  -15.5600004      -8.36003156E-30
  -15.5500002      -1.03970553E-29
  -15.5400000      -9.42584872E-30
  -15.5299997      -3.85397390E-30
  -15.5200005       6.92576972E-30
  -15.5100002       2.21305631E-29
  -15.5000000       3.98972608E-29
  -15.4899998       5.80013483E-29
  -15.4799995       7.36563541E-29
  -15.4700003       8.05576653E-29
  -15.4600000       6.27331175E-29
  -15.4499998      -1.10299911E-29
  -15.4399996      -1.82541795E-28
  -15.4300003      -4.76666072E-28
  -15.4200001      -8.45138215E-28
  -15.4099998      -1.09841823E-27
  -15.3999996      -8.76811578E-28
  -15.3900003       2.60276215E-28
  -15.3800001       2.56085069E-27
  -15.3699999       5.64292120E-27
  -15.3599997       8.07610372E-27
  -15.3500004       7.34500839E-27
  -15.3400002       6.22370569E-28
  -15.3299999      -1.34292460E-26
  -15.3199997      -3.21832107E-26
  -15.3100004      -4.70884448E-26
  -15.3000002      -4.40998853E-26
  -15.2900000      -8.32778964E-27
  -15.2799997       6.66247207E-26
  -15.2700005       1.66901262E-25
  -15.2600002       2.49840704E-25
  -15.2500000       2.46585618E-25
  -15.2399998       8.29818872E-26
  -15.2299995      -2.79601813E-25
  -15.2200003      -7.91986668E-25
  -15.2100000      -1.27406824E-24
  -15.1999998      -1.41116576E-24
  -15.1899996      -8.21574227E-25
  -15.1800003       7.85197682E-25
  -15.1700001       3.36944738E-24
  -15.1599998       6.29903540E-24
  -15.1499996       8.18197222E-24
  -15.1400003       6.96977464E-24
  -15.1300001       5.28206570E-25
  -15.1199999      -1.21994507E-23
  -15.1099997      -2.95414462E-23
  -15.1000004      -4.54793616E-23
  -15.0900002      -4.91158179E-23
  -15.0799999      -2.66739841E-23
  -15.0699997       3.27023235E-23
  -15.0600004       1.27339316E-22
  -15.0500002       2.32154494E-22
  -15.0400000       2.92432732E-22
  -15.0299997       2.30797704E-22
  -15.0200005      -2.48028660E-23
  -15.0100002      -4.90963955E-22
  -15.0000000      -1.06904380E-21
  -14.9899998      -1.50574700E-21
  -14.9799995      -1.41711195E-21
  -14.9700003      -4.14979307E-22
  -14.9600000       1.65778980E-21
  -14.9499998       4.44116219E-21
  -14.9399996       6.85788708E-21
  -14.9300003       7.19246710E-21
  -14.9200001       3.62052834E-21
  -14.9099998      -4.78554721E-21
  -14.8999996      -1.68203769E-20
  -14.8900003      -2.82503376E-20
  -14.8800001      -3.20478785E-20
  -14.8699999      -2.04447043E-20
  -14.8599997       1.10950543E-20
  -14.8500004       5.89398498E-20
  -14.8400002       1.07594465E-19
  -14.8299999       1.30243969E-19
  -14.8199997       9.61454386E-20
  -14.8100004      -1.47003679E-20
  -14.8000002      -1.93029562E-19
  -14.7900000      -3.85841085E-19
  -14.7799997      -4.96748066E-19
  -14.7700005      -4.10618014E-19
  -14.7600002      -4.45389359E-20
  -14.7500000       5.86114591E-19
  -14.7399998       1.31303249E-18
  -14.7299995       1.80854480E-18
  -14.7200003       1.66075006E-18
  -14.7100000       5.40047455E-19
  -14.6999998      -1.57585300E-18
  -14.6899996      -4.20197246E-18
  -14.6800003      -6.29073916E-18
  -14.6700001      -6.43537666E-18
  -14.6599998      -3.37804990E-18
  -14.6499996       3.26124663E-18
  -14.6400003       1.22793928E-17
  -14.6300001       2.05773254E-17
  -14.6199999       2.36161504E-17
  -14.6099997       1.68420292E-17
  -14.6000004      -2.09109418E-18
  -14.5900002      -3.09546900E-17
  -14.5799999      -6.15048490E-17
  -14.5699997      -8.01524315E-17
  -14.5600004      -7.15319456E-17
  -14.5500002      -2.47828407E-17
  -14.5400000       5.90165838E-17
  -14.5299997       1.61140713E-16
  -14.5200005       2.44739662E-16
  -14.5100002       2.62400007E-16
  -14.5000000       1.72237612E-16
  -14.4899998      -4.06163482E-17
  -14.4799995      -3.44182759E-16
  -14.4700003      -6.51048529E-16
  -14.4600000      -8.30041890E-16
  -14.4499998      -7.42399550E-16
  -14.4399996      -2.97855562E-16
  -14.4300003       4.84561873E-16
  -14.4200001       1.43490928E-15
  -14.4099998       2.23591393E-15
  -14.3999996       2.48979003E-15
  -14.3900003       1.84733884E-15
  -14.3800001       1.72047532E-16
  -14.3699999      -2.31376176E-15
  -14.3599997      -4.96777497E-15
  -14.3500004      -6.81063660E-15
  -14.3400002      -6.77727409E-15
  -14.3299999      -4.10253589E-15
  -14.3199997       1.25940003E-15
  -14.3100004       8.33386654E-15
  -14.3000002       1.51054350E-14
  -14.2900000       1.88909726E-14
  -14.2799997       1.71078514E-14
  -14.2700005       8.28706966E-15
  -14.2600002      -6.96499480E-15
  -14.2500000      -2.54375124E-14
  -14.2399998      -4.15671221E-14
  -14.2299995      -4.86477347E-14
  -14.2200003      -4.08767021E-14
  -14.2100000      -1.57692327E-14
  -14.1999998       2.38169283E-14
  -14.1899996       6.89046327E-14
  -14.1800003       1.05550951E-13
  -14.1700001       1.18134479E-13
  -14.1599998       9.42836914E-14
  -14.1499996       3.02197740E-14
  -14.1400003      -6.52230480E-14
  -14.1300001      -1.69696085E-13
  -14.1199999      -2.50797050E-13
  -14.1099997      -2.73991414E-13
  -14.1000004      -2.13600201E-13
  -14.0900002      -6.40231412E-14
  -14.0799999       1.52505314E-13
  -14.0699997       3.85185888E-13
  -14.0600004       5.63131356E-13
  -14.0500002       6.12796001E-13
  -14.0400000       4.81062347E-13
  -14.0299997       1.58006773E-13
  -14.0200005      -3.08084179E-13
  -14.0100002      -8.10312212E-13
  -14.0000000      -1.20124451E-12
  -13.9899998      -1.32849406E-12
  -13.9799995      -1.08099218E-12
  -13.9700003      -4.34163908E-13
  -13.9600000       5.20324831E-13
  -13.9499998       1.57320576E-12
  -13.9399996       2.43188455E-12
  -13.9300003       2.78839842E-12
  -13.9200001       2.40832462E-12
  -13.9099998       1.21873974E-12
  -13.8999996      -6.31460379E-13
  -13.8900003      -2.76314084E-12
  -13.8800001      -4.62455985E-12
  -13.8699999      -5.61265140E-12
  -13.8599997      -5.23633914E-12
  -13.8500004      -3.28322547E-12
  -13.8400002       5.80457178E-14
  -13.8299999       4.16425271E-12
  -13.8199997       8.06091131E-12
  -13.8100004       1.06220970E-11
  -13.8000002       1.08532515E-11
  -13.7900000       8.19322214E-12
  -13.7799997       2.75438808E-12
  -13.7700005      -4.57741484E-12
  -13.7600002      -1.22362554E-11
  -13.7500000      -1.82707998E-11
  -13.7399998      -2.07941234E-11
  -13.7299995      -1.84917168E-11
  -13.7200003      -1.10606160E-11
  -13.7100000       5.48393470E-13
  -13.6999998       1.41771863E-11
  -13.6899996       2.68224661E-11
  -13.6800003       3.52597604E-11
  -13.6700001       3.68002885E-11
  -13.6599998       3.00042317E-11
  -13.6499996       1.51693259E-11
  -13.6400003      -5.54274812E-12
  -13.6300001      -2.83973990E-11
  -13.6199999      -4.87496363E-11
  -13.6099997      -6.19429577E-11
  -13.6000004      -6.42529085E-11
  -13.5900002      -5.36810353E-11
  -13.5799999      -3.04489350E-11
  -13.5699997       2.87799407E-12
  -13.5600004       4.16263760E-11
  -13.5500002       7.95419841E-11
  -13.5400000       1.09524223E-10
  -13.5299997       1.24509181E-10
  -13.5200005       1.18482585E-10
  -13.5100002       8.76246228E-11
  -13.5000000       3.15486456E-11
  -13.4899998      -4.55099292E-11
  -13.4799995      -1.33855024E-10
  -13.4700003      -2.18288165E-10
  -13.4600000      -2.79352735E-10
  -13.4499998      -2.96217689E-10
  -13.4399996      -2.51193899E-10
  -13.4300003      -1.35325723E-10
  -13.4200001       4.61185777E-11
  -13.4099998       2.69916173E-10
  -13.3999996       4.94705943E-10
  -13.3900003       6.65731525E-10
  -13.3800001       7.24881044E-10
  -13.3699999       6.24928387E-10
  -13.3599997       3.45281581E-10
  -13.3500004      -9.47502771E-11
  -13.3400002      -6.29618357E-10
  -13.3299999      -1.15183652E-09
  -13.3199997      -1.52864743E-09
  -13.3100004      -1.62972658E-09
  -13.3000002      -1.36122080E-09
  -13.2900000      -6.98552383E-10
  -13.2799997       2.91012520E-10
  -13.2700005       1.44419743E-09
  -13.2600002       2.52101784E-09
  -13.2500000       3.24741589E-09
  -13.2399998       3.37504025E-09
  -13.2299995       2.74642442E-09
  -13.2200003       1.35036471E-09
  -13.2100000      -6.47758513E-10
  -13.1999998      -2.91224689E-09
  -13.1899996      -4.98433339E-09
  -13.1800003      -6.36554764E-09
  -13.1700001      -6.62315536E-09
  -13.1599998      -5.49665780E-09
  -13.1499996      -2.98150371E-09
  -13.1400003       6.31309227E-10
  -13.1300001       4.77384710E-09
  -13.1199999       8.68064998E-09
  -13.1099997       1.15190071E-08
  -13.1000004       1.25485160E-08
  -13.0900002       1.12804015E-08
  -13.0799999       7.60495134E-09
  -13.0699997       1.85893712E-09
  -13.0600004      -5.18524335E-09
  -13.0500002      -1.24134818E-08
  -13.0400000      -1.85365447E-08
  -13.0299997      -2.23041603E-08
  -13.0200005      -2.27317152E-08
  -13.0100002      -1.92988665E-08
  -13.0000000      -1.20827943E-08
  -12.9899998      -1.79726978E-09
  -12.9799995       1.02750812E-08
  -12.9700003       2.24508021E-08
  -12.9600000       3.28883978E-08
  -12.9499998       3.98639237E-08
  -12.9399996       4.20305675E-08
  -12.9300003       3.86147860E-08
  -12.9200001       2.95164160E-08
  -12.9099998       1.53009498E-08
  -12.8999996      -2.89985214E-09
  -12.8900003      -2.35407533E-08
  -12.8800001      -4.48186519E-08
  -12.8699999      -6.47843734E-08
  -12.8599997      -8.13846839E-08
  -12.8500004      -9.24457808E-08
  -12.8400002      -9.56472377E-08
  -12.8299999      -8.85652582E-08
  -12.8199997      -6.88739235E-08
  -12.8100004      -3.47623725E-08
  -12.8000002       1.44230778E-08
  -12.7900000       7.73970967E-08
  -12.7799997       1.50170578E-07
  -12.7700005       2.25536240E-07
  -12.7600002       2.93044991E-07
  -12.7500000       3.39671942E-07
  -12.7399998       3.51261093E-07
  -12.7299995       3.14665101E-07
  -12.7200003       2.20342102E-07
  -12.7100000       6.49930669E-08
  -12.6999998      -1.46242868E-07
  -12.6899996      -3.98505534E-07
  -12.6800003      -6.67215431E-07
  -12.6700001      -9.19538820E-07
  -12.6599998      -1.11723966E-06
  -12.6499996      -1.22065217E-06
  -12.6400003      -1.19332344E-06
  -12.6300001      -1.00683076E-06
  -12.6199999      -6.45262219E-07
  -12.6099997      -1.08993916E-07
  -12.6000004       5.82492248E-07
  -12.5900002       1.38895780E-06
  -12.5799999       2.24902783E-06
  -12.5699997       3.08124686E-06
  -12.5600004       3.78687491E-06
  -12.5500002       4.25472081E-06
  -12.5400000       4.36837081E-06
  -12.5299997       4.01603666E-06
  -12.5200005       3.10290466E-06
  -12.5100002       1.56552096E-06
  -12.5000000      -6.12824067E-07
  -12.4899998      -3.38720042E-06
  -12.4799995      -6.63836181E-06
  -12.4700003      -1.01642181E-05
  -12.4600000      -1.36770086E-05
  -12.4499998      -1.68073711E-05
  -12.4399996      -1.91156578E-05
  -12.4300003      -2.01104831E-05
  -12.4200001      -1.92733114E-05
  -12.4099998      -1.60879408E-05
  -12.3999996      -1.00727475E-05
  -12.3900003      -8.14682039E-07
  -12.3800001       1.19974293E-05
  -12.3699999       2.85411097E-05
  -12.3599997       4.88328005E-05
  -12.3500004       7.27043007E-05
  -12.3400002       9.97862444E-05
  -12.3299999       1.29500724E-04
  -12.3199997       1.61062286E-04
  -12.3100004       1.93490429E-04
  -12.3000002       2.25634707E-04
  -12.2900000       2.56211439E-04
  -12.2799997       2.83847650E-04
  -12.2700005       3.07139388E-04
  -12.2600002       3.24710243E-04
  -12.2500000       3.35271994E-04
  -12.2399998       3.37689940E-04
  -12.2299995       3.31027462E-04
  -12.2200003       3.14603007E-04
  -12.2100000       2.88011506E-04
  -12.1999998       2.51150632E-04
  -12.1899996       2.04221942E-04
  -12.1800003       1.47717335E-04
  -12.1700001       8.23964801E-05
  -12.1599998       9.23922562E-06
  -12.1499996      -7.05989805E-05
  -12.1400003      -1.55849222E-04
  -12.1300001      -2.45185394E-04
  -12.1199999      -3.37283098E-04
  -12.1099997      -4.30859480E-04
  -12.1000004      -5.24710573E-04
  -12.0900002      -6.17725949E-04
  -12.0799999      -7.08882464E-04
  -12.0699997      -7.97238492E-04
  -12.0600004      -8.81895190E-04
  -12.0500002      -9.61968559E-04
  -12.0400000      -1.03655679E-03
  -12.0299997      -1.10471377E-03
  -12.0200005      -1.16542610E-03
  -12.0100002      -1.21761125E-03
  -12.0000000      -1.26012042E-03
  -11.9899998      -1.29176083E-03
  -11.9799995      -1.31131406E-03
  -11.9700003      -1.31757720E-03
  -11.9600000      -1.30939891E-03
  -11.9499998      -1.28571608E-03
  -11.9399996      -1.24560110E-03
  -11.9300003      -1.18830206E-03
  -11.9200001      -1.11328205E-03
  -11.9099998      -1.02025678E-03
  -11.8999996      -9.09217575E-04
  -11.8900003      -7.80450820E-04
  -11.8800001      -6.34548604E-04
  -11.8699999      -4.72395972E-04
  -11.8599997      -2.95151491E-04
  -11.8500004      -1.04218692E-04
  -11.8400002       9.87953317E-05
  -11.8299999       3.12119810E-04
  -11.8199997       5.33876300E-04
  -11.8100004       7.62109295E-04
  -11.8000002       9.94840288E-04
  -11.7900000       1.23010098E-03
  -11.7799997       1.46596099E-03
  -11.7700005       1.70055812E-03
  -11.7600002       1.93210901E-03
  -11.7500000       2.15891795E-03
  -11.7399998       2.37936480E-03
  -11.7299995       2.59188656E-03
  -11.7200003       2.79495097E-03
  -11.7100000       2.98701809E-03
  -11.6999998       3.16649908E-03
  -11.6899996       3.33172572E-03
  -11.6800003       3.48092965E-03
  -11.6700001       3.61223146E-03
  -11.6599998       3.72365490E-03
  -11.6499996       3.81316105E-03
  -11.6400003       3.87868471E-03
  -11.6300001       3.91819887E-03
  -11.6199999       3.92976077E-03
  -11.6099997       3.91158229E-03
  -11.6000004       3.86207108E-03
  -11.5900002       3.77988373E-03
  -11.5799999       3.66396783E-03
  -11.5699997       3.51359323E-03
  -11.5600004       3.32837226E-03
  -11.5500002       3.10828770E-03
  -11.5400000       2.85368459E-03
  -11.5299997       2.56526563E-03
  -11.5200005       2.24404270E-03
  -11.5100002       1.89129147E-03
  -11.5000000       1.50848296E-03
  -11.4899998       1.09718647E-03
  -11.4799995       6.59010082E-04
  -11.4700003       1.95520261E-04
  -11.4600000      -2.91788310E-04
  -11.4499998      -8.01518327E-04
  -11.4399996      -1.33233378E-03
  -11.4300003      -1.88292202E-03
  -11.4200001      -2.45192507E-03
  -11.4099998      -3.03786853E-03
  -11.3999996      -3.63910967E-03
  -11.3900003      -4.25378187E-03
  -11.3800001      -4.87979501E-03
  -11.3699999      -5.51485224E-03
  -11.3599997      -6.15648832E-03
  -11.3500004      -6.80214167E-03
  -11.3400002      -7.44922087E-03
  -11.3299999      -8.09518155E-03
  -11.3199997      -8.73760134E-03
  -11.3100004      -9.37421806E-03
  -11.3000002      -1.00029744E-02
  -11.2900000      -1.06220264E-02
  -11.2799997      -1.12297321E-02
  -11.2700005      -1.18246507E-02
  -11.2600002      -1.24054719E-02
  -11.2500000      -1.29709980E-02
  -11.2399998      -1.35200992E-02
  -11.2299995      -1.40516469E-02
  -11.2200003      -1.45645021E-02
  -11.2100000      -1.50574930E-02
  -11.1999998      -1.55294165E-02
  -11.1899996      -1.59790535E-02
  -11.1800003      -1.64052043E-02
  -11.1700001      -1.68067478E-02
  -11.1599998      -1.71826873E-02
  -11.1499996      -1.75321978E-02
  -11.1400003      -1.78546589E-02
  -11.1300001      -1.81496814E-02
  -11.1199999      -1.84171107E-02
  -11.1099997      -1.86570249E-02
  -11.1000004      -1.88696645E-02
  -11.0900002      -1.90554541E-02
  -11.0799999      -1.92149319E-02
  -11.0699997      -1.93487275E-02
  -11.0600004      -1.94575172E-02
  -11.0500002      -1.95420086E-02
  -11.0400000      -1.96029097E-02
  -11.0299997      -1.96409244E-02
  -11.0200005      -1.96567103E-02
  -11.0100002      -1.96508598E-02
  -11.0000000      -1.96239129E-02
  -10.9899998      -1.95763130E-02
  -10.9799995      -1.95084102E-02
  -10.9700003      -1.94205046E-02
  -10.9600000      -1.93127990E-02
  -10.9499998      -1.91854816E-02
  -10.9399996      -1.90386977E-02
  -10.9300003      -1.88725982E-02
  -10.9200001      -1.86873544E-02
  -10.9099998      -1.84831377E-02
  -10.8999996      -1.82601232E-02
  -10.8900003      -1.80184934E-02
  -10.8800001      -1.77583713E-02
  -10.8699999      -1.74798444E-02
  -10.8599997      -1.71829369E-02
  -10.8500004      -1.68676004E-02
  -10.8400002      -1.65337380E-02
  -10.8299999      -1.61811765E-02
  -10.8199997      -1.58097409E-02
  -10.8100004      -1.54192084E-02
  -10.8000002      -1.50093706E-02
  -10.7900000      -1.45799881E-02
  -10.7799997      -1.41308978E-02
  -10.7700005      -1.36619126E-02
  -10.7600002      -1.31728891E-02
  -10.7500000      -1.26637062E-02
  -10.7399998      -1.21342549E-02
  -10.7299995      -1.15844179E-02
  -10.7200003      -1.10140601E-02
  -10.7100000      -1.04229981E-02
  -10.6999998      -9.81098972E-03
  -10.6899996      -9.17775836E-03
  -10.6800003      -8.52297526E-03
  -10.6700001      -7.84634985E-03
  -10.6599998      -7.14767678E-03
  -10.6499996      -6.42687967E-03
  -10.6400003      -5.68415411E-03
  -10.6300001      -4.91995132E-03
  -10.6199999      -4.13505826E-03
  -10.6099997      -3.33055947E-03
  -10.6000004      -2.50781910E-03
  -10.5900002      -1.66845310E-03
  -10.5799999      -8.14223487E-04
  -10.5699997       5.29531681E-05
  -10.5600004       9.31066752E-04
  -10.5500002       1.81804015E-03
  -10.5400000       2.71172007E-03
  -10.5299997       3.60987196E-03
  -10.5200005       4.51021362E-03
  -10.5100002       5.41043049E-03
  -10.5000000       6.30821288E-03
  -10.4899998       7.20132701E-03
  -10.4799995       8.08758941E-03
  -10.4700003       8.96493159E-03
  -10.4600000       9.83133353E-03
  -10.4499998       1.06847705E-02
  -10.4399996       1.15231704E-02
  -10.4300003       1.23443138E-02
  -10.4200001       1.31458081E-02
  -10.4099998       1.39251035E-02
  -10.3999996       1.46795502E-02
  -10.3900003       1.54064922E-02
  -10.3800001       1.61034241E-02
  -10.3699999       1.67680942E-02
  -10.3599997       1.73985828E-02
  -10.3500004       1.79933291E-02
  -10.3400002       1.85511187E-02
  -10.3299999       1.90709773E-02
  -10.3199997       1.95520725E-02
  -10.3100004       1.99936349E-02
  -10.3000002       2.03948580E-02
  -10.2900000       2.07549091E-02
  -10.2799997       2.10729390E-02
  -10.2700005       2.13481784E-02
  -10.2600002       2.15799771E-02
  -10.2500000       2.17679814E-02
  -10.2399998       2.19121538E-02
  -10.2299995       2.20128428E-02
  -10.2200003       2.20708288E-02
  -10.2100000       2.20872872E-02
  -10.1999998       2.20638383E-02
  -10.1899996       2.20024493E-02
  -10.1800003       2.19054185E-02
  -10.1700001       2.17752848E-02
  -10.1599998       2.16147956E-02
  -10.1499996       2.14267988E-02
  -10.1400003       2.12141536E-02
  -10.1300001       2.09797267E-02
  -10.1199999       2.07262803E-02
  -10.1099997       2.04565041E-02
  -10.1000004       2.01730244E-02
  -10.0900002       1.98784173E-02
  -10.0799999       1.95752308E-02
  -10.0699997       1.92659870E-02
  -10.0600004       1.89531557E-02
  -10.0500002       1.86390951E-02
  -10.0400000       1.83259957E-02
  -10.0299997       1.80158224E-02
  -10.0200005       1.77102927E-02
  -10.0100002       1.74108539E-02
  -10.0000000       1.71187762E-02
  -9.98999977       1.68352127E-02
  -9.97999954       1.65612753E-02
  -9.97000027       1.62981171E-02
  -9.96000004       1.60469785E-02
  -9.94999981       1.58091728E-02
  -9.93999958       1.55860502E-02
  -9.93000031       1.53789297E-02
  -9.92000008       1.51890563E-02
  -9.90999985       1.50175430E-02
  -9.89999962       1.48653295E-02
  -9.89000034       1.47331981E-02
  -9.88000011       1.46217840E-02
  -9.86999989       1.45315351E-02
  -9.85999966       1.44627485E-02
  -9.85000038       1.44155500E-02
  -9.84000015       1.43898819E-02
  -9.82999992       1.43854972E-02
  -9.81999969       1.44020263E-02
  -9.81000042       1.44390455E-02
  -9.80000019       1.44961588E-02
  -9.78999996       1.45730888E-02
  -9.77999973       1.46697778E-02
  -9.77000046       1.47863962E-02
  -9.76000023       1.49233397E-02
  -9.75000000       1.50811719E-02
  -9.73999977       1.52605241E-02
  -9.72999954       1.54619962E-02
  -9.72000027       1.56861152E-02
  -9.71000004       1.59332678E-02
  -9.69999981       1.62037555E-02
  -9.68999958       1.64977685E-02
  -9.68000031       1.68154500E-02
  -9.67000008       1.71568692E-02
  -9.65999985       1.75219364E-02
  -9.64999962       1.79103352E-02
  -9.64000034       1.83213446E-02
  -9.63000011       1.87537074E-02
  -9.61999989       1.92054864E-02
  -9.60999966       1.96739957E-02
  -9.60000038       2.01558005E-02
  -9.59000015       2.06466932E-02
  -9.57999992       2.11418327E-02
  -9.56999969       2.16358043E-02
  -9.56000042       2.21227482E-02
  -9.55000019       2.25964263E-02
  -9.53999996       2.30503567E-02
  -9.52999973       2.34778263E-02
  -9.52000046       2.38719881E-02
  -9.51000023       2.42259596E-02
  -9.50000000       2.45328844E-02
  -9.48999977       2.47860644E-02
  -9.47999954       2.49790549E-02
  -9.47000027       2.51058452E-02
  -9.46000004       2.51610335E-02
  -9.44999981       2.51399837E-02
  -9.43999958       2.50390824E-02
  -9.43000031       2.48559508E-02
  -9.42000008       2.45896224E-02
  -9.40999985       2.42407881E-02
  -9.39999962       2.38118712E-02
  -9.39000034       2.33071689E-02
  -9.38000011       2.27327421E-02
  -9.36999989       2.20964607E-02
  -9.35999966       2.14077551E-02
  -9.35000038       2.06774939E-02
  -9.34000015       1.99177600E-02
  -9.32999992       1.91417020E-02
  -9.31999969       1.83632541E-02
  -9.31000042       1.75969917E-02
  -9.30000019       1.68578941E-02
  -9.28999996       1.61611475E-02
  -9.27999973       1.55219184E-02
  -9.27000046       1.49550913E-02
  -9.26000023       1.44750979E-02
  -9.25000000       1.40956836E-02
  -9.23999977       1.38297258E-02
  -9.22999954       1.36890942E-02
  -9.22000027       1.36844879E-02
  -9.21000004       1.38253234E-02
  -9.19999981       1.41196130E-02
  -9.18999958       1.45738740E-02
  -9.18000031       1.51930014E-02
  -9.17000008       1.59801953E-02
  -9.15999985       1.69369411E-02
  -9.14999962       1.80629529E-02
  -9.14000034       1.93562433E-02
  -9.13000011       2.08131764E-02
  -9.11999989       2.24284697E-02
  -9.10999966       2.41953377E-02
  -9.10000038       2.61055250E-02
  -9.09000015       2.81493012E-02
  -9.07999992       3.03156674E-02
  -9.06999969       3.25922370E-02
  -9.06000042       3.49654816E-02
  -9.05000019       3.74208130E-02
  -9.03999996       3.99426483E-02
  -9.02999973       4.25146893E-02
  -9.02000046       4.51199338E-02
  -9.01000023       4.77408804E-02
  -9.00000000       5.03595397E-02
  -8.98999977       5.29577322E-02
  -8.97999954       5.55170141E-02
  -8.97000027       5.80189861E-02
  -8.96000004       6.04454242E-02
  -8.94999981       6.27785549E-02
  -8.93999958       6.50011748E-02
  -8.93000031       6.70968369E-02
  -8.92000008       6.90500066E-02
  -8.90999985       7.08460137E-02
  -8.89999962       7.24711940E-02
  -8.89000034       7.39128590E-02
  -8.88000011       7.51593560E-02
  -8.86999989       7.62000754E-02
  -8.85999966       7.70258158E-02
  -8.85000038       7.76285678E-02
  -8.84000015       7.80019462E-02
  -8.82999992       7.81411380E-02
  -8.81999969       7.80427977E-02
  -8.81000042       7.77050704E-02
  -8.80000019       7.71274567E-02
  -8.78999996       7.63105005E-02
  -8.77999973       7.52558783E-02
  -8.77000046       7.39661679E-02
  -8.76000023       7.24450350E-02
  -8.75000000       7.06969872E-02
  -8.73999977       6.87276721E-02
  -8.72999954       6.65436983E-02
  -8.72000027       6.41525760E-02
  -8.71000004       6.15625381E-02
  -8.69999981       5.87823875E-02
  -8.68999958       5.58212325E-02
  -8.68000031       5.26883975E-02
  -8.67000008       4.93935049E-02
  -8.65999985       4.59461994E-02
  -8.64999962       4.23564538E-02
  -8.64000034       3.86346243E-02
  -8.63000011       3.47912908E-02
  -8.61999989       3.08374148E-02
  -8.60999966       2.67841145E-02
  -8.60000038       2.26424988E-02
  -8.59000015       1.84235722E-02
  -8.57999992       1.41381882E-02
  -8.56999969       9.79683455E-03
  -8.56000042       5.40983491E-03
  -8.55000019       9.87277017E-04
  -8.53999996      -3.46090412E-03
  -8.52999973      -7.92497583E-03
  -8.52000046      -1.23954713E-02
  -8.51000023      -1.68634169E-02
  -8.50000000      -2.13203188E-02
  -8.48999977      -2.57585328E-02
  -8.47999954      -3.01710255E-02
  -8.47000027      -3.45516354E-02
  -8.46000004      -3.88948917E-02
  -8.44999981      -4.31958549E-02
  -8.43999958      -4.74500582E-02
  -8.43000031      -5.16534299E-02
  -8.42000008      -5.58022186E-02
  -8.40999985      -5.98931685E-02
  -8.39999962      -6.39232770E-02
  -8.39000034      -6.78900704E-02
  -8.38000011      -7.17913285E-02
  -8.36999989      -7.56251141E-02
  -8.35999966      -7.93895125E-02
  -8.35000038      -8.30825791E-02
  -8.34000015      -8.67022052E-02
  -8.32999992      -9.02458951E-02
  -8.31999969      -9.37110260E-02
  -8.31000042      -9.70945582E-02
  -8.30000019     -0.100393243    
  -8.28999996     -0.103603519    
  -8.27999973     -0.106721506    
  -8.27000046     -0.109742895    
  -8.26000023     -0.112662777    
  -8.25000000     -0.115475602    
  -8.23999977     -0.118175082    
  -8.22999954     -0.120754130    
  -8.22000027     -0.123205043    
  -8.21000004     -0.125519559    
  -8.19999981     -0.127688825    
  -8.18999958     -0.129703805    
  -8.18000031     -0.131554976    
  -8.17000008     -0.133232713    
  -8.15999985     -0.134727061    
  -8.14999962     -0.136027947    
  -8.14000034     -0.137125209    
  -8.13000011     -0.138008684    
  -8.11999989     -0.138668522    
  -8.10999966     -0.139095291    
  -8.10000038     -0.139280215    
  -8.09000015     -0.139215484    
  -8.07999992     -0.138894290    
  -8.06999969     -0.138310954    
  -8.06000042     -0.137461066    
  -8.05000019     -0.136341408    
  -8.03999996     -0.134950086    
  -8.02999973     -0.133286551    
  -8.02000046     -0.131351620    
  -8.01000023     -0.129147619    
  -8.00000000     -0.126678273    
  -7.98999977     -0.123948857    
  -7.98000002     -0.120966077    
  -7.96999979     -0.117737800    
  -7.96000004     -0.114273190    
  -7.94999981     -0.110582270    
  -7.94000006     -0.106675945    
  -7.92999983     -0.102565825    
  -7.92000008      -9.82641354E-02
  -7.90999985      -9.37837958E-02
  -7.90000010      -8.91383365E-02
  -7.88999987      -8.43418390E-02
  -7.88000011      -7.94090033E-02
  -7.86999989      -7.43548349E-02
  -7.86000013      -6.91947564E-02
  -7.84999990      -6.39441311E-02
  -7.84000015      -5.86183593E-02
  -7.82999992      -5.32325953E-02
  -7.82000017      -4.78017852E-02
  -7.80999994      -4.23405208E-02
  -7.80000019      -3.68631631E-02
  -7.78999996      -3.13839093E-02
  -7.78000021      -2.59166379E-02
  -7.76999998      -2.04749890E-02
  -7.76000023      -1.50722088E-02
  -7.75000000      -9.72097181E-03
  -7.73999977      -4.43335297E-03
  -7.73000002       7.79310183E-04
  -7.71999979       5.90649480E-03
  -7.71000004       1.09383743E-02
  -7.69999981       1.58659145E-02
  -7.69000006       2.06806790E-02
  -7.67999983       2.53749657E-02
  -7.67000008       2.99416762E-02
  -7.65999985       3.43746096E-02
  -7.65000010       3.86684872E-02
  -7.63999987       4.28191461E-02
  -7.63000011       4.68236990E-02
  -7.61999989       5.06804287E-02
  -7.61000013       5.43889068E-02
  -7.59999990       5.79498485E-02
  -7.59000015       6.13648146E-02
  -7.57999992       6.46364093E-02
  -7.57000017       6.77680373E-02
  -7.55999994       7.07638487E-02
  -7.55000019       7.36289620E-02
  -7.53999996       7.63692260E-02
  -7.53000021       7.89912716E-02
  -7.51999998       8.15025866E-02
  -7.51000023       8.39111134E-02
  -7.50000000       8.62250850E-02
  -7.48999977       8.84528607E-02
  -7.48000002       9.06028822E-02
  -7.46999979       9.26833078E-02
  -7.46000004       9.47022587E-02
  -7.44999981       9.66676325E-02
  -7.44000006       9.85873640E-02