  -16.0000000       0.00000000    
  -15.9899998       0.00000000    
  -15.9799995       0.00000000    
  -15.9700003       0.00000000    
  -15.9600000       0.00000000    
  -15.9499998       0.00000000    
  -15.9399996       0.00000000    
  -15.9300003       0.00000000    
  -15.9200001       0.00000000    
  -15.9099998       0.00000000    
  -15.8999996       0.00000000    
  -15.8900003       0.00000000    
  -15.8800001       0.00000000    
  -15.8699999       0.00000000    
  -15.8599997       0.00000000    
  -15.8500004       0.00000000    
  -15.8400002       1.12103877E-44
  -15.8299999       1.68155816E-43
  -15.8199997       1.67034777E-42
  -15.8100004       1.25794563E-41
  -15.8000002       7.63693650E-41
  -15.7900000       3.88092412E-40
  -15.7799997       1.69134623E-39
  -15.7700005       6.42363203E-39
  -15.7600002       2.14800263E-38
  -15.7500000       6.35970844E-38
  -15.7399998       1.66890432E-37
  -15.7299995       3.86254536E-37
  -15.7200003       7.76620595E-37
  -15.7100000       1.30589475E-36
  -15.6999998       1.63953481E-36
  -15.6899996       7.50379947E-37
  -15.6800003      -3.58198900E-36
  -15.6700001      -1.50488489E-35
  -15.6599998      -3.81067115E-35
  -15.6499996      -7.51224231E-35
  -15.6400003      -1.20278281E-34
  -15.6300001      -1.50412905E-34
  -15.6199999      -1.16056810E-34
  -15.6099997       5.93984413E-35
  -15.6000004       4.60278680E-34
  -15.5900002       1.12782337E-33
  -15.5799999       1.97932200E-33
  -15.5699997       2.72611025E-33
  -15.5600004       2.85488768E-33
  -15.5500002       1.75264959E-33
  -15.5400000      -9.97367192E-34
  -15.5299997      -5.28807742E-33
  -15.5200005      -1.05227139E-32
  -15.5100002      -1.65475603E-32
  -15.5000000      -2.56273373E-32
  -15.4899998      -4.41755303E-32
  -15.4799995      -8.04441389E-32
  -15.4700003      -1.32169846E-31
  -15.4600000      -1.59899805E-31
  -15.4499998      -5.27335993E-32
  -15.4399996       3.83074542E-31
  -15.4300003       1.35200705E-30
  -15.4200001       2.84124639E-30
  -15.4099998       4.21679314E-30
  -15.3999996       3.78920322E-30
  -15.3900003      -1.22583645E-30
  -15.3800001      -1.36533989E-29
  -15.3699999      -3.35448457E-29
  -15.3599997      -5.37029736E-29
  -15.3500004      -5.54587055E-29
  -15.3400002      -9.17885272E-30
  -15.3299999       1.14121653E-28
  -15.3199997       3.15205567E-28
  -15.3100004       5.26320639E-28
  -15.3000002       5.77348249E-28
  -15.2900000       2.06998782E-28
  -15.2799997      -8.32208485E-28
  -15.2700005      -2.54605512E-27
  -15.2600002      -4.38740361E-27
  -15.2500000      -5.01940523E-27
  -15.2399998      -2.43778512E-27
  -15.2299995       5.22212861E-27
  -15.2200003       1.80436987E-26
  -15.2100000       3.21956569E-26
  -15.1999998       3.84185645E-26
  -15.1899996       2.29824178E-26
  -15.1800003      -2.69215331E-26
  -15.1700001      -1.12651346E-25
  -15.1599998      -2.10837055E-25
  -15.1499996      -2.64233028E-25
  -15.1400003      -1.87557054E-25
  -15.1300001       1.00743251E-25
  -15.1199999       6.17502321E-25
  -15.1099997       1.23867985E-24
  -15.1000004       1.64609436E-24
  -15.0900002       1.35533403E-24
  -15.0799999      -1.17771497E-25
  -15.0699997      -2.93524158E-24
  -15.0600004      -6.53090331E-24
  -15.0500002      -9.31077775E-24
  -15.0400000      -8.74922001E-24
  -15.0299997      -2.16672658E-24
  -15.0200005       1.17144590E-23
  -15.0100002       3.07514105E-23
  -15.0000000       4.77664082E-23
  -14.9899998       5.06728400E-23
  -14.9799995       2.56977845E-23
  -14.9700003      -3.57327263E-23
  -14.9600000      -1.27637076E-22
  -14.9499998      -2.21255037E-22
  -14.9399996      -2.63692648E-22
  -14.9300003      -1.89545289E-22
  -14.9200001       5.12996752E-23
  -14.9099998       4.53397969E-22
  -14.8999996       9.16599826E-22
  -14.8900003       1.23089736E-21
  -14.8800001       1.11121527E-21
  -14.8699999       2.98860093E-22
  -14.8599997      -1.27859141E-21
  -14.8500004      -3.33485215E-21
  -14.8400002      -5.12420012E-21
  -14.8299999      -5.51559509E-21
  -14.8199997      -3.32101061E-21
  -14.8100004       2.12413600E-21
  -14.8000002       1.02640012E-20
  -14.7900000       1.87928359E-20
  -14.7799997       2.36730286E-20
  -14.7700005       2.00418899E-20
  -14.7600002       4.11168864E-21
  -14.7500000      -2.42670897E-20
  -14.7399998      -5.92421714E-20
  -14.7299995      -8.80814486E-20
  -14.7200003      -9.31059182E-20
  -14.7100000      -5.71725655E-20
  -14.6999998       2.78379590E-20
  -14.6899996       1.51828161E-19
  -14.6800003       2.80531739E-19
  -14.6700001       3.57441933E-19
  -14.6599998       3.17147354E-19
  -14.6499996       1.10242070E-19
  -14.6400003      -2.65275556E-19
  -14.6300001      -7.36899536E-19
  -14.6199999      -1.14935795E-18
  -14.6099997      -1.28887468E-18
  -14.6000004      -9.46140248E-19
  -14.5900002      -1.01484786E-20
  -14.5799999       1.43251097E-18
  -14.5699997       3.03338318E-18
  -14.5600004       4.19808099E-18
  -14.5500002       4.21497987E-18
  -14.5400000       2.49658681E-18
  -14.5299997      -1.11444514E-18
  -14.5200005      -6.07243131E-18
  -14.5100002      -1.10179779E-17
  -14.5000000      -1.39499907E-17
  -14.4899998      -1.27383978E-17
  -14.4799995      -5.92163629E-18
  -14.4700003       6.40730215E-18
  -14.4600000       2.19433149E-17
  -14.4499998       3.61006203E-17
  -14.4399996       4.28108683E-17
  -14.4300003       3.62381672E-17
  -14.4200001       1.31218134E-17
  -14.4099998      -2.49041682E-17
  -14.3999996      -6.99153766E-17
  -14.3900003      -1.08124292E-16
  -14.3800001      -1.22681274E-16
  -14.3699999      -9.87101359E-17
  -14.3599997      -2.95461338E-17
  -14.3500004       7.76867253E-17
  -14.3400002       1.99455573E-16
  -14.3299999       2.98185429E-16
  -14.3199997       3.30534649E-16
  -14.3100004       2.60673516E-16
  -14.3000002       7.55466370E-17
  -14.2900000      -2.02626335E-16
  -14.2799997      -5.11942531E-16
  -14.2700005      -7.58705093E-16
  -14.2600002      -8.38843145E-16
  -14.2500000      -6.69768963E-16
  -14.2399998      -2.25016208E-16
  -14.2299995       4.39269592E-16
  -14.2200003       1.17738437E-15
  -14.2100000       1.77475658E-15
  -14.1999998       1.99738395E-15
  -14.1899996       1.66183915E-15
  -14.1800003       7.08588747E-16
  -14.1700001      -7.44341214E-16
  -14.1599998      -2.38994539E-15
  -14.1499996      -3.77773137E-15
  -14.1400003      -4.41613417E-15
  -14.1300001      -3.91361367E-15
  -14.1199999      -2.12351583E-15
  -14.1099997       7.51552005E-16
  -14.1000004       4.13750819E-15
  -14.0900002       7.17402686E-15
  -14.0799999       8.90472608E-15
  -14.0699997       8.53702908E-15
  -14.0600004       5.70793480E-15
  -14.0500002       6.77593218E-16
  -14.0400000      -5.62070142E-15
  -14.0299997      -1.17155931E-14
  -14.0200005      -1.59117867E-14
  -14.0100002      -1.67231798E-14
  -14.0000000      -1.33200725E-14
  -13.9899998      -5.86478413E-15
  -13.9799995       4.37670013E-15
  -13.9700003       1.52111922E-14
  -13.9600000       2.39731178E-14
  -13.9499998       2.81672523E-14
  -13.9399996       2.61443123E-14
  -13.9300003       1.76271690E-14
  -13.9200001       3.92746731E-15
  -13.9099998      -1.22366522E-14
  -13.8999996      -2.73077798E-14
  -13.8900003      -3.77187498E-14
  -13.8800001      -4.07790426E-14
  -13.8699999      -3.53824974E-14
  -13.8599997      -2.23364333E-14
  -13.8500004      -4.20762261E-15
  -13.8400002       1.52879418E-14
  -13.8299999       3.21941638E-14
  -13.8199997       4.32749912E-14
  -13.8100004       4.67570589E-14
  -13.8000002       4.26450765E-14
  -13.7900000       3.25254214E-14
  -13.7799997       1.89288316E-14
  -13.7700005       4.46332450E-15
  -13.7600002      -8.99320291E-15
  -13.7500000      -2.07621057E-14
  -13.7399998      -3.13193583E-14
  -13.7299995      -4.17299794E-14
  -13.7200003      -5.27384533E-14
  -13.7100000      -6.38335752E-14
  -13.6999998      -7.26564195E-14
  -13.6899996      -7.50533939E-14
  -13.6800003      -6.59040287E-14
  -13.6700001      -4.06172525E-14
  -13.6599998       3.04209469E-15
  -13.6499996       6.32938797E-14
  -13.6400003       1.33379920E-13
  -13.6300001       2.01712928E-13
  -13.6199999       2.53312508E-13
  -13.6099997       2.72395198E-13
  -13.6000004       2.45688019E-13
  -13.5900002       1.65823112E-13
  -13.5799999       3.40985412E-14
  -13.5699997      -1.38023883E-13
  -13.5600004      -3.29100489E-13
  -13.5500002      -5.09692657E-13
  -13.5400000      -6.45986845E-13
  -13.5299997      -7.04629226E-13
  -13.5200005      -6.58194148E-13
  -13.5100002      -4.90622300E-13
  -13.5000000      -2.01938862E-13
  -13.4899998       1.88432698E-13
  -13.4799995       6.40437031E-13
  -13.4700003       1.09486422E-12
  -13.4600000       1.47805162E-12
  -13.4499998       1.71005831E-12
  -13.4399996       1.71608702E-12
  -13.4300003       1.44025970E-12
  -13.4200001       8.60041584E-13
  -13.4099998      -1.15282868E-15
  -13.3999996      -1.06613427E-12
  -13.3900003      -2.20383911E-12
  -13.3800001      -3.23918713E-12
  -13.3699999      -3.97364476E-12
  -13.3599997      -4.21519850E-12
  -13.3500004      -3.81413824E-12
  -13.3400002      -2.69895651E-12
  -13.3299999      -9.05424607E-13
  -13.3199997       1.40811343E-12
  -13.3100004       3.96472612E-12
  -13.3000002       6.39477664E-12
  -13.2900000       8.28245632E-12
  -13.2799997       9.22761086E-12
  -13.2700005       8.91399021E-12
  -13.2600002       7.17283915E-12
  -13.2500000       4.03061612E-12
  -13.2399998      -2.68602659E-13
  -13.2299995      -5.27177130E-12
  -13.2200003      -1.03576271E-11
  -13.2100000      -1.48056463E-11
  -13.1999998      -1.78851343E-11
  -13.1899996      -1.89535228E-11
  -13.1800003      -1.75519477E-11
  -13.1700001      -1.34866007E-11
  -13.1599998      -6.88617349E-12
  -13.1499996       1.77219253E-12
  -13.1400003       1.16734487E-11
  -13.1300001       2.17145642E-11
  -13.1199999       3.05942945E-11
  -13.1099997       3.69405652E-11
  -13.1000004       3.94693687E-11
  -13.0900002       3.71641433E-11
  -13.0799999       2.94585155E-11
  -13.0699997       1.63992379E-11
  -13.0600004      -1.23834872E-12
  -13.0500002      -2.19113911E-11
  -13.0400000      -4.33718755E-11
  -13.0299997      -6.28449862E-11
  -13.0200005      -7.73222250E-11
  -13.0100002      -8.39478417E-11
  -13.0000000      -8.04561001E-11
  -12.9899998      -6.55997964E-11
  -12.9799995      -3.95004168E-11
  -12.9700003      -3.85152934E-12
  -12.9600000       3.80789081E-11
  -12.9499998       8.16762352E-11
  -12.9399996       1.21432225E-10
  -12.9300003       1.51582608E-10
  -12.9200001       1.66855182E-10
  -12.9099998       1.63231970E-10
  -12.8999996       1.38619685E-10
  -12.8900003       9.33305655E-11
  -12.8800001       3.02963488E-11
  -12.8699999      -4.50280473E-11
  -12.8599997      -1.25076810E-10
  -12.8500004      -2.00869266E-10
  -12.8400002      -2.62924627E-10
  -12.8299999      -3.02306985E-10
  -12.8199997      -3.11697584E-10
  -12.8100004      -2.86386137E-10
  -12.8000002      -2.25076041E-10
  -12.7900000      -1.30405478E-10
  -12.7799997      -9.10263184E-12
  -12.7700005       1.28286645E-10
  -12.7600002       2.68128769E-10
  -12.7500000       3.94880073E-10
  -12.7399998       4.92647645E-10
  -12.7299995       5.47012269E-10
  -12.7200003       5.46929280E-10
  -12.7100000       4.86478136E-10
  -12.6999998       3.66203845E-10
  -12.6899996       1.93803404E-10
  -12.6800003      -1.60331731E-11
  -12.6700001      -2.42726145E-10
  -12.6599998      -4.61820165E-10
  -12.6499996      -6.47731924E-10
  -12.6400003      -7.76916531E-10
  -12.6300001      -8.31038294E-10
  -12.6199999      -7.99684818E-10
  -12.6099997      -6.82195356E-10
  -12.6000004      -4.88275864E-10
  -12.5900002      -2.37234843E-10
  -12.5799999       4.41227437E-11
  -12.5699997       3.24704902E-10
  -12.5600004       5.73034398E-10
  -12.5500002       7.61318841E-10
  -12.5400000       8.69133487E-10
  -12.5299997       8.86209217E-10
  -12.5200005       8.13936696E-10
  -12.5100002       6.65372812E-10
  -12.5000000       4.63718147E-10
  -12.4899998       2.39419679E-10
  -12.4799995       2.62047224E-11
  -12.4700003      -1.43545800E-10
  -12.4600000      -2.43615683E-10
  -12.4499998      -2.58478738E-10
  -12.4399996      -1.87068319E-10
  -12.4300003      -4.53658743E-11
  -12.4200001       1.32543629E-10
  -12.4099998       2.95224872E-10
  -12.3999996       3.76606857E-10
  -12.3900003       3.00670155E-10
  -12.3800001      -1.20707446E-11
  -12.3699999      -6.36672104E-10
  -12.3599997      -1.63506320E-09
  -12.3500004      -3.04734904E-09
  -12.3400002      -4.88405272E-09
  -12.3299999      -7.12027992E-09
  -12.3199997      -9.69269642E-09
  -12.3100004      -1.24999842E-08
  -12.3000002      -1.54070694E-08
  -12.2900000      -1.82530098E-08
  -12.2799997      -2.08619344E-08
  -12.2700005      -2.30560442E-08
  -12.2600002      -2.46692924E-08
  -12.2500000      -2.55603627E-08
  -12.2399998      -2.56235353E-08
  -12.2299995      -2.47962291E-08
  -12.2200003      -2.30626167E-08
  -12.2100000      -2.04529620E-08
  -12.1999998      -1.70390315E-08
  -12.1899996      -1.29262432E-08
  -12.1800003      -8.24349122E-09
  -12.1700001      -3.13197290E-09
  -12.1599998       2.26600938E-09
  -12.1499996       7.81722687E-09
  -12.1400003       1.34059137E-08
  -12.1300001       1.89397742E-08
  -12.1199999       2.43534881E-08
  -12.1099997       2.96095752E-08
  -12.1000004       3.46966083E-08
  -12.0900002       3.96250748E-08
  -12.0799999       4.44211175E-08
  -12.0699997       4.91186327E-08
  -12.0600004       5.37503055E-08
  -12.0500002       5.83382693E-08
  -12.0400000       6.28852845E-08
  -12.0299997       6.73676368E-08
  -12.0200005       7.17301916E-08
  -12.0100002       7.58850192E-08
  -12.0000000       7.97133453E-08
  -11.9899998       8.30713063E-08
  -11.9799995       8.57986819E-08
  -11.9700003       8.77296742E-08
  -11.9600000       8.87048159E-08
  -11.9499998       8.85818139E-08
  -11.9399996       8.72448425E-08
  -11.9300003       8.46108676E-08
  -11.9200001       8.06327165E-08
  -11.9099998       7.52986580E-08
  -11.8999996       6.86293262E-08
  -11.8900003       6.06728534E-08
  -11.8800001       5.14991427E-08
  -11.8699999       4.11939460E-08
  -11.8599997       2.98542240E-08
  -11.8500004       1.75843464E-08
  -11.8400002       4.49348247E-09
  -11.8299999      -9.30594801E-09
  -11.8199997      -2.36994744E-08
  -11.8100004      -3.85718408E-08
  -11.8000002      -5.38082467E-08
  -11.7900000      -6.92959716E-08
  -11.7799997      -8.49259294E-08
  -11.7700005      -1.00594256E-07
  -11.7600002      -1.16202557E-07
  -11.7500000      -1.31657842E-07
  -11.7399998      -1.46870690E-07
  -11.7299995      -1.61752681E-07
  -11.7200003      -1.76213007E-07
  -11.7100000      -1.90154921E-07
  -11.6999998      -2.03472680E-07
  -11.6899996      -2.16049514E-07
  -11.6800003      -2.27756900E-07
  -11.6700001      -2.38455385E-07
  -11.6599998      -2.47996866E-07
  -11.6499996      -2.56227878E-07
  -11.6400003      -2.62993723E-07
  -11.6300001      -2.68142401E-07
  -11.6199999      -2.71528734E-07
  -11.6099997      -2.73017321E-07
  -11.6000004      -2.72485266E-07
  -11.5900002      -2.69824028E-07
  -11.5799999      -2.64940468E-07
  -11.5699997      -2.57757961E-07
  -11.5600004      -2.48216509E-07
  -11.5500002      -2.36273138E-07
  -11.5400000      -2.21902212E-07
  -11.5299997      -2.05094167E-07
  -11.5200005      -1.85855498E-07
  -11.5100002      -1.64206881E-07
  -11.5000000      -1.40181086E-07
  -11.4899998      -1.13821216E-07
  -11.4799995      -8.51786623E-08
  -11.4700003      -5.43118546E-08
  -11.4600000      -2.12859597E-08
  -11.4499998       1.38255638E-08
  -11.4399996       5.09383398E-08
  -11.4300003       8.99528487E-08
  -11.4200001       1.30748944E-07
  -11.4099998       1.73182130E-07
  -11.3999996       2.17078991E-07
  -11.3900003       2.62235631E-07
  -11.3800001       3.08419487E-07
  -11.3699999       3.55373459E-07
  -11.3599997       4.02824071E-07
  -11.3500004       4.50492138E-07
  -11.3400002       4.98105464E-07
  -11.3299999       5.45411751E-07
  -11.3199997       5.92190702E-07
  -11.3100004       6.38263941E-07
  -11.3000002       6.83501867E-07
  -11.2900000       7.27825977E-07
  -11.2799997       7.71207056E-07
  -11.2700005       8.13659028E-07
  -11.2600002       8.55228905E-07
  -11.2500000       8.95984726E-07
  -11.2399998       9.36000333E-07
  -11.2299995       9.75340981E-07
  -11.2200003       1.01404942E-06
  -11.2100000       1.05213371E-06
  -11.1999998       1.08955805E-06
  -11.1899996       1.12623889E-06
  -11.1800003       1.16204262E-06
  -11.1700001       1.19678748E-06
  -11.1599998       1.23025370E-06
  -11.1499996       1.26219015E-06
  -11.1400003       1.29232706E-06
  -11.1300001       1.32039042E-06
  -11.1199999       1.34611696E-06
  -11.1099997       1.36926678E-06
  -11.1000004       1.38963696E-06
  -11.0900002       1.40707436E-06
  -11.0799999       1.42148588E-06
  -11.0699997       1.43284615E-06
  -11.0600004       1.44120270E-06
  -11.0500002       1.44667740E-06
  -11.0400000       1.44946614E-06
  -11.0299997       1.44982675E-06
  -11.0200005       1.44807632E-06
  -11.0100002       1.44457510E-06
  -11.0000000       1.43970396E-06
  -10.9899998       1.43385751E-06
  -10.9799995       1.42741374E-06
  -10.9700003       1.42072872E-06
  -10.9600000       1.41411306E-06
  -10.9499998       1.40782913E-06
  -10.9399996       1.40207499E-06
  -10.9300003       1.39698511E-06
  -10.9200001       1.39263261E-06
  -10.9099998       1.38902510E-06
  -10.8999996       1.38610937E-06
  -10.8900003       1.38377993E-06
  -10.8800001       1.38188022E-06
  -10.8699999       1.38021562E-06
  -10.8599997       1.37855511E-06
  -10.8500004       1.37664415E-06
  -10.8400002       1.37421114E-06
  -10.8299999       1.37098516E-06
  -10.8199997       1.36670280E-06
  -10.8100004       1.36112772E-06
  -10.8000002       1.35406594E-06
  -10.7900000       1.34537402E-06
  -10.7799997       1.33497360E-06
  -10.7700005       1.32286152E-06
  -10.7600002       1.30910951E-06
  -10.7500000       1.29386547E-06
  -10.7399998       1.27733574E-06
  -10.7299995       1.25978318E-06
  -10.7200003       1.24150461E-06
  -10.7100000       1.22280949E-06
  -10.6999998       1.20399795E-06
  -10.6899996       1.18534967E-06
  -10.6800003       1.16709612E-06
  -10.6700001       1.14941975E-06
  -10.6599998       1.13244153E-06
  -10.6499996       1.11621750E-06
  -10.6400003       1.10074518E-06
  -10.6300001       1.08596839E-06
  -10.6199999       1.07178005E-06
  -10.6099997       1.05803724E-06
  -10.6000004       1.04456069E-06
  -10.5900002       1.03115462E-06
  -10.5799999       1.01759952E-06
  -10.5699997       1.00367242E-06
  -10.5600004       9.89146088E-07
  -10.5500002       9.73797114E-07
  -10.5400000       9.57406769E-07
  -10.5299997       9.39766721E-07
  -10.5200005       9.20682737E-07
  -10.5100002       8.99972008E-07
  -10.5000000       8.77464402E-07
  -10.4899998       8.53003485E-07
  -10.4799995       8.26456073E-07
  -10.4700003       7.97703819E-07
  -10.4600000       7.66668961E-07
  -10.4499998       7.33312447E-07
  -10.4399996       6.97653945E-07
  -10.4300003       6.59787304E-07
  -10.4200001       6.19895388E-07
  -10.4099998       5.78248319E-07
  -10.3999996       5.35219783E-07
  -10.3900003       4.91271692E-07
  -10.3800001       4.46945734E-07
  -10.3699999       4.02844051E-07
  -10.3599997       3.59592150E-07
  -10.3500004       3.17820167E-07
  -10.3400002       2.78123792E-07
  -10.3299999       2.41035224E-07
  -10.3199997       2.07001690E-07
  -10.3100004       1.76358498E-07
  -10.3000002       1.49325544E-07
  -10.2900000       1.25998469E-07
  -10.2799997       1.06351230E-07
  -10.2700005       9.02443844E-08
  -10.2600002       7.74416691E-08
  -10.2500000       6.76203555E-08
  -10.2399998       6.03935959E-08
  -10.2299995       5.53220119E-08
  -10.2200003       5.19323820E-08
  -10.2100000       4.97315611E-08
  -10.1999998       4.82167692E-08
  -10.1899996       4.68864840E-08
  -10.1800003       4.52512623E-08
  -10.1700001       4.28391473E-08
  -10.1599998       3.92052968E-08
  -10.1499996       3.39382566E-08
  -10.1400003       2.66653881E-08
  -10.1300001       1.70575749E-08
  -10.1199999       4.83223017E-09
  -10.1099997      -1.02463060E-08
  -10.1000004      -2.83651076E-08
  -10.0900002      -4.96632779E-08
  -10.0799999      -7.42332844E-08
  -10.0699997      -1.02119493E-07
  -10.0600004      -1.33316505E-07
  -10.0500002      -1.67766999E-07
  -10.0400000      -2.05357608E-07
  -10.0299997      -2.45918272E-07
  -10.0200005      -2.89220310E-07
  -10.0100002      -3.34979973E-07
  -10.0000000      -3.82865863E-07
  -9.98999977      -4.32507250E-07
  -9.97999954      -4.83509552E-07
  -9.97000027      -5.35467848E-07
  -9.96000004      -5.87988552E-07
  -9.94999981      -6.40701671E-07
  -9.93999958      -6.93283710E-07
  -9.93000031      -7.45466707E-07
  -9.92000008      -7.97056657E-07
  -9.90999985      -8.47943681E-07
  -9.89999962      -8.98106123E-07
  -9.89000034      -9.47613273E-07
  -9.88000011      -9.96626909E-07
  -9.86999989      -1.04539549E-06
  -9.85999966      -1.09424514E-06
  -9.85000038      -1.14356646E-06
  -9.84000015      -1.19380104E-06
  -9.82999992      -1.24542635E-06
  -9.81999969      -1.29894329E-06
  -9.81000042      -1.35486198E-06
  -9.80000019      -1.41368605E-06
  -9.78999996      -1.47591277E-06
  -9.77999973      -1.54201223E-06
  -9.77000046      -1.61242417E-06
  -9.76000023      -1.68753706E-06
  -9.75000000      -1.76768697E-06
  -9.73999977      -1.85313843E-06
  -9.72999954      -1.94407426E-06
  -9.72000027      -2.04057937E-06
  -9.71000004      -2.14263855E-06
  -9.69999981      -2.25012877E-06
  -9.68999958      -2.36281835E-06
  -9.68000031      -2.48036417E-06
  -9.67000008      -2.60231627E-06
  -9.65999985      -2.72811189E-06
  -9.64999962      -2.85708234E-06
  -9.64000034      -2.98845748E-06
  -9.63000011      -3.12136945E-06
  -9.61999989      -3.25486531E-06
  -9.60999966      -3.38791824E-06
  -9.60000038      -3.51944323E-06
  -9.59000015      -3.64833295E-06
  -9.57999992      -3.77346532E-06
  -9.56999969      -3.89373963E-06
  -9.56000042      -4.00808722E-06
  -9.55000019      -4.11549445E-06
  -9.53999996      -4.21501727E-06
  -9.52999973      -4.30577029E-06
  -9.52000046      -4.38693542E-06
  -9.51000023      -4.45777459E-06
  -9.50000000      -4.51761071E-06
  -9.48999977      -4.56584849E-06
  -9.47999954      -4.60196316E-06
  -9.47000027      -4.62554181E-06
  -9.46000004      -4.63626839E-06
  -9.44999981      -4.63396236E-06
  -9.43999958      -4.61858508E-06
  -9.43000031      -4.59026660E-06
  -9.42000008      -4.54930614E-06
  -9.40999985      -4.49621120E-06
  -9.39999962      -4.43167346E-06
  -9.39000034      -4.35659285E-06
  -9.38000011      -4.27207169E-06
  -9.36999989      -4.17939964E-06
  -9.35999966      -4.08005462E-06
  -9.35000038      -3.97566919E-06
  -9.34000015      -3.86803822E-06
  -9.32999992      -3.75905165E-06
  -9.31999969      -3.65069923E-06
  -9.31000042      -3.54505300E-06
  -9.30000019      -3.44422529E-06
  -9.28999996      -3.35035429E-06
  -9.27999973      -3.26558097E-06
  -9.27000046      -3.19203878E-06
  -9.26000023      -3.13180090E-06
  -9.25000000      -3.08690073E-06
  -9.23999977      -3.05927483E-06
  -9.22999954      -3.05073399E-06
  -9.22000027      -3.06296511E-06
  -9.21000004      -3.09747543E-06
  -9.19999981      -3.15557190E-06
  -9.18999958      -3.23835434E-06
  -9.18000031      -3.34668698E-06
  -9.17000008      -3.48115805E-06
  -9.15999985      -3.64208927E-06
  -9.14999962      -3.82949975E-06
  -9.14000034      -4.04312004E-06
  -9.13000011      -4.28235126E-06
  -9.11999989      -4.54630390E-06
  -9.10999966      -4.83377107E-06
  -9.10000038      -5.14326484E-06
  -9.09000015      -5.47301852E-06
  -9.07999992      -5.82103894E-06
  -9.06999969      -6.18511876E-06
  -9.06000042      -6.56283100E-06
  -9.05000019      -6.95162771E-06
  -9.03999996      -7.34882997E-06
  -9.02999973      -7.75165154E-06
  -9.02000046      -8.15724707E-06
  -9.01000023      -8.56273164E-06
  -9.00000000      -8.96522215E-06
  -8.98999977      -9.36186643E-06
  -8.97999954      -9.74984687E-06
  -8.97000027      -1.01264486E-05
  -8.96000004      -1.04890278E-05
  -8.94999981      -1.08350796E-05
  -8.93999958      -1.11622303E-05
  -8.93000031      -1.14682271E-05
  -8.92000008      -1.17509680E-05
  -8.90999985      -1.20084842E-05
  -8.89999962      -1.22389738E-05
  -8.89000034      -1.24407788E-05
  -8.88000011      -1.26124096E-05
  -8.86999989      -1.27525336E-05
  -8.85999966      -1.28600404E-05
  -8.85000038      -1.29339842E-05
  -8.84000015      -1.29736345E-05
  -8.82999992      -1.29784548E-05
  -8.81999969      -1.29481414E-05
  -8.81000042      -1.28826014E-05
  -8.80000019      -1.27819549E-05
  -8.78999996      -1.26465029E-05
  -8.77999973      -1.24767494E-05
  -8.77000046      -1.22733691E-05
  -8.76000023      -1.20371778E-05
  -8.75000000      -1.17691634E-05
  -8.73999977      -1.14704580E-05
  -8.72999954      -1.11422723E-05
  -8.72000027      -1.07858914E-05
  -8.71000004      -1.04027613E-05
  -8.69999981      -9.99426265E-06
  -8.68999958      -9.56186886E-06
  -8.68000031      -9.10699873E-06
  -8.67000008      -8.63112291E-06
  -8.65999985      -8.13564384E-06
  -8.64999962      -7.62197760E-06
  -8.64000034      -7.09145979E-06
  -8.63000011      -6.54547466E-06
  -8.61999989      -5.98529186E-06
  -8.60999966      -5.41223744E-06
  -8.60000038      -4.82753967E-06
  -8.59000015      -4.23238407E-06
  -8.57999992      -3.62793162E-06
  -8.56999969      -3.01527621E-06
  -8.56000042      -2.39543556E-06
  -8.55000019      -1.76937453E-06
  -8.53999996      -1.13796943E-06
  -8.52999973      -5.02062107E-07
  -8.52000046       1.37535423E-07
  -8.51000023       7.80106689E-07
  -8.50000000       1.42496856E-06
  -8.48999977       2.07143012E-06
  -8.47999954       2.71891690E-06
  -8.47000027       3.36683161E-06
  -8.46000004       4.01460693E-06
  -8.44999981       4.66173742E-06
  -8.43999958       5.30766874E-06
  -8.43000031       5.95184838E-06
  -8.42000008       6.59370471E-06
  -8.40999985       7.23259836E-06
  -8.39999962       7.86787041E-06
  -8.39000034       8.49878234E-06
  -8.38000011       9.12455289E-06
  -8.36999989       9.74432442E-06
  -8.35999966       1.03571447E-05
  -8.35000038       1.09620669E-05
  -8.34000015       1.15580078E-05
  -8.32999992       1.21438352E-05
  -8.31999969       1.27183721E-05
  -8.31000042       1.32803916E-05
  -8.30000019       1.38286523E-05
  -8.28999996       1.43618608E-05
  -8.27999973       1.48788231E-05
  -8.27000046       1.53782948E-05
  -8.26000023       1.58591265E-05
  -8.25000000       1.63201821E-05
  -8.23999977       1.67604230E-05
  -8.22999954       1.71788452E-05
  -8.22000027       1.75744990E-05
  -8.21000004       1.79465442E-05
  -8.19999981       1.82941640E-05
  -8.18999958       1.86166690E-05
  -8.18000031       1.89133934E-05
  -8.17000008       1.91837717E-05
  -8.15999985       1.94273343E-05
  -8.14999962       1.96435958E-05
  -8.14000034       1.98321959E-05
  -8.13000011       1.99927836E-05
  -8.11999989       2.01250714E-05
  -8.10999966       2.02288484E-05
  -8.10000038       2.03039690E-05
  -8.09000015       2.03504060E-05
  -8.07999992       2.03682157E-05
  -8.06999969       2.03575710E-05
  -8.06000042       2.03187283E-05
  -8.05000019       2.02520769E-05
  -8.03999996       2.01580242E-05
  -8.02999973       2.00370741E-05
  -8.02000046       1.98897524E-05
  -8.01000023       1.97166501E-05
  -8.00000000       1.95183875E-05
  -7.98999977       1.92955704E-05
  -7.98000002       1.90489045E-05
  -7.96999979       1.87790884E-05
  -7.96000004       1.84868823E-05
  -7.94999981       1.81730411E-05
  -7.94000006       1.78384125E-05
  -7.92999983       1.74838606E-05
  -7.92000008       1.71102547E-05
  -7.90999985       1.67185626E-05
  -7.90000010       1.63098230E-05
  -7.88999987       1.58851526E-05
  -7.88000011       1.54457757E-05
  -7.86999989       1.49930056E-05
  -7.86000013       1.45282665E-05
  -7.84999990       1.40530874E-05
  -7.84000015       1.35690734E-05
  -7.82999992       1.30778599E-05
  -7.82000017       1.25811639E-05
  -7.80999994       1.20807308E-05
  -7.80000019       1.15783341E-05
  -7.78999996       1.10757674E-05
  -7.78000021       1.05748759E-05
  -7.76999998       1.00774760E-05
  -7.76000023       9.58540113E-06
  -7.75000000       9.10044582E-06
  -7.73999977       8.62438628E-06
  -7.73000002       8.15892236E-06
  -7.71999979       7.70566749E-06
  -7.71000004       7.26616418E-06
  -7.69999981       6.84181259E-06
  -7.69000006       6.43390240E-06
  -7.67999983       6.04361685E-06
  -7.67000008       5.67202324E-06
  -7.65999985       5.32008016E-06
  -7.65000010       4.98865847E-06
  -7.63999987       4.67848395E-06
  -7.63000011       4.39021096E-06
  -7.61999989       4.12428926E-06
  -7.61000013       3.88106628E-06
  -7.59999990       3.66068116E-06
  -7.59000015       3.46314050E-06
  -7.57999992       3.28822807E-06
  -7.57000017       3.13550663E-06
  -7.55999994       3.00434272E-06
  -7.55000019       2.89392824E-06
  -7.53999996       2.80328004E-06
  -7.53000021       2.73114892E-06
  -7.51999998       2.67620817E-06
  -7.51000023       2.63698075E-06
  -7.50000000       2.61182072E-06
  -7.48999977       2.59899230E-06
  -7.48000002       2.59662875E-06
  -7.46999979       2.60285105E-06
  -7.46000004       2.61576861E-06
  -7.44999981       2.63342304E-06
  -7.44000006       2.65398035E-06