  -16.0000000       0.00000000    
  -15.9899998       0.00000000    
  -15.9799995       0.00000000    
  -15.9700003       0.00000000    
  -15.9600000       0.00000000    
  -15.9499998       0.00000000    
  -15.9399996       0.00000000    
  -15.9300003       0.00000000    
  -15.9200001       0.00000000    
  -15.9099998       0.00000000    
  -15.8999996       0.00000000    
  -15.8900003       0.00000000    
  -15.8800001       0.00000000    
  -15.8699999       0.00000000    
  -15.8599997       0.00000000    
  -15.8500004       0.00000000    
  -15.8400002       0.00000000    
  -15.8299999      -0.00000000    
  -15.8199997       0.00000000    
  -15.8100004      -0.00000000    
  -15.8000002      -2.80259693E-45
  -15.7900000      -1.68155816E-44
  -15.7799997      -9.94921910E-44
  -15.7700005      -4.94658358E-43
  -15.7600002      -2.12997367E-42
  -15.7500000      -8.10511032E-42
  -15.7399998      -2.76406122E-41
  -15.7299995      -8.53096492E-41
  -15.7200003      -2.39987776E-40
  -15.7100000      -6.18296323E-40
  -15.6999998      -1.46297381E-39
  -15.6899996      -3.18158510E-39
  -15.6800003      -6.34909977E-39
  -15.6700001      -1.15687025E-38
  -15.6599998      -1.90463170E-38
  -15.6499996      -2.77353792E-38
  -15.6400003      -3.40449442E-38
  -15.6300001      -3.04740938E-38
  -15.6199999      -5.16626934E-39
  -15.6099997       5.58936367E-38
  -15.6000004       1.61996279E-37
  -15.5900002       3.05026982E-37
  -15.5799999       4.42972372E-37
  -15.5699997       4.87117085E-37
  -15.5600004       3.06898848E-37
  -15.5500002      -2.30332594E-37
  -15.5400000      -1.17372024E-36
  -15.5299997      -2.36861125E-36
  -15.5200005      -3.35069951E-36
  -15.5100002      -3.34514884E-36
  -15.5000000      -1.47688858E-36
  -15.4899998       2.75125712E-36
  -15.4799995       8.79910112E-36
  -15.4700003       1.45526330E-35
  -15.4600000       1.64091421E-35
  -15.4499998       1.04729724E-35
  -15.4399996      -5.05220391E-36
  -15.4300003      -2.70385626E-35
  -15.4200001      -4.59681026E-35
  -15.4099998      -4.81344991E-35
  -15.3999996      -2.29037225E-35
  -15.3900003       2.65419306E-35
  -15.3800001       7.50017053E-35
  -15.3699999       7.91458452E-35
  -15.3599997       1.61980542E-36
  -15.3500004      -1.46597404E-34
  -15.3400002      -2.66108847E-34
  -15.3299999      -1.71039823E-34
  -15.3199997       3.23717943E-34
  -15.3100004       1.21806470E-33
  -15.3000002       2.10775908E-33
  -15.2900000       2.09084133E-33
  -15.2799997       1.81901007E-35
  -15.2700005      -4.76121240E-33
  -15.2600002      -1.12750656E-32
  -15.2500000      -1.59743555E-32
  -15.2399998      -1.29202698E-32
  -15.2299995       3.88314163E-33
  -15.2200003       3.57429864E-32
  -15.2100000       7.35111261E-32
  -15.1999998       9.43262511E-32
  -15.1899996       6.57788712E-32
  -15.1800003      -3.87123762E-32
  -15.1700001      -2.14570248E-31
  -15.1599998      -4.00667014E-31
  -15.1499996      -4.72663034E-31
  -15.1400003      -2.76627510E-31
  -15.1300001       2.86239316E-31
  -15.1199999       1.14080843E-30
  -15.1099997       1.94133343E-30
  -15.1000004       2.08467190E-30
  -15.0900002       9.16390946E-31
  -15.0799999      -1.85494889E-30
  -15.0699997      -5.65381825E-30
  -15.0600004      -8.72153614E-30
  -15.0500002      -8.35903249E-30
  -15.0400000      -2.01153885E-30
  -15.0299997       1.08738072E-29
  -15.0200005       2.68662352E-29
  -15.0100002       3.76855650E-29
  -15.0000000       3.19049163E-29
  -14.9899998       8.05673719E-32
  -14.9799995      -5.74443634E-29
  -14.9700003      -1.23143539E-28
  -14.9600000      -1.60447454E-28
  -14.9499998      -1.22791347E-28
  -14.9399996       2.40959475E-29
  -14.9300003       2.71051625E-28
  -14.9200001       5.38669654E-28
  -14.9099998       6.74773341E-28
  -14.8999996       4.95259193E-28
  -14.8900003      -1.25872113E-28
  -14.8800001      -1.13752491E-27
  -14.8699999      -2.21541647E-27
  -14.8599997      -2.76261285E-27
  -14.8500004      -2.07286434E-27
  -14.8400002       3.28972716E-28
  -14.8299999       4.24982057E-27
  -14.8199997       8.48457267E-27
  -14.8100004       1.08260713E-26
  -14.8000002       8.65499744E-27
  -14.7900000       1.50295962E-28
  -14.7799997      -1.41646832E-26
  -14.7700005      -3.01933800E-26
  -14.7600002      -4.02382725E-26
  -14.7500000      -3.49392935E-26
  -14.7399998      -7.33155770E-27
  -14.7299995       4.18879717E-26
  -14.7200003       9.99973087E-26
  -14.7100000       1.41673662E-25
  -14.6999998       1.34767986E-25
  -14.6899996       5.31235081E-26
  -14.6800003      -1.06173985E-25
  -14.6700001      -3.07540875E-25
  -14.6599998      -4.72677763E-25
  -14.6499996      -4.95836747E-25
  -14.6400003      -2.81770860E-25
  -14.6300001       2.00194606E-25
  -14.6199999       8.64232620E-25
  -14.6099997       1.48533870E-24
  -14.6000004       1.73303669E-24
  -14.5900002       1.27524601E-24
  -14.5799999      -6.09982011E-26
  -14.5699997      -2.11983787E-24
  -14.5600004      -4.31481672E-24
  -14.5500002      -5.67885820E-24
  -14.5400000      -5.12016481E-24
  -14.5299997      -1.86840305E-24
  -14.5200005       4.00123465E-24
  -14.5100002       1.11699107E-23
  -14.5000000       1.70478995E-23
  -14.4899998       1.83115978E-23
  -14.4799995       1.20345220E-23
  -14.4700003      -2.81116401E-24
  -14.4600000      -2.39755876E-23
  -14.4499998      -4.53407429E-23
  -14.4399996      -5.77421886E-23
  -14.4300003      -5.14923245E-23
  -14.4200001      -2.02879468E-23
  -14.4099998       3.45488418E-23
  -14.3999996       1.01147783E-22
  -14.3900003       1.57292743E-22
  -14.3800001       1.75017450E-22
  -14.3699999       1.29572739E-22
  -14.3599997       1.09313394E-23
  -14.3500004      -1.65796045E-22
  -14.3400002      -3.55693646E-22
  -14.3299999      -4.89346904E-22
  -14.3199997      -4.90039738E-22
  -14.3100004      -3.00810308E-22
  -14.3000002       8.53342774E-23
  -14.2900000       6.02545742E-22
  -14.2799997       1.10825420E-21
  -14.2700005       1.40700645E-21
  -14.2600002       1.30344510E-21
  -14.2500000       6.75361769E-22
  -14.2399998      -4.53043348E-22
  -14.2299995      -1.86475106E-21
  -14.2200003      -3.15710949E-21
  -14.2100000      -3.81909652E-21
  -14.1999998      -3.37543186E-21
  -14.1899996      -1.56911659E-21
  -14.1800003       1.46939356E-21
  -14.1700001       5.13075739E-21
  -14.1599998       8.37141919E-21
  -14.1499996       9.92433447E-21
  -14.1400003       8.65779493E-21
  -14.1300001       4.00772601E-21
  -14.1199999      -3.64008785E-21
  -14.1099997      -1.27632846E-20
  -14.1000004      -2.08365649E-20
  -14.0900002      -2.48419092E-20
  -14.0799999      -2.21037087E-20
  -14.0699997      -1.12740073E-20
  -14.0600004       6.80841134E-21
  -14.0500002       2.87025630E-20
  -14.0400000       4.86605636E-20
  -14.0299997       5.97501314E-20
  -14.0200005       5.56893014E-20
  -14.0100002       3.30190015E-20
  -14.0000000      -6.97403729E-21
  -13.9899998      -5.72580947E-20
  -13.9799995      -1.05553371E-19
  -13.9700003      -1.36588457E-19
  -13.9600000      -1.35906783E-19
  -13.9499998      -9.44786761E-20
  -13.9399996      -1.29294841E-20
  -13.9300003       9.60012894E-20
  -13.9200001       2.07977104E-19
  -13.9099998       2.91172539E-19
  -13.8999996       3.13663192E-19
  -13.8900003       2.52725339E-19
  -13.8800001       1.03769252E-19
  -13.8699999      -1.13809002E-19
  -13.8599997      -3.56302129E-19
  -13.8500004      -5.62280674E-19
  -13.8400002      -6.65773118E-19
  -13.8299999      -6.13724536E-19
  -13.8199997      -3.83678447E-19
  -13.8100004       3.29206777E-21
  -13.8000002       4.79042420E-19
  -13.7900000       9.37085619E-19
  -13.7799997       1.25355458E-18
  -13.7700005       1.31690080E-18
  -13.7600002       1.05975216E-18
  -13.7500000       4.84614567E-19
  -13.7399998      -3.24568560E-19
  -13.7299995      -1.21034835E-18
  -13.7200003      -1.97000756E-18
  -13.7100000      -2.39951240E-18
  -13.6999998      -2.34373913E-18
  -13.6899996      -1.74072116E-18
  -13.6800003      -6.47892213E-19
  -13.6700001       7.58103794E-19
  -13.6599998       2.21025327E-18
  -13.6499996       3.40354651E-18
  -13.6400003       4.05936859E-18
  -13.6300001       3.98679466E-18
  -13.6199999       3.12614921E-18
  -13.6099997       1.56470157E-18
  -13.6000004      -4.78220874E-19
  -13.5900002      -2.69137564E-18
  -13.5799999      -4.72546943E-18
  -13.5699997      -6.24688908E-18
  -13.5600004      -6.97985754E-18
  -13.5500002      -6.73181585E-18
  -13.5400000      -5.40461283E-18
  -13.5299997      -3.00035655E-18
  -13.5200005       3.67566959E-19
  -13.5100002       4.45198490E-18
  -13.5000000       8.84123643E-18
  -13.4899998       1.29354165E-17
  -13.4799995       1.59542014E-17
  -13.4700003       1.70028745E-17
  -13.4600000       1.52142933E-17
  -13.4499998       9.96426150E-18
  -13.4399996       1.12952216E-18
  -13.4300003      -1.06711270E-17
  -13.4200001      -2.39318174E-17
  -13.4099998      -3.62913682E-17
  -13.3999996      -4.47993707E-17
  -13.3900003      -4.64267196E-17
  -13.3800001      -3.87652172E-17
  -13.3699999      -2.07922369E-17
  -13.3599997       6.47741398E-18
  -13.3500004       3.96507670E-17
  -13.3400002       7.30979971E-17
  -13.3299999       9.96672964E-17
  -13.3199997       1.11943067E-16
  -13.3100004       1.03872683E-16
  -13.3000002       7.24560718E-17
  -13.2900000       1.91065602E-17
  -13.2799997      -4.97114174E-17
  -13.2700005      -1.22869991E-16
  -13.2600002      -1.86106135E-16
  -13.2500000      -2.24550287E-16
  -13.2399998      -2.25851383E-16
  -13.2299995      -1.83275417E-16
  -13.2200003      -9.80576757E-17
  -13.2100000       1.96537154E-17
  -13.1999998       1.51686779E-16
  -13.1899996       2.74616419E-16
  -13.1800003       3.64020165E-16
  -13.1700001       3.99415528E-16
  -13.1599998       3.68819639E-16
  -13.1499996       2.71846436E-16
  -13.1400003       1.20512182E-16
  -13.1300001      -6.25896798E-17
  -13.1199999      -2.48462080E-16
  -13.1099997      -4.07336556E-16
  -13.1000004      -5.14462984E-16
  -13.0900002      -5.54663114E-16
  -13.0799999      -5.24539023E-16
  -13.0699997      -4.31834946E-16
  -13.0600004      -2.92231714E-16
  -13.0500002      -1.24589189E-16
  -13.0400000       5.38899434E-17
  -13.0299997       2.31075141E-16
  -13.0200005       4.00840422E-16
  -13.0100002       5.61255995E-16
  -13.0000000       7.10719935E-16
  -12.9899998       8.43439410E-16
  -12.9799995       9.46011818E-16
  -12.9700003       9.96570579E-16
  -12.9600000       9.67171230E-16
  -12.9499998       8.29018303E-16
  -12.9399996       5.59128301E-16
  -12.9300003       1.46522168E-16
  -12.9200001      -4.03808955E-16
  -12.9099998      -1.06998525E-15
  -12.8999996      -1.81486592E-15
  -12.8900003      -2.58847234E-15
  -12.8800001      -3.32883228E-15
  -12.8699999      -3.95941697E-15
  -12.8599997      -4.38301307E-15
  -12.8500004      -4.47445112E-15
  -12.8400002      -4.07727483E-15
  -12.8299999      -3.01094802E-15
  -12.8199997      -1.09490359E-15
  -12.8100004       1.80727672E-15
  -12.8000002       5.72563991E-15
  -12.7900000       1.05126343E-14
  -12.7799997       1.57784789E-14
  -12.7700005       2.08532024E-14
  -12.7600002       2.47957714E-14
  -12.7500000       2.64657630E-14
  -12.7399998       2.46630905E-14
  -12.7299995       1.83278075E-14
  -12.7200003       6.77731686E-15
  -12.7100000      -1.00541320E-14
  -12.6999998      -3.14158862E-14
  -12.6899996      -5.56237829E-14
  -12.6800003      -8.00599143E-14
  -12.6700001      -1.01310013E-13
  -12.6599998      -1.15440060E-13
  -12.6499996      -1.18395446E-13
  -12.6400003      -1.06489870E-13
  -12.6300001      -7.69389367E-14
  -12.6199999      -2.83892748E-14
  -12.6099997       3.86074873E-14
  -12.6000004       1.21221785E-13
  -12.5900002       2.14117650E-13
  -12.5799999       3.09405930E-13
  -12.5699997       3.96813929E-13
  -12.5600004       4.64102986E-13
  -12.5500002       4.97757651E-13
  -12.5400000       4.83958251E-13
  -12.5299997       4.09832433E-13
  -12.5200005       2.64947108E-13
  -12.5100002       4.29774353E-14
  -12.5000000      -2.56556928E-13
  -12.4899998      -6.26622560E-13
  -12.4799995      -1.05123375E-12
  -12.4700003      -1.50441682E-12
  -12.4600000      -1.94974288E-12
  -12.4499998      -2.34056719E-12
  -12.4399996      -2.62106461E-12
  -12.4300003      -2.72811201E-12
  -12.4200001      -2.59399533E-12
  -12.4099998      -2.14984541E-12
  -12.3999996      -1.32967422E-12
  -12.3900003      -7.48179594E-14
  -12.3800001       1.66146166E-12
  -12.3699999       3.90946520E-12
  -12.3599997       6.67894386E-12
  -12.3500004       9.95562920E-12
  -12.3400002       1.36987088E-11
  -12.3299999       1.78394799E-11
  -12.3199997       2.22813261E-11
  -12.3100004       2.69011913E-11
  -12.3000002       3.15525835E-11
  -12.2900000       3.60699248E-11
  -12.2799997       4.02743151E-11
  -12.2700005       4.39802465E-11
  -12.2600002       4.70030299E-11
  -12.2500000       4.91665562E-11
  -12.2399998       5.03108631E-11
  -12.2299995       5.02991225E-11
  -12.2200003       4.90234763E-11
  -12.2100000       4.64095463E-11
  -12.1999998       4.24190925E-11
  -12.1899996       3.70507236E-11
  -12.1800003       3.03387072E-11
  -12.1700001       2.23499205E-11
  -12.1599998       1.31793430E-11
  -12.1499996       2.94449404E-12
  -12.1400003      -8.22062557E-12
  -12.1300001      -2.01715953E-11
  -12.1199999      -3.27587540E-11
  -12.1099997      -4.58317100E-11
  -12.1000004      -5.92421875E-11
  -12.0900002      -7.28456392E-11
  -12.0799999      -8.65015976E-11
  -12.0699997      -1.00072596E-10
  -12.0600004      -1.13422695E-10
  -12.0500002      -1.26415198E-10
  -12.0400000      -1.38910383E-10
  -12.0299997      -1.50763568E-10
  -12.0200005      -1.61822999E-10
  -12.0100002      -1.71928818E-10
  -12.0000000      -1.80912604E-10
  -11.9899998      -1.88597554E-10
  -11.9799995      -1.94799718E-10
  -11.9700003      -1.99330691E-10
  -11.9600000      -2.02001055E-10
  -11.9499998      -2.02625375E-10
  -11.9399996      -2.01028055E-10
  -11.9300003      -1.97050071E-10
  -11.9200001      -1.90556362E-10
  -11.9099998      -1.81442236E-10
  -11.8999996      -1.69640135E-10
  -11.8900003      -1.55123886E-10
  -11.8800001      -1.37912459E-10
  -11.8699999      -1.18070456E-10
  -11.8599997      -9.57079901E-11
  -11.8500004      -7.09773768E-11
  -11.8400002      -4.40690436E-11
  -11.8299999      -1.52055885E-11
  -11.8199997       1.53648518E-11
  -11.8100004       4.73759434E-11
  -11.8000002       8.05504830E-11
  -11.7900000       1.14607872E-10
  -11.7799997       1.49269958E-10
  -11.7700005       1.84266574E-10
  -11.7600002       2.19338575E-10
  -11.7500000       2.54239491E-10
  -11.7399998       2.88735258E-10
  -11.7299995       3.22600668E-10
  -11.7200003       3.55615676E-10
  -11.7100000       3.87559540E-10
  -11.6999998       4.18205276E-10
  -11.6899996       4.47314658E-10
  -11.6800003       4.74634276E-10
  -11.6700001       4.99894293E-10
  -11.6599998       5.22809573E-10
  -11.6499996       5.43082634E-10
  -11.6400003       5.60409497E-10
  -11.6300001       5.74487014E-10
  -11.6199999       5.85020810E-10
  -11.6099997       5.91733607E-10
  -11.6000004       5.94373162E-10
  -11.5900002       5.92718818E-10
  -11.5799999       5.86586613E-10
  -11.5699997       5.75832104E-10
  -11.5600004       5.60350599E-10
  -11.5500002       5.40077649E-10
  -11.5400000       5.14983112E-10
  -11.5299997       4.85067431E-10
  -11.5200005       4.50354226E-10
  -11.5100002       4.10884216E-10
  -11.5000000       3.66708025E-10
  -11.4899998       3.17880888E-10
  -11.4799995       2.64461175E-10
  -11.4700003       2.06509879E-10
  -11.4600000       1.44093057E-10
  -11.4499998       7.72878220E-11
  -11.4399996       6.18960525E-12
  -11.4300003      -6.90795407E-11
  -11.4200001      -1.48364654E-10
  -11.4099998      -2.31471300E-10
  -11.3999996      -3.18163940E-10
  -11.3900003      -4.08167083E-10
  -11.3800001      -5.01169883E-10
  -11.3699999      -5.96833472E-10
  -11.3599997      -6.94800939E-10
  -11.3500004      -7.94708965E-10
  -11.3400002      -8.96196783E-10
  -11.3299999      -9.98917948E-10
  -11.3199997      -1.10254561E-09
  -11.3100004      -1.20677901E-09
  -11.3000002      -1.31134403E-09
  -11.2900000      -1.41599410E-09
  -11.2799997      -1.52050816E-09
  -11.2700005      -1.62468528E-09
  -11.2600002      -1.72834447E-09
  -11.2500000      -1.83131776E-09
  -11.2399998      -1.93344785E-09
  -11.2299995      -2.03458672E-09
  -11.2200003      -2.13459206E-09
  -11.2100000      -2.23332997E-09
  -11.1999998      -2.33066921E-09
  -11.1899996      -2.42648723E-09
  -11.1800003      -2.52066390E-09
  -11.1700001      -2.61308752E-09
  -11.1599998      -2.70364819E-09
  -11.1499996      -2.79224044E-09
  -11.1400003      -2.87876323E-09
  -11.1300001      -2.96311642E-09
  -11.1199999      -3.04520786E-09
  -11.1099997      -3.12494475E-09
  -11.1000004      -3.20224713E-09
  -11.0900002      -3.27704330E-09
  -11.0799999      -3.34927530E-09
  -11.0699997      -3.41890116E-09
  -11.0600004      -3.48590001E-09
  -11.0500002      -3.55027185E-09
  -11.0400000      -3.61203267E-09
  -11.0299997      -3.67122555E-09
  -11.0200005      -3.72790154E-09
  -11.0100002      -3.78212661E-09
  -11.0000000      -3.83397314E-09
  -10.9899998      -3.88350685E-09
  -10.9799995      -3.93079302E-09
  -10.9700003      -3.97587518E-09
  -10.9600000      -4.01878708E-09
  -10.9499998      -4.05953449E-09
  -10.9399996      -4.09810141E-09
  -10.9300003      -4.13444390E-09
  -10.9200001      -4.16849932E-09
  -10.9099998      -4.20019486E-09
  -10.8999996      -4.22943414E-09
  -10.8900003      -4.25611768E-09
  -10.8800001      -4.28015001E-09
  -10.8699999      -4.30143920E-09
  -10.8599997      -4.31991465E-09
  -10.8500004      -4.33551817E-09
  -10.8400002      -4.34821290E-09
  -10.8299999      -4.35799530E-09
  -10.8199997      -4.36486403E-09
  -10.8100004      -4.36885772E-09
  -10.8000002      -4.37000258E-09
  -10.7900000      -4.36834258E-09
  -10.7799997      -4.36391012E-09
  -10.7700005      -4.35673808E-09
  -10.7600002      -4.34683223E-09
  -10.7500000      -4.33419611E-09
  -10.7399998      -4.31882530E-09
  -10.7299995      -4.30069269E-09
  -10.7200003      -4.27978852E-09
  -10.7100000      -4.25610436E-09
  -10.6999998      -4.22965174E-09
  -10.6899996      -4.20045687E-09
  -10.6800003      -4.16858725E-09
  -10.6700001      -4.13415213E-09
  -10.6599998      -4.09729228E-09
  -10.6499996      -4.05819112E-09
  -10.6400003      -4.01708533E-09
  -10.6300001      -3.97422628E-09
  -10.6199999      -3.92991728E-09
  -10.6099997      -3.88445498E-09
  -10.6000004      -3.83816667E-09
  -10.5900002      -3.79137033E-09
  -10.5799999      -3.74438169E-09
  -10.5699997      -3.69751918E-09
  -10.5600004      -3.65106678E-09
  -10.5500002      -3.60531716E-09
  -10.5400000      -3.56054430E-09
  -10.5299997      -3.51700691E-09
  -10.5200005      -3.47495832E-09
  -10.5100002      -3.43463258E-09
  -10.5000000      -3.39626505E-09
  -10.4899998      -3.36005801E-09
  -10.4799995      -3.32618977E-09
  -10.4700003      -3.29482464E-09
  -10.4600000      -3.26610139E-09
  -10.4499998      -3.24012905E-09
  -10.4399996      -3.21699090E-09
  -10.4300003      -3.19675686E-09
  -10.4200001      -3.17946869E-09
  -10.4099998      -3.16515858E-09
  -10.3999996      -3.15384474E-09
  -10.3900003      -3.14551607E-09
  -10.3800001      -3.14016124E-09
  -10.3699999      -3.13774695E-09
  -10.3599997      -3.13821347E-09
  -10.3500004      -3.14148485E-09
  -10.3400002      -3.14748205E-09
  -10.3299999      -3.15612358E-09
  -10.3199997      -3.16730508E-09
  -10.3100004      -3.18091242E-09
  -10.3000002      -3.19683946E-09
  -10.2900000      -3.21497007E-09
  -10.2799997      -3.23516791E-09
  -10.2700005      -3.25732330E-09
  -10.2600002      -3.28130501E-09
  -10.2500000      -3.30699979E-09
  -10.2399998      -3.33432015E-09
  -10.2299995      -3.36319617E-09
  -10.2200003      -3.39358275E-09
  -10.2100000      -3.42543949E-09
  -10.1999998      -3.45877971E-09
  -10.1899996      -3.49361162E-09
  -10.1800003      -3.52993590E-09
  -10.1700001      -3.56781604E-09
  -10.1599998      -3.60728603E-09
  -10.1499996      -3.64837716E-09
  -10.1400003      -3.69112829E-09
  -10.1300001      -3.73555764E-09
  -10.1199999      -3.78171983E-09
  -10.1099997      -3.82964371E-09
  -10.1000004      -3.87937504E-09
  -10.0900002      -3.93093691E-09
  -10.0799999      -3.98438882E-09
  -10.0699997      -4.03978850E-09
  -10.0600004      -4.09717993E-09
  -10.0500002      -4.15668033E-09
  -10.0400000      -4.21837942E-09
  -10.0299997      -4.28240554E-09
  -10.0200005      -4.34891678E-09
  -10.0100002      -4.41806769E-09
  -10.0000000      -4.49003812E-09
  -9.98999977      -4.56499771E-09
  -9.97999954      -4.64311567E-09
  -9.97000027      -4.72456341E-09
  -9.96000004      -4.80948881E-09
  -9.94999981      -4.89805840E-09
  -9.93999958      -4.99042496E-09
  -9.93000031      -5.08672260E-09
  -9.92000008      -5.18708410E-09
  -9.90999985      -5.29162802E-09
  -9.89999962      -5.40042588E-09
  -9.89000034      -5.51360069E-09
  -9.88000011      -5.63118441E-09
  -9.86999989      -5.75319214E-09
  -9.85999966      -5.87964832E-09
  -9.85000038      -6.01057248E-09
  -9.84000015      -6.14595486E-09
  -9.82999992      -6.28580965E-09
  -9.81999969      -6.43012710E-09
  -9.81000042      -6.57888766E-09
  -9.80000019      -6.73210243E-09
  -9.78999996      -6.88975454E-09
  -9.77999973      -7.05183023E-09
  -9.77000046      -7.21829396E-09
  -9.76000023      -7.38912354E-09
  -9.75000000      -7.56428786E-09
  -9.73999977      -7.74375852E-09
  -9.72999954      -7.92751909E-09
  -9.72000027      -8.11557044E-09
  -9.71000004      -8.30789482E-09
  -9.69999981      -8.50447801E-09
  -9.68999958      -8.70531203E-09
  -9.68000031      -8.91031515E-09
  -9.67000008      -9.11944742E-09
  -9.65999985      -9.33261024E-09
  -9.64999962      -9.54965529E-09
  -9.64000034      -9.77041292E-09
  -9.63000011      -9.99465577E-09
  -9.61999989      -1.02221307E-08
  -9.60999966      -1.04525339E-08
  -9.60000038      -1.06854907E-08
  -9.59000015      -1.09205986E-08
  -9.57999992      -1.11573879E-08
  -9.56999969      -1.13953451E-08
  -9.56000042      -1.16339445E-08
  -9.55000019      -1.18725998E-08
  -9.53999996      -1.21107249E-08
  -9.52999973      -1.23477424E-08
  -9.52000046      -1.25830510E-08
  -9.51000023      -1.28160433E-08
  -9.50000000      -1.30461357E-08
  -9.48999977      -1.32728042E-08
  -9.47999954      -1.34955087E-08
  -9.47000027      -1.37137848E-08
  -9.46000004      -1.39271892E-08
  -9.44999981      -1.41353764E-08
  -9.43999958      -1.43380117E-08
  -9.43000031      -1.45349262E-08
  -9.42000008      -1.47260142E-08
  -9.40999985      -1.49112918E-08
  -9.39999962      -1.50908441E-08
  -9.39000034      -1.52649395E-08
  -9.38000011      -1.54339137E-08
  -9.36999989      -1.55982764E-08
  -9.35999966      -1.57585713E-08
  -9.35000038      -1.59155231E-08
  -9.34000015      -1.60698779E-08
  -9.32999992      -1.62225042E-08
  -9.31999969      -1.63743028E-08
  -9.31000042      -1.65262346E-08
  -9.30000019      -1.66793175E-08
  -9.28999996      -1.68346030E-08
  -9.27999973      -1.69931198E-08
  -9.27000046      -1.71559567E-08
  -9.26000023      -1.73242078E-08
  -9.25000000      -1.74989037E-08
  -9.23999977      -1.76811366E-08
  -9.22999954      -1.78718675E-08
  -9.22000027      -1.80720896E-08
  -9.21000004      -1.82826376E-08
  -9.19999981      -1.85043785E-08
  -9.18999958      -1.87379943E-08
  -9.18000031      -1.89840819E-08
  -9.17000008      -1.92431617E-08
  -9.15999985      -1.95155696E-08
  -9.14999962      -1.98015933E-08
  -9.14000034      -2.01014014E-08
  -9.13000011      -2.04150261E-08
  -9.11999989      -2.07423536E-08
  -9.10999966      -2.10831690E-08
  -9.10000038      -2.14372324E-08
  -9.09000015      -2.18040395E-08
  -9.07999992      -2.21830607E-08
  -9.06999969      -2.25736780E-08
  -9.06000042      -2.29751542E-08
  -9.05000019      -2.33866615E-08
  -9.03999996      -2.38073401E-08
  -9.02999973      -2.42362486E-08
  -9.02000046      -2.46723708E-08
  -9.01000023      -2.51147263E-08
  -9.00000000      -2.55622918E-08
  -8.98999977      -2.60139856E-08
  -8.97999954      -2.64686619E-08
  -8.97000027      -2.69252443E-08
  -8.96000004      -2.73825691E-08
  -8.94999981      -2.78395689E-08
  -8.93999958      -2.82950090E-08
  -8.93000031      -2.87479196E-08
  -8.92000008      -2.91971620E-08
  -8.90999985      -2.96417380E-08
  -8.89999962      -3.00807592E-08
  -8.89000034      -3.05133554E-08
  -8.88000011      -3.09387822E-08
  -8.86999989      -3.13564357E-08
  -8.85999966      -3.17657687E-08
  -8.85000038      -3.21663194E-08
  -8.84000015      -3.25577290E-08
  -8.82999992      -3.29397523E-08
  -8.81999969      -3.33122472E-08
  -8.81000042      -3.36751320E-08
  -8.80000019      -3.40283961E-08
  -8.78999996      -3.43721460E-08
  -8.77999973      -3.47065097E-08
  -8.77000046      -3.50316540E-08
  -8.76000023      -3.53478988E-08
  -8.75000000      -3.56554786E-08
  -8.73999977      -3.59548018E-08
  -8.72999954      -3.62462949E-08
  -8.72000027      -3.65304480E-08
  -8.71000004      -3.68078439E-08
  -8.69999981      -3.70790900E-08
  -8.68999958      -3.73448898E-08
  -8.68000031      -3.76059397E-08
  -8.67000008      -3.78630247E-08
  -8.65999985      -3.81168910E-08
  -8.64999962      -3.83683449E-08
  -8.64000034      -3.86181220E-08
  -8.63000011      -3.88670394E-08
  -8.61999989      -3.91158146E-08
  -8.60999966      -3.93651582E-08
  -8.60000038      -3.96157454E-08
  -8.59000015      -3.98682296E-08
  -8.57999992      -4.01232576E-08
  -8.56999969      -4.03812450E-08
  -8.56000042      -4.06428384E-08
  -8.55000019      -4.09084393E-08
  -8.53999996      -4.11784420E-08
  -8.52999973      -4.14531591E-08
  -8.52000046      -4.17328998E-08
  -8.51000023      -4.20179518E-08
  -8.50000000      -4.23084714E-08
  -8.48999977      -4.26046682E-08
  -8.47999954      -4.29065707E-08
  -8.47000027      -4.32142500E-08
  -8.46000004      -4.35277379E-08
  -8.44999981      -4.38470096E-08
  -8.43999958      -4.41719372E-08
  -8.43000031      -4.45025989E-08
  -8.42000008      -4.48388242E-08
  -8.40999985      -4.51806557E-08
  -8.39999962      -4.55279263E-08
  -8.39000034      -4.58807925E-08
  -8.38000011      -4.62392151E-08
  -8.36999989      -4.66032155E-08
  -8.35999966      -4.69728008E-08
  -8.35000038      -4.73479211E-08
  -8.34000015      -4.77288928E-08
  -8.32999992      -4.81157230E-08
  -8.31999969      -4.85084719E-08
  -8.31000042      -4.89072818E-08
  -8.30000019      -4.93124368E-08
  -8.28999996      -4.97240649E-08
  -8.27999973      -5.01423578E-08
  -8.27000046      -5.05675786E-08
  -8.26000023      -5.10000433E-08
  -8.25000000      -5.14400398E-08
  -8.23999977      -5.18879233E-08
  -8.22999954      -5.23440491E-08
  -8.22000027      -5.28089998E-08
  -8.21000004      -5.32829603E-08
  -8.19999981      -5.37664917E-08
  -8.18999958      -5.42601946E-08
  -8.18000031      -5.47642678E-08
  -8.17000008      -5.52792123E-08
  -8.15999985      -5.58053230E-08
  -8.14999962      -5.63430724E-08
  -8.14000034      -5.68928549E-08
  -8.13000011      -5.74548586E-08
  -8.11999989      -5.80293680E-08
  -8.10999966      -5.86164326E-08
  -8.10000038      -5.92161626E-08
  -8.09000015      -5.98286221E-08
  -8.07999992      -6.04537291E-08
  -8.06999969      -6.10913062E-08
  -8.06000042      -6.17411118E-08
  -8.05000019      -6.24026626E-08
  -8.03999996      -6.30755324E-08
  -8.02999973      -6.37592805E-08
  -8.02000046      -6.44530971E-08
  -8.01000023      -6.51562928E-08
  -8.00000000      -6.58681429E-08
  -7.98999977      -6.65875746E-08
  -7.98000002      -6.73136995E-08
  -7.96999979      -6.80456935E-08
  -7.96000004      -6.87822350E-08
  -7.94999981      -6.95224074E-08
  -7.94000006      -7.02651803E-08
  -7.92999983      -7.10094241E-08
  -7.92000008      -7.17542719E-08
  -7.90999985      -7.24988425E-08
  -7.90000010      -7.32423189E-08
  -7.88999987      -7.39838271E-08
  -7.88000011      -7.47226920E-08
  -7.86999989      -7.54583382E-08
  -7.86000013      -7.61900907E-08
  -7.84999990      -7.69174804E-08
  -7.84000015      -7.76400242E-08
  -7.82999992      -7.83576084E-08
  -7.82000017      -7.90697854E-08
  -7.80999994      -7.97763136E-08
  -7.80000019      -8.04772782E-08
  -7.78999996      -8.11726224E-08
  -7.78000021      -8.18622539E-08
  -7.76999998      -8.25461939E-08
  -7.76000023      -8.32245064E-08
  -7.75000000      -8.38976533E-08
  -7.73999977      -8.45656984E-08
  -7.73000002      -8.52291890E-08
  -7.71999979      -8.58886935E-08
  -7.71000004      -8.65447447E-08
  -7.69999981      -8.71978685E-08
  -7.69000006      -8.78489459E-08
  -7.67999983      -8.84988225E-08
  -7.67000008      -8.91484007E-08
  -7.65999985      -8.97987462E-08
  -7.65000010      -9.04507544E-08
  -7.63999987      -9.11059246E-08
  -7.63000011      -9.17652301E-08
  -7.61999989      -9.24298504E-08
  -7.61000013      -9.31012423E-08
  -7.59999990      -9.37808338E-08
  -7.59000015      -9.44697618E-08
  -7.57999992      -9.51697388E-08
  -7.57000017      -9.58820010E-08
  -7.55999994      -9.66081188E-08
  -7.55000019      -9.73496057E-08
  -7.53999996      -9.81074280E-08
  -7.53000021      -9.88832127E-08
  -7.51999998      -9.96783101E-08
  -7.51000023      -1.00493999E-07
  -7.50000000      -1.01331764E-07
  -7.48999977      -1.02192260E-07
  -7.48000002      -1.03076928E-07
  -7.46999979      -1.03986906E-07
  -7.46000004      -1.04922933E-07
  -7.44999981      -1.05885967E-07
  -7.44000006      -1.06876840E-07