  -16.0000000       0.00000000    
  -15.9899998       0.00000000    
  -15.9799995       0.00000000    
  -15.9700003       0.00000000    
  -15.9600000       0.00000000    
  -15.9499998       0.00000000    
  -15.9399996       0.00000000    
  -15.9300003       0.00000000    
  -15.9200001       0.00000000    
  -15.9099998       0.00000000    
  -15.8999996       0.00000000    
  -15.8900003       0.00000000    
  -15.8800001       0.00000000    
  -15.8699999       0.00000000    
  -15.8599997      -0.00000000    
  -15.8500004       0.00000000    
  -15.8400002       5.60519386E-45
  -15.8299999       5.74532370E-44
  -15.8199997       5.54914192E-43
  -15.8100004       4.25434214E-42
  -15.8000002       2.70422578E-41
  -15.7900000       1.46636075E-40
  -15.7799997       6.92890243E-40
  -15.7700005       2.89960882E-39
  -15.7600002       1.08814974E-38
  -15.7500000       3.69758272E-38
  -15.7399998       1.14623434E-37
  -15.7299995       3.25991976E-37
  -15.7200003       8.54023927E-37
  -15.7100000       2.06611786E-36
  -15.6999998       4.62029260E-36
  -15.6899996       9.54173101E-36
  -15.6800003       1.81381074E-35
  -15.6700001       3.15164069E-35
  -15.6599998       4.93889347E-35
  -15.6499996       6.79417769E-35
  -15.6400003       7.69778273E-35
  -15.6300001       5.75078928E-35
  -15.6199999      -1.76182066E-35
  -15.6099997      -1.76152466E-34
  -15.6000004      -4.28213352E-34
  -15.5900002      -7.37035463E-34
  -15.5799999      -9.86450155E-34
  -15.5699997      -9.64772295E-34
  -15.5600004      -3.95456366E-34
  -15.5500002       9.55602520E-34
  -15.5400000       3.08982217E-33
  -15.5299997       5.54897508E-33
  -15.5200005       7.26808451E-33
  -15.5100002       6.67653388E-33
  -15.5000000       2.19327060E-33
  -15.4899998      -6.88305942E-33
  -15.4799995      -1.93487810E-32
  -15.4700003      -3.14677663E-32
  -15.4600000      -3.73633495E-32
  -15.4499998      -3.07527219E-32
  -15.4399996      -7.62597772E-33
  -15.4300003       3.13669500E-32
  -15.4200001       8.03563706E-32
  -15.4099998       1.30113812E-31
  -15.3999996       1.70659680E-31
  -15.3900003       1.90568605E-31
  -15.3800001       1.69068343E-31
  -15.3699999       6.25263548E-32
  -15.3599997      -2.01890873E-31
  -15.3500004      -7.00994019E-31
  -15.3400002      -1.43432514E-30
  -15.3299999      -2.18841576E-30
  -15.3199997      -2.40618371E-30
  -15.3100004      -1.19428204E-30
  -15.3000002       2.36011392E-30
  -15.2900000       8.46008287E-30
  -15.2799997       1.55872161E-29
  -15.2700005       1.97128575E-29
  -15.2600002       1.45966637E-29
  -15.2500000      -5.92300608E-30
  -15.2399998      -4.33598571E-29
  -15.2299995      -8.88701294E-29
  -15.2200003      -1.19450894E-28
  -15.2100000      -1.00520844E-28
  -15.1999998       1.15169952E-30
  -15.1899996       1.93955710E-28
  -15.1800003       4.34224113E-28
  -15.1700001       6.10371640E-28
  -15.1599998       5.58171091E-28
  -15.1499996       1.22227122E-28
  -15.1400003      -7.39589599E-28
  -15.1300001      -1.84203470E-27
  -15.1199999      -2.71304827E-27
  -15.1099997      -2.66607041E-27
  -15.1000004      -1.05466225E-27
  -15.0900002       2.31661119E-27
  -15.0799999       6.76412327E-27
  -15.0699997       1.05232512E-26
  -15.0600004       1.10416491E-26
  -15.0500002       5.91785309E-27
  -15.0400000      -5.64866085E-27
  -15.0299997      -2.14119961E-26
  -15.0200005      -3.54688750E-26
  -15.0100002      -3.93310393E-26
  -15.0000000      -2.50684480E-26
  -14.9899998       1.00439635E-26
  -14.9799995       5.91210080E-26
  -14.9700003       1.04096803E-25
  -14.9600000       1.19430953E-25
  -14.9499998       8.19126170E-26
  -14.9399996      -1.55795946E-26
  -14.9300003      -1.51864895E-25
  -14.9200001      -2.74359216E-25
  -14.9099998      -3.11575381E-25
  -14.8999996      -2.02446829E-25
  -14.8900003       6.49656538E-26
  -14.8800001       4.21880051E-25
  -14.8699999       7.15355290E-25
  -14.8599997       7.49379945E-25
  -14.8500004       3.70886184E-25
  -14.8400002      -4.23251289E-25
  -14.8299999      -1.40554552E-24
  -14.8199997      -2.12057131E-24
  -14.8100004      -2.01202110E-24
  -14.8000002      -6.69474104E-25
  -14.7900000       1.87463841E-24
  -14.7799997       4.92756245E-24
  -14.7700005       7.14935251E-24
  -14.7600002       6.90195232E-24
  -14.7500000       2.92046148E-24
  -14.7399998      -4.87404218E-24
  -14.7299995      -1.47503184E-23
  -14.7200003      -2.31162246E-23
  -14.7100000      -2.53173406E-23
  -14.6999998      -1.72767370E-23
  -14.6899996       2.42832863E-24
  -14.6800003       3.08128817E-23
  -14.6700001       5.99596892E-23
  -14.6599998       7.84043931E-23
  -14.6499996       7.45079377E-23
  -14.6400003       4.10411291E-23
  -14.6300001      -2.05681597E-23
  -14.6199999      -9.81832565E-23
  -14.6099997      -1.70537049E-22
  -14.6000004      -2.12672785E-22
  -14.5900002      -2.03818787E-22
  -14.5799999      -1.34888803E-22
  -14.5699997      -1.23527256E-23
  -14.5600004       1.43632840E-22
  -14.5500002       3.06410968E-22
  -14.5400000       4.51776930E-22
  -14.5299997       5.62992332E-22
  -14.5200005       6.26760718E-22
  -14.5100002       6.19083700E-22
  -14.5000000       4.87184996E-22
  -14.4899998       1.41177463E-22
  -14.4799995      -5.27182036E-22
  -14.4700003      -1.58594464E-21
  -14.4600000      -2.96746642E-21
  -14.4499998      -4.36365036E-21
  -14.4399996      -5.16587823E-21
  -14.4300003      -4.51853185E-21
  -14.4200001      -1.54408448E-21
  -14.4099998       4.24996028E-21
  -14.3999996       1.24549360E-20
  -14.3900003       2.13091597E-20
  -14.3800001       2.75625692E-20
  -14.3699999       2.69220535E-20
  -14.3599997       1.52373374E-20
  -14.3500004      -9.64628950E-21
  -14.3400002      -4.57786340E-20
  -14.3299999      -8.54944090E-20
  -14.3199997      -1.15263560E-19
  -14.3100004      -1.17874258E-19
  -14.3000002      -7.73084745E-20
  -14.2900000       1.42489631E-20
  -14.2799997       1.49004399E-19
  -14.2700005       2.98519376E-19
  -14.2600002       4.14253912E-19
  -14.2500000       4.36214316E-19
  -14.2399998       3.10255001E-19
  -14.2299995       1.13890944E-20
  -14.2200003      -4.33072323E-19
  -14.2100000      -9.29542249E-19
  -14.1999998      -1.32279890E-18
  -14.1899996      -1.42571816E-18
  -14.1800003      -1.07384908E-18
  -14.1700001      -1.95042287E-19
  -14.1599998       1.12543775E-18
  -14.1499996       2.61019593E-18
  -14.1400003       3.81042114E-18
  -14.1300001       4.19658545E-18
  -14.1199999       3.31354822E-18
  -14.1099997       9.69030300E-19
  -14.1000004      -2.59946160E-18
  -14.0900002      -6.64649548E-18
  -14.0799999      -9.98933004E-18
  -14.0699997      -1.12554971E-17
  -14.0600004      -9.28307909E-18
  -14.0500002      -3.58727428E-18
  -14.0400000       5.24500958E-18
  -14.0299997       1.53916193E-17
  -14.0200005       2.39935549E-17
  -14.0100002       2.77641220E-17
  -14.0000000       2.39327753E-17
  -13.9899998       1.13120133E-17
  -13.9799995      -8.82967824E-18
  -13.9700003      -3.24341290E-17
  -13.9600000      -5.31254234E-17
  -13.9499998      -6.35652964E-17
  -13.9399996      -5.75019500E-17
  -13.9300003      -3.20464129E-17
  -13.9200001       1.04873325E-17
  -13.9099998       6.18780266E-17
  -13.8999996       1.08946026E-16
  -13.8900003       1.36285735E-16
  -13.8800001       1.30382485E-16
  -13.8699999       8.41932155E-17
  -13.8599997       9.01282657E-19
  -13.8500004      -1.04488846E-16
  -13.8400002      -2.06706215E-16
  -13.8299999      -2.75181390E-16
  -13.8199997      -2.81726361E-16
  -13.8100004      -2.09277952E-16
  -13.8000002      -5.93786904E-17
  -13.7900000       1.44039461E-16
  -13.7799997       3.56441232E-16
  -13.7700005       5.20689893E-16
  -13.7600002       5.80266167E-16
  -13.7500000       4.95041524E-16
  -13.7399998       2.55711253E-16
  -13.7299995      -1.07350560E-16
  -13.7200003      -5.24285336E-16
  -13.7100000      -8.96591574E-16
  -13.6999998      -1.11758903E-15
  -13.6899996      -1.09871418E-15
  -13.6800003      -7.95688510E-16
  -13.6700001      -2.27681450E-16
  -13.6599998       5.16544567E-16
  -13.6499996       1.28899272E-15
  -13.6400003       1.90895964E-15
  -13.6300001       2.20123471E-15
  -13.6199999       2.03799198E-15
  -13.6099997       1.37469964E-15
  -13.6000004       2.71074154E-16
  -13.5900002      -1.10895364E-15
  -13.5799999      -2.51951814E-15
  -13.5699997      -3.67350397E-15
  -13.5600004      -4.29367735E-15
  -13.5500002      -4.16435617E-15
  -13.5400000      -3.17454206E-15
  -13.5299997      -1.34635993E-15
  -13.5200005       1.15333478E-15
  -13.5100002       4.01717488E-15
  -13.5000000       6.81533975E-15
  -13.4899998       9.02727227E-15
  -13.4799995       1.00903232E-14
  -13.4700003       9.47168928E-15
  -13.4600000       6.76896258E-15
  -13.4499998       1.83801110E-15
  -13.4399996      -5.06702394E-15
  -13.4300003      -1.31743261E-14
  -13.4200001      -2.11446325E-14
  -13.4099998      -2.71459270E-14
  -13.3999996      -2.90970624E-14
  -13.3900003      -2.50899121E-14
  -13.3800001      -1.39487734E-14
  -13.3699999       4.17867103E-15
  -13.3599997       2.73577530E-14
  -13.3500004       5.17146920E-14
  -13.3400002       7.17557727E-14
  -13.3299999       8.12359620E-14
  -13.3199997       7.45213488E-14
  -13.3100004       4.82302051E-14
  -13.3000002       2.78938008E-15
  -13.2900000      -5.65397677E-14
  -13.2799997      -1.19594737E-13
  -13.2700005      -1.72486483E-13
  -13.2600002      -2.00035816E-13
  -13.2500000      -1.89162921E-13
  -13.2399998      -1.32587761E-13
  -13.2299995      -3.19807183E-14
  -13.2200003       1.00356301E-13
  -13.2100000       2.42008860E-13
  -13.1999998       3.63494337E-13
  -13.1899996       4.33590609E-13
  -13.1800003       4.26100209E-13
  -13.1700001       3.26704619E-13
  -13.1599998       1.38325576E-13
  -13.1499996      -1.16489609E-13
  -13.1400003      -3.97148324E-13
  -13.1300001      -6.50777392E-13
  -13.1199999      -8.21461497E-13
  -13.1099997      -8.61378839E-13
  -13.1000004      -7.41667361E-13
  -13.0900002      -4.60693766E-13
  -13.0799999      -4.77460512E-14
  -13.0699997       4.39036367E-13
  -13.0600004       9.20555624E-13
  -13.0500002       1.30936657E-12
  -13.0400000       1.52488146E-12
  -13.0299997       1.50843986E-12
  -13.0200005       1.23543634E-12
  -13.0100002       7.22167389E-13
  -13.0000000       2.59826950E-14
  -12.9899998      -7.61483866E-13
  -12.9799995      -1.52700205E-12
  -12.9700003      -2.15232953E-12
  -12.9600000      -2.53201128E-12
  -12.9499998      -2.58954056E-12
  -12.9399996      -2.28934493E-12
  -12.9300003      -1.64277804E-12
  -12.9200001      -7.07321246E-13
  -12.9099998       4.20673614E-13
  -12.8999996       1.61833990E-12
  -12.8900003       2.75156981E-12
  -12.8800001       3.69063807E-12
  -12.8699999       4.32366339E-12
  -12.8599997       4.56601250E-12
  -12.8500004       4.36472386E-12
  -12.8400002       3.69830338E-12
  -12.8299999       2.57344992E-12
  -12.8199997       1.02116688E-12
  -12.8100004      -9.05028927E-13
  -12.8000002      -3.12663719E-12
  -12.7900000      -5.53267805E-12
  -12.7799997      -7.96838030E-12
  -12.7700005      -1.02234245E-11
  -12.7600002      -1.20248637E-11
  -12.7500000      -1.30406649E-11
  -12.7399998      -1.28991219E-11
  -12.7299995      -1.12272422E-11
  -12.7200003      -7.70777626E-12
  -12.7100000      -2.15029904E-12
  -12.6999998       5.43223192E-12
  -12.6899996       1.47531449E-11
  -12.6800003       2.52010322E-11
  -12.6700001       3.58203953E-11
  -12.6599998       4.53341080E-11
  -12.6499996       5.22134593E-11
  -12.6400003       5.47971772E-11
  -12.6300001       5.14559055E-11
  -12.6199999       4.07939064E-11
  -12.6099997       2.18755916E-11
  -12.6000004      -5.53950072E-12
  -12.5900002      -4.07741584E-11
  -12.5799999      -8.20483681E-11
  -12.5699997      -1.26360852E-10
  -12.5600004      -1.69469105E-10
  -12.5500002      -2.05999107E-10
  -12.5400000      -2.29711625E-10
  -12.5299997      -2.33941144E-10
  -12.5200005      -2.12206044E-10
  -12.5100002      -1.58970018E-10
  -12.5000000      -7.05085712E-11
  -12.4899998       5.41854964E-11
  -12.4799995       2.12539999E-10
  -12.4700003       3.97674615E-10
  -12.4600000       5.97895233E-10
  -12.4499998       7.96486099E-10
  -12.4399996       9.71852154E-10
  -12.4300003       1.09804832E-09
  -12.4200001       1.14569243E-09
  -12.4099998       1.08324638E-09
  -12.3999996       8.78615403E-10
  -12.3900003       5.01021724E-10
  -12.3800001      -7.69442079E-11
  -12.3699999      -8.77173723E-10
  -12.3599997      -1.91391081E-09
  -12.3500004      -3.19176285E-09
  -12.3400002      -4.70400208E-09
  -12.3299999      -6.43128217E-09
  -12.3199997      -8.34094394E-09
  -12.3100004      -1.03869837E-08
  -12.3000002      -1.25107773E-08
  -12.2900000      -1.46426018E-08
  -12.2799997      -1.67038596E-08
  -12.2700005      -1.86099136E-08
  -12.2600002      -2.02734398E-08
  -12.2500000      -2.16080274E-08
  -12.2399998      -2.25318786E-08
  -12.2299995      -2.29713457E-08
  -12.2200003      -2.28641852E-08
  -12.2100000      -2.21623075E-08
  -12.1999998      -2.08339124E-08
  -12.1899996      -1.88648883E-08
  -12.1800003      -1.62593743E-08
  -12.1700001      -1.30394131E-08
  -12.1599998      -9.24377108E-09
  -12.1499996      -4.92577401E-09
  -12.1400003      -1.50530519E-10
  -12.1300001       5.00846031E-09
  -12.1199999       1.04729239E-08
  -12.1099997       1.61633924E-08
  -12.1000004       2.20022951E-08
  -12.0900002       2.79164336E-08
  -12.0799999       3.38383863E-08
  -12.0699997       3.97069151E-08
  -12.0600004       4.54663365E-08
  -12.0500002       5.10650828E-08
  -12.0400000       5.64537288E-08
  -12.0299997       6.15828029E-08
  -12.0200005       6.64008510E-08
  -12.0100002       7.08529839E-08
  -12.0000000       7.48800133E-08
  -11.9899998       7.84185445E-08
  -11.9799995       8.14016090E-08
  -11.9700003       8.37599217E-08
  -11.9600000       8.54236291E-08
  -11.9499998       8.63242064E-08
  -11.9399996       8.63963336E-08
  -11.9300003       8.55797495E-08
  -11.9200001       8.38210212E-08
  -11.9099998       8.10750507E-08
  -11.8999996       7.73064883E-08
  -11.8900003       7.24908489E-08
  -11.8800001       6.66157050E-08
  -11.8699999       5.96814758E-08
  -11.8599997       5.17021377E-08
  -11.8500004       4.27055298E-08
  -11.8400002       3.27333858E-08
  -11.8299999       2.18410943E-08
  -11.8199997       1.00969242E-08
  -11.8100004      -2.41903853E-09
  -11.8000002      -1.56163793E-08
  -11.7900000      -2.93960838E-08
  -11.7799997      -4.36524488E-08
  -11.7700005      -5.82750310E-08
  -11.7600002      -7.31506660E-08
  -11.7500000      -8.81651800E-08
  -11.7399998      -1.03204655E-07
  -11.7299995      -1.18156414E-07
  -11.7200003      -1.32909534E-07
  -11.7100000      -1.47354427E-07
  -11.6999998      -1.61382388E-07
  -11.6899996      -1.74884804E-07
  -11.6800003      -1.87751908E-07
  -11.6700001      -1.99871934E-07
  -11.6599998      -2.11130612E-07
  -11.6499996      -2.21410943E-07
  -11.6400003      -2.30593756E-07
  -11.6300001      -2.38558670E-07
  -11.6199999      -2.45185959E-07
  -11.6099997      -2.50358454E-07
  -11.6000004      -2.53964117E-07
  -11.5900002      -2.55898385E-07
  -11.5799999      -2.56066983E-07
  -11.5699997      -2.54388084E-07
  -11.5600004      -2.50794130E-07
  -11.5500002      -2.45233252E-07
  -11.5400000      -2.37669724E-07
  -11.5299997      -2.28083337E-07
  -11.5200005      -2.16468280E-07
  -11.5100002      -2.02830535E-07
  -11.5000000      -1.87184867E-07
  -11.4899998      -1.69550773E-07
  -11.4799995      -1.49949670E-07
  -11.4700003      -1.28401922E-07
  -11.4600000      -1.04924624E-07
  -11.4499998      -7.95316524E-08
  -11.4399996      -5.22352046E-08
  -11.4300003      -2.30486261E-08
  -11.4200001       8.00940647E-09
  -11.4099998       4.09100913E-08
  -11.3999996       7.56100178E-08
  -11.3900003       1.12047154E-07
  -11.3800001       1.50138646E-07
  -11.3699999       1.89780764E-07
  -11.3599997       2.30850418E-07
  -11.3500004       2.73208087E-07
  -11.3400002       3.16704103E-07
  -11.3299999       3.61184391E-07
  -11.3199997       4.06496895E-07
  -11.3100004       4.52498540E-07
  -11.3000002       4.99060320E-07
  -11.2900000       5.46071931E-07
  -11.2799997       5.93443531E-07
  -11.2700005       6.41105714E-07
  -11.2600002       6.89008004E-07
  -11.2500000       7.37113510E-07
  -11.2399998       7.85394604E-07
  -11.2299995       8.33825823E-07
  -11.2200003       8.82377321E-07
  -11.2100000       9.31010447E-07
  -11.1999998       9.79674383E-07
  -11.1899996       1.02830359E-06
  -11.1800003       1.07682115E-06
  -11.1700001       1.12513919E-06
  -11.1599998       1.17316642E-06
  -11.1499996       1.22081099E-06
  -11.1400003       1.26798727E-06
  -11.1300001       1.31461843E-06
  -11.1199999       1.36063977E-06
  -11.1099997       1.40599911E-06
  -11.1000004       1.45065678E-06
  -11.0900002       1.49458469E-06
  -11.0799999       1.53776227E-06
  -11.0699997       1.58017610E-06
  -11.0600004       1.62181641E-06
  -11.0500002       1.66267751E-06
  -11.0400000       1.70275575E-06
  -11.0299997       1.74204786E-06
  -11.0200005       1.78055109E-06
  -11.0100002       1.81826317E-06
  -11.0000000       1.85518070E-06
  -10.9899998       1.89129685E-06
  -10.9799995       1.92660445E-06
  -10.9700003       1.96109272E-06
  -10.9600000       1.99474857E-06
  -10.9499998       2.02755518E-06
  -10.9399996       2.05949254E-06
  -10.9300003       2.09053678E-06
  -10.9200001       2.12066379E-06
  -10.9099998       2.14984743E-06
  -10.8999996       2.17805928E-06
  -10.8900003       2.20527272E-06
  -10.8800001       2.23146048E-06
  -10.8699999       2.25659846E-06
  -10.8599997       2.28066369E-06
  -10.8500004       2.30364094E-06
  -10.8400002       2.32551270E-06
  -10.8299999       2.34627009E-06
  -10.8199997       2.36590540E-06
  -10.8100004       2.38441407E-06
  -10.8000002       2.40179384E-06
  -10.7900000       2.41804037E-06
  -10.7799997       2.43315708E-06
  -10.7700005       2.44714238E-06
  -10.7600002       2.45999763E-06
  -10.7500000       2.47172443E-06
  -10.7399998       2.48232755E-06
  -10.7299995       2.49181721E-06
  -10.7200003       2.50020094E-06
  -10.7100000       2.50750236E-06
  -10.6999998       2.51375377E-06
  -10.6899996       2.51900315E-06
  -10.6800003       2.52332143E-06
  -10.6700001       2.52679479E-06
  -10.6599998       2.52953737E-06
  -10.6499996       2.53168901E-06
  -10.6400003       2.53340659E-06
  -10.6300001       2.53486132E-06
  -10.6199999       2.53623625E-06
  -10.6099997       2.53771282E-06
  -10.6000004       2.53947019E-06
  -10.5900002       2.54167799E-06
  -10.5799999       2.54448560E-06
  -10.5699997       2.54802399E-06
  -10.5600004       2.55240411E-06
  -10.5500002       2.55772488E-06
  -10.5400000       2.56404951E-06
  -10.5299997       2.57144484E-06
  -10.5200005       2.57995453E-06
  -10.5100002       2.58960790E-06
  -10.5000000       2.60043862E-06
  -10.4899998       2.61246691E-06
  -10.4799995       2.62571871E-06
  -10.4700003       2.64021537E-06
  -10.4600000       2.65599851E-06
  -10.4499998       2.67310088E-06
  -10.4399996       2.69155635E-06
  -10.4300003       2.71138447E-06
  -10.4200001       2.73259388E-06
  -10.4099998       2.75517073E-06
  -10.3999996       2.77907134E-06
  -10.3900003       2.80422591E-06
  -10.3800001       2.83055078E-06
  -10.3699999       2.85794795E-06
  -10.3599997       2.88629144E-06
  -10.3500004       2.91547508E-06
  -10.3400002       2.94539086E-06
  -10.3299999       2.97594670E-06
  -10.3199997       3.00706756E-06
  -10.3100004       3.03869979E-06
  -10.3000002       3.07079222E-06
  -10.2900000       3.10331006E-06
  -10.2799997       3.13622741E-06
  -10.2700005       3.16951105E-06
  -10.2600002       3.20313279E-06
  -10.2500000       3.23705490E-06
  -10.2399998       3.27123121E-06
  -10.2299995       3.30562625E-06
  -10.2200003       3.34020524E-06
  -10.2100000       3.37493339E-06
  -10.1999998       3.40979477E-06
  -10.1899996       3.44478508E-06
  -10.1800003       3.47992273E-06
  -10.1700001       3.51524250E-06
  -10.1599998       3.55080715E-06
  -10.1499996       3.58669445E-06
  -10.1400003       3.62299420E-06
  -10.1300001       3.65982078E-06
  -10.1199999       3.69728627E-06
  -10.1099997       3.73552143E-06
  -10.1000004       3.77465562E-06
  -10.0900002       3.81480777E-06
  -10.0799999       3.85611929E-06
  -10.0699997       3.89871730E-06
  -10.0600004       3.94274139E-06
  -10.0500002       3.98832617E-06
  -10.0400000       4.03560307E-06
  -10.0299997       4.08470987E-06
  -10.0200005       4.13576163E-06
  -10.0100002       4.18888158E-06
  -10.0000000       4.24416339E-06
  -9.98999977       4.30170394E-06
  -9.97999954       4.36158052E-06
  -9.97000027       4.42386772E-06
  -9.96000004       4.48862556E-06
  -9.94999981       4.55592999E-06
  -9.93999958       4.62584012E-06
  -9.93000031       4.69843235E-06
  -9.92000008       4.77375261E-06
  -9.90999985       4.85186774E-06
  -9.89999962       4.93281505E-06
  -9.89000034       5.01663089E-06
  -9.88000011       5.10335667E-06
  -9.86999989       5.19298510E-06
  -9.85999966       5.28551936E-06
  -9.85000038       5.38095355E-06
  -9.84000015       5.47928767E-06
  -9.82999992       5.58050715E-06
  -9.81999969       5.68460018E-06
  -9.81000042       5.79156131E-06
  -9.80000019       5.90140417E-06
  -9.78999996       6.01417878E-06
  -9.77999973       6.12993517E-06
  -9.77000046       6.24877612E-06
  -9.76000023       6.37083485E-06
  -9.75000000       6.49626418E-06
  -9.73999977       6.62527191E-06
  -9.72999954       6.75809770E-06
  -9.72000027       6.89499984E-06
  -9.71000004       7.03623209E-06
  -9.69999981       7.18206638E-06
  -9.68999958       7.33276283E-06
  -9.68000031       7.48853199E-06
  -9.67000008       7.64952711E-06
  -9.65999985       7.81586641E-06
  -9.64999962       7.98757537E-06
  -9.64000034       8.16459942E-06
  -9.63000011       8.34677485E-06
  -9.61999989       8.53386155E-06
  -9.60999966       8.72549299E-06
  -9.60000038       8.92122171E-06
  -9.59000015       9.12049381E-06
  -9.57999992       9.32261992E-06
  -9.56999969       9.52684422E-06
  -9.56000042       9.73229999E-06
  -9.55000019       9.93803496E-06
  -9.53999996       1.01430660E-05
  -9.52999973       1.03463217E-05
  -9.52000046       1.05466834E-05
  -9.51000023       1.07430969E-05
  -9.50000000       1.09344692E-05
  -9.48999977       1.11197569E-05
  -9.47999954       1.12980224E-05
  -9.47000027       1.14683962E-05
  -9.46000004       1.16301371E-05
  -9.44999981       1.17826057E-05
  -9.43999958       1.19253900E-05
  -9.43000031       1.20581853E-05
  -9.42000008       1.21808653E-05
  -9.40999985       1.22935235E-05
  -9.39999962       1.23964492E-05
  -9.39000034       1.24901399E-05
  -9.38000011       1.25753249E-05
  -9.36999989       1.26529521E-05
  -9.35999966       1.27241456E-05
  -9.35000038       1.27902795E-05
  -9.34000015       1.28528891E-05
  -9.32999992       1.29136379E-05
  -9.31999969       1.29743066E-05
  -9.31000042       1.30367725E-05
  -9.30000019       1.31029756E-05
  -9.28999996       1.31748075E-05
  -9.27999973       1.32542145E-05
  -9.27000046       1.33430394E-05
  -9.26000023       1.34431093E-05
  -9.25000000       1.35561213E-05
  -9.23999977       1.36836652E-05
  -9.22999954       1.38271926E-05
  -9.22000027       1.39880513E-05
  -9.21000004       1.41674100E-05
  -9.19999981       1.43662819E-05
  -9.18999958       1.45854392E-05
  -9.18000031       1.48256013E-05
  -9.17000008       1.50872065E-05
  -9.15999985       1.53705587E-05
  -9.14999962       1.56758015E-05
  -9.14000034       1.60028667E-05
  -9.13000011       1.63515706E-05
  -9.11999989       1.67214839E-05
  -9.10999966       1.71120882E-05
  -9.10000038       1.75226760E-05
  -9.09000015       1.79523740E-05
  -9.07999992       1.84000928E-05
  -9.06999969       1.88646682E-05
  -9.06000042       1.93447013E-05
  -9.05000019       1.98386224E-05
  -9.03999996       2.03447507E-05
  -9.02999973       2.08612055E-05
  -9.02000046       2.13860203E-05
  -9.01000023       2.19170488E-05
  -9.00000000       2.24519972E-05
  -8.98999977       2.29885445E-05
  -8.97999954       2.35242132E-05
  -8.97000027       2.40565514E-05
  -8.96000004       2.45830088E-05
  -8.94999981       2.51010624E-05
  -8.93999958       2.56081530E-05
  -8.93000031       2.61018449E-05
  -8.92000008       2.65797808E-05
  -8.90999985       2.70396922E-05
  -8.89999962       2.74794002E-05
  -8.89000034       2.78969783E-05
  -8.88000011       2.82906676E-05
  -8.86999989       2.86587783E-05
  -8.85999966       2.89999498E-05
  -8.85000038       2.93129615E-05
  -8.84000015       2.95969203E-05
  -8.82999992       2.98510422E-05
  -8.81999969       3.00748834E-05
  -8.81000042       3.02681256E-05
  -8.80000019       3.04307832E-05
  -8.78999996       3.05629474E-05
  -8.77999973       3.06650036E-05
  -8.77000046       3.07374248E-05
  -8.76000023       3.07808477E-05
  -8.75000000       3.07961745E-05
  -8.73999977       3.07842674E-05
  -8.72999954       3.07461924E-05
  -8.72000027       3.06830480E-05
  -8.71000004       3.05960384E-05
  -8.69999981       3.04864861E-05
  -8.68999958       3.03557317E-05
  -8.68000031       3.02051103E-05
  -8.67000008       3.00360498E-05
  -8.65999985       2.98499381E-05
  -8.64999962       2.96482103E-05
  -8.64000034       2.94323345E-05
  -8.63000011       2.92037166E-05
  -8.61999989       2.89638956E-05
  -8.60999966       2.87142557E-05
  -8.60000038       2.84562393E-05
  -8.59000015       2.81912362E-05
  -8.57999992       2.79206015E-05
  -8.56999969       2.76456904E-05
  -8.56000042       2.73677542E-05
  -8.55000019       2.70881064E-05
  -8.53999996       2.68079202E-05
  -8.52999973       2.65283652E-05
  -8.52000046       2.62505127E-05
  -8.51000023       2.59755525E-05
  -8.50000000       2.57043994E-05
  -8.48999977       2.54379884E-05
  -8.47999954       2.51771889E-05
  -8.47000027       2.49228196E-05
  -8.46000004       2.46755444E-05
  -8.44999981       2.44360490E-05
  -8.43999958       2.42048809E-05
  -8.43000031       2.39826077E-05
  -8.42000008       2.37696404E-05
  -8.40999985       2.35663156E-05
  -8.39999962       2.33731062E-05
  -8.39000034       2.31902013E-05
  -8.38000011       2.30179121E-05
  -8.36999989       2.28564386E-05
  -8.35999966       2.27061682E-05
  -8.35000038       2.25671320E-05
  -8.34000015       2.24395571E-05
  -8.32999992       2.23237912E-05
  -8.31999969       2.22200906E-05
  -8.31000042       2.21289283E-05
  -8.30000019       2.20505644E-05
  -8.28999996       2.19855665E-05
  -8.27999973       2.19344456E-05
  -8.27000046       2.18978457E-05
  -8.26000023       2.18765108E-05
  -8.25000000       2.18711466E-05
  -8.23999977       2.18825189E-05
  -8.22999954       2.19115555E-05
  -8.22000027       2.19593858E-05
  -8.21000004       2.20269012E-05
  -8.19999981       2.21152459E-05
  -8.18999958       2.22255476E-05
  -8.18000031       2.23590523E-05
  -8.17000008       2.25167678E-05
  -8.15999985       2.26999036E-05
  -8.14999962       2.29097222E-05
  -8.14000034       2.31471749E-05
  -8.13000011       2.34135186E-05
  -8.11999989       2.37096156E-05
  -8.10999966       2.40366371E-05
  -8.10000038       2.43953764E-05
  -8.09000015       2.47865974E-05
  -8.07999992       2.52109094E-05
  -8.06999969       2.56688872E-05
  -8.06000042       2.61608420E-05
  -8.05000019       2.66870939E-05
  -8.03999996       2.72476282E-05
  -8.02999973       2.78422085E-05
  -8.02000046       2.84707203E-05
  -8.01000023       2.91326232E-05
  -8.00000000       2.98273626E-05
  -7.98999977       3.05540780E-05
  -7.98000002       3.13118544E-05
  -7.96999979       3.20996223E-05
  -7.96000004       3.29161194E-05
  -7.94999981       3.37599959E-05
  -7.94000006       3.46297602E-05
  -7.92999983       3.55238262E-05
  -7.92000008       3.64406114E-05
  -7.90999985       3.73784351E-05
  -7.90000010       3.83355655E-05
  -7.88999987       3.93100818E-05
  -7.88000011       4.03005215E-05
  -7.86999989       4.13048037E-05
  -7.86000013       4.23210658E-05
  -7.84999990       4.33475434E-05
  -7.84000015       4.43824356E-05
  -7.82999992       4.54240471E-05
  -7.82000017       4.64704899E-05
  -7.80999994       4.75200577E-05
  -7.80000019       4.85711462E-05
  -7.78999996       4.96222492E-05
  -7.78000021       5.06716096E-05
  -7.76999998       5.17178269E-05
  -7.76000023       5.27594602E-05
  -7.75000000       5.37951819E-05
  -7.73999977       5.48237258E-05
  -7.73000002       5.58439315E-05
  -7.71999979       5.68546238E-05
  -7.71000004       5.78550316E-05
  -7.69999981       5.88443218E-05
  -7.69000006       5.98215920E-05
  -7.67999983       6.07864458E-05
  -7.67000008       6.17386977E-05
  -7.65999985       6.26777473E-05
  -7.65000010       6.36035911E-05
  -7.63999987       6.45160981E-05
  -7.63000011       6.54154501E-05
  -7.61999989       6.63019819E-05
  -7.61000013       6.71761736E-05
  -7.59999990       6.80385565E-05
  -7.59000015       6.88898726E-05
  -7.57999992       6.97308278E-05
  -7.57000017       7.05623024E-05
  -7.55999994       7.13852132E-05
  -7.55000019       7.22006735E-05
  -7.53999996       7.30098764E-05
  -7.53000021       7.38138042E-05
  -7.51999998       7.46136866E-05
  -7.51000023       7.54110006E-05
  -7.50000000       7.62070486E-05
  -7.48999977       7.70030310E-05
  -7.48000002       7.78002650E-05
  -7.46999979       7.85999946E-05
  -7.46000004       7.94035077E-05
  -7.44999981       8.02121140E-05
  -7.44000006       8.10269194E-05