  -16.0000000       0.00000000    
  -15.9899998       0.00000000    
  -15.9799995       0.00000000    
  -15.9700003       0.00000000    
  -15.9600000       0.00000000    
  -15.9499998       0.00000000    
  -15.9399996       0.00000000    
  -15.9300003       0.00000000    
  -15.9200001       0.00000000    
  -15.9099998       0.00000000    
  -15.8999996       0.00000000    
  -15.8900003       0.00000000    
  -15.8800001       0.00000000    
  -15.8699999       0.00000000    
  -15.8599997       0.00000000    
  -15.8500004       0.00000000    
  -15.8400002       0.00000000    
  -15.8299999       0.00000000    
  -15.8199997       0.00000000    
  -15.8100004       1.40129846E-45
  -15.8000002       5.60519386E-45
  -15.7900000       2.52233724E-44
  -15.7799997       1.09301280E-43
  -15.7700005       4.21790838E-43
  -15.7600002       1.42652184E-42
  -15.7500000       4.31740057E-42
  -15.7399998       1.17330720E-41
  -15.7299995       2.86915861E-41
  -15.7200003       6.31018711E-41
  -15.7100000       1.24153643E-40
  -15.6999998       2.15441231E-40
  -15.6899996       3.18810815E-40
  -15.6800003       3.66331648E-40
  -15.6700001       2.05037991E-40
  -15.6599998      -4.25026436E-40
  -15.6499996      -1.85366283E-39
  -15.6400003      -4.31183601E-39
  -15.6300001      -7.55507405E-39
  -15.6199999      -1.02676109E-38
  -15.6099997      -9.43159065E-39
  -15.6000004      -2.09146598E-40
  -15.5900002       2.26635518E-38
  -15.5799999       6.07662990E-38
  -15.5699997       1.04675168E-37
  -15.5600004       1.25414374E-37
  -15.5500002       7.12168466E-38
  -15.5400000      -1.18684924E-37
  -15.5299997      -4.70310203E-37
  -15.5200005      -8.98694184E-37
  -15.5100002      -1.12564086E-36
  -15.5000000      -6.63335412E-37
  -15.4899998       1.02529121E-36
  -15.4799995       4.09456236E-36
  -15.4700003       7.64917506E-36
  -15.4600000       9.15345268E-36
  -15.4499998       4.56703662E-36
  -15.4399996      -9.97873955E-36
  -15.4300003      -3.45345575E-35
  -15.4200001      -6.05370120E-35
  -15.4099998      -6.76916572E-35
  -15.3999996      -2.72180723E-35
  -15.3900003       8.39648325E-35
  -15.3800001       2.57673367E-34
  -15.3699999       4.26067203E-34
  -15.3599997       4.50418395E-34
  -15.3500004       1.54009332E-34
  -15.3400002      -5.81378522E-34
  -15.3299999      -1.66596386E-33
  -15.3199997      -2.66043079E-33
  -15.3100004      -2.75428024E-33
  -15.3000002      -9.90083076E-34
  -15.2900000       3.20459560E-33
  -15.2799997       9.27672444E-33
  -15.2700005       1.49196946E-32
  -15.2600002       1.60575732E-32
  -15.2500000       7.93100969E-33
  -15.2399998      -1.25456780E-32
  -15.2299995      -4.36136675E-32
  -15.2200003      -7.58902856E-32
  -15.2100000      -9.17141264E-32
  -15.1999998      -6.83013352E-32
  -15.1899996       1.43879230E-32
  -15.1800003       1.61576224E-31
  -15.1700001       3.49590962E-31
  -15.1599998       5.13811167E-31
  -15.1499996       5.44839704E-31
  -15.1400003       3.01952314E-31
  -15.1300001      -3.44277187E-31
  -15.1199999      -1.42901312E-30
  -15.1099997      -2.77001971E-30
  -15.1000004      -3.83478795E-30
  -15.0900002      -3.67922961E-30
  -15.0799999      -1.09462814E-30
  -15.0699997       4.88401653E-30
  -15.0600004       1.40433214E-29
  -15.0500002       2.38153169E-29
  -15.0400000       2.84459672E-29
  -15.0299997       1.95025414E-29
  -15.0200005      -1.11826173E-29
  -15.0100002      -6.56407360E-29
  -15.0000000      -1.32079782E-28
  -14.9899998      -1.78925139E-28
  -14.9799995      -1.56444445E-28
  -14.9700003      -1.22472563E-29
  -14.9600000       2.76588192E-28
  -14.9499998       6.60740582E-28
  -14.9399996       9.83863334E-28
  -14.9300003       9.85951813E-28
  -14.9200001       3.76697236E-28
  -14.9099998      -1.00715081E-27
  -14.8999996      -2.98845664E-27
  -14.8900003      -4.86786882E-27
  -14.8800001      -5.41393429E-27
  -14.8699999      -3.17327523E-27
  -14.8599997       2.82956568E-27
  -14.8500004       1.21164960E-26
  -14.8400002       2.18755181E-26
  -14.8299999       2.67771654E-26
  -14.8199997       2.01336763E-26
  -14.8100004      -3.25951317E-27
  -14.8000002      -4.29926173E-26
  -14.7900000      -8.90518267E-26
  -14.7799997      -1.20359282E-25
  -14.7700005      -1.08500644E-25
  -14.7600002      -2.82437010E-26
  -14.7500000       1.26234471E-25
  -14.7399998       3.24418653E-25
  -14.7299995       4.90636034E-25
  -14.7200003       5.13658841E-25
  -14.7100000       2.81915419E-25
  -14.6999998      -2.57549675E-25
  -14.6899996      -1.03211711E-24
  -14.6800003      -1.79874545E-24
  -14.6700001      -2.15882989E-24
  -14.6599998      -1.66286061E-24
  -14.6499996      -7.19969159E-27
  -14.6400003       2.72054894E-24
  -14.6300001       5.84218159E-24
  -14.6199999       8.06362573E-24
  -14.6099997       7.74032056E-24
  -14.6000004       3.47337389E-24
  -14.5900002      -5.06335302E-24
  -14.5799999      -1.63355218E-23
  -14.5699997      -2.66037724E-23
  -14.5600004      -3.04378793E-23
  -14.5500002      -2.23230013E-23
  -14.5400000       8.00560304E-25
  -14.5299997       3.67494292E-23
  -14.5200005       7.62284244E-23
  -14.5100002       1.03236314E-22
  -14.5000000       9.87576482E-23
  -14.4899998       4.77653953E-23
  -14.4799995      -5.19358978E-23
  -14.4700003      -1.82070359E-22
  -14.4600000      -3.01474996E-22
  -14.4499998      -3.52578214E-22
  -14.4399996      -2.78293214E-22
  -14.4300003      -4.70000835E-23
  -14.4200001       3.21347551E-22
  -14.4099998       7.38717927E-22
  -14.3999996       1.05367411E-21
  -14.3900003       1.08507588E-21
  -14.3800001       6.83903883E-22
  -14.3699999      -1.89952872E-22
  -14.3599997      -1.40119599E-21
  -14.3500004      -2.61495702E-21
  -14.3400002      -3.34343051E-21
  -14.3299999      -3.07495204E-21
  -14.3199997      -1.46858213E-21
  -14.3100004       1.43627796E-21
  -14.3000002       5.07256394E-21
  -14.2900000       8.34456975E-21
  -14.2799997       9.83338499E-21
  -14.2700005       8.21173617E-21
  -14.2600002       2.79082620E-21
  -14.2500000      -5.95930721E-21
  -14.2399998      -1.61249797E-20
  -14.2299995      -2.44979377E-20
  -14.2200003      -2.72667164E-20
  -14.2100000      -2.11947261E-20
  -14.1999998      -5.02805007E-21
  -14.1899996       1.93019252E-20
  -14.1800003       4.61945282E-20
  -14.1700001       6.70460453E-20
  -14.1599998       7.22300767E-20
  -14.1499996       5.41397240E-20
  -14.1400003       1.05749766E-20
  -14.1300001      -5.26016624E-20
  -14.1199999      -1.20714616E-19
  -14.1099997      -1.72317735E-19
  -14.1000004      -1.84233505E-19
  -14.0900002      -1.38826368E-19
  -14.0799999      -3.17464067E-20
  -14.0699997       1.22319359E-19
  -14.0600004       2.88428057E-19
  -14.0500002       4.16477141E-19
  -14.0400000       4.52829376E-19
  -14.0299997       3.56595106E-19
  -14.0200005       1.16638489E-19
  -14.0100002      -2.35968754E-19
  -14.0000000      -6.25330138E-19
  -13.9899998      -9.41529543E-19
  -13.9799995      -1.06515727E-18
  -13.9700003      -9.01604741E-19
  -13.9600000      -4.17078734E-19
  -13.9499998       3.34344181E-19
  -13.9399996       1.20325642E-18
  -13.9300003       1.96436929E-18
  -13.9200001       2.36378916E-18
  -13.9099998       2.18684882E-18
  -13.8999996       1.33128454E-18
  -13.8900003      -1.34655775E-19
  -13.8800001      -1.94985640E-18
  -13.8699999      -3.68863410E-18
  -13.8599997      -4.84307383E-18
  -13.8500004      -4.94779655E-18
  -13.8400002      -3.72075228E-18
  -13.8299999      -1.18337379E-18
  -13.8199997       2.27829632E-18
  -13.8100004       5.94096956E-18
  -13.8000002       8.87026551E-18
  -13.7900000       1.01302096E-17
  -13.7799997       9.03442198E-18
  -13.7700005       5.37795818E-18
  -13.7600002      -4.16763914E-19
  -13.7500000      -7.29460225E-18
  -13.7399998      -1.37283485E-17
  -13.7299995      -1.80298904E-17
  -13.7200003      -1.87533707E-17
  -13.7100000      -1.50983093E-17
  -13.6999998      -7.20762007E-18
  -13.6899996       3.73089517E-18
  -13.6800003       1.56307026E-17
  -13.6700001       2.58926193E-17
  -13.6599998       3.19596086E-17
  -13.6499996       3.19183654E-17
  -13.6400003       2.50027351E-17
  -13.6300001       1.18682245E-17
  -13.6199999      -5.44319502E-18
  -13.6099997      -2.38537498E-17
  -13.6000004      -3.98421567E-17
  -13.5900002      -5.01411145E-17
  -13.5799999      -5.23775231E-17
  -13.5699997      -4.55119504E-17
  -13.5600004      -2.99938833E-17
  -13.5500002      -7.63105052E-18
  -13.5400000       1.87500619E-17
  -13.5299997       4.57281854E-17
  -13.5200005       6.96722451E-17
  -13.5100002       8.70148807E-17
  -13.5000000       9.44253999E-17
  -13.4899998       8.89761458E-17
  -13.4799995       6.84404673E-17
  -13.4700003       3.18361238E-17
  -13.4600000      -1.97747832E-17
  -13.4499998      -8.23769783E-17
  -13.4399996      -1.48299627E-16
  -13.4300003      -2.06143361E-16
  -13.4200001      -2.41744262E-16
  -13.4099998      -2.40404309E-16
  -13.3999996      -1.90284813E-16
  -13.3900003      -8.64365822E-17
  -13.3800001       6.54639670E-17
  -13.3699999       2.46846762E-16
  -13.3599997       4.26584348E-16
  -13.3500004       5.64679755E-16
  -13.3400002       6.19331697E-16
  -13.3299999       5.56479365E-16
  -13.3199997       3.60010443E-16
  -13.3100004       4.01742433E-17
  -13.3000002      -3.62383035E-16
  -13.2900000      -7.79008896E-16
  -13.2799997      -1.12270480E-15
  -13.2700005      -1.30422766E-15
  -13.2600002      -1.25201041E-15
  -13.2500000      -9.31813957E-16
  -13.2399998      -3.61346770E-16
  -13.2299995       3.84524027E-16
  -13.2200003       1.18076636E-15
  -13.2100000       1.87167282E-15
  -13.1999998       2.30016985E-15
  -13.1899996       2.34155143E-15
  -13.1800003       1.93446443E-15
  -13.1700001       1.10174740E-15
  -13.1599998      -4.47638516E-17
  -13.1499996      -1.31822996E-15
  -13.1400003      -2.48825500E-15
  -13.1300001      -3.32429812E-15
  -13.1199999      -3.64233866E-15
  -13.1099997      -3.34474041E-15
  -13.1000004      -2.44419234E-15
  -13.0900002      -1.06579583E-15
  -13.0799999       5.73859845E-16
  -13.0699997       2.20656360E-15
  -13.0600004       3.56279295E-15
  -13.0500002       4.42149335E-15
  -13.0400000       4.64855874E-15
  -13.0299997       4.21605821E-15
  -13.0200005       3.19913417E-15
  -13.0100002       1.75297693E-15
  -13.0000000       7.71449418E-17
  -12.9899998      -1.62282873E-15
  -12.9799995      -3.16667079E-15
  -12.9700003      -4.41653651E-15
  -12.9600000      -5.27812911E-15
  -12.9499998      -5.68923994E-15
  -12.9399996      -5.60350326E-15
  -12.9300003      -4.97895792E-15
  -12.9200001      -3.77942459E-15
  -12.9099998      -1.99220540E-15
  -12.8999996       3.40854978E-16
  -12.8900003       3.08823702E-15
  -12.8800001       6.00308894E-15
  -12.8699999       8.72106901E-15
  -12.8599997       1.07916927E-14
  -12.8500004       1.17451333E-14
  -12.8400002       1.11863228E-14
  -12.8299999       8.89833183E-15
  -12.8199997       4.93059022E-15
  -12.8100004      -3.53544644E-16
  -12.8000002      -6.28949323E-15
  -12.7900000      -1.19925068E-14
  -12.7799997      -1.64995564E-14
  -12.7700005      -1.89488606E-14
  -12.7600002      -1.87617984E-14
  -12.7500000      -1.57871322E-14
  -12.7399998      -1.03715881E-14
  -12.7299995      -3.33399982E-15
  -12.7200003       4.16019046E-15
  -12.7100000       1.08052546E-14
  -12.6999998       1.54044546E-14
  -12.6899996       1.71125761E-14
  -12.6800003       1.56211917E-14
  -12.6700001       1.12464003E-14
  -12.6599998       4.89863887E-15
  -12.6499996      -2.06132731E-15
  -12.6400003      -8.05262957E-15
  -12.6300001      -1.15461755E-14
  -12.6199999      -1.13276376E-14
  -12.6099997      -6.70697798E-15
  -12.6000004       2.35405809E-15
  -12.5900002       1.52036061E-14
  -12.5799999       3.05375435E-14
  -12.5699997       4.64874246E-14
  -12.5600004       6.07307038E-14
  -12.5500002       7.06057459E-14
  -12.5400000       7.32326119E-14
  -12.5299997       6.56617366E-14
  -12.5200005       4.50873808E-14
  -12.5100002       9.16443824E-15
  -12.5000000      -4.35476714E-14
  -12.4899998      -1.13023204E-13
  -12.4799995      -1.97140535E-13
  -12.4700003      -2.91078603E-13
  -12.4600000      -3.86862498E-13
  -12.4499998      -4.73190118E-13
  -12.4399996      -5.35652252E-13
  -12.4300003      -5.57406443E-13
  -12.4200001      -5.20297455E-13
  -12.4099998      -4.06339350E-13
  -12.3999996      -1.99402384E-13
  -12.3900003       1.13093759E-13
  -12.3800001       5.38689210E-13
  -12.3699999       1.07878094E-12
  -12.3599997       1.72802983E-12
  -12.3500004       2.47431654E-12
  -12.3400002       3.29921659E-12
  -12.3299999       4.17888424E-12
  -12.3199997       5.08520786E-12
  -12.3100004       5.98708192E-12
  -12.3000002       6.85168111E-12
  -12.2900000       7.64565234E-12
  -12.2799997       8.33617116E-12
  -12.2700005       8.89191672E-12
  -12.2600002       9.28394080E-12
  -12.2500000       9.48647324E-12
  -12.2399998       9.47768166E-12
  -12.2299995       9.24027955E-12
  -12.2200003       8.76203884E-12
  -12.2100000       8.03600936E-12
  -12.1999998       7.06051363E-12
  -12.1899996       5.83882855E-12
  -12.1800003       4.37860859E-12
  -12.1700001       2.69119145E-12
  -12.1599998       7.90875720E-13
  -12.1499996      -1.30566846E-12
  -12.1400003      -3.57976778E-12
  -12.1300001      -6.01080687E-12
  -12.1199999      -8.57600276E-12
  -12.1099997      -1.12500261E-11
  -12.1000004      -1.40045232E-11
  -12.0900002      -1.68077947E-11
  -12.0799999      -1.96246856E-11
  -12.0699997      -2.24168115E-11
  -12.0600004      -2.51431410E-11
  -12.0500002      -2.77608075E-11
  -12.0400000      -3.02261341E-11
  -12.0299997      -3.24955757E-11
  -12.0200005      -3.45267148E-11
  -12.0100002      -3.62788896E-11
  -12.0000000      -3.77137731E-11
  -11.9899998      -3.87956854E-11
  -11.9799995      -3.94919548E-11
  -11.9700003      -3.97731258E-11
  -11.9600000      -3.96134167E-11
  -11.9499998      -3.89911124E-11
  -11.9399996      -3.78891606E-11
  -11.9300003      -3.62956748E-11
  -11.9200001      -3.42043512E-11
  -11.9099998      -3.16146311E-11
  -11.8999996      -2.85318071E-11
  -11.8900003      -2.49666329E-11
  -11.8800001      -2.09350280E-11
  -11.8699999      -1.64574344E-11
  -11.8599997      -1.15585666E-11
  -11.8500004      -6.26695961E-12
  -11.8400002      -6.14937680E-13
  -11.8299999       5.36139752E-12
  -11.8199997       1.16221017E-11
  -11.8100004       1.81232789E-11
  -11.8000002       2.48173392E-11
  -11.7900000       3.16534021E-11
  -11.7799997       3.85781442E-11
  -11.7700005       4.55368868E-11
  -11.7600002       5.24748855E-11
  -11.7500000       5.93384647E-11
  -11.7399998       6.60759988E-11
  -11.7299995       7.26383120E-11
  -11.7200003       7.89783516E-11
  -11.7100000       8.50503487E-11
  -11.6999998       9.08082984E-11
  -11.6899996       9.62042251E-11
  -11.6800003       1.01186351E-10
  -11.6700001       1.05697895E-10
  -11.6599998       1.09676511E-10
  -11.6499996       1.13054788E-10
  -11.6400003       1.15761796E-10
  -11.6300001       1.17725718E-10
  -11.6199999       1.18876714E-10
  -11.6099997       1.19150259E-10
  -11.6000004       1.18490107E-10
  -11.5900002       1.16850349E-10
  -11.5799999       1.14196513E-10
  -11.5699997       1.10505834E-10
  -11.5600004       1.05766465E-10
  -11.5500002       9.99761038E-11
  -11.5400000       9.31404884E-11
  -11.5299997       8.52722545E-11
  -11.5200005       7.63896515E-11
  -11.5100002       6.65161121E-11
  -11.5000000       5.56799433E-11
  -11.4899998       4.39135985E-11
  -11.4799995       3.12533402E-11
  -11.4700003       1.77385450E-11
  -11.4600000       3.41020268E-12
  -11.4499998      -1.16898114E-11
  -11.4399996      -2.75199256E-11
  -11.4300003      -4.40390328E-11
  -11.4200001      -6.12054712E-11
  -11.4099998      -7.89757704E-11
  -11.3999996      -9.73022982E-11
  -11.3900003      -1.16130799E-10
  -11.3800001      -1.35398290E-10
  -11.3699999      -1.55031959E-10
  -11.3599997      -1.74949499E-10
  -11.3500004      -1.95060856E-10
  -11.3400002      -2.15271384E-10
  -11.3299999      -2.35485825E-10
  -11.3199997      -2.55612836E-10
  -11.3100004      -2.75568679E-10
  -11.3000002      -2.95280439E-10
  -11.2900000      -3.14687637E-10
  -11.2799997      -3.33742700E-10
  -11.2700005      -3.52409907E-10
  -11.2600002      -3.70663528E-10
  -11.2500000      -3.88485411E-10
  -11.2399998      -4.05862205E-10
  -11.2299995      -4.22783003E-10
  -11.2200003      -4.39236369E-10
  -11.2100000      -4.55208815E-10
  -11.1999998      -4.70683437E-10
  -11.1899996      -4.85638918E-10
  -11.1800003      -5.00049169E-10
  -11.1700001      -5.13884713E-10
  -11.1599998      -5.27113186E-10
  -11.1499996      -5.39702116E-10
  -11.1400003      -5.51621027E-10
  -11.1300001      -5.62843272E-10
  -11.1199999      -5.73349090E-10
  -11.1099997      -5.83127213E-10
  -11.1000004      -5.92176030E-10
  -11.0900002      -6.00503980E-10
  -11.0799999      -6.08129214E-10
  -11.0699997      -6.15078488E-10
  -11.0600004      -6.21385776E-10
  -11.0500002      -6.27090213E-10
  -11.0400000      -6.32233488E-10
  -11.0299997      -6.36858011E-10
  -11.0200005      -6.41003750E-10
  -11.0100002      -6.44707121E-10
  -11.0000000      -6.47998710E-10
  -10.9899998      -6.50902388E-10
  -10.9799995      -6.53435583E-10
  -10.9700003      -6.55610233E-10
  -10.9600000      -6.57432331E-10
  -10.9499998      -6.58903709E-10
  -10.9399996      -6.60024702E-10
  -10.9300003      -6.60793420E-10
  -10.9200001      -6.61205368E-10
  -10.9099998      -6.61256994E-10
  -10.8999996      -6.60940858E-10
  -10.8900003      -6.60251742E-10
  -10.8800001      -6.59182375E-10
  -10.8699999      -6.57725541E-10
  -10.8599997      -6.55874244E-10
  -10.8500004      -6.53619825E-10
  -10.8400002      -6.50955012E-10
  -10.8299999      -6.47866871E-10
  -10.8199997      -6.44336029E-10
  -10.8100004      -6.40333286E-10
  -10.8000002      -6.35820285E-10
  -10.7900000      -6.30743291E-10
  -10.7799997      -6.25043295E-10
  -10.7700005      -6.18650298E-10
  -10.7600002      -6.11497963E-10
  -10.7500000      -6.03524730E-10
  -10.7399998      -5.94684024E-10
  -10.7299995      -5.84947535E-10
  -10.7200003      -5.74310266E-10
  -10.7100000      -5.62787983E-10
  -10.6999998      -5.50417767E-10
  -10.6899996      -5.37251799E-10
  -10.6800003      -5.23352306E-10
  -10.6700001      -5.08786846E-10
  -10.6599998      -4.93627250E-10
  -10.6499996      -4.77946072E-10
  -10.6400003      -4.61817168E-10
  -10.6300001      -4.45310760E-10
  -10.6199999      -4.28501234E-10
  -10.6099997      -4.11461726E-10
  -10.6000004      -3.94263927E-10
  -10.5900002      -3.76979031E-10
  -10.5799999      -3.59676622E-10
  -10.5699997      -3.42424228E-10
  -10.5600004      -3.25285215E-10
  -10.5500002      -3.08321896E-10
  -10.5400000      -2.91590141E-10
  -10.5299997      -2.75140299E-10
  -10.5200005      -2.59016114E-10
  -10.5100002      -2.43250919E-10
  -10.5000000      -2.27865615E-10
  -10.4899998      -2.12869694E-10
  -10.4799995      -1.98258576E-10
  -10.4700003      -1.84014859E-10
  -10.4600000      -1.70111508E-10
  -10.4499998      -1.56517271E-10
  -10.4399996      -1.43193665E-10
  -10.4300003      -1.30102387E-10
  -10.4200001      -1.17202970E-10
  -10.4099998      -1.04455042E-10
  -10.3999996      -9.18161519E-11
  -10.3900003      -7.92427859E-11
  -10.3800001      -6.66933384E-11
  -10.3699999      -5.41263492E-11
  -10.3599997      -4.15059896E-11
  -10.3500004      -2.88006095E-11
  -10.3400002      -1.59835756E-11
  -10.3299999      -3.03682882E-12
  -10.3199997       1.00603562E-11
  -10.3100004       2.33274025E-11
  -10.3000002       3.67904006E-11
  -10.2900000       5.04821324E-11
  -10.2799997       6.44404946E-11
  -10.2700005       7.87084217E-11
  -10.2600002       9.33280050E-11
  -10.2500000       1.08330823E-10
  -10.2399998       1.23739907E-10
  -10.2299995       1.39563736E-10
  -10.2200003       1.55798693E-10
  -10.2100000       1.72429612E-10
  -10.1999998       1.89437924E-10
  -10.1899996       2.06805240E-10
  -10.1800003       2.24515254E-10
  -10.1700001       2.42555281E-10
  -10.1599998       2.60910099E-10
  -10.1499996       2.79560014E-10
  -10.1400003       2.98475245E-10
  -10.1300001       3.17611548E-10
  -10.1199999       3.36905781E-10
  -10.1099997       3.56278729E-10
  -10.1000004       3.75634801E-10
  -10.0900002       3.94869554E-10
  -10.0799999       4.13870327E-10
  -10.0699997       4.32520769E-10
  -10.0600004       4.50704141E-10
  -10.0500002       4.68301509E-10
  -10.0400000       4.85191498E-10
  -10.0299997       5.01252040E-10
  -10.0200005       5.16359122E-10
  -10.0100002       5.30391620E-10
  -10.0000000       5.43227796E-10
  -9.98999977       5.54754076E-10
  -9.97999954       5.64863323E-10
  -9.97000027       5.73456560E-10
  -9.96000004       5.80445580E-10
  -9.94999981       5.85748894E-10
  -9.93999958       5.89294891E-10
  -9.93000031       5.91020732E-10
  -9.92000008       5.90872240E-10
  -9.90999985       5.88805615E-10
  -9.89999962       5.84791160E-10
  -9.89000034       5.78814330E-10
  -9.88000011       5.70877789E-10
  -9.86999989       5.61002578E-10
  -9.85999966       5.49229773E-10
  -9.85000038       5.35619271E-10
  -9.84000015       5.20251620E-10
  -9.82999992       5.03226960E-10
  -9.81999969       4.84665474E-10
  -9.81000042       4.64706135E-10
  -9.80000019       4.43504844E-10
  -9.78999996       4.21229773E-10
  -9.77999973       3.98056060E-10
  -9.77000046       3.74158010E-10
  -9.76000023       3.49702461E-10
  -9.75000000       3.24841959E-10
  -9.73999977       2.99710562E-10
  -9.72999954       2.74423456E-10
  -9.72000027       2.49078869E-10
  -9.71000004       2.23763466E-10
  -9.69999981       1.98557421E-10
  -9.68999958       1.73540057E-10
  -9.68000031       1.48792006E-10
  -9.67000008       1.24395272E-10
  -9.65999985       1.00429158E-10
  -9.64999962       7.69649830E-11
  -9.64000034       5.40590385E-11
  -9.63000011       3.17469558E-11
  -9.61999989       1.00394927E-11
  -9.60999966      -1.10782356E-11
  -9.60000038      -3.16450754E-11
  -9.59000015      -5.17208811E-11
  -9.57999992      -7.13815604E-11
  -9.56999969      -9.07150327E-11
  -9.56000042      -1.09817648E-10
  -9.55000019      -1.28790534E-10
  -9.53999996      -1.47737711E-10
  -9.52999973      -1.66762312E-10
  -9.52000046      -1.85963731E-10
  -9.51000023      -2.05432005E-10
  -9.50000000      -2.25243532E-10
  -9.48999977      -2.45455656E-10
  -9.47999954      -2.66102446E-10
  -9.47000027      -2.87192242E-10
  -9.46000004      -3.08707337E-10
  -9.44999981      -3.30604627E-10
  -9.43999958      -3.52818358E-10
  -9.43000031      -3.75262071E-10
  -9.42000008      -3.97830435E-10
  -9.40999985      -4.20399687E-10
  -9.39999962      -4.42826747E-10
  -9.39000034      -4.64948274E-10
  -9.38000011      -4.86579110E-10
  -9.36999989      -5.07511810E-10
  -9.35999966      -5.27517252E-10
  -9.35000038      -5.46346746E-10
  -9.34000015      -5.63734281E-10
  -9.32999992      -5.79398585E-10
  -9.31999969      -5.93045613E-10
  -9.31000042      -6.04369221E-10
  -9.30000019      -6.13051332E-10
  -9.28999996      -6.18761820E-10
  -9.27999973      -6.21159124E-10
  -9.27000046      -6.19892082E-10
  -9.26000023      -6.14604201E-10
  -9.25000000      -6.04939987E-10
  -9.23999977      -5.90552551E-10
  -9.22999954      -5.71112935E-10
  -9.22000027      -5.46319323E-10
  -9.21000004      -5.15905263E-10
  -9.19999981      -4.79647155E-10
  -9.18999958      -4.37370584E-10
  -9.18000031      -3.88954563E-10
  -9.17000008      -3.34335643E-10
  -9.15999985      -2.73509659E-10
  -9.14999962      -2.06532597E-10
  -9.14000034      -1.33521152E-10
  -9.13000011      -5.46511239E-11
  -9.11999989       2.98451507E-11
  -9.10999966       1.19681542E-10
  -9.10000038       2.14520318E-10
  -9.09000015       3.13974097E-10
  -9.07999992       4.17605839E-10
  -9.06999969       5.24927823E-10
  -9.06000042       6.35400288E-10
  -9.05000019       7.48432483E-10
  -9.03999996       8.63381588E-10
  -9.02999973       9.79559767E-10
  -9.02000046       1.09623954E-09
  -9.01000023       1.21266641E-09
  -9.00000000       1.32806688E-09
  -8.98999977       1.44166212E-09
  -8.97999954       1.55267499E-09
  -8.97000027       1.66033665E-09
  -8.96000004       1.76389126E-09
  -8.94999981       1.86259419E-09
  -8.93999958       1.95571270E-09
  -8.93000031       2.04252948E-09
  -8.92000008       2.12234275E-09
  -8.90999985       2.19447505E-09
  -8.89999962       2.25827712E-09
  -8.89000034       2.31313657E-09
  -8.88000011       2.35848630E-09
  -8.86999989       2.39380649E-09
  -8.85999966       2.41862796E-09
  -8.85000038       2.43252751E-09
  -8.84000015       2.43512743E-09
  -8.82999992       2.42608844E-09
  -8.81999969       2.40510367E-09
  -8.81000042       2.37190267E-09
  -8.80000019       2.32624076E-09
  -8.78999996       2.26790720E-09
  -8.77999973       2.19672347E-09
  -8.77000046       2.11255236E-09
  -8.76000023       2.01528905E-09
  -8.75000000       1.90487159E-09
  -8.73999977       1.78128357E-09
  -8.72999954       1.64455838E-09
  -8.72000027       1.49477331E-09
  -8.71000004       1.33206024E-09
  -8.69999981       1.15660803E-09
  -8.68999958       9.68646163E-10
  -8.68000031       7.68458408E-10
  -8.67000008       5.56370894E-10
  -8.65999985       3.32744443E-10
  -8.64999962       9.79756554E-11
  -8.64000034      -1.47510615E-10
  -8.63000011      -4.03270140E-10
  -8.61999989      -6.68826161E-10
  -8.60999966      -9.43680800E-10
  -8.60000038      -1.22730748E-09
  -8.59000015      -1.51915125E-09
  -8.57999992      -1.81862436E-09
  -8.56999969      -2.12511320E-09
  -8.56000042      -2.43798026E-09
  -8.55000019      -2.75656542E-09
  -8.53999996      -3.08019477E-09
  -8.52999973      -3.40818729E-09
  -8.52000046      -3.73986397E-09
  -8.51000023      -4.07454426E-09
  -8.50000000      -4.41156844E-09
  -8.48999977      -4.75028239E-09
  -8.47999954      -5.09006526E-09
  -8.47000027      -5.43031753E-09
  -8.46000004      -5.77046677E-09
  -8.44999981      -6.10997919E-09
  -8.43999958      -6.44834364E-09
  -8.43000031      -6.78507872E-09
  -8.42000008      -7.11973680E-09
  -8.40999985      -7.45188800E-09
  -8.39999962      -7.78113041E-09
  -8.39000034      -8.10708922E-09
  -8.38000011      -8.42940651E-09
  -8.36999989      -8.74776340E-09
  -8.35999966      -9.06185793E-09
  -8.35000038      -9.37141831E-09
  -8.34000015      -9.67618607E-09
  -8.32999992      -9.97591698E-09
  -8.31999969      -1.02703650E-08
  -8.31000042      -1.05592708E-08
  -8.30000019      -1.08423590E-08
  -8.28999996      -1.11193232E-08
  -8.27999973      -1.13898242E-08
  -8.27000046      -1.16534977E-08
  -8.26000023      -1.19099468E-08
  -8.25000000      -1.21587496E-08
  -8.23999977      -1.23994548E-08
  -8.22999954      -1.26315909E-08
  -8.22000027      -1.28546622E-08
  -8.21000004      -1.30681546E-08
  -8.19999981      -1.32715270E-08
  -8.18999958      -1.34642271E-08
  -8.18000031      -1.36456855E-08
  -8.17000008      -1.38153258E-08
  -8.15999985      -1.39725742E-08
  -8.14999962      -1.41168508E-08
  -8.14000034      -1.42475916E-08
  -8.13000011      -1.43642334E-08
  -8.11999989      -1.44662309E-08
  -8.10999966      -1.45530388E-08
  -8.10000038      -1.46241277E-08
  -8.09000015      -1.46789798E-08
  -8.07999992      -1.47171058E-08
  -8.06999969      -1.47380286E-08
  -8.06000042      -1.47413086E-08
  -8.05000019      -1.47265391E-08
  -8.03999996      -1.46933612E-08
  -8.02999973      -1.46414454E-08
  -8.02000046      -1.45705030E-08
  -8.01000023      -1.44802996E-08
  -8.00000000      -1.43706291E-08
  -7.98999977      -1.42413450E-08
  -7.98000002      -1.40923433E-08
  -7.96999979      -1.39235796E-08
  -7.96000004      -1.37350709E-08
  -7.94999981      -1.35269076E-08
  -7.94000006      -1.32992319E-08
  -7.92999983      -1.30522793E-08
  -7.92000008      -1.27863409E-08
  -7.90999985      -1.25017818E-08
  -7.90000010      -1.21990329E-08
  -7.88999987      -1.18786048E-08
  -7.88000011      -1.15410685E-08
  -7.86999989      -1.11870735E-08
  -7.86000013      -1.08173586E-08
  -7.84999990      -1.04327231E-08
  -7.84000015      -1.00340438E-08
  -7.82999992      -9.62225322E-09
  -7.82000017      -9.19835230E-09
  -7.80999994      -8.76337669E-09
  -7.80000019      -8.31842595E-09
  -7.78999996      -7.86462717E-09
  -7.78000021      -7.40314965E-09
  -7.76999998      -6.93519908E-09
  -7.76000023      -6.46200116E-09
  -7.75000000      -5.98482996E-09
  -7.73999977      -5.50497159E-09
  -7.73000002      -5.02372766E-09
  -7.71999979      -4.54238913E-09
  -7.71000004      -4.06224521E-09
  -7.69999981      -3.58457286E-09
  -7.69000006      -3.11061288E-09
  -7.67999983      -2.64161071E-09
  -7.67000008      -2.17875518E-09
  -7.65999985      -1.72324921E-09
  -7.65000010      -1.27624311E-09
  -7.63999987      -8.38853598E-10
  -7.63000011      -4.12162637E-10
  -7.61999989       2.84590190E-12
  -7.61000013       4.05244394E-10
  -7.59999990       7.94188160E-10
  -7.59000015       1.16894150E-09
  -7.57999992       1.52885837E-09
  -7.57000017       1.87336746E-09
  -7.55999994       2.20198770E-09
  -7.55000019       2.51429988E-09
  -7.53999996       2.80995294E-09
  -7.53000021       3.08867687E-09
  -7.51999998       3.35024608E-09
  -7.51000023       3.59451469E-09
  -7.50000000       3.82139076E-09
  -7.48999977       4.03083567E-09
  -7.48000002       4.22286384E-09
  -7.46999979       4.39753922E-09
  -7.46000004       4.55493510E-09
  -7.44999981       4.69515538E-09
  -7.44000006       4.81833284E-09