  -16.0000000       0.00000000    
  -15.9899998       0.00000000    
  -15.9799995       0.00000000    
  -15.9700003       0.00000000    
  -15.9600000       0.00000000    
  -15.9499998       0.00000000    
  -15.9399996       0.00000000    
  -15.9300003       0.00000000    
  -15.9200001       0.00000000    
  -15.9099998       0.00000000    
  -15.8999996       0.00000000    
  -15.8900003       0.00000000    
  -15.8800001       0.00000000    
  -15.8699999      -1.47893040E-41
  -15.8599997      -2.98433133E-40
  -15.8500004      -3.30026387E-39
  -15.8400002      -2.67813612E-38
  -15.8299999      -1.75005654E-37
  -15.8199997      -9.51124808E-37
  -15.8100004      -4.35503545E-36
  -15.8000002      -1.68552990E-35
  -15.7900000      -5.48460409E-35
  -15.7799997      -1.46644608E-34
  -15.7700005      -2.99198370E-34
  -15.7600002      -3.30167779E-34
  -15.7500000       6.54246131E-34
  -15.7399998       5.45421701E-33
  -15.7299995       2.07286644E-32
  -15.7200003       5.85330124E-32
  -15.7100000       1.33129813E-31
  -15.6999998       2.43934732E-31
  -15.6899996       3.32908135E-31
  -15.6800003       2.15185032E-31
  -15.6700001      -4.78735074E-31
  -15.6599998      -2.23560707E-30
  -15.6499996      -5.27787334E-30
  -15.6400003      -8.71976218E-30
  -15.6300001      -9.45761377E-30
  -15.6199999      -1.76017113E-30
  -15.6099997       2.05448231E-29
  -15.6000004       5.73073936E-29
  -15.5900002       9.12096648E-29
  -15.5799999       7.96616083E-29
  -15.5699997      -3.52142839E-29
  -15.5600004      -2.79997449E-28
  -15.5500002      -5.63907521E-28
  -15.5400000      -5.96366904E-28
  -15.5299997       8.08243103E-29
  -15.5200005       1.79592929E-27
  -15.5100002       4.11698803E-27
  -15.5000000       5.12144100E-27
  -15.4899998       1.29127998E-27
  -15.4799995      -1.08442182E-26
  -15.4700003      -3.05057535E-26
  -15.4600000      -4.68018418E-26
  -15.4499998      -3.53451779E-26
  -15.4399996       3.51531087E-26
  -15.4300003       1.78818928E-25
  -15.4200001       3.51669089E-25
  -15.4099998       4.13068401E-25
  -15.3999996       1.33125603E-25
  -15.3900003      -6.98007745E-25
  -15.3800001      -2.03036152E-24
  -15.3699999      -3.24661859E-24
  -15.3599997      -2.99712870E-24
  -15.3500004       4.79735554E-25
  -15.3400002       8.23444488E-24
  -15.3299999       1.87141267E-23
  -15.3199997       2.58785489E-23
  -15.3100004       1.90279451E-23
  -15.3000002      -1.34523914E-23
  -15.2900000      -7.50728063E-23
  -15.2799997      -1.48561605E-22
  -15.2700005      -1.86068634E-22
  -15.2600002      -1.13674882E-22
  -15.2500000       1.37613680E-22
  -15.2399998       5.70510518E-22
  -15.2299995       1.04603239E-21
  -15.2200003       1.23851687E-21
  -15.2100000       6.87904178E-22
  -15.1999998      -9.90444982E-22
  -15.1899996      -3.73700369E-21
  -15.1800003      -6.63648904E-21
  -15.1700001      -7.72463180E-21
  -15.1599998      -4.36662506E-21
  -15.1499996       5.51555753E-21
  -15.1400003       2.14347651E-20
  -15.1300001       3.82279678E-20
  -15.1199999       4.52121542E-20
  -15.1099997       2.83345937E-20
  -15.1000004      -2.34528080E-20
  -15.0900002      -1.08129056E-19
  -15.0799999      -2.00283406E-19
  -15.0699997      -2.47071404E-19
  -15.0600004      -1.78386501E-19
  -15.0500002       6.33508874E-20
  -15.0400000       4.76414829E-19
  -15.0299997       9.51435652E-19
  -15.0200005       1.25016697E-18
  -15.0100002       1.04590774E-18
  -15.0000000       4.94007125E-20
  -14.9899998      -1.78917864E-18
  -14.9799995      -4.06405333E-18
  -14.9700003      -5.79987447E-18
  -14.9600000      -5.58243681E-18
  -14.9499998      -2.03842987E-18
  -14.9399996       5.35631707E-18
  -14.9300003       1.53619649E-17
  -14.9200001       2.43898290E-17
  -14.9099998       2.68023095E-17
  -14.8999996       1.65423599E-17
  -14.8900003      -9.88971929E-18
  -14.8800001      -4.98124360E-17
  -14.8699999      -9.15981297E-17
  -14.8599997      -1.14792856E-16
  -14.8500004      -9.49208017E-17
  -14.8400002      -1.34642000E-17
  -14.8299999       1.28860393E-16
  -14.8199997       3.00257404E-16
  -14.8100004       4.34307012E-16
  -14.8000002       4.41516321E-16
  -14.7900000       2.39248638E-16
  -14.7799997      -2.03872585E-16
  -14.7700005      -8.22339766E-16
  -14.7600002      -1.42828887E-15
  -14.7500000      -1.72980529E-15
  -14.7399998      -1.40875778E-15
  -14.7299995      -2.54293240E-16
  -14.7200003       1.68014957E-15
  -14.7100000       3.95640196E-15
  -14.6999998       5.74236457E-15
  -14.6899996       5.97622190E-15
  -14.6800003       3.71901759E-15
  -14.6700001      -1.36674971E-15
  -14.6599998      -8.56191830E-15
  -14.6499996      -1.58706598E-14
  -14.6400003      -2.02455240E-14
  -14.6300001      -1.83727579E-14
  -14.6199999      -7.94443636E-15
  -14.6099997       1.08973211E-14
  -14.6000004       3.44747255E-14
  -14.5900002       5.54607324E-14
  -14.5799999       6.42140150E-14
  -14.5699997       5.16423520E-14
  -14.5600004       1.30824942E-14
  -14.5500002      -4.79414109E-14
  -14.5400000      -1.17633361E-13
  -14.5299997      -1.73016671E-13
  -14.5200005      -1.87033765E-13
  -14.5100002      -1.37237213E-13
  -14.5000000      -1.60933363E-14
  -14.4899998       1.60424503E-13
  -14.4799995       3.49829622E-13
  -14.4700003       4.88838896E-13
  -14.4600000       5.08759593E-13
  -14.4499998       3.58226442E-13
  -14.4399996       2.75075017E-14
  -14.4300003      -4.33848812E-13
  -14.4200001      -9.14416112E-13
  -14.4099998      -1.25895464E-12
  -14.3999996      -1.30710568E-12
  -14.3900003      -9.45508862E-13
  -14.3800001      -1.59488308E-13
  -14.3699999       9.33120877E-13
  -14.3599997       2.08194790E-12
  -14.3500004       2.94659327E-12
  -14.3400002       3.17854900E-12
  -14.3299999       2.52607072E-12
  -14.3199997       9.34604174E-13
  -14.3100004      -1.38873732E-12
  -14.3000002      -3.97340667E-12
  -14.2900000      -6.15899085E-12
  -14.2799997      -7.23705210E-12
  -14.2700005      -6.63343252E-12
  -14.2600002      -4.08842144E-12
  -14.2500000       2.12517951E-13
  -14.2399998       5.59692006E-12
  -14.2299995       1.09737636E-11
  -14.2200003       1.50097192E-11
  -14.2100000       1.63875528E-11
  -14.1999998       1.41040322E-11
  -14.1899996       7.75618025E-12
  -14.1800003      -2.23663492E-12
  -14.1700001      -1.45228760E-11
  -14.1599998      -2.68639711E-11
  -14.1499996      -3.63681030E-11
  -14.1400003      -3.99312805E-11
  -14.1300001      -3.48731391E-11
  -14.1199999      -1.97075047E-11
  -14.1099997       5.08203332E-12
  -14.1000004       3.64581317E-11
  -14.0900002       6.86832952E-11
  -14.0799999       9.38425865E-11
  -14.0699997       1.03169619E-10
  -14.0600004       8.91174148E-11
  -14.0500002       4.78523818E-11
  -14.0400000      -1.84146327E-11
  -14.0299997      -1.00022754E-10
  -14.0200005      -1.80133228E-10
  -14.0100002      -2.37167563E-10
  -14.0000000      -2.49387538E-10
  -13.9899998      -2.00915048E-10
  -13.9799995      -8.78287928E-11
  -13.9700003       7.74482631E-11
  -13.9600000       2.65242661E-10
  -13.9499998       4.32390956E-10
  -13.9399996       5.30755273E-10
  -13.9300003       5.19172316E-10
  -13.9200001       3.76186915E-10
  -13.9099998       1.10087529E-10
  -13.8999996      -2.37192904E-10
  -13.8900003      -5.94647220E-10
  -13.8800001      -8.75574446E-10
  -13.8699999      -9.97609328E-10
  -13.8599997      -9.04956554E-10
  -13.8500004      -5.86997506E-10
  -13.8400002      -8.75869655E-11
  -13.8299999       4.98873221E-10
  -13.8199997       1.04526821E-09
  -13.8100004       1.42034184E-09
  -13.8000002       1.52143054E-09
  -13.7900000       1.30287781E-09
  -13.7799997       7.91906929E-10
  -13.7700005       8.65552838E-11
  -13.7600002      -6.65184241E-10
  -13.7500000      -1.30058808E-09
  -13.7399998      -1.68288239E-09
  -13.7299995      -1.73630510E-09
  -13.7200003      -1.46536439E-09
  -13.7100000      -9.52095736E-10
  -13.6999998      -3.31312061E-10
  -13.6899996       2.49572890E-10
  -13.6800003       6.74475698E-10
  -13.6700001       8.92794005E-10
  -13.6599998       9.32436794E-10
  -13.6499996       8.86328344E-10
  -13.6400003       8.75081285E-10
  -13.6300001       9.96473792E-10
  -13.6199999       1.27777622E-09
  -13.6099997       1.64765324E-09
  -13.6000004       1.93998639E-09
  -13.5900002       1.93314120E-09
  -13.5799999       1.41732148E-09
  -13.5699997       2.72782991E-10
  -13.5600004      -1.46390089E-09
  -13.5500002      -3.56782515E-09
  -13.5400000      -5.64293012E-09
  -13.5299997      -7.19078130E-09
  -13.5200005      -7.71900943E-09
  -13.5100002      -6.86485402E-09
  -13.5000000      -4.50297266E-09
  -13.4899998      -8.08031420E-10
  -13.4799995       3.74726872E-09
  -13.4700003       8.46227000E-09
  -13.4600000       1.25326309E-08
  -13.4499998       1.52002357E-08
  -13.4399996       1.58937468E-08
  -13.4300003       1.43275543E-08
  -13.4200001       1.05398650E-08
  -13.4099998       4.86728302E-09
  -13.3999996      -2.12704276E-09
  -13.3900003      -9.74399050E-09
  -13.3800001      -1.72268511E-08
  -13.3699999      -2.38070914E-08
  -13.3599997      -2.87144193E-08
  -13.3500004      -3.11695736E-08
  -13.3400002      -3.03942400E-08
  -13.3299999      -2.56750194E-08
  -13.3199997      -1.65064300E-08
  -13.3100004      -2.80887757E-09
  -13.3000002       1.48188013E-08
  -13.2900000       3.48858507E-08
  -13.2799997       5.49280124E-08
  -13.2700005       7.16415656E-08
  -13.2600002       8.12807812E-08
  -13.2500000       8.03029394E-08
  -13.2399998       6.61703794E-08
  -13.2299995       3.81529368E-08
  -13.2200003      -2.06546424E-09
  -13.2100000      -5.01668893E-08
  -13.1999998      -9.94982514E-08
  -13.1899996      -1.41919500E-07
  -13.1800003      -1.69110265E-07
  -13.1700001      -1.74115044E-07
  -13.1599998      -1.52832996E-07
  -13.1499996      -1.05125586E-07
  -13.1400003      -3.52786671E-08
  -13.1300001       4.83374478E-08
  -13.1199999       1.34391243E-07
  -13.1099997       2.10317509E-07
  -13.1000004       2.64328520E-07
  -13.0900002       2.87324070E-07
  -13.0799999       2.74336884E-07
  -13.0699997       2.25253856E-07
  -13.0600004       1.44718385E-07
  -13.0500002       4.12905230E-08
  -13.0400000      -7.38886001E-08
  -13.0299997      -1.88620675E-07
  -13.0200005      -2.91038816E-07
  -13.0100002      -3.70641430E-07
  -13.0000000      -4.18890238E-07
  -12.9899998      -4.29442963E-07
  -12.9799995      -3.98224046E-07
  -12.9700003      -3.23557657E-07
  -12.9600000      -2.06548123E-07
  -12.9499998      -5.17555527E-08
  -12.9399996       1.31982418E-07
  -12.9300003       3.30875395E-07
  -12.9200001       5.26065094E-07
  -12.9099998       6.94447806E-07
  -12.8999996       8.10679182E-07
  -12.8900003       8.50327751E-07
  -12.8800001       7.93872175E-07
  -12.8699999       6.30890327E-07
  -12.8599997       3.63653697E-07
  -12.8500004       9.29407307E-09
  -12.8400002      -4.00142227E-07
  -12.8299999      -8.20086768E-07
  -12.8199997      -1.19817037E-06
  -12.8100004      -1.48075310E-06
  -12.8000002      -1.62029858E-06
  -12.7900000      -1.58248656E-06
  -12.7799997      -1.35191453E-06
  -12.7700005      -9.35512844E-07
  -12.7600002      -3.63077874E-07
  -12.7500000       3.15045554E-07
  -12.7399998       1.03285481E-06
  -12.7299995       1.71538727E-06
  -12.7200003       2.28636122E-06
  -12.7100000       2.67588848E-06
  -12.6999998       2.82747919E-06
  -12.6899996       2.70381111E-06
  -12.6800003       2.29096781E-06
  -12.6700001       1.60095101E-06
  -12.6599998       6.72369140E-07
  -12.6499996      -4.30749083E-07
  -12.6400003      -1.62217430E-06
  -12.6300001      -2.79882511E-06
  -12.6199999      -3.84821669E-06
  -12.6099997      -4.65785752E-06
  -12.6000004      -5.12594943E-06
  -12.5900002      -5.17247418E-06
  -12.5799999      -4.74941407E-06
  -12.5699997      -3.84858231E-06
  -12.5600004      -2.50570974E-06
  -12.5500002      -7.99817883E-07
  -12.5400000       1.15256228E-06
  -12.5299997       3.20784943E-06
  -12.5200005       5.20932645E-06
  -12.5100002       7.00272085E-06
  -12.5000000       8.45099567E-06
  -12.4899998       9.44642306E-06
  -12.4799995       9.91809247E-06
  -12.4700003       9.83381960E-06
  -12.4600000       9.19663125E-06
  -12.4499998       8.03646162E-06
  -12.4399996       6.39884320E-06
  -12.4300003       4.33219702E-06
  -12.4200001       1.87585897E-06
  -12.4099998      -9.49887749E-07
  -12.3999996      -4.15062414E-06
  -12.3900003      -7.76135857E-06
  -12.3800001      -1.18466178E-05
  -12.3699999      -1.64973171E-05
  -12.3599997      -2.18253244E-05
  -12.3500004      -2.79545475E-05
  -12.3400002      -3.50098089E-05
  -12.3299999      -4.31022891E-05
  -12.3199997      -5.23121671E-05
  -12.3100004      -6.26692781E-05
  -12.3000002      -7.41323020E-05
  -12.2900000      -8.65694237E-05
  -12.2799997      -9.97429670E-05
  -12.2700005      -1.13300688E-04
  -12.2600002      -1.26776897E-04
  -12.2500000      -1.39604250E-04
  -12.2399998      -1.51137225E-04
  -12.2299995      -1.60685435E-04
  -12.2200003      -1.67552309E-04
  -12.2100000      -1.71079359E-04
  -12.1999998      -1.70684594E-04
  -12.1899996      -1.65897014E-04
  -12.1800003      -1.56382128E-04
  -12.1700001      -1.41954501E-04
  -12.1599998      -1.22578145E-04
  -12.1499996      -9.83625432E-05
  -12.1400003      -6.95439667E-05
  -12.1300001      -3.64692642E-05
  -12.1199999       4.25245531E-07
  -12.1099997       4.06367726E-05
  -12.1000004       8.36098625E-05
  -12.0900002       1.28756394E-04
  -12.0799999       1.75471214E-04
  -12.0699997       2.23143128E-04
  -12.0600004       2.71171390E-04
  -12.0500002       3.18973820E-04
  -12.0400000       3.65999498E-04
  -12.0299997       4.11728601E-04
  -12.0200005       4.55680827E-04
  -12.0100002       4.97405883E-04
  -12.0000000       5.36480977E-04
  -11.9899998       5.72494639E-04
  -11.9799995       6.05039357E-04
  -11.9700003       6.33698714E-04
  -11.9600000       6.58041099E-04
  -11.9499998       6.77617849E-04
  -11.9399996       6.91968540E-04
  -11.9300003       7.00627337E-04
  -11.9200001       7.03138357E-04
  -11.9099998       6.99067023E-04
  -11.8999996       6.88011642E-04
  -11.8900003       6.69617613E-04
  -11.8800001       6.43573527E-04
  -11.8699999       6.09621813E-04
  -11.8599997       5.67553565E-04
  -11.8500004       5.17206849E-04
  -11.8400002       4.58473660E-04
  -11.8299999       3.91301030E-04
  -11.8199997       3.15701443E-04
  -11.8100004       2.31776212E-04
  -11.8000002       1.39724609E-04
  -11.7900000       3.98724951E-05
  -11.7799997      -6.73154427E-05
  -11.7700005      -1.81220210E-04
  -11.7600002      -3.01066000E-04
  -11.7500000      -4.25918319E-04
  -11.7399998      -5.54696715E-04
  -11.7299995      -6.86192128E-04
  -11.7200003      -8.19097622E-04
  -11.7100000      -9.52027214E-04
  -11.6999998      -1.08355028E-03
  -11.6899996      -1.21222483E-03
  -11.6800003      -1.33662578E-03
  -11.6700001      -1.45537546E-03
  -11.6599998      -1.56718004E-03
  -11.6499996      -1.67085009E-03
  -11.6400003      -1.76533079E-03
  -11.6300001      -1.84971874E-03
  -11.6199999      -1.92327646E-03
  -11.6099997      -1.98543118E-03
  -11.6000004      -2.03577313E-03
  -11.5900002      -2.07401835E-03
  -11.5799999      -2.09999550E-03
  -11.5699997      -2.11358629E-03
  -11.5600004      -2.11469084E-03
  -11.5500002      -2.10317667E-03
  -11.5400000      -2.07884167E-03
  -11.5299997      -2.04137783E-03
  -11.5200005      -1.99036160E-03
  -11.5100002      -1.92524842E-03
  -11.5000000      -1.84537249E-03
  -11.4899998      -1.74998830E-03
  -11.4799995      -1.63827930E-03
  -11.4700003      -1.50941277E-03
  -11.4600000      -1.36256195E-03
  -11.4499998      -1.19696977E-03
  -11.4399996      -1.01197395E-03
  -11.4300003      -8.07062315E-04
  -11.4200001      -5.81904198E-04
  -11.4099998      -3.36401572E-04
  -11.3999996      -7.07161744E-05
  -11.3900003       2.14710191E-04
  -11.3800001       5.19128691E-04
  -11.3699999       8.41509725E-04
  -11.3599997       1.18053996E-03
  -11.3500004       1.53467979E-03
  -11.3400002       1.90220459E-03
  -11.3299999       2.28127814E-03
  -11.3199997       2.67001335E-03
  -11.3100004       3.06654628E-03
  -11.3000002       3.46910348E-03
  -11.2900000       3.87604232E-03
  -11.2799997       4.28590504E-03
  -11.2700005       4.69743693E-03
  -11.2600002       5.10960957E-03
  -11.2500000       5.52162575E-03
  -11.2399998       5.93291270E-03
  -11.2299995       6.34311931E-03
  -11.2200003       6.75208494E-03
  -11.2100000       7.15983706E-03
  -11.1999998       7.56651815E-03
  -11.1899996       7.97240622E-03
  -11.1800003       8.37779138E-03
  -11.1700001       8.78297351E-03
  -11.1599998       9.18818358E-03
  -11.1499996       9.59354173E-03
  -11.1400003       9.99899581E-03
  -11.1300001       1.04042916E-02
  -11.1199999       1.08089624E-02
  -11.1099997       1.12122986E-02
  -11.1000004       1.16133764E-02
  -11.0900002       1.20110735E-02
  -11.0799999       1.24041094E-02
  -11.0699997       1.27910804E-02
  -11.0600004       1.31705226E-02
  -11.0500002       1.35409590E-02
  -11.0400000       1.39009356E-02
  -11.0299997       1.42491115E-02
  -11.0200005       1.45842722E-02
  -11.0100002       1.49053792E-02
  -11.0000000       1.52116222E-02
  -10.9899998       1.55024119E-02
  -10.9799995       1.57774147E-02
  -10.9700003       1.60365552E-02
  -10.9600000       1.62800103E-02
  -10.9499998       1.65081676E-02
  -10.9399996       1.67216100E-02
  -10.9300003       1.69210788E-02
  -10.9200001       1.71074159E-02
  -10.9099998       1.72815397E-02
  -10.8999996       1.74443237E-02
  -10.8900003       1.75966769E-02
  -10.8800001       1.77394114E-02
  -10.8699999       1.78732183E-02
  -10.8599997       1.79986786E-02
  -10.8500004       1.81162525E-02
  -10.8400002       1.82262287E-02
  -10.8299999       1.83287542E-02
  -10.8199997       1.84238460E-02
  -10.8100004       1.85114108E-02
  -10.8000002       1.85912121E-02
  -10.7900000       1.86629780E-02
  -10.7799997       1.87263601E-02
  -10.7700005       1.87810156E-02
  -10.7600002       1.88266169E-02
  -10.7500000       1.88629851E-02
  -10.7399998       1.88900158E-02
  -10.7299995       1.89078208E-02
  -10.7200003       1.89167596E-02
  -10.7100000       1.89174358E-02
  -10.6999998       1.89107470E-02
  -10.6899996       1.88978855E-02
  -10.6800003       1.88803002E-02
  -10.6700001       1.88597031E-02
  -10.6599998       1.88380256E-02
  -10.6499996       1.88173335E-02
  -10.6400003       1.87997911E-02
  -10.6300001       1.87876187E-02
  -10.6199999       1.87830031E-02
  -10.6099997       1.87880751E-02
  -10.6000004       1.88048482E-02
  -10.5900002       1.88351851E-02
  -10.5799999       1.88808404E-02
  -10.5699997       1.89433228E-02
  -10.5600004       1.90240126E-02
  -10.5500002       1.91240720E-02
  -10.5400000       1.92444734E-02
  -10.5299997       1.93860345E-02
  -10.5200005       1.95493586E-02
  -10.5100002       1.97348408E-02
  -10.5000000       1.99427363E-02
  -10.4899998       2.01730356E-02
  -10.4799995       2.04255097E-02
  -10.4700003       2.06996500E-02
  -10.4600000       2.09947210E-02
  -10.4499998       2.13097334E-02
  -10.4399996       2.16433462E-02
  -10.4300003       2.19939835E-02
  -10.4200001       2.23598387E-02
  -10.4099998       2.27388963E-02
  -10.3999996       2.31289379E-02
  -10.3900003       2.35277098E-02
  -10.3800001       2.39328407E-02
  -10.3699999       2.43420303E-02
  -10.3599997       2.47529615E-02
  -10.3500004       2.51634791E-02
  -10.3400002       2.55715102E-02
  -10.3299999       2.59750113E-02
  -10.3199997       2.63721831E-02
  -10.3100004       2.67611835E-02
  -10.3000002       2.71403547E-02
  -10.2900000       2.75080819E-02
  -10.2799997       2.78629195E-02
  -10.2700005       2.82035600E-02
  -10.2600002       2.85289045E-02
  -10.2500000       2.88381837E-02
  -10.2399998       2.91307811E-02
  -10.2299995       2.94066146E-02
  -10.2200003       2.96657961E-02
  -10.2100000       2.99088787E-02
  -10.1999998       3.01366728E-02
  -10.1899996       3.03503405E-02
  -10.1800003       3.05512622E-02
  -10.1700001       3.07409316E-02
  -10.1599998       3.09211109E-02
  -10.1499996       3.10935602E-02
  -10.1400003       3.12602296E-02
  -10.1300001       3.14230137E-02
  -10.1199999       3.15838940E-02
  -10.1099997       3.17447037E-02
  -10.1000004       3.19074392E-02
  -10.0900002       3.20738591E-02
  -10.0799999       3.22457068E-02
  -10.0699997       3.24244872E-02
  -10.0600004       3.26117165E-02
  -10.0500002       3.28087397E-02
  -10.0400000       3.30168717E-02
  -10.0299997       3.32372449E-02
  -10.0200005       3.34710218E-02
  -10.0100002       3.37194018E-02
  -10.0000000       3.39835472E-02
  -9.98999977       3.42644490E-02
  -9.97999954       3.45633142E-02
  -9.97000027       3.48810293E-02
  -9.96000004       3.52186598E-02
  -9.94999981       3.55771333E-02
  -9.93999958       3.59573588E-02
  -9.93000031       3.63603272E-02
  -9.92000008       3.67872156E-02
  -9.90999985       3.72392237E-02
  -9.89999962       3.77179682E-02
  -9.89000034       3.82251814E-02
  -9.88000011       3.87629718E-02
  -9.86999989       3.93337160E-02
  -9.85999966       3.99399400E-02
  -9.85000038       4.05843295E-02
  -9.84000015       4.12696078E-02
  -9.82999992       4.19984609E-02
  -9.81999969       4.27734293E-02
  -9.81000042       4.35966738E-02
  -9.80000019       4.44702692E-02
  -9.78999996       4.53958511E-02
  -9.77999973       4.63747419E-02
  -9.77000046       4.74078730E-02
  -9.76000023       4.84959222E-02
  -9.75000000       4.96393107E-02
  -9.73999977       5.08381464E-02
  -9.72999954       5.20922393E-02
  -9.72000027       5.34011349E-02
  -9.71000004       5.47640026E-02
  -9.69999981       5.61796986E-02
  -9.68999958       5.76464310E-02
  -9.68000031       5.91620840E-02
  -9.67000008       6.07238784E-02
  -9.65999985       6.23282678E-02
  -9.64999962       6.39712363E-02
  -9.64000034       6.56480268E-02
  -9.63000011       6.73533902E-02
  -9.61999989       6.90815523E-02
  -9.60999966       7.08263144E-02
  -9.60000038       7.25810975E-02
  -9.59000015       7.43391439E-02
  -9.57999992       7.60934725E-02
  -9.56999969       7.78368860E-02
  -9.56000042       7.95622766E-02
  -9.55000019       8.12625811E-02
  -9.53999996       8.29302967E-02
  -9.52999973       8.45585689E-02
  -9.52000046       8.61403942E-02
  -9.51000023       8.76689255E-02
  -9.50000000       8.91376957E-02
  -9.48999977       9.05405283E-02
  -9.47999954       9.18715522E-02
  -9.47000027       9.31253433E-02
  -9.46000004       9.42972451E-02
  -9.44999981       9.53830481E-02
  -9.43999958       9.63795632E-02
  -9.43000031       9.72846150E-02
  -9.42000008       9.80971456E-02
  -9.40999985       9.88177583E-02
  -9.39999962       9.94483232E-02
  -9.39000034       9.99924541E-02
  -9.38000011      0.100455359    
  -9.36999989      0.100843810    
  -9.35999966      0.101166084    
  -9.35000038      0.101432078    
  -9.34000015      0.101652756    
  -9.32999992      0.101840124    
  -9.31999969      0.102007553    
  -9.31000042      0.102169074    
  -9.30000019      0.102339439    
  -9.28999996      0.102534264    
  -9.27999973      0.102769725    
  -9.27000046      0.103062168    
  -9.26000023      0.103428170    
  -9.25000000      0.103884459    
  -9.23999977      0.104447410    
  -9.22999954      0.105133250    
  -9.22000027      0.105957352    
  -9.21000004      0.106934309    
  -9.19999981      0.108077899    
  -9.18999958      0.109400548    
  -9.18000031      0.110913321    
  -9.17000008      0.112625860    
  -9.15999985      0.114546061    
  -9.14999962      0.116679825    
  -9.14000034      0.119031429    
  -9.13000011      0.121602640    
  -9.11999989      0.124393508    
  -9.10999966      0.127401814    
  -9.10000038      0.130623221    
  -9.09000015      0.134051219    
  -9.07999992      0.137677670    
  -9.06999969      0.141491815    
  -9.06000042      0.145481050    
  -9.05000019      0.149630904    
  -9.03999996      0.153924942    
  -9.02999973      0.158344522    
  -9.02000046      0.162869856    
  -9.01000023      0.167479143    
  -9.00000000      0.172149688    
  -8.98999977      0.176857293    
  -8.97999954      0.181577191    
  -8.97000027      0.186283559    
  -8.96000004      0.190950111    
  -8.94999981      0.195550531    
  -8.93999958      0.200058252    
  -8.93000031      0.204446658    
  -8.92000008      0.208689883    
  -8.90999985      0.212762058    
  -8.89999962      0.216639236    
  -8.89000034      0.220297843    
  -8.88000011      0.223715842    
  -8.86999989      0.226872891    
  -8.85999966      0.229750633    
  -8.85000038      0.232332528    
  -8.84000015      0.234603718    
  -8.82999992      0.236552313    
  -8.81999969      0.238167971    
  -8.81000042      0.239442930    
  -8.80000019      0.240371898    
  -8.78999996      0.240951747    
  -8.77999973      0.241182089    
  -8.77000046      0.241064310    
  -8.76000023      0.240602270    
  -8.75000000      0.239802465    
  -8.73999977      0.238672838    
  -8.72999954      0.237223804    
  -8.72000027      0.235467240    
  -8.71000004      0.233417004    
  -8.69999981      0.231088415    
  -8.68999958      0.228498355    
  -8.68000031      0.225664735    
  -8.67000008      0.222606272    
  -8.65999985      0.219342574    
  -8.64999962      0.215894103    
  -8.64000034      0.212280855    
  -8.63000011      0.208524331    
  -8.61999989      0.204645202    
  -8.60999966      0.200664654    
  -8.60000038      0.196603566    
  -8.59000015      0.192483276    
  -8.57999992      0.188323990    
  -8.56999969      0.184146538    
  -8.56000042      0.179970607    
  -8.55000019      0.175814733    
  -8.53999996      0.171698004    
  -8.52999973      0.167637795    
  -8.52000046      0.163650647    
  -8.51000023      0.159752414    
  -8.50000000      0.155957758    
  -8.48999977      0.152280971    
  -8.47999954      0.148734808    
  -8.47000027      0.145331338    
  -8.46000004      0.142081782    
  -8.44999981      0.138995081    
  -8.43999958      0.136080503    
  -8.43000031      0.133345053    
  -8.42000008      0.130794868    
  -8.40999985      0.128435612    
  -8.39999962      0.126270697    
  -8.39000034      0.124303907    
  -8.38000011      0.122537062    
  -8.36999989      0.120972261    
  -8.35999966      0.119610600    
  -8.35000038      0.118452959    
  -8.34000015      0.117499866    
  -8.32999992      0.116752453    
  -8.31999969      0.116210677    
  -8.31000042      0.115875363    
  -8.30000019      0.115747802    
  -8.28999996      0.115828864    
  -8.27999973      0.116120510    
  -8.27000046      0.116624467    
  -8.26000023      0.117343634    
  -8.25000000      0.118280992    
  -8.23999977      0.119440749    
  -8.22999954      0.120826542    
  -8.22000027      0.122444488    
  -8.21000004      0.124299407    
  -8.19999981      0.126397684    
  -8.18999958      0.128746107    
  -8.18000031      0.131351247    
  -8.17000008      0.134220541    
  -8.15999985      0.137361482    
  -8.14999962      0.140780613    
  -8.14000034      0.144485563    
  -8.13000011      0.148482993    
  -8.11999989      0.152778760    
  -8.10999966      0.157378852    
  -8.10000038      0.162287101    
  -8.09000015      0.167507872    
  -8.07999992      0.173043117    
  -8.06999969      0.178894013    
  -8.06000042      0.185060695    
  -8.05000019      0.191542178    
  -8.03999996      0.198335364    
  -8.02999973      0.205436319    
  -8.02000046      0.212841183    
  -8.01000023      0.220541894    
  -8.00000000      0.228531346    
  -7.98999977      0.236799449    
  -7.98000002      0.245336220    
  -7.96999979      0.254128456    
  -7.96000004      0.263163149    
  -7.94999981      0.272425145    
  -7.94000006      0.281899005    
  -7.92999983      0.291566819    
  -7.92000008      0.301412016    
  -7.90999985      0.311415106    
  -7.90000010      0.321557611    
  -7.88999987      0.331818879    
  -7.88000011      0.342178822    
  -7.86999989      0.352616787    
  -7.86000013      0.363111198    
  -7.84999990      0.373641521    
  -7.84000015      0.384185582    
  -7.82999992      0.394722849    
  -7.82000017      0.405233115    
  -7.80999994      0.415695399    
  -7.80000019      0.426091105    
  -7.78999996      0.436401725    
  -7.78000021      0.446609855    
  -7.76999998      0.456698388    
  -7.76000023      0.466651678    
  -7.75000000      0.476455033    
  -7.73999977      0.486095726    
  -7.73000002      0.495561779    
  -7.71999979      0.504841626    
  -7.71000004      0.513926625    
  -7.69999981      0.522808194    
  -7.69000006      0.531480014    
  -7.67999983      0.539936364    
  -7.67000008      0.548173070    
  -7.65999985      0.556187689    
  -7.65000010      0.563978016    
  -7.63999987      0.571545601    
  -7.63000011      0.578890562    
  -7.61999989      0.586016119    
  -7.61000013      0.592926741    
  -7.59999990      0.599627674    
  -7.59000015      0.606125057    
  -7.57999992      0.612428010    
  -7.57000017      0.618544579    
  -7.55999994      0.624484301    
  -7.55000019      0.630259812    
  -7.53999996      0.635882020    
  -7.53000021      0.641363442    
  -7.51999998      0.646717966    
  -7.51000023      0.651960909    
  -7.50000000      0.657106817    
  -7.48999977      0.662172556    
  -7.48000002      0.667174459    
  -7.46999979      0.672128737    
  -7.46000004      0.677053213    
  -7.44999981      0.681963384    
  -7.44000006      0.686876595    