  -16.0000000       0.00000000    
  -15.9899998       0.00000000    
  -15.9799995       0.00000000    
  -15.9700003       0.00000000    
  -15.9600000       0.00000000    
  -15.9499998       0.00000000    
  -15.9399996       0.00000000    
  -15.9300003       0.00000000    
  -15.9200001       0.00000000    
  -15.9099998       0.00000000    
  -15.8999996       0.00000000    
  -15.8900003       0.00000000    
  -15.8800001       0.00000000    
  -15.8699999      -8.40779079E-45
  -15.8599997      -1.10702579E-43
  -15.8500004      -3.89560973E-43
  -15.8400002       2.75215018E-42
  -15.8299999       4.24145019E-41
  -15.8199997       2.87151279E-40
  -15.8100004       1.33355830E-39
  -15.8000002       4.74517775E-39
  -15.7900000       1.35539977E-38
  -15.7799997       3.17085004E-38
  -15.7700005       6.06600749E-38
  -15.7600002       9.08405238E-38
  -15.7500000       8.44830681E-38
  -15.7399998      -5.98128947E-38
  -15.7299995      -5.81977682E-37
  -15.7200003      -1.99711210E-36
  -15.7100000      -5.27736948E-36
  -15.6999998      -1.20160634E-35
  -15.6899996      -2.46837226E-35
  -15.6800003      -4.78027922E-35
  -15.6700001      -9.15853477E-35
  -15.6599998      -1.76760509E-34
  -15.6499996      -3.25214310E-34
  -15.6400003      -4.89871291E-34
  -15.6300001      -3.47302561E-34
  -15.6199999       1.07392815E-33
  -15.6099997       5.67751208E-33
  -15.6000004       1.56165571E-32
  -15.5900002       3.00043552E-32
  -15.5799999       3.75121436E-32
  -15.5699997       6.40210590E-33
  -15.5600004      -1.18425907E-31
  -15.5500002      -3.89859167E-31
  -15.5400000      -7.76314948E-31
  -15.5299997      -1.01400654E-30
  -15.5200005      -4.56364100E-31
  -15.5100002       1.88649239E-30
  -15.5000000       6.79303553E-30
  -15.4899998       1.34627198E-29
  -15.4799995       1.74759380E-29
  -15.4700003       9.26115839E-30
  -15.4600000      -2.42993061E-29
  -15.4499998      -9.15839753E-29
  -15.4399996      -1.79218783E-28
  -15.4300003      -2.30306771E-28
  -15.4200001      -1.32975929E-28
  -15.4099998       2.53337595E-28
  -15.3999996       1.00344215E-27
  -15.3900003       1.95578167E-27
  -15.3800001       2.51913158E-27
  -15.3699999       1.60537489E-27
  -15.3599997      -2.07701106E-27
  -15.3500004      -9.14796155E-27
  -15.3400002      -1.81063746E-26
  -15.3299999      -2.38227304E-26
  -15.3199997      -1.71867723E-26
  -15.3100004       1.23574044E-26
  -15.3000002       6.99567397E-26
  -15.2900000       1.44564850E-25
  -15.2799997       1.98221850E-25
  -15.2700005       1.63910739E-25
  -15.2600002      -3.65994359E-26
  -15.2500000      -4.46212959E-25
  -15.2399998      -1.00076038E-24
  -15.2299995      -1.45801365E-24
  -15.2200003      -1.38017309E-24
  -15.2100000      -2.38358908E-25
  -15.1999998       2.30966660E-24
  -15.1899996       5.98795559E-24
  -15.1800003       9.46241180E-24
  -15.1700001       1.01847236E-23
  -15.1599998       4.89979179E-24
  -15.1499996      -8.88983999E-24
  -15.1400003      -3.05685115E-23
  -15.1300001      -5.38681053E-23
  -15.1199999      -6.56070498E-23
  -15.1099997      -4.76528532E-23
  -15.1000004       1.62735505E-23
  -15.0900002       1.28950119E-22
  -15.0799999       2.66136628E-22
  -15.0699997       3.67786593E-22
  -15.0600004       3.43192687E-22
  -15.0500002       9.84747437E-23
  -15.0400000      -4.11562517E-22
  -15.0299997      -1.11775082E-21
  -15.0200005      -1.78378147E-21
  -15.0100002      -2.00627892E-21
  -15.0000000      -1.30820936E-21
  -14.9899998       6.55616619E-22
  -14.9799995       3.81023018E-21
  -14.9700003       7.38519049E-21
  -14.9600000       9.80995898E-21
  -14.9499998       8.95793629E-21
  -14.9399996       2.85677689E-21
  -14.9300003      -9.18122255E-21
  -14.9200001      -2.53047054E-20
  -14.9099998      -4.03036289E-20
  -14.8999996      -4.59315461E-20
  -14.8900003      -3.29617709E-20
  -14.8800001       4.91672036E-21
  -14.8699999       6.61037897E-20
  -14.8599997       1.36737686E-19
  -14.8500004       1.89500732E-19
  -14.8400002       1.88102539E-19
  -14.8299999       9.87662311E-20
  -14.8199997      -9.24890741E-20
  -14.8100004      -3.61407126E-19
  -14.8000002      -6.33753318E-19
  -14.7900000      -7.89524870E-19
  -14.7799997      -6.90269193E-19
  -14.7700005      -2.30158740E-19
  -14.7600002       5.98858084E-19
  -14.7500000       1.64900751E-18
  -14.7399998       2.59505170E-18
  -14.7299995       2.97779437E-18
  -14.7200003       2.32801753E-18
  -14.7100000       3.59279333E-19
  -14.6999998      -2.81721256E-18
  -14.6899996      -6.53498161E-18
  -14.6800003      -9.56590703E-18
  -14.6700001      -1.03412731E-17
  -14.6599998      -7.41858669E-18
  -14.6499996      -1.20368983E-19
  -14.6400003       1.08326010E-17
  -14.6300001       2.29493585E-17
  -14.6199999       3.21232679E-17
  -14.6099997       3.34859818E-17
  -14.6000004       2.29334286E-17
  -14.5900002      -9.77065016E-19
  -14.5799999      -3.53288310E-17
  -14.5699997      -7.20752180E-17
  -14.5600004      -9.88663540E-17
  -14.5500002      -1.01806471E-16
  -14.5400000      -6.98834342E-17
  -14.5299997      -9.16944896E-20
  -14.5200005       9.83536873E-17
  -14.5100002       2.02575804E-16
  -14.5000000       2.78903703E-16
  -14.4899998       2.90586061E-16
  -14.4799995       2.09348335E-16
  -14.4700003       2.80914010E-17
  -14.4600000      -2.29280199E-16
  -14.4499998      -5.05229266E-16
  -14.4399996      -7.16404691E-16
  -14.4300003      -7.72600721E-16
  -14.4200001      -6.03997172E-16
  -14.4099998      -1.90169405E-16
  -14.3999996       4.18136809E-16
  -14.3900003       1.09366639E-15
  -14.3800001       1.65013527E-15
  -14.3699999       1.88323800E-15
  -14.3599997       1.62851031E-15
  -14.3500004       8.22269463E-16
  -14.3400002      -4.52542016E-16
  -14.3299999      -1.95345576E-15
  -14.3199997      -3.31029518E-15
  -14.3100004      -4.10238089E-15
  -14.3000002      -3.96808720E-15
  -14.2900000      -2.72120621E-15
  -14.2799997      -4.41406365E-16
  -14.2700005       2.49253251E-15
  -14.2600002       5.44694320E-15
  -14.2500000       7.65617665E-15
  -14.2399998       8.40293953E-15
  -14.2299995       7.21520452E-15
  -14.2200003       4.02823459E-15
  -14.2100000      -7.36764663E-16
  -14.1999998      -6.20875320E-15
  -14.1899996      -1.12211520E-14
  -14.1800003      -1.45562239E-14
  -14.1700001      -1.52251072E-14
  -14.1599998      -1.27160686E-14
  -14.1499996      -7.14841682E-15
  -14.1400003       7.08160625E-16
  -14.1300001       9.55546762E-15
  -14.1199999       1.78011665E-14
  -14.1099997       2.38502929E-14
  -14.1000004       2.63887287E-14
  -14.0900002       2.46026615E-14
  -14.0799999       1.83021950E-14
  -14.0699997       7.94749076E-15
  -14.0600004      -5.39998835E-15
  -14.0500002      -2.01690098E-14
  -14.0400000      -3.43897240E-14
  -14.0299997      -4.58241199E-14
  -14.0200005      -5.21404412E-14
  -14.0100002      -5.11698262E-14
  -14.0000000      -4.12723885E-14
  -13.9899998      -2.18018302E-14
  -13.9799995       6.40191144E-15
  -13.9700003       4.06226092E-14
  -13.9600000       7.61486550E-14
  -13.9499998       1.06584568E-13
  -13.9399996       1.24683927E-13
  -13.9300003       1.23671554E-13
  -13.9200001       9.88696904E-14
  -13.9099998       4.93014307E-14
  -13.8999996      -2.11407921E-14
  -13.8900003      -1.03362563E-13
  -13.8800001      -1.83845980E-13
  -13.8699999      -2.46591132E-13
  -13.8599997      -2.75990548E-13
  -13.8500004      -2.60137479E-13
  -13.8400002      -1.93884364E-13
  -13.8299999      -8.09315180E-14
  -13.8199997       6.56408250E-14
  -13.8100004       2.24688893E-13
  -13.8000002       3.70071785E-13
  -13.7900000       4.74971462E-13
  -13.7799997       5.16664348E-13
  -13.7700005       4.80812547E-13
  -13.7600002       3.64423281E-13
  -13.7500000       1.76908618E-13
  -13.7399998      -6.09191246E-14
  -13.7299995      -3.19642641E-13
  -13.7200003      -5.65216168E-13
  -13.7100000      -7.63347989E-13
  -13.6999998      -8.83565519E-13
  -13.6899996      -9.02473571E-13
  -13.6800003      -8.06047449E-13
  -13.6700001      -5.91109030E-13
  -13.6599998      -2.66300382E-13
  -13.6499996       1.47179700E-13
  -13.6400003       6.15069465E-13
  -13.6300001       1.09014176E-12
  -13.6199999       1.51363655E-12
  -13.6099997       1.81891817E-12
  -13.6000004       1.93807882E-12
  -13.5900002       1.81162951E-12
  -13.5799999       1.40054906E-12
  -13.5699997       6.98937110E-13
  -13.5600004      -2.55339125E-13
  -13.5500002      -1.37501447E-12
  -13.5400000      -2.52556851E-12
  -13.5299997      -3.53682491E-12
  -13.5200005      -4.22400179E-12
  -13.5100002      -4.41613152E-12
  -13.5000000      -3.98778146E-12
  -13.4899998      -2.88862640E-12
  -13.4799995      -1.16494965E-12
  -13.4700003       1.03204099E-12
  -13.4600000       3.45433925E-12
  -13.4499998       5.78219157E-12
  -13.4399996       7.66359632E-12
  -13.4300003       8.76302156E-12
  -13.4200001       8.81236750E-12
  -13.4099998       7.65652385E-12
  -13.3999996       5.28668125E-12
  -13.3900003       1.85626839E-12
  -13.3800001      -2.32305928E-12
  -13.3699999      -6.80541344E-12
  -13.3599997      -1.10523986E-11
  -13.3500004      -1.44885917E-11
  -13.3400002      -1.65658598E-11
  -13.3299999      -1.68309776E-11
  -13.3199997      -1.49907031E-11
  -13.3100004      -1.09680702E-11
  -13.3000002      -4.94319212E-12
  -13.2900000       2.62839533E-12
  -13.2799997       1.10266171E-11
  -13.2700005       1.93122341E-11
  -13.2600002       2.64089809E-11
  -13.2500000       3.12199398E-11
  -13.2399998       3.27694365E-11
  -13.2299995       3.03552357E-11
  -13.2200003       2.36902113E-11
  -13.2100000       1.30095353E-11
  -13.1999998      -8.79696869E-13
  -13.1899996      -1.66242558E-11
  -13.1800003      -3.24340728E-11
  -13.1700001      -4.62703417E-11
  -13.1599998      -5.60940495E-11
  -13.1499996      -6.01442160E-11
  -13.1400003      -5.72070932E-11
  -13.1300001      -4.68357922E-11
  -13.1199999      -2.94842588E-11
  -13.1099997      -6.53071954E-12
  -13.1000004       1.98186311E-11
  -13.0900002       4.67385089E-11
  -13.0799999       7.10823830E-11
  -13.0699997       8.97343241E-11
  -13.0600004       9.99737931E-11
  -13.0500002       9.98116451E-11
  -13.0400000       8.82611068E-11
  -13.0299997       6.55154334E-11
  -13.0200005       3.30138937E-11
  -13.0100002      -6.61237167E-12
  -13.0000000      -4.97148850E-11
  -12.9899998      -9.19149132E-11
  -12.9799995      -1.28488498E-10
  -12.9700003      -1.54825805E-10
  -12.9600000      -1.66933176E-10
  -12.9499998      -1.61934050E-10
  -12.9399996      -1.38517003E-10
  -12.9300003      -9.72716976E-11
  -12.9200001      -4.08541360E-11
  -12.9099998       2.60673861E-11
  -12.8999996       9.71153366E-11
  -12.8900003       1.64753142E-10
  -12.8800001       2.21046764E-10
  -12.8699999       2.58563920E-10
  -12.8599997       2.71307060E-10
  -12.8500004       2.55560240E-10
  -12.8400002       2.10527762E-10
  -12.8299999       1.38663886E-10
  -12.8199997       4.56292365E-11
  -12.8100004      -6.01423425E-11
  -12.8000002      -1.68228487E-10
  -12.7900000      -2.67269706E-10
  -12.7799997      -3.46166068E-10
  -12.7700005      -3.95281530E-10
  -12.7600002      -4.07519601E-10
  -12.7500000      -3.79155540E-10
  -12.7399998      -3.10341725E-10
  -12.7299995      -2.05242781E-10
  -12.7200003      -7.17955001E-11
  -12.7100000       7.88797777E-11
  -12.6999998       2.33363689E-10
  -12.6899996       3.77048892E-10
  -12.6800003       4.95397501E-10
  -12.6700001       5.75256842E-10
  -12.6599998       6.06136474E-10
  -12.6499996       5.81345971E-10
  -12.6400003       4.98884878E-10
  -12.6300001       3.61986691E-10
  -12.6199999       1.79223691E-10
  -12.6099997      -3.58818322E-11
  -12.6000004      -2.65757721E-10
  -12.5900002      -4.90151530E-10
  -12.5799999      -6.87868928E-10
  -12.5699997      -8.38725256E-10
  -12.5600004      -9.25513832E-10
  -12.5500002      -9.35780009E-10
  -12.5400000      -8.63205563E-10
  -12.5299997      -7.08448189E-10
  -12.5200005      -4.79344564E-10
  -12.5100002      -1.90464297E-10
  -12.5000000       1.37926434E-10
  -12.4899998       4.81371498E-10
  -12.4799995       8.13042689E-10
  -12.4700003       1.10570253E-09
  -12.4600000       1.33365052E-09
  -12.4499998       1.47452162E-09
  -12.4399996       1.51084689E-09
  -12.4300003       1.43129897E-09
  -12.4200001       1.23158772E-09
  -12.4099998       9.14968989E-10
  -12.3999996       4.92326346E-10
  -12.3900003      -1.82023060E-11
  -12.3800001      -5.92086491E-10
  -12.3699999      -1.19974530E-09
  -12.3599997      -1.80834958E-09
  -12.3500004      -2.38398745E-09
  -12.3400002      -2.89403679E-09
  -12.3299999      -3.30956040E-09
  -12.3199997      -3.60747987E-09
  -12.3100004      -3.77228826E-09
  -12.3000002      -3.79711551E-09
  -12.2900000      -3.68401754E-09
  -12.2799997      -3.44344686E-09
  -12.2700005      -3.09297521E-09
  -12.2600002      -2.65542210E-09
  -12.2500000      -2.15657003E-09
  -12.2399998      -1.62275982E-09
  -12.2299995      -1.07855114E-09
  -12.2200003      -5.44640000E-10
  -12.2100000      -3.61996266E-11
  -12.1999998       4.38318271E-10
  -12.1899996       8.77857065E-10
  -12.1800003       1.28890743E-09
  -12.1700001       1.68510905E-09
  -12.1599998       2.08634598E-09
  -12.1499996       2.51724241E-09
  -12.1400003       3.00516390E-09
  -12.1300001       3.57769059E-09
  -12.1199999       4.25972679E-09
  -12.1099997       5.07039211E-09
  -12.1000004       6.01999206E-09
  -12.0900002       7.10738757E-09
  -12.0799999       8.31806801E-09
  -12.0699997       9.62326219E-09
  -12.0600004       1.09802389E-08
  -12.0500002       1.23339614E-08
  -12.0400000       1.36198555E-08
  -12.0299997       1.47676689E-08
  -12.0200005       1.57059041E-08
  -12.0100002       1.63664673E-08
  -12.0000000       1.66891905E-08
  -11.9899998       1.66257621E-08
  -11.9799995       1.61427920E-08
  -11.9700003       1.52239181E-08
  -11.9600000       1.38708449E-08
  -11.9499998       1.21032837E-08
  -11.9399996       9.95789495E-09
  -11.9300003       7.48644968E-09
  -11.9200001       4.75311790E-09
  -11.9099998       1.83115556E-09
  -11.8999996      -1.20083588E-09
  -11.8900003      -4.26309432E-09
  -11.8800001      -7.27895788E-09
  -11.8699999      -1.01789910E-08
  -11.8599997      -1.29046391E-08
  -11.8500004      -1.54112243E-08
  -11.8400002      -1.76699402E-08
  -11.8299999      -1.96687093E-08
  -11.8199997      -2.14117648E-08
  -11.8100004      -2.29179946E-08
  -11.8000002      -2.42183873E-08
  -11.7900000      -2.53525858E-08
  -11.7799997      -2.63649440E-08
  -11.7700005      -2.73005121E-08
  -11.7600002      -2.82011179E-08
  -11.7500000      -2.91017557E-08
  -11.7399998      -3.00274401E-08
  -11.7299995      -3.09907513E-08
  -11.7200003      -3.19900018E-08
  -11.7100000      -3.30081420E-08
  -11.6999998      -3.40125581E-08
  -11.6899996      -3.49557432E-08
  -11.6800003      -3.57768570E-08
  -11.6700001      -3.64043089E-08
  -11.6599998      -3.67593174E-08
  -11.6499996      -3.67601416E-08
  -11.6400003      -3.63267638E-08
  -11.6300001      -3.53857246E-08
  -11.6199999      -3.38749793E-08
  -11.6099997      -3.17477955E-08
  -11.6000004      -2.89759328E-08
  -11.5900002      -2.55519836E-08
  -11.5799999      -2.14899938E-08
  -11.5699997      -1.68258456E-08
  -11.5600004      -1.16154109E-08
  -11.5500002      -5.93311800E-09
  -11.5400000       1.31047936E-10
  -11.5299997       6.47502496E-09
  -11.5200005       1.29883055E-08
  -11.5100002       1.95562908E-08
  -11.5000000       2.60653614E-08
  -11.4899998       3.24074101E-08
  -11.4799995       3.84849272E-08
  -11.4700003       4.42154686E-08
  -11.4600000       4.95356716E-08
  -11.4499998       5.44040724E-08
  -11.4399996       5.88023461E-08
  -11.4300003       6.27354382E-08
  -11.4200001       6.62295321E-08
  -11.4099998       6.93287490E-08
  -11.3999996       7.20909270E-08
  -11.3900003       7.45823598E-08
  -11.3800001       7.68727162E-08
  -11.3699999       7.90299168E-08
  -11.3599997       8.11159424E-08
  -11.3500004       8.31830818E-08
  -11.3400002       8.52714166E-08
  -11.3299999       8.74065691E-08
  -11.3199997       8.95986574E-08
  -11.3100004       9.18413363E-08
  -11.3000002       9.41113569E-08
  -11.2900000       9.63687512E-08
  -11.2799997       9.85578765E-08
  -11.2700005       1.00608489E-07
  -11.2600002       1.02438740E-07
  -11.2500000       1.03958222E-07
  -11.2399998       1.05072900E-07
  -11.2299995       1.05690091E-07
  -11.2200003       1.05723217E-07
  -11.2100000       1.05098010E-07
  -11.1999998       1.03756292E-07
  -11.1899996       1.01659552E-07
  -11.1800003       9.87914959E-08
  -11.1700001       9.51586756E-08
  -11.1599998       9.07903086E-08
  -11.1499996       8.57363460E-08
  -11.1400003       8.00660729E-08
  -11.1300001       7.38639372E-08
  -11.1199999       6.72264875E-08
  -11.1099997       6.02584009E-08
  -11.1000004       5.30688098E-08
  -11.0900002       4.57653115E-08
  -11.0799999       3.84490022E-08
  -11.0699997       3.12107566E-08
  -11.0600004       2.41246347E-08
  -11.0500002       1.72457764E-08
  -11.0400000       1.06050262E-08
  -11.0299997       4.20984225E-09
  -11.0200005      -1.95605354E-09
  -11.0100002      -7.93204968E-09
  -11.0000000      -1.37743701E-08
  -10.9899998      -1.95535677E-08
  -10.9799995      -2.53486441E-08
  -10.9700003      -3.12413242E-08
  -10.9600000      -3.73112137E-08
  -10.9499998      -4.36326886E-08
  -10.9399996      -5.02722592E-08
  -10.9300003      -5.72857459E-08
  -10.9200001      -6.47179377E-08
  -10.9099998      -7.26015372E-08
  -10.8999996      -8.09582303E-08
  -10.8900003      -8.97970480E-08
  -10.8800001      -9.91147573E-08
  -10.8699999      -1.08897979E-07
  -10.8599997      -1.19120728E-07
  -10.8500004      -1.29748059E-07
  -10.8400002      -1.40738067E-07
  -10.8299999      -1.52043327E-07
  -10.8199997      -1.63614942E-07
  -10.8100004      -1.75405575E-07
  -10.8000002      -1.87372905E-07
  -10.7900000      -1.99480468E-07
  -10.7799997      -2.11700538E-07
  -10.7700005      -2.24012510E-07
  -10.7600002      -2.36402144E-07
  -10.7500000      -2.48861170E-07
  -10.7399998      -2.61384741E-07
  -10.7299995      -2.73971068E-07
  -10.7200003      -2.86620207E-07
  -10.7100000      -2.99334687E-07
  -10.6999998      -3.12118686E-07
  -10.6899996      -3.24980959E-07
  -10.6800003      -3.37934011E-07
  -10.6700001      -3.50993815E-07
  -10.6599998      -3.64180579E-07
  -10.6499996      -3.77516415E-07
  -10.6400003      -3.91023974E-07
  -10.6300001      -4.04723778E-07
  -10.6199999      -4.18632311E-07
  -10.6099997      -4.32760800E-07
  -10.6000004      -4.47115383E-07
  -10.5900002      -4.61697084E-07
  -10.5799999      -4.76503175E-07
  -10.5699997      -4.91530102E-07
  -10.5600004      -5.06774768E-07
  -10.5500002      -5.22236689E-07
  -10.5400000      -5.37918595E-07
  -10.5299997      -5.53826055E-07
  -10.5200005      -5.69967540E-07
  -10.5100002      -5.86352144E-07
  -10.5000000      -6.02987143E-07
  -10.4899998      -6.19876914E-07
  -10.4799995      -6.37020150E-07
  -10.4700003      -6.54408154E-07
  -10.4600000      -6.72024157E-07
  -10.4499998      -6.89841784E-07
  -10.4399996      -7.07823688E-07
  -10.4300003      -7.25920927E-07
  -10.4200001      -7.44071713E-07
  -10.4099998      -7.62200898E-07
  -10.3999996      -7.80220034E-07
  -10.3900003      -7.98027543E-07
  -10.3800001      -8.15512180E-07
  -10.3699999      -8.32554520E-07
  -10.3599997      -8.49032403E-07
  -10.3500004      -8.64827371E-07
  -10.3400002      -8.79830168E-07
  -10.3299999      -8.93945980E-07
  -10.3199997      -9.07101139E-07
  -10.3100004      -9.19246361E-07
  -10.3000002      -9.30358851E-07
  -10.2900000      -9.40444181E-07
  -10.2799997      -9.49533558E-07
  -10.2700005      -9.57684051E-07
  -10.2600002      -9.64975470E-07
  -10.2500000      -9.71507802E-07
  -10.2399998      -9.77399736E-07
  -10.2299995      -9.82785537E-07
  -10.2200003      -9.87812427E-07
  -10.2100000      -9.92639229E-07
  -10.1999998      -9.97432039E-07
  -10.1899996      -1.00235945E-06
  -10.1800003      -1.00758939E-06
  -10.1700001      -1.01328180E-06
  -10.1599998      -1.01958449E-06
  -10.1499996      -1.02662568E-06
  -10.1400003      -1.03450975E-06
  -10.1300001      -1.04331696E-06
  -10.1199999      -1.05309732E-06
  -10.1099997      -1.06387779E-06
  -10.1000004      -1.07565893E-06
  -10.0900002      -1.08841948E-06
  -10.0799999      -1.10211954E-06
  -10.0699997      -1.11670477E-06
  -10.0600004      -1.13210331E-06
  -10.0500002      -1.14823524E-06
  -10.0400000      -1.16500496E-06
  -10.0299997      -1.18231208E-06
  -10.0200005      -1.20004029E-06
  -10.0100002      -1.21807170E-06
  -10.0000000      -1.23628411E-06
  -9.98999977      -1.25455256E-06
  -9.97999954      -1.27275689E-06
  -9.97000027      -1.29078524E-06
  -9.96000004      -1.30854130E-06
  -9.94999981      -1.32594721E-06
  -9.93999958      -1.34294669E-06
  -9.93000031      -1.35951154E-06
  -9.92000008      -1.37563950E-06
  -9.90999985      -1.39136228E-06
  -9.89999962      -1.40673558E-06
  -9.89000034      -1.42184433E-06
  -9.88000011      -1.43680325E-06
  -9.86999989      -1.45175045E-06
  -9.85999966      -1.46683328E-06
  -9.85000038      -1.48222637E-06
  -9.84000015      -1.49810865E-06
  -9.82999992      -1.51467123E-06
  -9.81999969      -1.53210124E-06
  -9.81000042      -1.55059013E-06
  -9.80000019      -1.57032173E-06
  -9.78999996      -1.59146953E-06
  -9.77999973      -1.61418927E-06
  -9.77000046      -1.63862308E-06
  -9.76000023      -1.66489144E-06
  -9.75000000      -1.69309180E-06
  -9.73999977      -1.72329476E-06
  -9.72999954      -1.75554248E-06
  -9.72000027      -1.78985465E-06
  -9.71000004      -1.82622102E-06
  -9.69999981      -1.86460443E-06
  -9.68999958      -1.90494347E-06
  -9.68000031      -1.94714494E-06
  -9.67000008      -1.99109741E-06
  -9.65999985      -2.03665036E-06
  -9.64999962      -2.08363690E-06
  -9.64000034      -2.13186013E-06
  -9.63000011      -2.18109471E-06
  -9.61999989      -2.23109441E-06
  -9.60999966      -2.28157910E-06
  -9.60000038      -2.33225546E-06
  -9.59000015      -2.38281041E-06
  -9.57999992      -2.43291743E-06
  -9.56999969      -2.48224001E-06
  -9.56000042      -2.53043299E-06
  -9.55000019      -2.57716374E-06
  -9.53999996      -2.62209937E-06
  -9.52999973      -2.66493953E-06
  -9.52000046      -2.70539385E-06
  -9.51000023      -2.74321292E-06
  -9.50000000      -2.77817844E-06
  -9.48999977      -2.81011899E-06
  -9.47999954      -2.83891541E-06
  -9.47000027      -2.86449404E-06
  -9.46000004      -2.88684396E-06
  -9.44999981      -2.90601042E-06
  -9.43999958      -2.92210120E-06
  -9.43000031      -2.93528774E-06
  -9.42000008      -2.94579945E-06
  -9.40999985      -2.95391419E-06
  -9.39999962      -2.95999484E-06
  -9.39000034      -2.96442181E-06
  -9.38000011      -2.96763028E-06
  -9.36999989      -2.97008819E-06
  -9.35999966      -2.97230827E-06
  -9.35000038      -2.97480597E-06
  -9.34000015      -2.97812903E-06
  -9.32999992      -2.98283112E-06
  -9.31999969      -2.98948657E-06
  -9.31000042      -2.99866269E-06
  -9.30000019      -3.01094110E-06
  -9.28999996      -3.02689659E-06
  -9.27999973      -3.04707714E-06
  -9.27000046      -3.07200844E-06
  -9.26000023      -3.10219002E-06
  -9.25000000      -3.13808073E-06
  -9.23999977      -3.18010052E-06
  -9.22999954      -3.22862343E-06
  -9.22000027      -3.28394981E-06
  -9.21000004      -3.34633478E-06
  -9.19999981      -3.41595478E-06
  -9.18999958      -3.49294305E-06
  -9.18000031      -3.57734370E-06
  -9.17000008      -3.66915356E-06
  -9.15999985      -3.76826551E-06
  -9.14999962      -3.87451564E-06
  -9.14000034      -3.98767270E-06
  -9.13000011      -4.10742359E-06
  -9.11999989      -4.23340043E-06
  -9.10999966      -4.36516939E-06
  -9.10000038      -4.50223797E-06
  -9.09000015      -4.64407367E-06
  -9.07999992      -4.79009941E-06
  -9.06999969      -4.93968764E-06
  -9.06000042      -5.09217989E-06
  -9.05000019      -5.24689221E-06
  -9.03999996      -5.40312840E-06
  -9.02999973      -5.56015584E-06
  -9.02000046      -5.71725604E-06
  -9.01000023      -5.87368640E-06
  -9.00000000      -6.02870159E-06
  -8.98999977      -6.18155354E-06
  -8.97999954      -6.33150285E-06
  -8.97000027      -6.47778961E-06
  -8.96000004      -6.61968215E-06
  -8.94999981      -6.75645379E-06
  -8.93999958      -6.88739692E-06
  -8.93000031      -7.01182989E-06
  -8.92000008      -7.12913834E-06
  -8.90999985      -7.23869425E-06
  -8.89999962      -7.33996558E-06
  -8.89000034      -7.43246210E-06
  -8.88000011      -7.51575635E-06
  -8.86999989      -7.58949182E-06
  -8.85999966      -7.65339610E-06
  -8.85000038      -7.70723909E-06
  -8.84000015      -7.75089029E-06
  -8.82999992      -7.78432241E-06
  -8.81999969      -7.80753999E-06
  -8.81000042      -7.82065763E-06
  -8.80000019      -7.82386633E-06
  -8.78999996      -7.81740982E-06
  -8.77999973      -7.80159280E-06
  -8.77000046      -7.77680452E-06
  -8.76000023      -7.74345881E-06
  -8.75000000      -7.70201132E-06
  -8.73999977      -7.65299592E-06
  -8.72999954      -7.59695104E-06
  -8.72000027      -7.53448967E-06
  -8.71000004      -7.46619162E-06
  -8.69999981      -7.39268808E-06
  -8.68999958      -7.31462842E-06
  -8.68000031      -7.23266066E-06
  -8.67000008      -7.14741600E-06
  -8.65999985      -7.05951015E-06
  -8.64999962      -6.96955703E-06
  -8.64000034      -6.87814781E-06
  -8.63000011      -6.78581728E-06
  -8.61999989      -6.69310475E-06
  -8.60999966      -6.60052592E-06
  -8.60000038      -6.50850234E-06
  -8.59000015      -6.41746237E-06
  -8.57999992      -6.32780302E-06
  -8.56999969      -6.23984761E-06
  -8.56000042      -6.15387989E-06
  -8.55000019      -6.07017273E-06
  -8.53999996      -5.98895440E-06
  -8.52999973      -5.91039998E-06
  -8.52000046      -5.83469591E-06
  -8.51000023      -5.76189450E-06
  -8.50000000      -5.69213216E-06
  -8.48999977      -5.62543073E-06
  -8.47999954      -5.56179566E-06
  -8.47000027      -5.50121285E-06
  -8.46000004      -5.44360000E-06
  -8.44999981      -5.38889572E-06
  -8.43999958      -5.33698221E-06
  -8.43000031      -5.28776854E-06
  -8.42000008      -5.24114876E-06
  -8.40999985      -5.19703372E-06
  -8.39999962      -5.15533475E-06
  -8.39000034      -5.11597500E-06
  -8.38000011      -5.07890354E-06
  -8.36999989      -5.04411491E-06
  -8.35999966      -5.01153636E-06
  -8.35000038      -4.98117834E-06
  -8.34000015      -4.95310860E-06
  -8.32999992      -4.92735217E-06
  -8.31999969      -4.90402954E-06
  -8.31000042      -4.88323394E-06
  -8.30000019      -4.86517592E-06
  -8.28999996      -4.85005421E-06
  -8.27999973      -4.83811345E-06
  -8.27000046      -4.82958421E-06
  -8.26000023      -4.82479209E-06
  -8.25000000      -4.82400401E-06
  -8.23999977      -4.82758287E-06
  -8.22999954      -4.83590338E-06
  -8.22000027      -4.84934435E-06
  -8.21000004      -4.86833187E-06
  -8.19999981      -4.89328568E-06
  -8.18999958      -4.92463096E-06
  -8.18000031      -4.96286157E-06
  -8.17000008      -5.00839496E-06
  -8.15999985      -5.06164588E-06
  -8.14999962      -5.12304814E-06
  -8.14000034      -5.19301511E-06
  -8.13000011      -5.27192515E-06
  -8.11999989      -5.36012658E-06
  -8.10999966      -5.45795729E-06
  -8.10000038      -5.56572604E-06
  -8.09000015      -5.68365385E-06
  -8.07999992      -5.81195172E-06
  -8.06999969      -5.95073107E-06
  -8.06000042      -6.10012194E-06
  -8.05000019      -6.26015890E-06
  -8.03999996      -6.43083740E-06
  -8.02999973      -6.61209060E-06
  -8.02000046      -6.80385347E-06
  -8.01000023      -7.00589271E-06
  -8.00000000      -7.21805554E-06
  -7.98999977      -7.44002864E-06
  -7.98000002      -7.67146412E-06
  -7.96999979      -7.91195271E-06
  -7.96000004      -8.16098964E-06
  -7.94999981      -8.41808378E-06
  -7.94000006      -8.68263123E-06
  -7.92999983      -8.95400444E-06
  -7.92000008      -9.23160223E-06
  -7.90999985      -9.51479433E-06
  -7.90000010      -9.80287768E-06
  -7.88999987      -1.00952138E-05
  -7.88000011      -1.03911034E-05
  -7.86999989      -1.06898560E-05
  -7.86000013      -1.09907660E-05
  -7.84999990      -1.12931739E-05
  -7.84000015      -1.15963849E-05
  -7.82999992      -1.18997350E-05
  -7.82000017      -1.22026568E-05
  -7.80999994      -1.25045681E-05
  -7.80000019      -1.28049614E-05
  -7.78999996      -1.31033503E-05
  -7.78000021      -1.33993308E-05
  -7.76999998      -1.36924909E-05
  -7.76000023      -1.39825279E-05
  -7.75000000      -1.42691561E-05
  -7.73999977      -1.45521381E-05
  -7.73000002      -1.48312602E-05
  -7.71999979      -1.51063878E-05
  -7.71000004      -1.53773908E-05
  -7.69999981      -1.56442638E-05
  -7.69000006      -1.59069477E-05
  -7.67999983      -1.61654116E-05
  -7.67000008      -1.64197190E-05
  -7.65999985      -1.66699210E-05
  -7.65000010      -1.69160467E-05
  -7.63999987      -1.71581487E-05
  -7.63000011      -1.73964781E-05
  -7.61999989      -1.76310987E-05
  -7.61000013      -1.78623304E-05
  -7.59999990      -1.80903571E-05
  -7.59000015      -1.83155644E-05
  -7.57999992      -1.85381432E-05
  -7.57000017      -1.87585501E-05
  -7.55999994      -1.89771126E-05
  -7.55000019      -1.91941836E-05
  -7.53999996      -1.94101995E-05
  -7.53000021      -1.96255551E-05
  -7.51999998      -1.98406269E-05
  -7.51000023      -2.00559134E-05
  -7.50000000      -2.02718038E-05
  -7.48999977      -2.04888293E-05
  -7.48000002      -2.07073444E-05
  -7.46999979      -2.09278223E-05
  -7.46000004      -2.11506322E-05
  -7.44999981      -2.13761705E-05
  -7.44000006      -2.16048775E-05