  -16.0000000       0.00000000    
  -15.9899998       0.00000000    
  -15.9799995       0.00000000    
  -15.9700003       0.00000000    
  -15.9600000       0.00000000    
  -15.9499998       0.00000000    
  -15.9399996       0.00000000    
  -15.9300003       0.00000000    
  -15.9200001       0.00000000    
  -15.9099998       0.00000000    
  -15.8999996       0.00000000    
  -15.8900003       0.00000000    
  -15.8800001      -0.00000000    
  -15.8699999      -2.24207754E-44
  -15.8599997      -7.65108962E-43
  -15.8500004      -1.29774251E-41
  -15.8400002      -1.47296087E-40
  -15.8299999      -1.24347582E-39
  -15.8199997      -8.29853575E-39
  -15.8100004      -4.55265616E-38
  -15.8000002      -2.10845174E-37
  -15.7900000      -8.39729876E-37
  -15.7799997      -2.91298642E-36
  -15.7700005      -8.87369522E-36
  -15.7600002      -2.38300284E-35
  -15.7500000      -5.63671524E-35
  -15.7399998      -1.16581099E-34
  -15.7299995      -2.07015552E-34
  -15.7200003      -3.02708071E-34
  -15.7100000      -3.25802264E-34
  -15.6999998      -1.46431044E-34
  -15.6899996       3.13273400E-34
  -15.6800003       7.52976452E-34
  -15.6700001      -1.45281436E-34
  -15.6599998      -5.54767800E-33
  -15.6499996      -2.08618509E-32
  -15.6400003      -5.23091930E-32
  -15.6300001      -1.01710436E-31
  -15.6199999      -1.56064237E-31
  -15.6099997      -1.73482442E-31
  -15.6000004      -7.32774379E-32
  -15.5900002       2.53811988E-31
  -15.5799999       8.94229774E-31
  -15.5699997       1.80537501E-30
  -15.5600004       2.67058681E-30
  -15.5500002       2.78578055E-30
  -15.5400000       1.11019912E-30
  -15.5299997      -3.36048595E-30
  -15.5200005      -1.08141997E-29
  -15.5100002      -1.95729883E-29
  -15.5000000      -2.52603106E-29
  -15.4899998      -2.10035224E-29
  -15.4799995       4.60524597E-31
  -15.4700003       4.24312790E-29
  -15.4600000       9.85019458E-29
  -15.4499998       1.47894231E-28
  -15.4399996       1.55592666E-28
  -15.4300003       8.09244406E-29
  -15.4200001      -1.03878631E-28
  -15.4099998      -3.87640659E-28
  -15.3999996      -6.94248008E-28
  -15.3900003      -8.69050561E-28
  -15.3800001      -6.94066441E-28
  -15.3699999       4.86836722E-29
  -15.3599997       1.44776478E-27
  -15.3500004       3.26488459E-27
  -15.3400002       4.71634012E-27
  -15.3299999       4.37607760E-27
  -15.3199997       4.65295526E-28
  -15.3100004      -8.15237902E-27
  -15.3000002      -2.01449946E-26
  -15.2900000      -2.95648797E-26
  -15.2799997      -2.49682411E-26
  -15.2700005       7.55313748E-27
  -15.2600002       7.48692971E-26
  -15.2500000       1.61020427E-25
  -15.2399998       2.11613244E-25
  -15.2299995       1.33325024E-25
  -15.2200003      -1.71272044E-25
  -15.2100000      -7.20195198E-25
  -15.1999998      -1.33421790E-24
  -15.1899996      -1.54793442E-24
  -15.1800003      -6.64234244E-25
  -15.1700001       1.92214815E-24
  -15.1599998       6.09160600E-24
  -15.1499996       1.02349015E-23
  -15.1400003       1.08491244E-23
  -15.1300001       3.24086523E-24
  -15.1199999      -1.59994828E-23
  -15.1099997      -4.48008371E-23
  -15.1000004      -7.11733785E-23
  -15.0900002      -7.17737017E-23
  -15.0799999      -1.77644802E-23
  -15.0699997       1.08943824E-22
  -15.0600004       2.90755323E-22
  -15.0500002       4.50677270E-22
  -15.0400000       4.48649405E-22
  -15.0299997       1.20332464E-22
  -15.0200005      -6.28525848E-22
  -15.0100002      -1.68651343E-21
  -15.0000000      -2.61685009E-21
  -14.9899998      -2.65221226E-21
  -14.9799995      -9.13067951E-22
  -14.9700003       3.09707569E-21
  -14.9600000       8.80706388E-21
  -14.9499998       1.39959040E-20
  -14.9399996       1.47892123E-20
  -14.9300003       6.73613724E-21
  -14.9200001      -1.28129873E-20
  -14.9099998      -4.14652458E-20
  -14.8999996      -6.90301350E-20
  -14.8900003      -7.73917936E-20
  -14.8800001      -4.52218962E-20
  -14.8699999       4.15062494E-20
  -14.8599997       1.75063044E-19
  -14.8500004       3.13279613E-19
  -14.8400002       3.77659416E-19
  -14.8299999       2.71674858E-19
  -14.8199997      -7.63207175E-20
  -14.8100004      -6.52360798E-19
  -14.8000002      -1.30049553E-18
  -14.7900000      -1.70650690E-18
  -14.7799997      -1.46000077E-18
  -14.7700005      -2.15641294E-19
  -14.7600002       2.06713738E-18
  -14.7500000       4.88486796E-18
  -14.7399998       7.08394830E-18
  -14.7299995       7.03691481E-18
  -14.7200003       3.19589915E-18
  -14.7100000      -5.02353817E-18
  -14.6999998      -1.62833663E-17
  -14.6899996      -2.67493584E-17
  -14.6800003      -3.04542292E-17
  -14.6700001      -2.10067860E-17
  -14.6599998       5.38908128E-18
  -14.6499996       4.63411196E-17
  -14.6400003       9.05826695E-17
  -14.6300001       1.18111492E-16
  -14.6199999       1.04793308E-16
  -14.6099997       3.18033277E-17
  -14.6000004      -1.01911510E-16
  -14.5900002      -2.68513812E-16
  -14.5799999      -4.07711448E-16
  -14.5699997      -4.36804727E-16
  -14.5600004      -2.77224857E-16
  -14.5500002       1.05876577E-16
  -14.5400000       6.62529372E-16
  -14.5299997       1.23387226E-15
  -14.5200005       1.56559482E-15
  -14.5100002       1.37277931E-15
  -14.5000000       4.53521557E-16
  -14.4899998      -1.17508161E-15
  -14.4799995      -3.16877440E-15
  -14.4700003      -4.83890060E-15
  -14.4600000      -5.27993541E-15
  -14.4499998      -3.65767123E-15
  -14.4399996       3.89571575E-16
  -14.4300003       6.35733633E-15
  -14.4200001       1.26642115E-14
  -14.4099998       1.68026553E-14
  -14.3999996       1.59580872E-14
  -14.3900003       8.05132430E-15
  -14.3800001      -7.04138066E-15
  -14.3699999      -2.65230461E-14
  -14.3599997      -4.44842358E-14
  -14.3500004      -5.29104077E-14
  -14.3400002      -4.40025485E-14
  -14.3299999      -1.34338545E-14
  -14.3199997       3.63788555E-14
  -14.3100004       9.43047452E-14
  -14.3000002       1.41168219E-13
  -14.2900000       1.53888756E-13
  -14.2799997       1.12877257E-13
  -14.2700005       1.11007835E-14
  -14.2600002      -1.38057954E-13
  -14.2500000      -2.97673263E-13
  -14.2399998      -4.11934999E-13
  -14.2299995      -4.19810860E-13
  -14.2200003      -2.75942111E-13
  -14.2100000       2.64058981E-14
  -14.1999998       4.38190201E-13
  -14.1899996       8.51750148E-13
  -14.1800003       1.11849603E-12
  -14.1700001       1.08792836E-12
  -14.1599998       6.61215765E-13
  -14.1499996      -1.55077882E-13
  -14.1400003      -1.21444022E-12
  -14.1300001      -2.23386457E-12
  -14.1199999      -2.84668990E-12
  -14.1099997      -2.70229520E-12
  -14.1000004      -1.59273712E-12
  -14.0900002       4.29303403E-13
  -14.0799999       2.98484978E-12
  -14.0699997       5.39394701E-12
  -14.0600004       6.81088302E-12
  -14.0500002       6.45617891E-12
  -14.0400000       3.89545557E-12
  -14.0299997      -7.14797308E-13
  -14.0200005      -6.50582322E-12
  -14.0100002      -1.19745299E-11
  -14.0000000      -1.52899117E-11
  -13.9899998      -1.47895828E-11
  -13.9799995      -9.55573034E-12
  -13.9700003       9.45734783E-14
  -13.9600000       1.23837329E-11
  -13.9499998       2.42510387E-11
  -13.9399996       3.19764493E-11
  -13.9300003       3.21626267E-11
  -13.9200001       2.28534362E-11
  -13.9099998       4.47329977E-12
  -13.8999996      -1.97432903E-11
  -13.8900003      -4.40775888E-11
  -13.8800001      -6.14734236E-11
  -13.8699999      -6.53327115E-11
  -13.8599997      -5.15540631E-11
  -13.8500004      -2.02533008E-11
  -13.8400002       2.34104732E-11
  -13.8299999       6.97215549E-11
  -13.8199997       1.06312639E-10
  -13.8100004       1.21190905E-10
  -13.8000002       1.06203345E-10
  -13.7900000       6.00111003E-11
  -13.7799997      -1.03706254E-11
  -13.7700005      -9.01468067E-11
  -13.7600002      -1.59602789E-10
  -13.7500000      -1.98784947E-10
  -13.7399998      -1.92937652E-10
  -13.7299995      -1.37259301E-10
  -13.7200003      -3.95325890E-11
  -13.7100000       8.03982436E-11
  -13.6999998       1.94557134E-10
  -13.6899996       2.73474438E-10
  -13.6800003       2.93965824E-10
  -13.6700001       2.45967857E-10
  -13.6599998       1.36379033E-10
  -13.6499996      -1.14940522E-11
  -13.6400003      -1.63148245E-10
  -13.6300001      -2.81661694E-10
  -13.6199999      -3.37770867E-10
  -13.6099997      -3.18358534E-10
  -13.6000004      -2.30660588E-10
  -13.5900002      -1.00551074E-10
  -13.5799999       3.50455324E-11
  -13.5699997       1.39691148E-10
  -13.5600004       1.89505217E-10
  -13.5500002       1.81778440E-10
  -13.5400000       1.36785513E-10
  -13.5299997       9.12987255E-11
  -13.5200005       8.49220486E-11
  -13.5100002       1.43023163E-10
  -13.5000000       2.61873467E-10
  -13.4899998       4.01873507E-10
  -13.4799995       4.93084906E-10
  -13.4700003       4.53910909E-10
  -13.4600000       2.19450999E-10
  -13.4499998      -2.27973321E-10
  -13.4399996      -8.36011538E-10
  -13.4300003      -1.47676438E-09
  -13.4200001      -1.96466665E-09
  -13.4099998      -2.09780926E-09
  -13.3999996      -1.71540671E-09
  -13.3900003      -7.57563900E-10
  -13.3800001       6.90113577E-10
  -13.3699999       2.38362730E-09
  -13.3599997       3.94995059E-09
  -13.3500004       4.95899988E-09
  -13.3400002       5.02642949E-09
  -13.3299999       3.92461574E-09
  -13.3199997       1.67293601E-09
  -13.3100004      -1.42068979E-09
  -13.3000002      -4.78623274E-09
  -13.2900000      -7.68977237E-09
  -13.2799997      -9.38861344E-09
  -13.2700005      -9.31115984E-09
  -13.2600002      -7.21864346E-09
  -13.2500000      -3.30511352E-09
  -13.2399998       1.79697457E-09
  -13.2299995       7.11739334E-09
  -13.2200003       1.15406662E-08
  -13.2100000       1.40510998E-08
  -13.1999998       1.39739731E-08
  -13.1899996       1.11527907E-08
  -13.1800003       6.01434191E-09
  -13.1700001      -5.01350739E-10
  -13.1599998      -7.13589454E-09
  -13.1499996      -1.25892026E-08
  -13.1400003      -1.58117714E-08
  -13.1300001      -1.62394169E-08
  -13.1199999      -1.39096992E-08
  -13.1099997      -9.42874578E-09
  -13.1000004      -3.79659326E-09
  -13.0900002       1.86193094E-09
  -13.0799999       6.58618449E-09
  -13.0699997       9.80643833E-09
  -13.0600004       1.14420686E-08
  -13.0500002       1.18411156E-08
  -13.0400000       1.15784973E-08
  -13.0299997       1.11756258E-08
  -13.0200005       1.08339897E-08
  -13.0100002       1.02791562E-08
  -13.0000000       8.78576856E-09
  -12.9899998       5.40336131E-09
  -12.9799995      -6.60668520E-10
  -12.9700003      -9.60308366E-09
  -12.9600000      -2.06695177E-08
  -12.9499998      -3.20187219E-08
  -12.9399996      -4.09013481E-08
  -12.9300003      -4.41719088E-08
  -12.9200001      -3.90587758E-08
  -12.9099998      -2.40299958E-08
  -12.8999996       4.63040412E-10
  -12.8900003       3.15863744E-08
  -12.8800001       6.42374403E-08
  -12.8699999       9.17352736E-08
  -12.8599997       1.07014685E-07
  -12.8500004       1.04119081E-07
  -12.8400002       7.96880926E-08
  -12.8299999       3.41033193E-08
  -12.8199997      -2.80014874E-08
  -12.8100004      -9.80421149E-08
  -12.8000002      -1.64608039E-07
  -12.7900000      -2.15241442E-07
  -12.7799997      -2.38556595E-07
  -12.7700005      -2.26302276E-07
  -12.7600002      -1.74978538E-07
  -12.7500000      -8.67093917E-08
  -12.7399998       3.07692005E-08
  -12.7299995       1.64967062E-07
  -12.7200003       3.00143739E-07
  -12.7100000       4.19159704E-07
  -12.6999998       5.05357661E-07
  -12.6899996       5.44218494E-07
  -12.6800003       5.24656855E-07
  -12.6700001       4.39951037E-07
  -12.6599998       2.88408984E-07
  -12.6499996       7.39070884E-08
  -12.6400003      -1.93602574E-07
  -12.6300001      -4.97632186E-07
  -12.6199999      -8.14903501E-07
  -12.6099997      -1.11558029E-06
  -12.6000004      -1.36432334E-06
  -12.5900002      -1.52245082E-06
  -12.5799999      -1.55132489E-06
  -12.5699997      -1.41683347E-06
  -12.5600004      -1.09455277E-06
  -12.5500002      -5.74933949E-07
  -12.5400000       1.32280888E-07
  -12.5299997       9.95205824E-07
  -12.5200005       1.95912912E-06
  -12.5100002       2.94831375E-06
  -12.5000000       3.87020737E-06
  -12.4899998       4.62162188E-06
  -12.4799995       5.09616484E-06
  -12.4700003       5.19205605E-06
  -12.4600000       4.81950838E-06
  -12.4499998       3.90702371E-06
  -12.4399996       2.40620352E-06
  -12.4300003       2.94999012E-07
  -12.4200001      -2.42048054E-06
  -12.4099998      -5.70533302E-06
  -12.3999996      -9.49613786E-06
  -12.3900003      -1.37019861E-05
  -12.3800001      -1.82062431E-05
  -12.3699999      -2.28692079E-05
  -12.3599997      -2.75318544E-05
  -12.3500004      -3.20208492E-05
  -12.3400002      -3.61548628E-05
  -12.3299999      -3.97519507E-05
  -12.3199997      -4.26376173E-05
  -12.3100004      -4.46528829E-05
  -12.3000002      -4.56615890E-05
  -12.2900000      -4.55564295E-05
  -12.2799997      -4.42631681E-05
  -12.2700005      -4.17428637E-05
  -12.2600002      -3.79924277E-05
  -12.2500000      -3.30437761E-05
  -12.2399998      -2.69622997E-05
  -12.2299995      -1.98449852E-05
  -12.2200003      -1.18186754E-05
  -12.2100000      -3.03832689E-06
  -12.1999998       6.31498233E-06
  -12.1899996       1.60369455E-05
  -12.1800003       2.59044118E-05
  -12.1700001       3.56819073E-05
  -12.1599998       4.51304222E-05
  -12.1499996       5.40182009E-05
  -12.1400003       6.21327854E-05
  -12.1300001       6.92929461E-05
  -12.1199999       7.53591667E-05
  -12.1099997       8.02409122E-05
  -12.1000004       8.39000350E-05
  -12.0900002       8.63489622E-05
  -12.0799999       8.76446138E-05
  -12.0699997       8.78784340E-05
  -12.0600004       8.71638331E-05
  -12.0500002       8.56232000E-05
  -12.0400000       8.33758168E-05
  -12.0299997       8.05280142E-05
  -12.0200005       7.71666018E-05
  -12.0100002       7.33556444E-05
  -12.0000000       6.91360183E-05
  -11.9899998       6.45273030E-05
  -11.9799995       5.95307356E-05
  -11.9700003       5.41329646E-05
  -11.9600000       4.83096264E-05
  -11.9499998       4.20291472E-05
  -11.9399996       3.52568350E-05
  -11.9300003       2.79596425E-05
  -11.9200001       2.01119346E-05
  -11.9099998       1.17021764E-05
  -11.8999996       2.73994669E-06
  -11.8900003      -6.73752857E-06
  -11.8800001      -1.66607224E-05
  -11.8699999      -2.69260800E-05
  -11.8599997      -3.73980511E-05
  -11.8500004      -4.79152623E-05
  -11.8400002      -5.83000619E-05
  -11.8299999      -6.83703183E-05
  -11.8199997      -7.79516267E-05
  -11.8100004      -8.68881179E-05
  -11.8000002      -9.50500107E-05
  -11.7900000      -1.02337304E-04
  -11.7799997      -1.08678971E-04
  -11.7700005      -1.14028815E-04
  -11.7600002      -1.18359079E-04
  -11.7500000      -1.21653487E-04
  -11.7399998      -1.23901482E-04
  -11.7299995      -1.25094564E-04
  -11.7200003      -1.25225284E-04
  -11.7100000      -1.24288723E-04
  -11.6999998      -1.22285361E-04
  -11.6899996      -1.19224707E-04
  -11.6800003      -1.15128110E-04
  -11.6700001      -1.10030735E-04
  -11.6599998      -1.03981773E-04
  -11.6499996      -9.70436377E-05
  -11.6400003      -8.92902099E-05
  -11.6300001      -8.08046825E-05
  -11.6199999      -7.16773066E-05
  -11.6099997      -6.20028222E-05
  -11.6000004      -5.18776287E-05
  -11.5900002      -4.13962334E-05
  -11.5799999      -3.06470538E-05
  -11.5699997      -1.97078061E-05
  -11.5600004      -8.64155481E-06
  -11.5500002       2.50570497E-06
  -11.5400000       1.37045236E-05
  -11.5299997       2.49379955E-05
  -11.5200005       3.61940656E-05
  -11.5100002       4.74552180E-05
  -11.5000000       5.86874667E-05
  -11.4899998       6.98309814E-05
  -11.4799995       8.07948600E-05
  -11.4700003       9.14576958E-05
  -11.4600000       1.01674661E-04
  -11.4499998       1.11290079E-04
  -11.4399996       1.20153156E-04
  -11.4300003       1.28133979E-04
  -11.4200001       1.35136230E-04
  -11.4099998       1.41104611E-04
  -11.3999996       1.46024759E-04
  -11.3900003       1.49917585E-04
  -11.3800001       1.52828303E-04
  -11.3699999       1.54814421E-04
  -11.3599997       1.55935122E-04
  -11.3500004       1.56244365E-04
  -11.3400002       1.55789559E-04
  -11.3299999       1.54614245E-04
  -11.3199997       1.52764405E-04
  -11.3100004       1.50294756E-04
  -11.3000002       1.47272804E-04
  -11.2900000       1.43779092E-04
  -11.2799997       1.39902564E-04
  -11.2700005       1.35732233E-04
  -11.2600002       1.31346955E-04
  -11.2500000       1.26806292E-04
  -11.2399998       1.22144396E-04
  -11.2299995       1.17369382E-04
  -11.2200003       1.12468304E-04
  -11.2100000       1.07416767E-04
  -11.1999998       1.02191363E-04
  -11.1899996       9.67824599E-05
  -11.1800003       9.12040414E-05
  -11.1700001       8.54992250E-05
  -11.1599998       7.97398898E-05
  -11.1499996       7.40206597E-05
  -11.1400003       6.84485130E-05
  -11.1300001       6.31302319E-05
  -11.1199999       5.81597124E-05
  -11.1099997       5.36081097E-05
  -11.1000004       4.95181121E-05
  -11.0900002       4.59039547E-05
  -11.0799999       4.27563755E-05
  -11.0699997       4.00523168E-05
  -11.0600004       3.77667893E-05
  -11.0500002       3.58848192E-05
  -11.0400000       3.44106156E-05
  -11.0299997       3.33720127E-05
  -11.0200005       3.28186579E-05
  -11.0100002       3.28138558E-05
  -11.0000000       3.34213582E-05
  -10.9899998       3.46892011E-05
  -10.9799995       3.66338063E-05
  -10.9700003       3.92274560E-05
  -10.9600000       4.23916317E-05
  -10.9499998       4.59978291E-05
  -10.9399996       4.98754416E-05
  -10.9300003       5.38256318E-05
  -10.9200001       5.76381462E-05
  -10.9099998       6.11083233E-05
  -10.8999996       6.40517319E-05
  -10.8900003       6.63141982E-05
  -10.8800001       6.77771604E-05
  -10.8699999       6.83586914E-05
  -10.8599997       6.80117155E-05
  -10.8500004       6.67211134E-05
  -10.8400002       6.45010441E-05
  -10.8299999       6.13930679E-05
  -10.8199997       5.74648839E-05
  -10.8100004       5.28087185E-05
  -10.8000002       4.75386914E-05
  -10.7900000       4.17859592E-05
  -10.7799997       3.56921300E-05
  -10.7700005       2.94010606E-05
  -10.7600002       2.30505229E-05
  -10.7500000       1.67647631E-05
  -10.7399998       1.06488778E-05
  -10.7299995       4.78515813E-06
  -10.7200003      -7.68591065E-07
  -10.7100000      -5.97972075E-06
  -10.6999998      -1.08405147E-05
  -10.6899996      -1.53671444E-05
  -10.6800003      -1.95970442E-05
  -10.6700001      -2.35835450E-05
  -10.6599998      -2.73866281E-05
  -10.6499996      -3.10594951E-05
  -10.6400003      -3.46320121E-05
  -10.6300001      -3.80936472E-05
  -10.6199999      -4.13796442E-05
  -10.6099997      -4.43645549E-05
  -10.6000004      -4.68663347E-05
  -10.5900002      -4.86625286E-05
  -10.5799999      -4.95168606E-05
  -10.5699997      -4.92119798E-05
  -10.5600004      -4.75825909E-05
  -10.5500002      -4.45419209E-05
  -10.5400000      -4.00960489E-05
  -10.5299997      -3.43429238E-05
  -10.5200005      -2.74565355E-05
  -10.5100002      -1.96593646E-05
  -10.5000000      -1.11894606E-05
  -10.4899998      -2.26886550E-06
  -10.4799995       6.92057756E-06
  -10.4700003       1.62499327E-05
  -10.4600000       2.56429139E-05
  -10.4499998       3.50652626E-05
  -10.4399996       4.45060468E-05
  -10.4300003       5.39572611E-05
  -10.4200001       6.33951277E-05
  -10.4099998       7.27673978E-05
  -10.3999996       8.19878478E-05
  -10.3900003       9.09388691E-05
  -10.3800001       9.94801303E-05
  -10.3699999       1.07461965E-04
  -10.3599997       1.14740025E-04
  -10.3500004       1.21189383E-04
  -10.3400002       1.26715488E-04
  -10.3299999       1.31260676E-04
  -10.3199997       1.34805785E-04
  -10.3100004       1.37366718E-04
  -10.3000002       1.38987147E-04
  -10.2900000       1.39730226E-04
  -10.2799997       1.39670126E-04
  -10.2700005       1.38886826E-04
  -10.2600002       1.37463983E-04
  -10.2500000       1.35491078E-04
  -10.2399998       1.33067035E-04
  -10.2299995       1.30304325E-04
  -10.2200003       1.27329098E-04
  -10.2100000       1.24277518E-04
  -10.1999998       1.21285171E-04
  -10.1899996       1.18473370E-04
  -10.1800003       1.15933159E-04
  -10.1700001       1.13712391E-04
  -10.1599998       1.11808877E-04
  -10.1499996       1.10171699E-04
  -10.1400003       1.08711632E-04
  -10.1300001       1.07317916E-04
  -10.1199999       1.05878331E-04
  -10.1099997       1.04298306E-04
  -10.1000004       1.02515623E-04
  -10.0900002       1.00507910E-04
  -10.0799999       9.82939673E-05
  -10.0699997       9.59284662E-05
  -10.0600004       9.34941272E-05
  -10.0500002       9.10916860E-05
  -10.0400000       8.88301511E-05
  -10.0299997       8.68174393E-05
  -10.0200005       8.51519362E-05
  -10.0100002       8.39136774E-05
  -10.0000000       8.31567086E-05
  -9.98999977       8.29033306E-05
  -9.97999954       8.31414509E-05
  -9.97000027       8.38275373E-05
  -9.96000004       8.48946220E-05
  -9.94999981       8.62653033E-05
  -9.93999958       8.78668216E-05
  -9.93000031       8.96446436E-05
  -9.92000008       9.15712299E-05
  -9.90999985       9.36475335E-05
  -9.89999962       9.58973542E-05
  -9.89000034       9.83561840E-05
  -9.88000011       1.01058657E-04
  -9.86999989       1.04028783E-04
  -9.85999966       1.07275991E-04
  -9.85000038       1.10798392E-04
  -9.84000015       1.14590897E-04
  -9.82999992       1.18655473E-04
  -9.81999969       1.23009289E-04
  -9.81000042       1.27686639E-04
  -9.80000019       1.32734596E-04
  -9.78999996       1.38202726E-04
  -9.77999973       1.44130070E-04
  -9.77000046       1.50535008E-04
  -9.76000023       1.57409944E-04
  -9.75000000       1.64723402E-04
  -9.73999977       1.72427928E-04
  -9.72999954       1.80471252E-04
  -9.72000027       1.88805774E-04
  -9.71000004       1.97393398E-04
  -9.69999981       2.06203447E-04
  -9.68999958       2.15204695E-04
  -9.68000031       2.24354182E-04
  -9.67000008       2.33586630E-04
  -9.65999985       2.42807888E-04
  -9.64999962       2.51895544E-04
  -9.64000034       2.60705361E-04
  -9.63000011       2.69082026E-04
  -9.61999989       2.76870502E-04
  -9.60999966       2.83926347E-04
  -9.60000038       2.90120603E-04
  -9.59000015       2.95341539E-04
  -9.57999992       2.99493258E-04
  -9.56999969       3.02493689E-04
  -9.56000042       3.04273650E-04
  -9.55000019       3.04779649E-04
  -9.53999996       3.03977780E-04
  -9.52999973       3.01859254E-04
  -9.52000046       2.98443512E-04
  -9.51000023       2.93779565E-04
  -9.50000000       2.87942879E-04
  -9.48999977       2.81028741E-04
  -9.47999954       2.73145793E-04
  -9.47000027       2.64408038E-04
  -9.46000004       2.54930928E-04
  -9.44999981       2.44830444E-04
  -9.43999958       2.34224368E-04
  -9.43000031       2.23236915E-04
  -9.42000008       2.12001571E-04
  -9.40999985       2.00663606E-04
  -9.39999962       1.89380968E-04
  -9.39000034       1.78322662E-04
  -9.38000011       1.67665814E-04
  -9.36999989       1.57592658E-04
  -9.35999966       1.48288847E-04
  -9.35000038       1.39941723E-04
  -9.34000015       1.32738438E-04
  -9.32999992       1.26865474E-04
  -9.31999969       1.22504251E-04
  -9.31000042       1.19826233E-04
  -9.30000019       1.18986194E-04
  -9.28999996       1.20112978E-04
  -9.27999973       1.23301928E-04
  -9.27000046       1.28607760E-04
  -9.26000023       1.36041577E-04
  -9.25000000       1.45570142E-04
  -9.23999977       1.57119866E-04
  -9.22999954       1.70582920E-04
  -9.22000027       1.85824145E-04
  -9.21000004       2.02686715E-04
  -9.19999981       2.20995425E-04
  -9.18999958       2.40556241E-04
  -9.18000031       2.61153531E-04
  -9.17000008       2.82544555E-04
  -9.15999985       3.04457237E-04
  -9.14999962       3.26590787E-04
  -9.14000034       3.48624715E-04
  -9.13000011       3.70232272E-04
  -9.11999989       3.91102338E-04
  -9.10999966       4.10960696E-04
  -9.10000038       4.29588865E-04
  -9.09000015       4.46834398E-04
  -9.07999992       4.62609867E-04
  -9.06999969       4.76881774E-04
  -9.06000042       4.89649421E-04
  -9.05000019       5.00922615E-04
  -9.03999996       5.10702725E-04
  -9.02999973       5.18971530E-04
  -9.02000046       5.25692478E-04
  -9.01000023       5.30821155E-04
  -9.00000000       5.34318911E-04
  -8.98999977       5.36168867E-04
  -8.97999954       5.36383537E-04
  -8.97000027       5.35004947E-04
  -8.96000004       5.32098580E-04
  -8.94999981       5.27742843E-04
  -8.93999958       5.22022194E-04
  -8.93000031       5.15028485E-04
  -8.92000008       5.06867014E-04
  -8.90999985       4.97670262E-04
  -8.89999962       4.87607060E-04
  -8.89000034       4.76885441E-04
  -8.88000011       4.65742633E-04
  -8.86999989       4.54419584E-04
  -8.85999966       4.43131663E-04
  -8.85000038       4.32039000E-04
  -8.84000015       4.21228586E-04
  -8.82999992       4.10715875E-04
  -8.81999969       4.00464196E-04
  -8.81000042       3.90420406E-04
  -8.80000019       3.80553742E-04
  -8.78999996       3.70887079E-04
  -8.77999973       3.61511222E-04
  -8.77000046       3.52581614E-04
  -8.76000023       3.44298809E-04
  -8.75000000       3.36882542E-04
  -8.73999977       3.30552983E-04
  -8.72999954       3.25521687E-04
  -8.72000027       3.21998406E-04
  -8.71000004       3.20203573E-04
  -8.69999981       3.20379826E-04
  -8.68999958       3.22788866E-04
  -8.68000031       3.27690039E-04
  -8.67000008       3.35299876E-04
  -8.65999985       3.45747161E-04
  -8.64999962       3.59029946E-04
  -8.64000034       3.74998141E-04
  -8.63000011       3.93362512E-04
  -8.61999989       4.13732341E-04
  -8.60999966       4.35669004E-04
  -8.60000038       4.58738621E-04
  -8.59000015       4.82548174E-04
  -8.57999992       5.06754150E-04
  -8.56999969       5.31045604E-04
  -8.56000042       5.55109989E-04
  -8.55000019       5.78602427E-04
  -8.53999996       6.01132982E-04
  -8.52999973       6.22284308E-04
  -8.52000046       6.41652325E-04
  -8.51000023       6.58902747E-04
  -8.50000000       6.73823175E-04
  -8.48999977       6.86349289E-04
  -8.47999954       6.96558913E-04
  -8.47000027       7.04631442E-04
  -8.46000004       7.10792723E-04
  -8.44999981       7.15258822E-04
  -8.43999958       7.18204945E-04
  -8.43000031       7.19766016E-04
  -8.42000008       7.20069918E-04
  -8.40999985       7.19285803E-04
  -8.39999962       7.17670773E-04
  -8.39000034       7.15588627E-04
  -8.38000011       7.13493850E-04
  -8.36999989       7.11881148E-04
  -8.35999966       7.11214147E-04
  -8.35000038       7.11859611E-04
  -8.34000015       7.14045018E-04
  -8.32999992       7.17855524E-04
  -8.31999969       7.23264471E-04
  -8.31000042       7.30190892E-04
  -8.30000019       7.38553121E-04
  -8.28999996       7.48309132E-04
  -8.27999973       7.59458228E-04
  -8.27000046       7.72017753E-04
  -8.26000023       7.85978278E-04
  -8.25000000       8.01262155E-04
  -8.23999977       8.17705819E-04
  -8.22999954       8.35070619E-04
  -8.22000027       8.53086472E-04
  -8.21000004       8.71509896E-04
  -8.19999981       8.90177209E-04
  -8.18999958       9.09027818E-04
  -8.18000031       9.28102643E-04
  -8.17000008       9.47497843E-04
  -8.15999985       9.67306783E-04
  -8.14999962       9.87560488E-04
  -8.14000034       1.00819208E-03
  -8.13000011       1.02903519E-03
  -8.11999989       1.04985596E-03
  -8.10999966       1.07040606E-03
  -8.10000038       1.09048001E-03
  -8.09000015       1.10995234E-03
  -8.07999992       1.12878997E-03
  -8.06999969       1.14703132E-03
  -8.06000042       1.16474566E-03
  -8.05000019       1.18198397E-03
  -8.03999996       1.19874103E-03
  -8.02999973       1.21494476E-03
  -8.02000046       1.23045908E-03
  -8.01000023       1.24511425E-03
  -8.00000000       1.25874183E-03
  -7.98999977       1.27119722E-03
  -7.98000002       1.28237251E-03
  -7.96999979       1.29218772E-03
  -7.96000004       1.30057218E-03
  -7.94999981       1.30744325E-03
  -7.94000006       1.31268927E-03
  -7.92999983       1.31617358E-03
  -7.92000008       1.31775299E-03
  -7.90999985       1.31730956E-03
  -7.90000010       1.31478102E-03
  -7.88999987       1.31019158E-03
  -7.88000011       1.30366208E-03
  -7.86999989       1.29540788E-03
  -7.86000013       1.28571154E-03
  -7.84999990       1.27489364E-03
  -7.84000015       1.26327504E-03
  -7.82999992       1.25115097E-03
  -7.82000017       1.23877218E-03
  -7.80999994       1.22634240E-03
  -7.80000019       1.21402636E-03
  -7.78999996       1.20196713E-03
  -7.78000021       1.19030231E-03
  -7.76999998       1.17918185E-03
  -7.76000023       1.16877281E-03
  -7.75000000       1.15925935E-03
  -7.73999977       1.15083263E-03
  -7.73000002       1.14367739E-03
  -7.71999979       1.13795861E-03
  -7.71000004       1.13381248E-03
  -7.69999981       1.13134168E-03
  -7.69000006       1.13062281E-03
  -7.67999983       1.13171211E-03
  -7.67000008       1.13465707E-03
  -7.65999985       1.13950041E-03
  -7.65000010       1.14627753E-03
  -7.63999987       1.15500577E-03
  -7.63000011       1.16567477E-03
  -7.61999989       1.17822993E-03
  -7.61000013       1.19256997E-03
  -7.59999990       1.20855402E-03
  -7.59000015       1.22601818E-03
  -7.57999992       1.24480680E-03
  -7.57000017       1.26479240E-03
  -7.55999994       1.28590129E-03
  -7.55000019       1.30811136E-03
  -7.53999996       1.33144774E-03
  -7.53000021       1.35595165E-03
  -7.51999998       1.38165499E-03
  -7.51000023       1.40855869E-03
  -7.50000000       1.43662526E-03
  -7.48999977       1.46579195E-03
  -7.48000002       1.49599230E-03
  -7.46999979       1.52718904E-03
  -7.46000004       1.55939325E-03
  -7.44999981       1.59266521E-03
  -7.44000006       1.62709563E-03