  -16.0000000       0.00000000    
  -15.9899998       0.00000000    
  -15.9799995       0.00000000    
  -15.9700003       0.00000000    
  -15.9600000       0.00000000    
  -15.9499998       0.00000000    
  -15.9399996       0.00000000    
  -15.9300003       0.00000000    
  -15.9200001       0.00000000    
  -15.9099998       1.87601322E-34
  -15.8999996      -2.23895422E-34
  -15.8900003      -3.41203869E-32
  -15.8800001      -4.11646649E-31
  -15.8699999      -2.91836578E-30
  -15.8599997      -1.51070080E-29
  -15.8500004      -6.24045237E-29
  -15.8400002      -2.15977154E-28
  -15.8299999      -6.45645480E-28
  -15.8199997      -1.70112076E-27
  -15.8100004      -4.00244527E-27
  -15.8000002      -8.46978152E-27
  -15.7900000      -1.61328634E-26
  -15.7799997      -2.74372417E-26
  -15.7700005      -4.06672526E-26
  -15.7600002      -4.92036798E-26
  -15.7500000      -3.79352085E-26
  -15.7399998       1.94147143E-26
  -15.7299995       1.58009973E-25
  -15.7200003       4.08534842E-25
  -15.7100000       7.67218408E-25
  -15.6999998       1.15079542E-24
  -15.6899996       1.35409158E-24
  -15.6800003       1.05035429E-24
  -15.6700001      -1.09679757E-25
  -15.6599998      -2.25793606E-24
  -15.6499996      -4.95458291E-24
  -15.6400003      -6.87207421E-24
  -15.6300001      -5.81346745E-24
  -15.6199999       5.83750858E-25
  -15.6099997       1.32775277E-23
  -15.6000004       2.96931568E-23
  -15.5900002       4.20798097E-23
  -15.5799999       3.80342691E-23
  -15.5699997       4.84243411E-24
  -15.5600004      -6.19958843E-23
  -15.5500002      -1.48374677E-22
  -15.5400000      -2.14946699E-22
  -15.5299997      -2.01953756E-22
  -15.5200005      -5.16352440E-23
  -15.5100002       2.52713017E-22
  -15.5000000       6.43771184E-22
  -15.4899998       9.48215352E-22
  -15.4799995       9.15302005E-22
  -15.4700003       3.14464923E-22
  -15.4600000      -9.10218257E-22
  -15.4499998      -2.48440163E-21
  -15.4399996      -3.74005998E-21
  -15.4300003      -3.74229393E-21
  -15.4200001      -1.65264699E-21
  -15.4099998       2.73547195E-21
  -15.3999996       8.49210112E-21
  -15.3900003       1.33798766E-20
  -15.3800001       1.43025926E-20
  -15.3699999       8.46913798E-21
  -15.3599997      -4.97534841E-21
  -15.3500004      -2.34838418E-20
  -15.3400002      -4.06695788E-20
  -15.3299999      -4.76289466E-20
  -15.3199997      -3.61705176E-20
  -15.3100004      -3.15697399E-21
  -15.3000002       4.57746015E-20
  -15.2900000       9.52784047E-20
  -15.2799997       1.23788755E-19
  -15.2700005       1.11448474E-19
  -15.2600002       5.01964764E-20
  -15.2500000      -4.82981551E-20
  -15.2399998      -1.51739343E-19
  -15.2299995      -2.16446981E-19
  -15.2200003      -2.05704128E-19
  -15.2100000      -1.10953949E-19
  -15.1999998       3.43883990E-20
  -15.1899996       1.58871359E-19
  -15.1800003       1.79738696E-19
  -15.1700001       4.73603908E-20
  -15.1599998      -2.09320704E-19
  -15.1499996      -4.60669498E-19
  -15.1400003      -5.00127460E-19
  -15.1300001      -1.22574143E-19
  -15.1199999       7.58101415E-19
  -15.1099997       1.99354002E-18
  -15.1000004       3.14561588E-18
  -15.0900002       3.54524606E-18
  -15.0799999       2.48895462E-18
  -15.0699997      -4.55175829E-19
  -15.0600004      -5.11876817E-18
  -15.0500002      -1.05108906E-17
  -15.0400000      -1.48343444E-17
  -15.0299997      -1.58269082E-17
  -15.0200005      -1.14183118E-17
  -15.0100002      -5.76812273E-19
  -15.0000000       1.58880832E-17
  -14.9899998       3.48564249E-17
  -14.9799995       5.10289507E-17
  -14.9700003       5.78153919E-17
  -14.9600000       4.89534056E-17
  -14.9499998       2.06116402E-17
  -14.9399996      -2.64849203E-17
  -14.9300003      -8.55180544E-17
  -14.9200001      -1.43282452E-16
  -14.9099998      -1.81681288E-16
  -14.8999996      -1.81258089E-16
  -14.8900003      -1.26531013E-16
  -14.8800001      -1.22589763E-17
  -14.8699999       1.50884044E-16
  -14.8599997       3.33243620E-16
  -14.8500004       4.87797222E-16
  -14.8400002       5.57884698E-16
  -14.8299999       4.91083392E-16
  -14.8199997       2.57160738E-16
  -14.8100004      -1.34215573E-16
  -14.8000002      -6.21997893E-16
  -14.7900000      -1.09470993E-15
  -14.7799997      -1.40805167E-15
  -14.7700005      -1.41911508E-15
  -14.7600002      -1.03141624E-15
  -14.7500000      -2.39226933E-16
  -14.7399998       8.43809140E-16
  -14.7299995       1.98590093E-15
  -14.7200003       2.87637015E-15
  -14.7100000       3.20022579E-15
  -14.6999998       2.73277499E-15
  -14.6899996       1.42820078E-15
  -14.6800003      -5.28134519E-16
  -14.6700001      -2.72829228E-15
  -14.6599998      -4.62083154E-15
  -14.6499996      -5.64795132E-15
  -14.6400003      -5.40662316E-15
  -14.6300001      -3.78622076E-15
  -14.6199999      -1.03521138E-15
  -14.6099997       2.27272873E-15
  -14.6000004       5.37277954E-15
  -14.5900002       7.50878953E-15
  -14.5799999       8.13871099E-15
  -14.5699997       7.07922439E-15
  -14.5600004       4.54058957E-15
  -14.5500002       1.04168631E-15
  -14.5400000      -2.76095577E-15
  -14.5299997      -6.25944050E-15
  -14.5200005      -9.01814634E-15
  -14.5100002      -1.07826481E-14
  -14.5000000      -1.13751400E-14
  -14.4899998      -1.05415478E-14
  -14.4799995      -7.85756466E-15
  -14.4700003      -2.80101238E-15
  -14.4600000       4.95997252E-15
  -14.4499998       1.51140036E-14
  -14.4399996       2.62538133E-14
  -14.4300003       3.56623334E-14
  -14.4200001       3.95707908E-14
  -14.4099998       3.40070718E-14
  -14.3999996       1.61519612E-14
  -14.3900003      -1.41204678E-14
  -14.3800001      -5.30279420E-14
  -14.3699999      -9.25510889E-14
  -14.3599997      -1.21413472E-13
  -14.3500004      -1.27450622E-13
  -14.3400002      -1.01005806E-13
  -14.3299999      -3.85437125E-14
  -14.3199997       5.45881394E-14
  -14.3100004       1.63298723E-13
  -14.3000002       2.64463120E-13
  -14.2900000       3.31216798E-13
  -14.2799997       3.39081980E-13
  -14.2700005       2.72516845E-13
  -14.2600002       1.30167890E-13
  -14.2500000      -7.27212819E-14
  -14.2399998      -3.05634993E-13
  -14.2299995      -5.27766307E-13
  -14.2200003      -6.95561176E-13
  -14.2100000      -7.71026255E-13
  -14.1999998      -7.28796418E-13
  -14.1899996      -5.60402744E-13
  -14.1800003      -2.75085429E-13
  -14.1700001       1.02385128E-13
  -14.1599998       5.35566437E-13
  -14.1499996       9.80193682E-13
  -14.1400003       1.38678012E-12
  -14.1300001       1.70167428E-12
  -14.1199999       1.86755537E-12
  -14.1099997       1.82529122E-12
  -14.1000004       1.51932189E-12
  -14.0900002       9.07900437E-13
  -14.0799999      -2.21350936E-14
  -14.0699997      -1.23867713E-12
  -14.0600004      -2.65017804E-12
  -14.0500002      -4.09943390E-12
  -14.0400000      -5.37007981E-12
  -14.0299997      -6.20822057E-12
  -14.0200005      -6.35816009E-12
  -14.0100002      -5.60733621E-12
  -14.0000000      -3.83248815E-12
  -13.9899998      -1.03789893E-12
  -13.9799995       2.62252481E-12
  -13.9700003       6.84458783E-12
  -13.9600000       1.11951368E-11
  -13.9499998       1.51518069E-11
  -13.9399996       1.81542698E-11
  -13.9300003       1.96587434E-11
  -13.9200001       1.91895597E-11
  -13.9099998       1.63837294E-11
  -13.8999996       1.10290639E-11
  -13.8900003       3.09883152E-12
  -13.8800001      -7.21252919E-12
  -13.8699999      -1.94499139E-11
  -13.8599997      -3.28549722E-11
  -13.8500004      -4.63252284E-11
  -13.8400002      -5.83829513E-11
  -13.8299999      -6.71649888E-11
  -13.8199997      -7.04408615E-11
  -13.8100004      -6.56654869E-11
  -13.8000002      -5.00636893E-11
  -13.7900000      -2.07426142E-11
  -13.7799997       2.51779500E-11
  -13.7700005       9.04314956E-11
  -13.7600002       1.77463419E-10
  -13.7500000       2.88302049E-10
  -13.7399998       4.24425356E-10
  -13.7299995       5.86623639E-10
  -13.7200003       7.74872388E-10
  -13.7100000       9.88185200E-10
  -13.6999998       1.22449040E-09
  -13.6899996       1.48053769E-09
  -13.6800003       1.75183312E-09
  -13.6700001       2.03264428E-09
  -13.6599998       2.31612107E-09
  -13.6499996       2.59442778E-09
  -13.6400003       2.85901147E-09
  -13.6300001       3.10088266E-09
  -13.6199999       3.31089933E-09
  -13.6099997       3.48007290E-09
  -13.6000004       3.59981978E-09
  -13.5900002       3.66215192E-09
  -13.5799999       3.65983954E-09
  -13.5699997       3.58658725E-09
  -13.5600004       3.43709150E-09
  -13.5500002       3.20720206E-09
  -13.5400000       2.89401814E-09
  -13.5299997       2.49595367E-09
  -13.5200005       2.01287342E-09
  -13.5100002       1.44607748E-09
  -13.5000000       7.98317579E-10
  -13.4899998       7.35971492E-11
  -13.4799995      -7.22888083E-10
  -13.4700003      -1.58497504E-09
  -13.4600000      -2.50570786E-09
  -13.4499998      -3.47744677E-09
  -13.4399996      -4.49201032E-09
  -13.4300003      -5.54063151E-09
  -13.4200001      -6.61403199E-09
  -13.4099998      -7.70234454E-09
  -13.3999996      -8.79505446E-09
  -13.3900003      -9.88102755E-09
  -13.3800001      -1.09486029E-08
  -13.3699999      -1.19855788E-08
  -13.3599997      -1.29793873E-08
  -13.3500004      -1.39171910E-08
  -13.3400002      -1.47860346E-08
  -13.3299999      -1.55729047E-08
  -13.3199997      -1.62648650E-08
  -13.3100004      -1.68491798E-08
  -13.3000002      -1.73134804E-08
  -13.2900000      -1.76457373E-08
  -13.2799997      -1.78346475E-08
  -13.2700005      -1.78696737E-08
  -13.2600002      -1.77411863E-08
  -13.2500000      -1.74405912E-08
  -13.2399998      -1.69605467E-08
  -13.2299995      -1.62946883E-08
  -13.2200003      -1.54379762E-08
  -13.2100000      -1.43865639E-08
  -13.1999998      -1.31379876E-08
  -13.1899996      -1.16912791E-08
  -13.1800003      -1.00470769E-08
  -13.1700001      -8.20811863E-09
  -13.1599998      -6.17923090E-09
  -13.1499996      -3.96733846E-09
  -13.1400003      -1.58171554E-09
  -13.1300001       9.66393077E-10
  -13.1199999       3.66371000E-09
  -13.1099997       6.49560850E-09
  -13.1000004       9.44613365E-09
  -13.0900002       1.24984663E-08
  -13.0799999       1.56348676E-08
  -13.0699997       1.88368485E-08
  -13.0600004       2.20852687E-08
  -13.0500002       2.53599186E-08
  -13.0400000       2.86394872E-08
  -13.0299997       3.19013118E-08
  -13.0200005       3.51214489E-08
  -13.0100002       3.82744538E-08
  -13.0000000       4.13334895E-08
  -12.9899998       4.42704717E-08
  -12.9799995       4.70563393E-08
  -12.9700003       4.96613026E-08
  -12.9600000       5.20551957E-08
  -12.9499998       5.42078489E-08
  -12.9399996       5.60894158E-08
  -12.9300003       5.76708103E-08
  -12.9200001       5.89240017E-08
  -12.9099998       5.98220922E-08
  -12.8999996       6.03396515E-08
  -12.8900003       6.04529546E-08
  -12.8800001       6.01402519E-08
  -12.8699999       5.93815130E-08
  -12.8599997       5.81600261E-08
  -12.8500004       5.64613423E-08
  -12.8400002       5.42748353E-08
  -12.8299999       5.15932896E-08
  -12.8199997       4.84131846E-08
  -12.8100004       4.47347155E-08
  -12.8000002       4.05605007E-08
  -12.7900000       3.58951020E-08
  -12.7799997       3.07433581E-08
  -12.7700005       2.51090242E-08
  -12.7600002       1.89933882E-08
  -12.7500000       1.23951622E-08
  -12.7399998       5.30825650E-09
  -12.7299995      -2.27654318E-09
  -12.7200003      -1.03715063E-08
  -12.7100000      -1.89900859E-08
  -12.6999998      -2.81454700E-08
  -12.6899996      -3.78491549E-08
  -12.6800003      -4.81074913E-08
  -12.6700001      -5.89227902E-08
  -12.6599998      -7.02898504E-08
  -12.6499996      -8.21967063E-08
  -12.6400003      -9.46244043E-08
  -12.6300001      -1.07546853E-07
  -12.6199999      -1.20932256E-07
  -12.6099997      -1.34743274E-07
  -12.6000004      -1.48938938E-07
  -12.5900002      -1.63476145E-07
  -12.5799999      -1.78310955E-07
  -12.5699997      -1.93400197E-07
  -12.5600004      -2.08703483E-07
  -12.5500002      -2.24184348E-07
  -12.5400000      -2.39811072E-07
  -12.5299997      -2.55558405E-07
  -12.5200005      -2.71405810E-07
  -12.5100002      -2.87338224E-07
  -12.5000000      -3.03345189E-07
  -12.4899998      -3.19416642E-07
  -12.4799995      -3.35545593E-07
  -12.4700003      -3.51723997E-07
  -12.4600000      -3.67941027E-07
  -12.4499998      -3.84188098E-07
  -12.4399996      -4.00451199E-07
  -12.4300003      -4.16719814E-07
  -12.4200001      -4.32981096E-07
  -12.4099998      -4.49223421E-07
  -12.3999996      -4.65437978E-07
  -12.3900003      -4.81617519E-07
  -12.3800001      -4.97752296E-07
  -12.3699999      -5.13835744E-07
  -12.3599997      -5.29857800E-07
  -12.3500004      -5.45811815E-07
  -12.3400002      -5.61682157E-07
  -12.3299999      -5.77449725E-07
  -12.3199997      -5.93101049E-07
  -12.3100004      -6.08614414E-07
  -12.3000002      -6.23967765E-07
  -12.2900000      -6.39139273E-07
  -12.2799997      -6.54105691E-07
  -12.2700005      -6.68836890E-07
  -12.2600002      -6.83305245E-07
  -12.2500000      -6.97482506E-07
  -12.2399998      -7.11329051E-07
  -12.2299995      -7.24804693E-07
  -12.2200003      -7.37858784E-07
  -12.2100000      -7.50452273E-07
  -12.1999998      -7.62523200E-07
  -12.1899996      -7.74020521E-07
  -12.1800003      -7.84881763E-07
  -12.1700001      -7.95048209E-07
  -12.1599998      -8.04471881E-07
  -12.1499996      -8.13095710E-07
  -12.1400003      -8.20883201E-07
  -12.1300001      -8.27794850E-07
  -12.1199999      -8.33801039E-07
  -12.1099997      -8.38883864E-07
  -12.1000004      -8.43034286E-07
  -12.0900002      -8.46266630E-07
  -12.0799999      -8.48586296E-07
  -12.0699997      -8.50002209E-07
  -12.0600004      -8.50561662E-07
  -12.0500002      -8.50281765E-07
  -12.0400000      -8.49212370E-07
  -12.0299997      -8.47394915E-07
  -12.0200005      -8.44884653E-07
  -12.0100002      -8.41744452E-07
  -12.0000000      -8.38001768E-07
  -11.9899998      -8.33740444E-07
  -11.9799995      -8.28990380E-07
  -11.9700003      -8.23821381E-07
  -11.9600000      -8.18289038E-07
  -11.9499998      -8.12446217E-07
  -11.9399996      -8.06365563E-07
  -11.9300003      -8.00076634E-07
  -11.9200001      -7.93643835E-07
  -11.9099998      -7.87140323E-07
  -11.8999996      -7.80611799E-07
  -11.8900003      -7.74115961E-07
  -11.8800001      -7.67688903E-07
  -11.8699999      -7.61398439E-07
  -11.8599997      -7.55263272E-07
  -11.8500004      -7.49334220E-07
  -11.8400002      -7.43610940E-07
  -11.8299999      -7.38093263E-07
  -11.8199997      -7.32789886E-07
  -11.8100004      -7.27669715E-07
  -11.8000002      -7.22702396E-07
  -11.7900000      -7.17841544E-07
  -11.7799997      -7.13027760E-07
  -11.7700005      -7.08180210E-07
  -11.7600002      -7.03253988E-07
  -11.7500000      -6.98121767E-07
  -11.7399998      -6.92716128E-07
  -11.7299995      -6.86919634E-07
  -11.7200003      -6.80640426E-07
  -11.7100000      -6.73779766E-07
  -11.6999998      -6.66202141E-07
  -11.6899996      -6.57854855E-07
  -11.6800003      -6.48600974E-07
  -11.6700001      -6.38323968E-07
  -11.6599998      -6.26929193E-07
  -11.6499996      -6.14354065E-07
  -11.6400003      -6.00443627E-07
  -11.6300001      -5.85134046E-07
  -11.6199999      -5.68372968E-07
  -11.6099997      -5.50009247E-07
  -11.6000004      -5.30018042E-07
  -11.5900002      -5.08304254E-07
  -11.5799999      -4.84826671E-07
  -11.5699997      -4.59533879E-07
  -11.5600004      -4.32383445E-07
  -11.5500002      -4.03308377E-07
  -11.5400000      -3.72361200E-07
  -11.5299997      -3.39513122E-07
  -11.5200005      -3.04769998E-07
  -11.5100002      -2.68183328E-07
  -11.5000000      -2.29776944E-07
  -11.4899998      -1.89639636E-07
  -11.4799995      -1.47831202E-07
  -11.4700003      -1.04452610E-07
  -11.4600000      -5.96315743E-08
  -11.4499998      -1.34843647E-08
  -11.4399996       3.38449553E-08
  -11.4300003       8.22021207E-08
  -11.4200001       1.31405500E-07
  -11.4099998       1.81281422E-07
  -11.3999996       2.31647647E-07
  -11.3900003       2.82307525E-07
  -11.3800001       3.33027430E-07
  -11.3699999       3.83565038E-07
  -11.3599997       4.33745214E-07
  -11.3500004       4.83292183E-07
  -11.3400002       5.31961405E-07
  -11.3299999       5.79447885E-07
  -11.3199997       6.25561256E-07
  -11.3100004       6.69992630E-07
  -11.3000002       7.12477913E-07
  -11.2900000       7.52752953E-07
  -11.2799997       7.90589070E-07
  -11.2700005       8.25645600E-07
  -11.2600002       8.57738314E-07
  -11.2500000       8.86643136E-07
  -11.2399998       9.12107851E-07
  -11.2299995       9.33915942E-07
  -11.2200003       9.51839866E-07
  -11.2100000       9.65712161E-07
  -11.1999998       9.75343482E-07
  -11.1899996       9.80550681E-07
  -11.1800003       9.81202334E-07
  -11.1700001       9.77121999E-07
  -11.1599998       9.68176778E-07
  -11.1499996       9.54268103E-07
  -11.1400003       9.35268019E-07
  -11.1300001       9.11024756E-07
  -11.1199999       8.81488234E-07
  -11.1099997       8.46584896E-07
  -11.1000004       8.06198557E-07
  -11.0900002       7.60305340E-07
  -11.0799999       7.08805203E-07
  -11.0699997       6.51678761E-07
  -11.0600004       5.88969556E-07
  -11.0500002       5.20593119E-07
  -11.0400000       4.46573551E-07
  -11.0299997       3.66879220E-07
  -11.0200005       2.81590559E-07
  -11.0100002       1.90701925E-07
  -11.0000000       9.42881826E-08
  -10.9899998      -7.60091368E-09
  -10.9799995      -1.14832915E-07
  -10.9700003      -2.27429922E-07
  -10.9600000      -3.45193826E-07
  -10.9499998      -4.68064627E-07
  -10.9399996      -5.95914628E-07
  -10.9300003      -7.28639691E-07
  -10.9200001      -8.66102766E-07
  -10.9099998      -1.00815191E-06
  -10.8999996      -1.15472619E-06
  -10.8900003      -1.30563592E-06
  -10.8800001      -1.46077105E-06
  -10.8699999      -1.61999333E-06
  -10.8599997      -1.78316952E-06
  -10.8500004      -1.95016673E-06
  -10.8400002      -2.12099758E-06
  -10.8299999      -2.29534157E-06
  -10.8199997      -2.47313710E-06
  -10.8100004      -2.65429321E-06
  -10.8000002      -2.83861868E-06
  -10.7900000      -3.02605508E-06
  -10.7799997      -3.21637071E-06
  -10.7700005      -3.40938323E-06
  -10.7600002      -3.60505464E-06
  -10.7500000      -3.80319784E-06
  -10.7399998      -4.00359113E-06
  -10.7299995      -4.20608103E-06
  -10.7200003      -4.41051270E-06
  -10.7100000      -4.61663240E-06
  -10.6999998      -4.82445421E-06
  -10.6899996      -5.03367619E-06
  -10.6800003      -5.24416328E-06
  -10.6700001      -5.45563535E-06
  -10.6599998      -5.66809422E-06
  -10.6499996      -5.88127523E-06
  -10.6400003      -6.09500785E-06
  -10.6300001      -6.30914838E-06
  -10.6199999      -6.52354538E-06
  -10.6099997      -6.73791556E-06
  -10.6000004      -6.95219023E-06
  -10.5900002      -7.16626801E-06
  -10.5799999      -7.37980281E-06
  -10.5699997      -7.59268323E-06
  -10.5600004      -7.80464143E-06
  -10.5500002      -8.01555689E-06
  -10.5400000      -8.22518632E-06
  -10.5299997      -8.43341058E-06
  -10.5200005      -8.63993591E-06
  -10.5100002      -8.84469227E-06
  -10.5000000      -9.04742228E-06
  -10.4899998      -9.24790675E-06
  -10.4799995      -9.44602289E-06
  -10.4700003      -9.64151695E-06
  -10.4600000      -9.83424161E-06
  -10.4499998      -1.00241978E-05
  -10.4399996      -1.02108806E-05
  -10.4300003      -1.03945358E-05
  -10.4200001      -1.05748368E-05
  -10.4099998      -1.07516207E-05
  -10.3999996      -1.09248558E-05
  -10.3900003      -1.10943729E-05
  -10.3800001      -1.12601083E-05
  -10.3699999      -1.14219538E-05
  -10.3599997      -1.15798102E-05
  -10.3500004      -1.17336267E-05
  -10.3400002      -1.18834741E-05
  -10.3299999      -1.20291152E-05
  -10.3199997      -1.21705607E-05
  -10.3100004      -1.23078671E-05
  -10.3000002      -1.24409580E-05
  -10.2900000      -1.25699980E-05
  -10.2799997      -1.26949581E-05
  -10.2700005      -1.28156962E-05
  -10.2600002      -1.29324771E-05
  -10.2500000      -1.30452891E-05
  -10.2399998      -1.31541938E-05
  -10.2299995      -1.32593705E-05
  -10.2200003      -1.33609310E-05
  -10.2100000      -1.34588763E-05
  -10.1999998      -1.35532773E-05
  -10.1899996      -1.36443959E-05
  -10.1800003      -1.37324869E-05
  -10.1700001      -1.38173264E-05
  -10.1599998      -1.38993564E-05
  -10.1499996      -1.39784943E-05
  -10.1400003      -1.40552957E-05
  -10.1300001      -1.41295895E-05
  -10.1199999      -1.42015115E-05
  -10.1099997      -1.42713989E-05
  -10.1000004      -1.43394818E-05
  -10.0900002      -1.44057567E-05
  -10.0799999      -1.44707074E-05
  -10.0699997      -1.45343456E-05
  -10.0600004      -1.45966915E-05
  -10.0500002      -1.46581833E-05
  -10.0400000      -1.47188402E-05
  -10.0299997      -1.47789715E-05
  -10.0200005      -1.48387580E-05
  -10.0100002      -1.48986837E-05
  -10.0000000      -1.49585258E-05
  -9.98999977      -1.50186261E-05
  -9.97999954      -1.50790711E-05
  -9.97000027      -1.51404711E-05
  -9.96000004      -1.52021039E-05
  -9.94999981      -1.52648918E-05
  -9.93999958      -1.53288056E-05
  -9.93000031      -1.53939345E-05
  -9.92000008      -1.54603913E-05
  -9.90999985      -1.55284197E-05
  -9.89999962      -1.55978760E-05
  -9.89000034      -1.56685892E-05
  -9.88000011      -1.57416471E-05
  -9.86999989      -1.58162711E-05
  -9.85999966      -1.58927014E-05
  -9.85000038      -1.59711544E-05
  -9.84000015      -1.60516120E-05
  -9.82999992      -1.61344415E-05
  -9.81999969      -1.62189554E-05
  -9.81000042      -1.63061177E-05
  -9.80000019      -1.63953791E-05
  -9.78999996      -1.64868361E-05
  -9.77999973      -1.65807905E-05
  -9.77000046      -1.66767823E-05
  -9.76000023      -1.67758772E-05
  -9.75000000      -1.68768274E-05
  -9.73999977      -1.69802242E-05
  -9.72999954      -1.70862641E-05
  -9.72000027      -1.71950142E-05
  -9.71000004      -1.73060198E-05
  -9.69999981      -1.74196502E-05
  -9.68999958      -1.75356727E-05
  -9.68000031      -1.76546509E-05
  -9.67000008      -1.77756392E-05
  -9.65999985      -1.78995615E-05
  -9.64999962      -1.80258230E-05
  -9.64000034      -1.81550786E-05
  -9.63000011      -1.82868607E-05
  -9.61999989      -1.84214477E-05
  -9.60999966      -1.85583031E-05
  -9.60000038      -1.86981270E-05
  -9.59000015      -1.88402009E-05
  -9.57999992      -1.89849616E-05
  -9.56999969      -1.91326926E-05
  -9.56000042      -1.92827501E-05
  -9.55000019      -1.94362801E-05
  -9.53999996      -1.95917564E-05
  -9.52999973      -1.97501904E-05
  -9.52000046      -1.99114311E-05
  -9.51000023      -2.00748709E-05
  -9.50000000      -2.02415431E-05
  -9.48999977      -2.04106782E-05
  -9.47999954      -2.05830966E-05
  -9.47000027      -2.07584908E-05
  -9.46000004      -2.09367317E-05
  -9.44999981      -2.11175284E-05
  -9.43999958      -2.13018957E-05
  -9.43000031      -2.14890606E-05
  -9.42000008      -2.16798053E-05
  -9.40999985      -2.18730511E-05
  -9.39999962      -2.20705024E-05
  -9.39000034      -2.22712006E-05
  -9.38000011      -2.24756041E-05
  -9.36999989      -2.26837001E-05
  -9.35999966      -2.28953359E-05
  -9.35000038      -2.31106933E-05
  -9.34000015      -2.33298560E-05
  -9.32999992      -2.35527059E-05
  -9.31999969      -2.37799541E-05
  -9.31000042      -2.40108347E-05
  -9.30000019      -2.42456899E-05
  -9.28999996      -2.44844596E-05
  -9.27999973      -2.47276002E-05
  -9.27000046      -2.49749537E-05
  -9.26000023      -2.52263999E-05
  -9.25000000      -2.54825281E-05
  -9.23999977      -2.57433694E-05
  -9.22999954      -2.60081342E-05
  -9.22000027      -2.62782814E-05
  -9.21000004      -2.65523140E-05
  -9.19999981      -2.68320655E-05
  -9.18999958      -2.71158970E-05
  -9.18000031      -2.74052109E-05
  -9.17000008      -2.76994542E-05
  -9.15999985      -2.79987944E-05
  -9.14999962      -2.83037371E-05
  -9.14000034      -2.86142276E-05
  -9.13000011      -2.89293948E-05
  -9.11999989      -2.92501718E-05
  -9.10999966      -2.95772024E-05
  -9.10000038      -2.99093754E-05
  -9.09000015      -3.02476019E-05
  -9.07999992      -3.05922040E-05
  -9.06999969      -3.09430397E-05
  -9.06000042      -3.12997872E-05
  -9.05000019      -3.16631631E-05
  -9.03999996      -3.20329927E-05
  -9.02999973      -3.24096873E-05
  -9.02000046      -3.27924499E-05
  -9.01000023      -3.31825286E-05
  -9.00000000      -3.35789991E-05
  -8.98999977      -3.39827820E-05
  -8.97999954      -3.43932734E-05
  -8.97000027      -3.48106914E-05
  -8.96000004      -3.52355346E-05
  -8.94999981      -3.56679629E-05
  -8.93999958      -3.61075909E-05
  -8.93000031      -3.65551459E-05
  -8.92000008      -3.70083471E-05
  -8.90999985      -3.74702468E-05
  -8.89999962      -3.79387930E-05
  -8.89000034      -3.84163359E-05
  -8.88000011      -3.89004745E-05
  -8.86999989      -3.93935261E-05
  -8.85999966      -3.98937664E-05
  -8.85000038      -4.04018247E-05
  -8.84000015      -4.09184140E-05
  -8.82999992      -4.14421338E-05
  -8.81999969      -4.19738572E-05
  -8.81000042      -4.25139078E-05
  -8.80000019      -4.30621913E-05
  -8.78999996      -4.36174632E-05
  -8.77999973      -4.41812335E-05
  -8.77000046      -4.47534767E-05
  -8.76000023      -4.53331668E-05
  -8.75000000      -4.59203948E-05
  -8.73999977      -4.65161102E-05
  -8.72999954      -4.71187632E-05
  -8.72000027      -4.77303038E-05
  -8.71000004      -4.83501790E-05
  -8.69999981      -4.89768208E-05
  -8.68999958      -4.96121393E-05
  -8.68000031      -5.02538605E-05
  -8.67000008      -5.09025995E-05
  -8.65999985      -5.15586507E-05
  -8.64999962      -5.22231712E-05
  -8.64000034      -5.28949422E-05
  -8.63000011      -5.35727704E-05
  -8.61999989      -5.42597700E-05
  -8.60999966      -5.49519245E-05
  -8.60000038      -5.56508130E-05
  -8.59000015      -5.63579124E-05
  -8.57999992      -5.70716365E-05
  -8.56999969      -5.77918145E-05
  -8.56000042      -5.85185808E-05
  -8.55000019      -5.92507458E-05
  -8.53999996      -5.99909617E-05
  -8.52999973      -6.07362890E-05
  -8.52000046      -6.14882083E-05
  -8.51000023      -6.22463922E-05
  -8.50000000      -6.30114082E-05
  -8.48999977      -6.37815174E-05
  -8.47999954      -6.45568944E-05
  -8.47000027      -6.53389798E-05
  -8.46000004      -6.61262748E-05
  -8.44999981      -6.69204746E-05
  -8.43999958      -6.77210264E-05
  -8.43000031      -6.85255291E-05
  -8.42000008      -6.93381589E-05
  -8.40999985      -7.01548779E-05
  -8.39999962      -7.09768574E-05
  -8.39000034      -7.18060182E-05
  -8.38000011      -7.26408907E-05
  -8.36999989      -7.34809146E-05
  -8.35999966      -7.43278069E-05
  -8.35000038      -7.51800326E-05
  -8.34000015      -7.60382463E-05
  -8.32999992      -7.69037215E-05
  -8.31999969      -7.77740643E-05
  -8.31000042      -7.86510864E-05
  -8.30000019      -7.95337764E-05
  -8.28999996      -8.04244191E-05
  -8.27999973      -8.13207735E-05
  -8.27000046      -8.22248621E-05
  -8.26000023      -8.31325815E-05
  -8.25000000      -8.40495122E-05
  -8.23999977      -8.49736098E-05
  -8.22999954      -8.59027423E-05
  -8.22000027      -8.68403877E-05
  -8.21000004      -8.77873099E-05
  -8.19999981      -8.87395727E-05
  -8.18999958      -8.97017962E-05
  -8.18000031      -9.06696951E-05
  -8.17000008      -9.16480494E-05
  -8.15999985      -9.26319117E-05
  -8.14999962      -9.36255237E-05
  -8.14000034      -9.46282089E-05
  -8.13000011      -9.56404474E-05
  -8.11999989      -9.66623120E-05
  -8.10999966      -9.76933661E-05
  -8.10000038      -9.87322055E-05
  -8.09000015      -9.97826428E-05
  -8.07999992      -1.00842175E-04
  -8.06999969      -1.01914120E-04
  -8.06000042      -1.02992562E-04
  -8.05000019      -1.04084662E-04
  -8.03999996      -1.05189400E-04
  -8.02999973      -1.06302869E-04
  -8.02000046      -1.07427521E-04
  -8.01000023      -1.08564229E-04
  -8.00000000      -1.09715140E-04
  -7.98999977      -1.10874134E-04
  -7.98000002      -1.12048190E-04
  -7.96999979      -1.13234848E-04
  -7.96000004      -1.14435024E-04
  -7.94999981      -1.15648974E-04
  -7.94000006      -1.16875213E-04
  -7.92999983      -1.18114891E-04
  -7.92000008      -1.19369484E-04
  -7.90999985      -1.20636803E-04
  -7.90000010      -1.21921177E-04
  -7.88999987      -1.23219579E-04
  -7.88000011      -1.24531405E-04
  -7.86999989      -1.25859675E-04
  -7.86000013      -1.27201754E-04
  -7.84999990      -1.28560263E-04
  -7.84000015      -1.29933440E-04
  -7.82999992      -1.31323337E-04
  -7.82000017      -1.32730609E-04
  -7.80999994      -1.34152710E-04
  -7.80000019      -1.35588838E-04
  -7.78999996      -1.37043971E-04
  -7.78000021      -1.38517440E-04
  -7.76999998      -1.40002216E-04
  -7.76000023      -1.41507597E-04
  -7.75000000      -1.43029451E-04
  -7.73999977      -1.44571532E-04
  -7.73000002      -1.46131089E-04
  -7.71999979      -1.47706087E-04
  -7.71000004      -1.49299944E-04
  -7.69999981      -1.50911568E-04
  -7.69000006      -1.52537745E-04
  -7.67999983      -1.54185327E-04
  -7.67000008      -1.55848946E-04
  -7.65999985      -1.57533737E-04
  -7.65000010      -1.59237679E-04
  -7.63999987      -1.60956595E-04
  -7.63000011      -1.62695258E-04
  -7.61999989      -1.64452911E-04
  -7.61000013      -1.66233425E-04
  -7.59999990      -1.68026556E-04
  -7.59000015      -1.69842810E-04
  -7.57999992      -1.71677108E-04
  -7.57000017      -1.73532128E-04
  -7.55999994      -1.75402049E-04
  -7.55000019      -1.77294714E-04
  -7.53999996      -1.79209965E-04
  -7.53000021      -1.81140567E-04
  -7.51999998      -1.83089243E-04
  -7.51000023      -1.85055498E-04
  -7.50000000      -1.87043377E-04
  -7.48999977      -1.89053608E-04
  -7.48000002      -1.91083891E-04
  -7.46999979      -1.93124637E-04
  -7.46000004      -1.95194239E-04
  -7.44999981      -1.97279034E-04
  -7.44000006      -1.99385337E-04