  -16.0000000       0.00000000    
  -15.9899998       0.00000000    
  -15.9799995       0.00000000    
  -15.9700003       0.00000000    
  -15.9600000       0.00000000    
  -15.9499998       0.00000000    
  -15.9399996       0.00000000    
  -15.9300003       0.00000000    
  -15.9200001       0.00000000    
  -15.9099998       0.00000000    
  -15.8999996       0.00000000    
  -15.8900003       0.00000000    
  -15.8800001       0.00000000    
  -15.8699999       0.00000000    
  -15.8599997       0.00000000    
  -15.8500004       0.00000000    
  -15.8400002       0.00000000    
  -15.8299999       0.00000000    
  -15.8199997       0.00000000    
  -15.8100004       0.00000000    
  -15.8000002       0.00000000    
  -15.7900000       0.00000000    
  -15.7799997       0.00000000    
  -15.7700005       0.00000000    
  -15.7600002       0.00000000    
  -15.7500000       0.00000000    
  -15.7399998       0.00000000    
  -15.7299995       0.00000000    
  -15.7200003       0.00000000    
  -15.7100000       0.00000000    
  -15.6999998       0.00000000    
  -15.6899996       0.00000000    
  -15.6800003       0.00000000    
  -15.6700001       0.00000000    
  -15.6599998       0.00000000    
  -15.6499996       0.00000000    
  -15.6400003       0.00000000    
  -15.6300001       0.00000000    
  -15.6199999       0.00000000    
  -15.6099997       0.00000000    
  -15.6000004       0.00000000    
  -15.5900002       0.00000000    
  -15.5799999       0.00000000    
  -15.5699997       0.00000000    
  -15.5600004       0.00000000    
  -15.5500002       0.00000000    
  -15.5400000       0.00000000    
  -15.5299997       0.00000000    
  -15.5200005       0.00000000    
  -15.5100002       0.00000000    
  -15.5000000       0.00000000    
  -15.4899998       0.00000000    
  -15.4799995       0.00000000    
  -15.4700003       0.00000000    
  -15.4600000       0.00000000    
  -15.4499998       0.00000000    
  -15.4399996       0.00000000    
  -15.4300003       0.00000000    
  -15.4200001       0.00000000    
  -15.4099998       0.00000000    
  -15.3999996       0.00000000    
  -15.3900003       0.00000000    
  -15.3800001       0.00000000    
  -15.3699999       0.00000000    
  -15.3599997       0.00000000    
  -15.3500004       0.00000000    
  -15.3400002       0.00000000    
  -15.3299999       0.00000000    
  -15.3199997       0.00000000    
  -15.3100004       0.00000000    
  -15.3000002       0.00000000    
  -15.2900000       0.00000000    
  -15.2799997       0.00000000    
  -15.2700005       0.00000000    
  -15.2600002       0.00000000    
  -15.2500000       0.00000000    
  -15.2399998       0.00000000    
  -15.2299995       0.00000000    
  -15.2200003       0.00000000    
  -15.2100000       0.00000000    
  -15.1999998       0.00000000    
  -15.1899996       0.00000000    
  -15.1800003       0.00000000    
  -15.1700001       0.00000000    
  -15.1599998       0.00000000    
  -15.1499996      -0.00000000    
  -15.1400003       0.00000000    
  -15.1300001       0.00000000    
  -15.1199999      -0.00000000    
  -15.1099997       0.00000000    
  -15.1000004       0.00000000    
  -15.0900002      -0.00000000    
  -15.0799999      -0.00000000    
  -15.0699997      -0.00000000    
  -15.0600004      -0.00000000    
  -15.0500002       0.00000000    
  -15.0400000       0.00000000    
  -15.0299997       0.00000000    
  -15.0200005      -0.00000000    
  -15.0100002      -0.00000000    
  -15.0000000      -0.00000000    
  -14.9899998      -0.00000000    
  -14.9799995      -1.40129846E-45
  -14.9700003      -0.00000000    
  -14.9600000      -0.00000000    
  -14.9499998      -1.40129846E-45
  -14.9399996      -0.00000000    
  -14.9300003       1.40129846E-45
  -14.9200001       2.80259693E-45
  -14.9099998       1.40129846E-45
  -14.8999996      -1.40129846E-45
  -14.8900003      -7.00649232E-45
  -14.8800001      -1.26116862E-44
  -14.8699999      -1.96181785E-44
  -14.8599997      -2.38220739E-44
  -14.8500004      -2.66246708E-44
  -14.8400002      -2.38220739E-44
  -14.8299999      -1.54142831E-44
  -14.8199997      -1.40129846E-45
  -14.8100004       1.54142831E-44
  -14.8000002       2.80259693E-44
  -14.7900000       2.94272678E-44
  -14.7799997       1.40129846E-44
  -14.7700005      -1.96181785E-44
  -14.7600002      -7.28675201E-44
  -14.7500000      -1.34524653E-43
  -14.7399998      -1.79366203E-43
  -14.7299995      -1.83570099E-43
  -14.7200003      -1.21912966E-43
  -14.7100000       1.26116862E-44
  -14.6999998       2.14398665E-43
  -14.6899996       4.31599927E-43
  -14.6800003       5.84341460E-43
  -14.6700001       5.77334967E-43
  -14.6599998       3.29305139E-43
  -14.6499996      -1.87773994E-43
  -14.6400003      -9.06640106E-43
  -14.6300001      -1.66193998E-42
  -14.6199999      -2.18322301E-42
  -14.6099997      -2.15239444E-42
  -14.6000004      -1.31161536E-42
  -14.5900002       4.10580450E-43
  -14.5799999       2.80399823E-42
  -14.5699997       5.31652637E-42
  -14.5600004       7.08916893E-42
  -14.5500002       7.15783256E-42
  -14.5400000       4.72517842E-42
  -14.5299997      -4.77842776E-43
  -14.5200005      -7.87389607E-42
  -14.5100002      -1.58949285E-41
  -14.5000000      -2.21068846E-41
  -14.4899998      -2.37001609E-41
  -14.4799995      -1.82925502E-41
  -14.4700003      -4.88212385E-42
  -14.4600000       1.53133896E-41
  -14.4499998       3.84474260E-41
  -14.4399996       5.83080291E-41
  -14.4300003       6.75173626E-41
  -14.4200001       5.94500873E-41
  -14.4099998       3.05833390E-41
  -14.3999996      -1.74027256E-41
  -14.3900003      -7.65417247E-41
  -14.3800001      -1.33044881E-40
  -14.3699999      -1.69814953E-40
  -14.3599997      -1.70638917E-40
  -14.3500004      -1.25304109E-40
  -14.3400002      -3.42547410E-41
  -14.3299999       8.88227045E-41
  -14.3199997       2.17843057E-40
  -14.3100004       3.19103686E-40
  -14.3000002       3.59552166E-40
  -14.2900000       3.16777531E-40
  -14.2799997       1.87818836E-40
  -14.2700005      -6.19514051E-42
  -14.2600002      -2.22202496E-40
  -14.2500000      -4.04863152E-40
  -14.2399998      -5.02301040E-40
  -14.2299995      -4.84025305E-40
  -14.2200003      -3.55194128E-40
  -14.2100000      -1.61230599E-40
  -14.1999998       2.14692938E-41
  -14.1899996       1.09369944E-40
  -14.1800003       4.57818221E-41
  -14.1700001      -1.64525051E-40
  -14.1599998      -4.32816254E-40
  -14.1499996      -5.88770964E-40
  -14.1400003      -4.16152013E-40
  -14.1300001       2.78428196E-40
  -14.1199999       1.57545744E-39
  -14.1099997       3.35431476E-39
  -14.1000004       5.23776219E-39
  -14.0900002       6.60066227E-39
  -14.0799999       6.66526774E-39
  -14.0699997       4.68624755E-39
  -14.0600004       2.02410557E-40
  -14.0500002      -6.69603465E-39
  -14.0400000      -1.51578735E-38
  -14.0299997      -2.35005530E-38
  -14.0200005      -2.93480523E-38
  -14.0100002      -3.00113626E-38
  -14.0000000      -2.30911230E-38
  -13.9899998      -7.21619944E-39
  -13.9799995       1.72292519E-38
  -13.9700003       4.75789201E-38
  -13.9600000       7.87511016E-38
  -13.9499998       1.03660729E-37
  -13.9399996       1.14238010E-37
  -13.9300003       1.02987803E-37
  -13.9200001       6.48802366E-38
  -13.9099998      -7.66975491E-40
  -13.8999996      -8.88366502E-38
  -13.8900003      -1.87822546E-37
  -13.8800001      -2.80446974E-37
  -13.8699999      -3.45655916E-37
  -13.8599997      -3.61910372E-37
  -13.8500004      -3.11412934E-37
  -13.8400002      -1.84639749E-37
  -13.8299999       1.56384586E-38
  -13.8199997       2.71731233E-37
  -13.8100004       5.50593215E-37
  -13.8000002       8.06123555E-37
  -13.7900000       9.84351590E-37
  -13.7799997       1.03118034E-36
  -13.7700005       9.01862060E-37
  -13.7600002       5.70936885E-37
  -13.7500000       4.10707408E-38
  -13.7399998      -6.50872106E-37
  -13.7299995      -1.43204497E-36
  -13.7200003      -2.19726308E-36
  -13.7100000      -2.81858438E-36
  -13.6999998      -3.16056954E-36
  -13.6899996      -3.10007183E-36
  -13.6800003      -2.54852793E-36
  -13.6700001      -1.47395066E-36
  -13.6599998       8.07065127E-38
  -13.6499996       1.98633344E-36
  -13.6400003       4.02688140E-36
  -13.6300001       5.91150075E-36
  -13.6199999       7.30082580E-36
  -13.6099997       7.84673904E-36
  -13.6000004       7.24290702E-36
  -13.5900002       5.28095716E-36
  -13.5799999       1.90514979E-36
  -13.5699997      -2.74316430E-36
  -13.5600004      -8.30055993E-36
  -13.5500002      -1.41845090E-35
  -13.5400000      -1.96304758E-35
  -13.5299997      -2.37654207E-35
  -13.5200005      -2.57148429E-35
  -13.5100002      -2.47344961E-35
  -13.5000000      -2.03520933E-35
  -13.4899998      -1.24992745E-35
  -13.4799995      -1.61142777E-36
  -13.4700003       1.13270970E-35
  -13.4600000       2.48110927E-35
  -13.4499998       3.69271477E-35
  -13.4399996       4.55514737E-35
  -13.4300003       4.86204036E-35
  -13.4200001       4.44473269E-35
  -13.4099998       3.20473969E-35
  -13.3999996       1.14223957E-35
  -13.3900003      -1.62451927E-35
  -13.3800001      -4.85364200E-35
  -13.3699999      -8.19145649E-35
  -13.3599997      -1.12035046E-34
  -13.3500004      -1.34238792E-34
  -13.3400002      -1.44191934E-34
  -13.3299999      -1.38605891E-34
  -13.3199997      -1.15947032E-34
  -13.3100004      -7.70287214E-35
  -13.3000002      -2.53731230E-35
  -13.2900000       3.27580745E-35
  -13.2799997       8.87386368E-35
  -13.2700005       1.32389638E-34
  -13.2600002       1.53202454E-34
  -13.2500000       1.41884143E-34
  -13.2399998       9.20709911E-35
  -13.2299995       1.99854631E-36
  -13.2200003      -1.24122021E-34
  -13.2100000      -2.75285624E-34
  -13.1999998      -4.33676784E-34
  -13.1899996      -5.75640181E-34
  -13.1800003      -6.73728205E-34
  -13.1700001      -6.99791118E-34
  -13.1599998      -6.28916294E-34
  -13.1499996      -4.43875575E-34
  -13.1400003      -1.39590654E-34
  -13.1300001       2.72981563E-34
  -13.1199999       7.64198474E-34
  -13.1099997       1.28494941E-33
  -13.1000004       1.76826695E-33
  -13.0900002       2.13366551E-33
  -13.0799999       2.29425585E-33
  -13.0699997       2.16634701E-33
  -13.0600004       1.68086123E-33
  -13.0500002       7.95523057E-34
  -13.0400000      -4.93537181E-34
  -13.0299997      -2.14234984E-33
  -13.0200005      -4.05348546E-33
  -13.0100002      -6.07573798E-33
  -13.0000000      -8.01034381E-33
  -12.9899998      -9.62427184E-33
  -12.9799995      -1.06705052E-32
  -12.9700003      -1.09141477E-32
  -12.9600000      -1.01622515E-32
  -12.9499998      -8.29415443E-33
  -12.9399996      -5.28817917E-33
  -12.9300003      -1.23980978E-33
  -12.9200001       3.63398973E-33
  -12.9099998       9.00943833E-33
  -12.8999996       1.44942788E-32
  -12.8900003       1.96930187E-32
  -12.8800001       2.43005715E-32
  -12.8699999       2.82228465E-32
  -12.8599997       3.17200274E-32
  -12.8500004       3.55646139E-32
  -12.8400002       4.12023847E-32
  -12.8299999       5.09000633E-32
  -12.8199997       6.78617238E-32
  -12.8100004       9.62922125E-32
  -12.8000002       1.41382442E-31
  -12.7900000       2.09196711E-31
  -12.7799997       3.06437883E-31
  -12.7700005       4.40073676E-31
  -12.7600002       6.16812778E-31
  -12.7500000       8.42430346E-31
  -12.7399998       1.12094605E-30
  -12.7299995       1.45368045E-30
  -12.7200003       1.83821738E-30
  -12.7100000       2.26732642E-30
  -12.6999998       2.72789639E-30
  -12.6899996       3.19996420E-30
  -12.6800003       3.65589125E-30
  -12.6700001       4.05977456E-30
  -12.6599998       4.36715862E-30
  -12.6499996       4.52505892E-30
  -12.6400003       4.47231026E-30
  -12.6300001       4.14015580E-30
  -12.6199999       3.45294225E-30
  -12.6099997       2.32864190E-30
  -12.6000004       6.78755688E-31
  -12.5900002      -1.59292612E-30
  -12.5799999      -4.59363218E-30
  -12.5699997      -8.44785848E-30
  -12.5600004      -1.33083264E-29
  -12.5500002      -1.93730963E-29
  -12.5400000      -2.69106399E-29
  -12.5299997      -3.62970507E-29
  -12.5200005      -4.80664297E-29
  -12.5100002      -6.29796305E-29
  -12.5000000      -8.21153875E-29
  -12.4899998      -1.06988189E-28
  -12.4799995      -1.39699844E-28
  -12.4700003      -1.83130467E-28
  -12.4600000      -2.41173109E-28
  -12.4499998      -3.19029332E-28
  -12.4399996      -4.23561587E-28
  -12.4300003      -5.63728121E-28
  -12.4200001      -7.51080804E-28
  -12.4099998      -1.00037684E-27
  -12.3999996      -1.33028854E-27
  -12.3900003      -1.76423214E-27
  -12.3800001      -2.33133049E-27
  -12.3699999      -3.06749603E-27
  -12.3599997      -4.01670640E-27
  -12.3500004      -5.23240230E-27
  -12.3400002      -6.77910392E-27
  -12.3299999      -8.73424791E-27
  -12.3199997      -1.11901452E-26
  -12.3100004      -1.42561587E-26
  -12.3000002      -1.80612909E-26
  -12.2900000      -2.27567096E-26
  -12.2799997      -2.85187762E-26
  -12.2700005      -3.55521891E-26
  -12.2600002      -4.40933341E-26
  -12.2500000      -5.44140660E-26
  -12.2399998      -6.68254488E-26
  -12.2299995      -8.16819861E-26
  -12.2200003      -9.93860710E-26
  -12.2100000      -1.20392574E-25
  -12.1999998      -1.45213454E-25
  -12.1899996      -1.74422471E-25
  -12.1800003      -2.08661154E-25
  -12.1700001      -2.48642844E-25
  -12.1599998      -2.95159210E-25
  -12.1499996      -3.49084780E-25
  -12.1400003      -4.11382285E-25
  -12.1300001      -4.83106948E-25
  -12.1199999      -5.65413539E-25
  -12.1099997      -6.59560045E-25
  -12.1000004      -7.66911837E-25
  -12.0900002      -8.88947435E-25
  -12.0799999      -1.02725960E-24
  -12.0699997      -1.18356204E-24
  -12.0600004      -1.35968884E-24
  -12.0500002      -1.55759718E-24
  -12.0400000      -1.77937241E-24
  -12.0299997      -2.02721929E-24
  -12.0200005      -2.30346852E-24
  -12.0100002      -2.61057522E-24
  -12.0000000      -2.95110814E-24
  -11.9899998      -3.32775214E-24
  -11.9799995      -3.74329803E-24
  -11.9700003      -4.20064014E-24
  -11.9600000      -4.70275563E-24
  -11.9499998      -5.25270449E-24
  -11.9399996      -5.85360627E-24
  -11.9300003      -6.50863534E-24
  -11.9200001      -7.22099291E-24
  -11.9099998      -7.99389832E-24
  -11.8999996      -8.83055630E-24
  -11.8900003      -9.73413652E-24
  -11.8800001      -1.07077447E-23
  -11.8699999      -1.17543959E-23
  -11.8599997      -1.28769970E-23
  -11.8500004      -1.40782594E-23
  -11.8400002      -1.53607421E-23
  -11.8299999      -1.67267384E-23
  -11.8199997      -1.81782882E-23
  -11.8100004      -1.97170892E-23
  -11.8000002      -2.13445124E-23
  -11.7900000      -2.30614698E-23
  -11.7799997      -2.48684440E-23
  -11.7700005      -2.67653910E-23
  -11.7600002      -2.87516671E-23
  -11.7500000      -3.08260525E-23
  -11.7399998      -3.29866226E-23
  -11.7299995      -3.52307300E-23
  -11.7200003      -3.75549067E-23
  -11.7100000      -3.99548361E-23
  -11.6999998      -4.24253213E-23
  -11.6899996      -4.49601554E-23
  -11.6800003      -4.75520904E-23
  -11.6700001      -5.01929033E-23
  -11.6599998      -5.28731434E-23
  -11.6499996      -5.55822495E-23
  -11.6400003      -5.83083509E-23
  -11.6300001      -6.10383397E-23
  -11.6199999      -6.37578399E-23
  -11.6099997      -6.64510931E-23
  -11.6000004      -6.91009273E-23
  -11.5900002      -7.16888076E-23
  -11.5799999      -7.41947726E-23
  -11.5699997      -7.65973968E-23
  -11.5600004      -7.88738663E-23
  -11.5500002      -8.09998654E-23
  -11.5400000      -8.29496961E-23
  -11.5299997      -8.46962720E-23
  -11.5200005      -8.62111373E-23
  -11.5100002      -8.74643849E-23
  -11.5000000      -8.84250029E-23
  -11.4899998      -8.90606733E-23
  -11.4799995      -8.93378664E-23
  -11.4700003      -8.92220995E-23
  -11.4600000      -8.86778360E-23
  -11.4499998      -8.76688135E-23
  -11.4399996      -8.61578040E-23
  -11.4300003      -8.41071885E-23
  -11.4200001      -8.14788049E-23
  -11.4099998      -7.82341128E-23
  -11.3999996      -7.43345903E-23
  -11.3900003      -6.97416402E-23
  -11.3800001      -6.44169742E-23
  -11.3699999      -5.83227397E-23
  -11.3599997      -5.14217435E-23
  -11.3500004      -4.36776033E-23
  -11.3400002      -3.50551516E-23
  -11.3299999      -2.55204723E-23
  -11.3199997      -1.50412724E-23
  -11.3100004      -3.58711580E-24
  -11.3000002       8.87029912E-24
  -11.2900000       2.23571290E-23
  -11.2799997       3.68966559E-23
  -11.2700005       5.25095101E-23
  -11.2600002       6.92132043E-23
  -11.2500000       8.70218150E-23
  -11.2399998       1.05946014E-22
  -11.2299995       1.25992623E-22
  -11.2200003       1.47164425E-22
  -11.2100000       1.69460247E-22
  -11.1999998       1.92874283E-22
  -11.1899996       2.17396560E-22
  -11.1800003       2.43012351E-22
  -11.1700001       2.69702380E-22
  -11.1599998       2.97442718E-22
  -11.1499996       3.26204561E-22
  -11.1400003       3.55954791E-22
  -11.1300001       3.86655616E-22
  -11.1199999       4.18264629E-22
  -11.1099997       4.50735835E-22
  -11.1000004       4.84018596E-22
  -11.0900002       5.18059320E-22
  -11.0799999       5.52801108E-22
  -11.0699997       5.88184283E-22
  -11.0600004       6.24147606E-22
  -11.0500002       6.60627867E-22
  -11.0400000       6.97561602E-22
  -11.0299997       7.34886260E-22
  -11.0200005       7.72538881E-22
  -11.0100002       8.10460699E-22
  -11.0000000       8.48595018E-22
  -10.9899998       8.86891602E-22
  -10.9799995       9.25305519E-22
  -10.9700003       9.63800921E-22
  -10.9600000       1.00235045E-21
  -10.9499998       1.04093935E-21
  -10.9399996       1.07956673E-21
  -10.9300003       1.11824641E-21
  -10.9200001       1.15701242E-21
  -10.9099998       1.19591889E-21
  -10.8999996       1.23504306E-21
  -10.8900003       1.27448974E-21
  -10.8800001       1.31439373E-21
  -10.8699999       1.35492093E-21
  -10.8599997       1.39627562E-21
  -10.8500004       1.43869963E-21
  -10.8400002       1.48248103E-21
  -10.8299999       1.52795658E-21
  -10.8199997       1.57551260E-21
  -10.8100004       1.62559247E-21
  -10.8000002       1.67870186E-21
  -10.7900000       1.73541301E-21
  -10.7799997       1.79636830E-21
  -10.7700005       1.86228648E-21
  -10.7600002       1.93396887E-21
  -10.7500000       2.01230425E-21
  -10.7399998       2.09827327E-21
  -10.7299995       2.19295779E-21
  -10.7200003       2.29754423E-21
  -10.7100000       2.41333175E-21
  -10.6999998       2.54173639E-21
  -10.6899996       2.68430045E-21
  -10.6800003       2.84270008E-21
  -10.6700001       3.01874496E-21
  -10.6599998       3.21439397E-21
  -10.6499996       3.43175870E-21
  -10.6400003       3.67311288E-21
  -10.6300001       3.94089685E-21
  -10.6199999       4.23772544E-21
  -10.6099997       4.56639928E-21
  -10.6000004       4.92990436E-21
  -10.5900002       5.33143350E-21
  -10.5799999       5.77437903E-21
  -10.5699997       6.26234087E-21
  -10.5600004       6.79915483E-21
  -10.5500002       7.38887160E-21
  -10.5400000       8.03578823E-21
  -10.5299997       8.74443079E-21
  -10.5200005       9.51958950E-21
  -10.5100002       1.03663066E-20
  -10.5000000       1.12898853E-20
  -10.4899998       1.22958936E-20
  -10.4799995       1.33901970E-20
  -10.4700003       1.45789226E-20
  -10.4600000       1.58684988E-20
  -10.4499998       1.72656214E-20
  -10.4399996       1.87773279E-20
  -10.4300003       2.04109143E-20
  -10.4200001       2.21740158E-20
  -10.4099998       2.40745360E-20
  -10.3999996       2.61207255E-20
  -10.3900003       2.83211584E-20
  -10.3800001       3.06846849E-20
  -10.3699999       3.32205137E-20
  -10.3599997       3.59381251E-20
  -10.3500004       3.88473452E-20
  -10.3400002       4.19582745E-20
  -10.3299999       4.52813918E-20
  -10.3199997       4.88274020E-20
  -10.3100004       5.26073654E-20
  -10.3000002       5.66326428E-20
  -10.2900000       6.09148792E-20
  -10.2799997       6.54659688E-20
  -10.2700005       7.02980478E-20
  -10.2600002       7.54236013E-20
  -10.2500000       8.08553475E-20
  -10.2399998       8.66062496E-20
  -10.2299995       9.26893810E-20
  -10.2200003       9.91181771E-20
  -10.2100000       1.05906137E-19
  -10.1999998       1.13066995E-19
  -10.1899996       1.20614630E-19
  -10.1800003       1.28563009E-19
  -10.1700001       1.36926167E-19
  -10.1599998       1.45718411E-19
  -10.1499996       1.54953831E-19
  -10.1400003       1.64646863E-19
  -10.1300001       1.74811569E-19
  -10.1199999       1.85462217E-19
  -10.1099997       1.96612870E-19
  -10.1000004       2.08277500E-19
  -10.0900002       2.20470000E-19
  -10.0799999       2.33203876E-19
  -10.0699997       2.46492533E-19
  -10.0600004       2.60348997E-19
  -10.0500002       2.74786323E-19
  -10.0400000       2.89816557E-19
  -10.0299997       3.05451822E-19
  -10.0200005       3.21703362E-19
  -10.0100002       3.38582266E-19
  -10.0000000       3.56098669E-19
  -9.98999977       3.74262366E-19
  -9.97999954       3.93082172E-19
  -9.97000027       4.12566024E-19
  -9.96000004       4.32721003E-19
  -9.94999981       4.53553676E-19
  -9.93999958       4.75069109E-19
  -9.93000031       4.97271826E-19
  -9.92000008       5.20164825E-19
  -9.90999985       5.43749657E-19
  -9.89999962       5.68026684E-19
  -9.89000034       5.92995648E-19
  -9.88000011       6.18653136E-19
  -9.86999989       6.44995479E-19
  -9.85999966       6.72017608E-19
  -9.85000038       6.99712390E-19
  -9.84000015       7.28069072E-19
  -9.82999992       7.57077728E-19
  -9.81999969       7.86724501E-19
  -9.81000042       8.16994659E-19
  -9.80000019       8.47869796E-19
  -9.78999996       8.79331041E-19
  -9.77999973       9.11356580E-19
  -9.77000046       9.43919992E-19
  -9.76000023       9.76994809E-19
  -9.75000000       1.01055084E-18
  -9.73999977       1.04455489E-18
  -9.72999954       1.07897119E-18
  -9.72000027       1.11376095E-18
  -9.71000004       1.14888211E-18
  -9.69999981       1.18428937E-18
  -9.68999958       1.21993341E-18
  -9.68000031       1.25576388E-18
  -9.67000008       1.29172442E-18
  -9.65999985       1.32775620E-18
  -9.64999962       1.36379449E-18
  -9.64000034       1.39977457E-18
  -9.63000011       1.43562458E-18
  -9.61999989       1.47126966E-18
  -9.60999966       1.50663235E-18
  -9.60000038       1.54162736E-18
  -9.59000015       1.57616929E-18
  -9.57999992       1.61016496E-18
  -9.56999969       1.64351989E-18
  -9.56000042       1.67613314E-18
  -9.55000019       1.70789842E-18
  -9.53999996       1.73870594E-18
  -9.52999973       1.76844101E-18
  -9.52000046       1.79698557E-18
  -9.51000023       1.82421284E-18
  -9.50000000       1.84999626E-18
  -9.48999977       1.87419853E-18
  -9.47999954       1.89668337E-18
  -9.47000027       1.91730519E-18
  -9.46000004       1.93591551E-18
  -9.44999981       1.95236028E-18
  -9.43999958       1.96647942E-18
  -9.43000031       1.97810938E-18
  -9.42000008       1.98707850E-18
  -9.40999985       1.99321349E-18
  -9.39999962       1.99633692E-18
  -9.39000034       1.99626413E-18
  -9.38000011       1.99280341E-18
  -9.36999989       1.98576080E-18
  -9.35999966       1.97493838E-18
  -9.35000038       1.96013205E-18
  -9.34000015       1.94113399E-18
  -9.32999992       1.91773078E-18
  -9.31999969       1.88970631E-18
  -9.31000042       1.85683705E-18
  -9.30000019       1.81889758E-18
  -9.28999996       1.77565796E-18
  -9.27999973       1.72688160E-18
  -9.27000046       1.67233307E-18
  -9.26000023       1.61177094E-18
  -9.25000000       1.54494953E-18
  -9.23999977       1.47162162E-18
  -9.22999954       1.39153720E-18
  -9.22000027       1.30444035E-18
  -9.21000004       1.21007487E-18
  -9.19999981       1.10818814E-18
  -9.18999958       9.98515360E-19
  -9.18000031       8.80796909E-19
  -9.17000008       7.54768912E-19
  -9.15999985       6.20169875E-19
  -9.14999962       4.76732621E-19
  -9.14000034       3.24197906E-19
  -9.13000011       1.62295938E-19
  -9.11999989      -9.23261599E-21
  -9.10999966      -1.90652090E-19
  -9.10000038      -3.82223333E-19
  -9.09000015      -5.84204993E-19
  -9.07999992      -7.96854465E-19
  -9.06999969      -1.02042582E-18
  -9.06000042      -1.25516862E-18
  -9.05000019      -1.50133126E-18
  -9.03999996      -1.75915343E-18
  -9.02999973      -2.02887324E-18
  -9.02000046      -2.31072263E-18
  -9.01000023      -2.60492658E-18
  -9.00000000      -2.91170347E-18
  -8.98999977      -3.23126484E-18
  -8.97999954      -3.56381420E-18
  -8.97000027      -3.90954633E-18
  -8.96000004      -4.26864653E-18
  -8.94999981      -4.64128726E-18
  -8.93999958      -5.02763520E-18
  -8.93000031      -5.42784048E-18
  -8.92000008      -5.84204703E-18
  -8.90999985      -6.27038059E-18
  -8.89999962      -6.71295407E-18
  -8.89000034      -7.16987086E-18
  -8.88000011      -7.64120995E-18
  -8.86999989      -8.12704042E-18
  -8.85999966      -8.62741769E-18
  -8.85000038      -9.14236905E-18
  -8.84000015      -9.67191188E-18
  -8.82999992      -1.02160437E-17
  -8.81999969      -1.07747389E-17
  -8.81000042      -1.13479436E-17
  -8.80000019      -1.19356016E-17
  -8.78999996      -1.25376113E-17
  -8.77999973      -1.31538691E-17
  -8.77000046      -1.37842262E-17
  -8.76000023      -1.44285180E-17
  -8.75000000      -1.50865584E-17
  -8.73999977      -1.57581265E-17
  -8.72999954      -1.64429775E-17
  -8.72000027      -1.71408267E-17
  -8.71000004      -1.78513815E-17
  -8.69999981      -1.85742927E-17
  -8.68999958      -1.93091963E-17
  -8.68000031      -2.00556987E-17
  -8.67000008      -2.08133631E-17
  -8.65999985      -2.15816980E-17
  -8.64999962      -2.23602338E-17
  -8.64000034      -2.31484178E-17
  -8.63000011      -2.39456595E-17
  -8.61999989      -2.47513615E-17
  -8.60999966      -2.55648688E-17
  -8.60000038      -2.63854717E-17
  -8.59000015      -2.72124488E-17
  -8.57999992      -2.80450293E-17
  -8.56999969      -2.88823974E-17
  -8.56000042      -2.97236997E-17
  -8.55000019      -3.05680029E-17
  -8.53999996      -3.14144138E-17
  -8.52999973      -3.22619166E-17
  -8.52000046      -3.31095054E-17
  -8.51000023      -3.39560487E-17
  -8.50000000      -3.48004678E-17
  -8.48999977      -3.56415615E-17
  -8.47999954      -3.64781522E-17
  -8.47000027      -3.73089691E-17
  -8.46000004      -3.81326557E-17
  -8.44999981      -3.89479083E-17
  -8.43999958      -3.97533010E-17
  -8.43000031      -4.05473613E-17
  -8.42000008      -4.13286334E-17
  -8.40999985      -4.20954960E-17
  -8.39999962      -4.28463808E-17
  -8.39000034      -4.35796598E-17
  -8.38000011      -4.42936193E-17
  -8.36999989      -4.49864889E-17
  -8.35999966      -4.56564887E-17
  -8.35000038      -4.63018021E-17
  -8.34000015      -4.69204901E-17
  -8.32999992      -4.75106670E-17
  -8.31999969      -4.80703506E-17
  -8.31000042      -4.85974698E-17
  -8.30000019      -4.90899301E-17
  -8.28999996      -4.95456471E-17
  -8.27999973      -4.99624369E-17
  -8.27000046      -5.03380993E-17
  -8.26000023      -5.06704142E-17
  -8.25000000      -5.09570190E-17
  -8.23999977      -5.11956507E-17
  -8.22999954      -5.13838872E-17
  -8.22000027      -5.15192239E-17
  -8.21000004      -5.15993413E-17
  -8.19999981      -5.16216487E-17
  -8.18999958      -5.15836911E-17
  -8.18000031      -5.14829537E-17
  -8.17000008      -5.13167996E-17
  -8.15999985      -5.10825718E-17
  -8.14999962      -5.07776764E-17
  -8.14000034      -5.03994894E-17
  -8.13000011      -4.99452845E-17
  -8.11999989      -4.94123056E-17
  -8.10999966      -4.87978063E-17
  -8.10000038      -4.80991497E-17
  -8.09000015      -4.73135068E-17
  -8.07999992      -4.64381677E-17
  -8.06999969      -4.54702672E-17
  -8.06000042      -4.44070886E-17
  -8.05000019      -4.32458329E-17
  -8.03999996      -4.19836744E-17
  -8.02999973      -4.06178768E-17
  -8.02000046      -3.91455979E-17
  -8.01000023      -3.75640980E-17
  -8.00000000      -3.58706972E-17
  -7.98999977      -3.40625565E-17
  -7.98000002      -3.21369958E-17
  -7.96999979      -3.00913418E-17
  -7.96000004      -2.79229870E-17
  -7.94999981      -2.56291970E-17
  -7.94000006      -2.32075248E-17
  -7.92999983      -2.06552425E-17
  -7.92000008      -1.79699694E-17
  -7.90999985      -1.51492471E-17
  -7.90000010      -1.21905437E-17
  -7.88999987      -9.09165709E-18
  -7.88000011      -5.85024936E-18
  -7.86999989      -2.46418180E-18
  -7.86000013       1.06881320E-18
  -7.84999990       4.75072573E-18
  -7.84000015       8.58354651E-18
  -7.82999992       1.25691078E-17
  -7.82000017       1.67092750E-17
  -7.80999994       2.10056809E-17
  -7.80000019       2.54599559E-17
  -7.78999996       3.00735309E-17
  -7.78000021       3.48477957E-17
  -7.76999998       3.97840523E-17
  -7.76000023       4.48833296E-17
  -7.75000000       5.01466368E-17
  -7.73999977       5.55748044E-17
  -7.73000002       6.11686034E-17
  -7.71999979       6.69284738E-17
  -7.71000004       7.28548655E-17
  -7.69999981       7.89480103E-17
  -7.69000006       8.52079940E-17
  -7.67999983       9.16346514E-17
  -7.67000008       9.82277242E-17
  -7.65999985       1.04986716E-16
  -7.65000010       1.11910946E-16
  -7.63999987       1.18999526E-16
  -7.63000011       1.26251386E-16
  -7.61999989       1.33665280E-16
  -7.61000013       1.41239700E-16
  -7.59999990       1.48972846E-16
  -7.59000015       1.56862786E-16
  -7.57999992       1.64907389E-16
  -7.57000017       1.73104126E-16
  -7.55999994       1.81450339E-16
  -7.55000019       1.89943049E-16
  -7.53999996       1.98579106E-16
  -7.53000021       2.07355082E-16
  -7.51999998       2.16267192E-16
  -7.51000023       2.25311426E-16
  -7.50000000       2.34483443E-16
  -7.48999977       2.43778703E-16
  -7.48000002       2.53192389E-16
  -7.46999979       2.62719180E-16
  -7.46000004       2.72353836E-16
  -7.44999981       2.82090347E-16
  -7.44000006       2.91922705E-16