  -16.0000000       0.00000000    
  -15.9899998       0.00000000    
  -15.9799995       0.00000000    
  -15.9700003       0.00000000    
  -15.9600000       0.00000000    
  -15.9499998       0.00000000    
  -15.9399996       0.00000000    
  -15.9300003       0.00000000    
  -15.9200001       0.00000000    
  -15.9099998       0.00000000    
  -15.8999996       0.00000000    
  -15.8900003       3.64871495E-40
  -15.8800001       8.27781195E-39
  -15.8699999       6.74587211E-38
  -15.8599997       1.66346369E-37
  -15.8500004      -1.65446041E-36
  -15.8400002      -2.19106249E-35
  -15.8299999      -1.47149818E-34
  -15.8199997      -7.20221578E-34
  -15.8100004      -2.84904052E-33
  -15.8000002      -9.57883457E-33
  -15.7900000      -2.82188498E-32
  -15.7799997      -7.43307748E-32
  -15.7700005      -1.77419337E-31
  -15.7600002      -3.86584592E-31
  -15.7500000      -7.69743229E-31
  -15.7399998      -1.39080128E-30
  -15.7299995      -2.23630183E-30
  -15.7200003      -3.05611435E-30
  -15.7100000      -3.10615919E-30
  -15.6999998      -8.71679748E-31
  -15.6899996       5.97029594E-30
  -15.6800003       1.98709477E-29
  -15.6700001       4.14645856E-29
  -15.6599998       6.62272840E-29
  -15.6499996       8.08243946E-29
  -15.6400003       6.21506440E-29
  -15.6300001      -1.63201528E-29
  -15.6199999      -1.67034279E-28
  -15.6099997      -3.61431160E-28
  -15.6000004      -5.06281916E-28
  -15.5900002      -4.48301072E-28
  -15.5799999      -3.53760891E-29
  -15.5699997       7.56724020E-28
  -15.5600004       1.67346056E-27
  -15.5500002       2.11608510E-27
  -15.5400000       1.31393845E-27
  -15.5299997      -1.16443487E-27
  -15.5200005      -4.66105553E-27
  -15.5100002      -6.86752337E-27
  -15.5000000      -4.17751192E-27
  -15.4899998       6.36036785E-27
  -15.4799995       2.34918263E-26
  -15.4700003       3.80295020E-26
  -15.4600000       3.20500720E-26
  -15.4499998      -1.51014925E-26
  -15.4399996      -1.11785830E-25
  -15.4300003      -2.32982550E-25
  -15.4200001      -3.04040058E-25
  -15.4099998      -2.07215591E-25
  -15.3999996       1.71165609E-25
  -15.3900003       8.48957216E-25
  -15.3800001       1.63755849E-24
  -15.3699999       2.07585888E-24
  -15.3599997       1.49773141E-24
  -15.3500004      -6.93376244E-25
  -15.3400002      -4.54937938E-24
  -15.3299999      -9.05185309E-24
  -15.3199997      -1.18456860E-23
  -15.3100004      -9.62543701E-24
  -15.3000002       5.41403079E-25
  -15.2900000       1.90492538E-23
  -15.2799997       4.14530692E-23
  -15.2700005       5.73635038E-23
  -15.2600002       5.21339997E-23
  -15.2500000       1.24060897E-23
  -15.2399998      -6.49814136E-23
  -15.2299995      -1.63584710E-22
  -15.2200003      -2.42638847E-22
  -15.2100000      -2.43089924E-22
  -15.1999998      -1.08358426E-22
  -15.1899996       1.81947600E-22
  -15.1800003       5.75699178E-22
  -15.1700001       9.27925092E-22
  -15.1599998       1.01831002E-21
  -15.1499996       6.21466691E-22
  -15.1400003      -3.74468460E-22
  -15.1300001      -1.83430835E-21
  -15.1199999      -3.28946788E-21
  -15.1099997      -3.97370902E-21
  -15.1000004      -3.03688659E-21
  -15.0900002       6.70830464E-23
  -15.0799999       5.11400254E-21
  -15.0699997       1.07569103E-20
  -15.0600004       1.45320140E-20
  -15.0500002       1.34262246E-20
  -15.0400000       5.04400642E-21
  -15.0299997      -1.08643550E-20
  -15.0200005      -3.10575818E-20
  -15.0100002      -4.83914682E-20
  -15.0000000      -5.30426918E-20
  -14.9899998      -3.56607126E-20
  -14.9799995       8.01728976E-21
  -14.9700003       7.24772939E-20
  -14.9600000       1.39794648E-19
  -14.9499998       1.81303877E-19
  -14.9399996       1.64968546E-19
  -14.9300003       6.79418496E-20
  -14.9200001      -1.08759116E-19
  -14.9099998      -3.28962104E-19
  -14.8999996      -5.20003732E-19
  -14.8900003      -5.86593942E-19
  -14.8800001      -4.40898640E-19
  -14.8699999      -4.32899513E-20
  -14.8599997       5.58854544E-19
  -14.8500004       1.21166564E-18
  -14.8400002       1.67130385E-18
  -14.8299999       1.66518002E-18
  -14.8199997       9.91494561E-19
  -14.8100004      -3.67962326E-19
  -14.8000002      -2.16272223E-18
  -14.7900000      -3.86262906E-18
  -14.7799997      -4.75570453E-18
  -14.7700005      -4.15918902E-18
  -14.7600002      -1.70375156E-18
  -14.7500000       2.39435369E-18
  -14.7399998       7.18702824E-18
  -14.7299995       1.10810364E-17
  -14.7200003       1.22130364E-17
  -14.7100000       9.07482727E-18
  -14.6999998       1.23771655E-18
  -14.6899996      -1.00702035E-17
  -14.6800003      -2.18137586E-17
  -14.6700001      -2.96423117E-17
  -14.6599998      -2.90698200E-17
  -14.6499996      -1.71401584E-17
  -14.6400003       5.88290976E-18
  -14.6300001       3.54326190E-17
  -14.6199999       6.27860856E-17
  -14.6099997       7.68200517E-17
  -14.6000004       6.72812100E-17
  -14.5900002       2.88860337E-17
  -14.5799999      -3.49693416E-17
  -14.5699997      -1.10370994E-16
  -14.5600004      -1.74212893E-16
  -14.5500002      -1.99256997E-16
  -14.5400000      -1.62356602E-16
  -14.5299997      -5.39697498E-17
  -14.5200005       1.13936321E-16
  -14.5100002       3.04822011E-16
  -14.5000000       4.61896225E-16
  -14.4899998       5.20606355E-16
  -14.4799995       4.27563809E-16
  -14.4700003       1.61546785E-16
  -14.4600000      -2.49693031E-16
  -14.4499998      -7.23418071E-16
  -14.4399996      -1.13159705E-15
  -14.4300003      -1.32746633E-15
  -14.4200001      -1.18515505E-15
  -14.4099998      -6.43548634E-16
  -14.3999996       2.57833335E-16
  -14.3900003       1.36361187E-15
  -14.3800001       2.41731472E-15
  -14.3699999       3.10873670E-15
  -14.3599997       3.14750794E-15
  -14.3500004       2.34775722E-15
  -14.3400002       7.02712297E-16
  -14.3299999      -1.57313511E-15
  -14.3199997      -4.05174907E-15
  -14.3100004      -6.15617278E-15
  -14.3000002      -7.27529473E-15
  -14.2900000      -6.90799202E-15
  -14.2799997      -4.80542035E-15
  -14.2700005      -1.07682208E-15
  -14.2600002       3.77166492E-15
  -14.2500000       8.88297258E-15
  -14.2399998       1.31803299E-14
  -14.2299995       1.55650249E-14
  -14.2200003       1.51460655E-14
  -14.2100000       1.14576055E-14
  -14.1999998       4.61916331E-15
  -14.1899996      -4.59818823E-15
  -14.1800003      -1.48217976E-14
  -14.1700001      -2.42459776E-14
  -14.1599998      -3.09021912E-14
  -14.1499996      -3.29956094E-14
  -14.1400003      -2.92593979E-14
  -14.1300001      -1.92708296E-14
  -14.1199999      -3.67118648E-15
  -14.1099997       1.57614908E-14
  -14.1000004       3.62243059E-14
  -14.0900002       5.42010826E-14
  -14.0799999       6.59584285E-14
  -14.0699997       6.81767604E-14
  -14.0600004       5.86298113E-14
  -14.0500002       3.67997428E-14
  -14.0400000       4.29837372E-15
  -14.0299997      -3.50236977E-14
  -14.0200005      -7.53661321E-14
  -14.0100002      -1.09689140E-13
  -14.0000000      -1.30791713E-13
  -13.9899998      -1.32619135E-13
  -13.9799995      -1.11590086E-13
  -13.9700003      -6.76928606E-14
  -13.9600000      -5.09734263E-15
  -13.9499998       6.79150678E-14
  -13.9399996       1.39806691E-13
  -13.9300003       1.97393805E-13
  -13.9200001       2.28033927E-13
  -13.9099998       2.22077036E-13
  -13.8999996       1.75169883E-13
  -13.8900003       8.99582058E-14
  -13.8800001      -2.32248049E-14
  -13.8699999      -1.46991130E-13
  -13.8599997      -2.58963505E-13
  -13.8500004      -3.35150256E-13
  -13.8400002      -3.54243598E-13
  -13.8299999      -3.02216748E-13
  -13.8199997      -1.76420822E-13
  -13.8100004       1.16747457E-14
  -13.8000002       2.35869890E-13
  -13.7900000       4.57271590E-13
  -13.7799997       6.29116063E-13
  -13.7700005       7.04007816E-13
  -13.7600002       6.42707621E-13
  -13.7500000       4.23147655E-13
  -13.7399998       4.80946493E-14
  -13.7299995      -4.50134640E-13
  -13.7200003      -1.00924455E-12
  -13.7100000      -1.54157383E-12
  -13.6999998      -1.94378433E-12
  -13.6899996      -2.11078247E-12
  -13.6800003      -1.95227406E-12
  -13.6700001      -1.40975090E-12
  -13.6599998      -4.71460815E-13
  -13.6499996       8.17009329E-13
  -13.6400003       2.34841855E-12
  -13.6300001       3.95702698E-12
  -13.6199999       5.42950407E-12
  -13.6099997       6.52304079E-12
  -13.6000004       6.98934226E-12
  -13.5900002       6.60263727E-12
  -13.5799999       5.18951722E-12
  -13.5699997       2.65830001E-12
  -13.5600004      -9.74428871E-13
  -13.5500002      -5.56239863E-12
  -13.5400000      -1.08157251E-11
  -13.5299997      -1.62969725E-11
  -13.5200005      -2.14297052E-11
  -13.5100002      -2.55222302E-11
  -13.5000000      -2.78086425E-11
  -13.4899998      -2.75087904E-11
  -13.4799995      -2.39070534E-11
  -13.4700003      -1.64476228E-11
  -13.4600000      -4.84111232E-12
  -13.4499998       1.08263173E-11
  -13.4399996       2.99933689E-11
  -13.4300003       5.15486889E-11
  -13.4200001       7.37972600E-11
  -13.4099998       9.44847742E-11
  -13.3999996       1.10893704E-10
  -13.3900003       1.20020383E-10
  -13.3800001       1.18834428E-10
  -13.3699999       1.04613727E-10
  -13.3599997       7.53382842E-11
  -13.3500004       3.01181059E-11
  -13.3400002      -3.03768261E-11
  -13.3299999      -1.03519082E-10
  -13.3199997      -1.84395735E-10
  -13.3100004      -2.65578642E-10
  -13.3000002      -3.37021966E-10
  -13.2900000      -3.86098126E-10
  -13.2799997      -3.97783501E-10
  -13.2700005      -3.54988677E-10
  -13.2600002      -2.39020831E-10
  -13.2500000      -3.01629936E-11
  -13.2399998       2.91649316E-10
  -13.2299995       7.46089024E-10
  -13.2200003       1.35165257E-09
  -13.2100000       2.12486895E-09
  -13.1999998       3.07952086E-09
  -13.1899996       4.22592628E-09
  -13.1800003       5.57029711E-09
  -13.1700001       7.11420611E-09
  -13.1599998       8.85418583E-09
  -13.1499996       1.07814673E-08
  -13.1400003       1.28818654E-08
  -13.1300001       1.51358144E-08
  -13.1199999       1.75184987E-08
  -13.1099997       2.00000851E-08
  -13.1000004       2.25460397E-08
  -13.0900002       2.51174530E-08
  -13.0799999       2.76714314E-08
  -13.0699997       3.01614342E-08
  -13.0600004       3.25377094E-08
  -13.0500002       3.47476821E-08
  -13.0400000       3.67364485E-08
  -13.0299997       3.84473111E-08
  -13.0200005       3.98224032E-08
  -13.0100002       4.08034495E-08
  -13.0000000       4.13325587E-08
  -12.9899998       4.13532000E-08
  -12.9799995       4.08111731E-08
  -12.9700003       3.96556530E-08
  -12.9600000       3.78402412E-08
  -12.9499998       3.53239606E-08
  -12.9399996       3.20722044E-08
  -12.9300003       2.80575900E-08
  -12.9200001       2.32606503E-08
  -12.9099998       1.76704447E-08
  -12.8999996       1.12849463E-08
  -12.8900003       4.11134415E-09
  -12.8800001      -3.83382615E-09
  -12.8699999      -1.25246835E-08
  -12.8599997      -2.19260894E-08
  -12.8500004      -3.19938280E-08
  -12.8400002      -4.26747917E-08
  -12.8299999      -5.39072715E-08
  -12.8199997      -6.56212009E-08
  -12.8100004      -7.77382922E-08
  -12.8000002      -9.01723354E-08
  -12.7900000      -1.02829397E-07
  -12.7799997      -1.15607946E-07
  -12.7700005      -1.28399179E-07
  -12.7600002      -1.41087355E-07
  -12.7500000      -1.53550047E-07
  -12.7399998      -1.65658903E-07
  -12.7299995      -1.77280214E-07
  -12.7200003      -1.88275777E-07
  -12.7100000      -1.98504097E-07
  -12.6999998      -2.07821515E-07
  -12.6899996      -2.16083578E-07
  -12.6800003      -2.23146671E-07
  -12.6700001      -2.28869453E-07
  -12.6599998      -2.33114520E-07
  -12.6499996      -2.35749852E-07
  -12.6400003      -2.36650266E-07
  -12.6300001      -2.35698863E-07
  -12.6199999      -2.32787997E-07
  -12.6099997      -2.27820550E-07
  -12.6000004      -2.20710731E-07
  -12.5900002      -2.11385014E-07
  -12.5799999      -1.99782974E-07
  -12.5699997      -1.85858170E-07
  -12.5600004      -1.69578755E-07
  -12.5500002      -1.50928500E-07
  -12.5400000      -1.29907534E-07
  -12.5299997      -1.06533214E-07
  -12.5200005      -8.08407918E-08
  -12.5100002      -5.28842925E-08
  -12.5000000      -2.27370300E-08
  -12.4899998       9.50773504E-09
  -12.4799995       4.37363035E-08
  -12.4700003       7.98142565E-08
  -12.4600000       1.17586211E-07
  -12.4499998       1.56875757E-07
  -12.4399996       1.97485562E-07
  -12.4300003       2.39197590E-07
  -12.4200001       2.81774049E-07
  -12.4099998       3.24957625E-07
  -12.3999996       3.68472968E-07
  -12.3900003       4.12027731E-07
  -12.3800001       4.55314137E-07
  -12.3699999       4.98010650E-07
  -12.3599997       5.39783628E-07
  -12.3500004       5.80289452E-07
  -12.3400002       6.19175751E-07
  -12.3299999       6.56083500E-07
  -12.3199997       6.90648562E-07
  -12.3100004       7.22503046E-07
  -12.3000002       7.51276218E-07
  -12.2900000       7.76595471E-07
  -12.2799997       7.98086887E-07
  -12.2700005       8.15375699E-07
  -12.2600002       8.28086684E-07
  -12.2500000       8.35843423E-07
  -12.2399998       8.38269500E-07
  -12.2299995       8.34988498E-07
  -12.2200003       8.25623772E-07
  -12.2100000       8.09800042E-07
  -12.1999998       7.87143222E-07
  -12.1899996       7.57283033E-07
  -12.1800003       7.19852608E-07
  -12.1700001       6.74491218E-07
  -12.1599998       6.20845356E-07
  -12.1499996       5.58570093E-07
  -12.1400003       4.87331079E-07
  -12.1300001       4.06805185E-07
  -12.1199999       3.16682957E-07
  -12.1099997       2.16669136E-07
  -12.1000004       1.06484435E-07
  -12.0900002      -1.41335388E-08
  -12.0799999      -1.45428814E-07
  -12.0699997      -2.87626165E-07
  -12.0600004      -4.40930393E-07
  -12.0500002      -6.05525088E-07
  -12.0400000      -7.81572908E-07
  -12.0299997      -9.69214966E-07
  -12.0200005      -1.16857007E-06
  -12.0100002      -1.37973666E-06
  -12.0000000      -1.60279262E-06
  -11.9899998      -1.83779537E-06
  -11.9799995      -2.08478514E-06
  -11.9700003      -2.34378331E-06
  -11.9600000      -2.61479659E-06
  -11.9499998      -2.89781769E-06
  -11.9399996      -3.19282685E-06
  -11.9300003      -3.49979359E-06
  -11.9200001      -3.81867767E-06
  -11.9099998      -4.14943270E-06
  -11.8999996      -4.49200115E-06
  -11.8900003      -4.84632164E-06
  -11.8800001      -5.21232505E-06
  -11.8699999      -5.58993497E-06
  -11.8599997      -5.97906546E-06
  -11.8500004      -6.37962466E-06
  -11.8400002      -6.79150753E-06
  -11.8299999      -7.21459992E-06
  -11.8199997      -7.64877132E-06
  -11.8100004      -8.09388166E-06
  -11.8000002      -8.54977134E-06
  -11.7900000      -9.01626754E-06
  -11.7799997      -9.49317382E-06
  -11.7700005      -9.98028372E-06
  -11.7600002      -1.04773608E-05
  -11.7500000      -1.09841585E-05
  -11.7399998      -1.15003995E-05
  -11.7299995      -1.20257928E-05
  -11.7200003      -1.25600191E-05
  -11.7100000      -1.31027382E-05
  -11.6999998      -1.36535946E-05
  -11.6899996      -1.42122026E-05
  -11.6800003      -1.47781566E-05
  -11.6700001      -1.53510391E-05
  -11.6599998      -1.59304091E-05
  -11.6499996      -1.65158053E-05
  -11.6400003      -1.71067586E-05
  -11.6300001      -1.77027869E-05
  -11.6199999      -1.83033917E-05
  -11.6099997      -1.89080765E-05
  -11.6000004      -1.95163302E-05
  -11.5900002      -2.01276398E-05
  -11.5799999      -2.07414942E-05
  -11.5699997      -2.13573730E-05
  -11.5600004      -2.19747599E-05
  -11.5500002      -2.25931362E-05
  -11.5400000      -2.32120001E-05
  -11.5299997      -2.38308294E-05
  -11.5200005      -2.44491184E-05
  -11.5100002      -2.50663579E-05
  -11.5000000      -2.56820476E-05
  -11.4899998      -2.62956783E-05
  -11.4799995      -2.69067550E-05
  -11.4700003      -2.75147613E-05
  -11.4600000      -2.81192115E-05
  -11.4499998      -2.87195853E-05
  -11.4399996      -2.93153789E-05
  -11.4300003      -2.99060757E-05
  -11.4200001      -3.04911482E-05
  -11.4099998      -3.10700707E-05
  -11.3999996      -3.16423175E-05
  -11.3900003      -3.22073320E-05
  -11.3800001      -3.27645648E-05
  -11.3699999      -3.33134776E-05
  -11.3599997      -3.38534810E-05
  -11.3500004      -3.43840220E-05
  -11.3400002      -3.49045258E-05
  -11.3299999      -3.54144249E-05
  -11.3199997      -3.59131373E-05
  -11.3100004      -3.64001025E-05
  -11.3000002      -3.68747606E-05
  -11.2900000      -3.73365583E-05
  -11.2799997      -3.77849537E-05
  -11.2700005      -3.82194266E-05
  -11.2600002      -3.86394677E-05
  -11.2500000      -3.90446039E-05
  -11.2399998      -3.94343733E-05
  -11.2299995      -3.98083575E-05
  -11.2200003      -4.01661600E-05
  -11.2100000      -4.05074315E-05
  -11.1999998      -4.08318410E-05
  -11.1899996      -4.11391193E-05
  -11.1800003      -4.14290262E-05
  -11.1700001      -4.17013835E-05
  -11.1599998      -4.19560274E-05
  -11.1499996      -4.21928853E-05
  -11.1400003      -4.24118916E-05
  -11.1300001      -4.26130537E-05
  -11.1199999      -4.27964296E-05
  -11.1099997      -4.29621068E-05
  -11.1000004      -4.31102417E-05
  -11.0900002      -4.32410270E-05
  -11.0799999      -4.33546957E-05
  -11.0699997      -4.34515387E-05
  -11.0600004      -4.35318580E-05
  -11.0500002      -4.35960210E-05
  -11.0400000      -4.36444243E-05
  -11.0299997      -4.36774790E-05
  -11.0200005      -4.36956288E-05
  -11.0100002      -4.36993396E-05
  -11.0000000      -4.36890841E-05
  -10.9899998      -4.36653645E-05
  -10.9799995      -4.36286573E-05
  -10.9700003      -4.35794500E-05
  -10.9600000      -4.35182374E-05
  -10.9499998      -4.34454560E-05
  -10.9399996      -4.33615605E-05
  -10.9300003      -4.32669294E-05
  -10.9200001      -4.31619446E-05
  -10.9099998      -4.30469190E-05
  -10.8999996      -4.29221254E-05
  -10.8900003      -4.27877676E-05
  -10.8800001      -4.26439838E-05
  -10.8699999      -4.24908540E-05
  -10.8599997      -4.23283673E-05
  -10.8500004      -4.21564509E-05
  -10.8400002      -4.19749340E-05
  -10.8299999      -4.17835799E-05
  -10.8199997      -4.15820323E-05
  -10.8100004      -4.13698908E-05
  -10.8000002      -4.11466281E-05
  -10.7900000      -4.09116619E-05
  -10.7799997      -4.06643085E-05
  -10.7700005      -4.04038001E-05
  -10.7600002      -4.01292928E-05
  -10.7500000      -3.98399025E-05
  -10.7399998      -3.95346251E-05
  -10.7299995      -3.92124493E-05
  -10.7200003      -3.88722765E-05
  -10.7100000      -3.85129861E-05
  -10.6999998      -3.81334066E-05
  -10.6899996      -3.77323631E-05
  -10.6800003      -3.73086586E-05
  -10.6700001      -3.68610708E-05
  -10.6599998      -3.63884137E-05
  -10.6499996      -3.58895013E-05
  -10.6400003      -3.53631767E-05
  -10.6300001      -3.48083195E-05
  -10.6199999      -3.42238563E-05
  -10.6099997      -3.36087724E-05
  -10.6000004      -3.29621325E-05
  -10.5900002      -3.22830638E-05
  -10.5799999      -3.15707875E-05
  -10.5699997      -3.08246235E-05
  -10.5600004      -3.00440097E-05
  -10.5500002      -2.92284858E-05
  -10.5400000      -2.83777190E-05
  -10.5299997      -2.74915092E-05
  -10.5200005      -2.65697963E-05
  -10.5100002      -2.56126514E-05
  -10.5000000      -2.46203144E-05
  -10.4899998      -2.35931602E-05
  -10.4799995      -2.25317381E-05
  -10.4700003      -2.14367410E-05
  -10.4600000      -2.03090385E-05
  -10.4499998      -1.91496601E-05
  -10.4399996      -1.79598028E-05
  -10.4300003      -1.67408107E-05
  -10.4200001      -1.54942118E-05
  -10.4099998      -1.42216923E-05
  -10.3999996      -1.29250848E-05
  -10.3900003      -1.16064011E-05
  -10.3800001      -1.02677695E-05
  -10.3699999      -8.91149739E-06
  -10.3599997      -7.54002576E-06
  -10.3500004      -6.15592853E-06
  -10.3400002      -4.76190007E-06
  -10.3299999      -3.36077187E-06
  -10.3199997      -1.95546954E-06
  -10.3100004      -5.49049957E-07
  -10.3000002       8.55353790E-07
  -10.2900000       2.25451163E-06
  -10.2799997       3.64510561E-06
  -10.2700005       5.02375678E-06
  -10.2600002       6.38701295E-06
  -10.2500000       7.73137435E-06
  -10.2399998       9.05329125E-06
  -10.2299995       1.03491657E-05
  -10.2200003       1.16153969E-05
  -10.2100000       1.28483316E-05
  -10.1999998       1.40443290E-05
  -10.1899996       1.51997174E-05
  -10.1800003       1.63108489E-05
  -10.1700001       1.73740700E-05
  -10.1599998       1.83857555E-05
  -10.1499996       1.93422929E-05
  -10.1400003       2.02401043E-05
  -10.1300001       2.10756407E-05
  -10.1199999       2.18453806E-05
  -10.1099997       2.25458753E-05
  -10.1000004       2.31736994E-05
  -10.0900002       2.37254935E-05
  -10.0799999       2.41979415E-05
  -10.0699997       2.45878000E-05
  -10.0600004       2.48918786E-05
  -10.0500002       2.51070687E-05
  -10.0400000       2.52303089E-05
  -10.0299997       2.52586251E-05
  -10.0200005       2.51891270E-05
  -10.0100002       2.50189951E-05
  -10.0000000       2.47454773E-05
  -9.98999977       2.43659397E-05
  -9.97999954       2.38777957E-05
  -9.97000027       2.32785787E-05
  -9.96000004       2.25658969E-05
  -9.94999981       2.17374636E-05
  -9.93999958       2.07910925E-05
  -9.93000031       1.97246954E-05
  -9.92000008       1.85362896E-05
  -9.90999985       1.72240052E-05
  -9.89999962       1.57860686E-05
  -9.89000034       1.42208373E-05
  -9.88000011       1.25267898E-05
  -9.86999989       1.07025235E-05
  -9.85999966       8.74673515E-06
  -9.85000038       6.65826519E-06
  -9.84000015       4.43609451E-06
  -9.82999992       2.07932339E-06
  -9.81999969      -4.12823738E-07
  -9.81000042      -3.04098194E-06
  -9.80000019      -5.80562983E-06
  -9.78999996      -8.70713120E-06
  -9.77999973      -1.17456921E-05
  -9.77000046      -1.49213893E-05
  -9.76000023      -1.82341282E-05
  -9.75000000      -2.16836761E-05
  -9.73999977      -2.52696627E-05
  -9.72999954      -2.89915406E-05
  -9.72000027      -3.28486203E-05
  -9.71000004      -3.68400506E-05
  -9.69999981      -4.09648455E-05
  -9.68999958      -4.52218228E-05
  -9.68000031      -4.96096400E-05
  -9.67000008      -5.41268382E-05
  -9.65999985      -5.87717550E-05
  -9.64999962      -6.35425895E-05
  -9.64000034      -6.84373808E-05
  -9.63000011      -7.34540081E-05
  -9.61999989      -7.85901575E-05
  -9.60999966      -8.38434426E-05
  -9.60000038      -8.92112730E-05
  -9.59000015      -9.46909495E-05
  -9.57999992      -1.00279598E-04
  -9.56999969      -1.05974264E-04
  -9.56000042      -1.11771828E-04
  -9.55000019      -1.17669078E-04
  -9.53999996      -1.23662685E-04
  -9.52999973      -1.29749256E-04
  -9.52000046      -1.35925249E-04
  -9.51000023      -1.42187098E-04
  -9.50000000      -1.48531180E-04
  -9.48999977      -1.54953741E-04
  -9.47999954      -1.61451055E-04
  -9.47000027      -1.68019295E-04
  -9.46000004      -1.74654691E-04
  -9.44999981      -1.81353389E-04
  -9.43999958      -1.88111546E-04
  -9.43000031      -1.94925378E-04
  -9.42000008      -2.01791045E-04
  -9.40999985      -2.08704776E-04
  -9.39999962      -2.15662862E-04
  -9.39000034      -2.22661591E-04
  -9.38000011      -2.29697398E-04
  -9.36999989      -2.36766689E-04
  -9.35999966      -2.43865987E-04
  -9.35000038      -2.50992016E-04
  -9.34000015      -2.58141314E-04
  -9.32999992      -2.65310868E-04
  -9.31999969      -2.72497535E-04
  -9.31000042      -2.79698404E-04
  -9.30000019      -2.86910654E-04
  -9.28999996      -2.94131634E-04
  -9.27999973      -3.01358727E-04
  -9.27000046      -3.08589515E-04
  -9.26000023      -3.15821788E-04
  -9.25000000      -3.23053420E-04
  -9.23999977      -3.30282433E-04
  -9.22999954      -3.37506877E-04
  -9.22000027      -3.44725297E-04
  -9.21000004      -3.51936003E-04
  -9.19999981      -3.59137688E-04
  -9.18999958      -3.66329099E-04
  -9.18000031      -3.73509130E-04
  -9.17000008      -3.80676793E-04
  -9.15999985      -3.87831416E-04
  -9.14999962      -3.94972274E-04
  -9.14000034      -4.02098725E-04
  -9.13000011      -4.09210421E-04
  -9.11999989      -4.16307070E-04
  -9.10999966      -4.23388352E-04
  -9.10000038      -4.30454355E-04
  -9.09000015      -4.37504961E-04
  -9.07999992      -4.44540259E-04
  -9.06999969      -4.51560511E-04
  -9.06000042      -4.58566064E-04
  -9.05000019      -4.65557066E-04
  -9.03999996      -4.72533982E-04
  -9.02999973      -4.79497219E-04
  -9.02000046      -4.86447534E-04
  -9.01000023      -4.93385363E-04
  -9.00000000      -5.00311202E-04
  -8.98999977      -5.07225748E-04
  -8.97999954      -5.14129701E-04
  -8.97000027      -5.21023932E-04
  -8.96000004      -5.27908909E-04
  -8.94999981      -5.34785737E-04
  -8.93999958      -5.41654881E-04
  -8.93000031      -5.48517273E-04
  -8.92000008      -5.55373437E-04
  -8.90999985      -5.62224479E-04
  -8.89999962      -5.69070806E-04
  -8.89000034      -5.75913640E-04
  -8.88000011      -5.82753448E-04
  -8.86999989      -5.89590927E-04
  -8.85999966      -5.96427068E-04
  -8.85000038      -6.03262393E-04
  -8.84000015      -6.10097777E-04
  -8.82999992      -6.16933801E-04
  -8.81999969      -6.23771455E-04
  -8.81000042      -6.30610914E-04
  -8.80000019      -6.37453166E-04
  -8.78999996      -6.44298969E-04
  -8.77999973      -6.51148614E-04
  -8.77000046      -6.58002973E-04
  -8.76000023      -6.64862629E-04
  -8.75000000      -6.71728107E-04
  -8.73999977      -6.78600103E-04
  -8.72999954      -6.85478968E-04
  -8.72000027      -6.92365633E-04
  -8.71000004      -6.99260330E-04
  -8.69999981      -7.06163934E-04
  -8.68999958      -7.13076675E-04
  -8.68000031      -7.19999371E-04
  -8.67000008      -7.26932543E-04
  -8.65999985      -7.33876775E-04
  -8.64999962      -7.40832707E-04
  -8.64000034      -7.47800805E-04
  -8.63000011      -7.54781940E-04
  -8.61999989      -7.61776464E-04
  -8.60999966      -7.68785190E-04
  -8.60000038      -7.75808527E-04
  -8.59000015      -7.82847463E-04
  -8.57999992      -7.89902464E-04
  -8.56999969      -7.96974229E-04
  -8.56000042      -8.04063573E-04
  -8.55000019      -8.11171194E-04
  -8.53999996      -8.18297791E-04
  -8.52999973      -8.25444295E-04
  -8.52000046      -8.32611404E-04
  -8.51000023      -8.39800050E-04
  -8.50000000      -8.47010699E-04
  -8.48999977      -8.54244689E-04
  -8.47999954      -8.61502602E-04
  -8.47000027      -8.68785370E-04
  -8.46000004      -8.76094273E-04
  -8.44999981      -8.83429893E-04
  -8.43999958      -8.90793453E-04
  -8.43000031      -8.98185826E-04
  -8.42000008      -9.05608351E-04
  -8.40999985      -9.13061842E-04
  -8.39999962      -9.20547696E-04
  -8.39000034      -9.28067195E-04
  -8.38000011      -9.35621152E-04
  -8.36999989      -9.43211198E-04
  -8.35999966      -9.50838556E-04
  -8.35000038      -9.58504796E-04
  -8.34000015      -9.66211199E-04
  -8.32999992      -9.73959453E-04
  -8.31999969      -9.81751014E-04
  -8.31000042      -9.89587279E-04
  -8.30000019      -9.97470343E-04
  -8.28999996      -1.00540160E-03
  -8.27999973      -1.01338327E-03
  -8.27000046      -1.02141697E-03
  -8.26000023      -1.02950458E-03
  -8.25000000      -1.03764865E-03
  -8.23999977      -1.04585080E-03
  -8.22999954      -1.05411350E-03
  -8.22000027      -1.06243917E-03
  -8.21000004      -1.07082946E-03
  -8.19999981      -1.07928761E-03
  -8.18999958      -1.08781562E-03
  -8.18000031      -1.09641661E-03
  -8.17000008      -1.10509270E-03
  -8.15999985      -1.11384678E-03
  -8.14999962      -1.12268189E-03
  -8.14000034      -1.13160105E-03
  -8.13000011      -1.14060706E-03
  -8.11999989      -1.14970282E-03
  -8.10999966      -1.15889171E-03
  -8.10000038      -1.16817700E-03
  -8.09000015      -1.17756205E-03
  -8.07999992      -1.18704978E-03
  -8.06999969      -1.19664427E-03
  -8.06000042      -1.20634842E-03
  -8.05000019      -1.21616630E-03
  -8.03999996      -1.22610095E-03
  -8.02999973      -1.23615679E-03
  -8.02000046      -1.24633673E-03
  -8.01000023      -1.25664508E-03
  -8.00000000      -1.26708543E-03
  -7.98999977      -1.27766153E-03
  -7.98000002      -1.28837756E-03
  -7.96999979      -1.29923667E-03
  -7.96000004      -1.31024304E-03
  -7.94999981      -1.32140063E-03
  -7.94000006      -1.33271341E-03
  -7.92999983      -1.34418474E-03
  -7.92000008      -1.35581882E-03
  -7.90999985      -1.36761914E-03
  -7.90000010      -1.37958967E-03
  -7.88999987      -1.39173365E-03
  -7.88000011      -1.40405551E-03
  -7.86999989      -1.41655817E-03
  -7.86000013      -1.42924511E-03
  -7.84999990      -1.44212041E-03
  -7.84000015      -1.45518698E-03
  -7.82999992      -1.46844808E-03
  -7.82000017      -1.48190709E-03
  -7.80999994      -1.49556715E-03
  -7.80000019      -1.50943152E-03
  -7.78999996      -1.52350275E-03
  -7.78000021      -1.53778400E-03
  -7.76999998      -1.55227771E-03
  -7.76000023      -1.56698655E-03
  -7.75000000      -1.58191321E-03
  -7.73999977      -1.59706001E-03
  -7.73000002      -1.61242939E-03
  -7.71999979      -1.62802381E-03
  -7.71000004      -1.64384500E-03
  -7.69999981      -1.65989518E-03
  -7.69000006      -1.67617656E-03
  -7.67999983      -1.69269019E-03
  -7.67000008      -1.70943851E-03
  -7.65999985      -1.72642304E-03
  -7.65000010      -1.74364517E-03
  -7.63999987      -1.76110584E-03
  -7.63000011      -1.77880761E-03
  -7.61999989      -1.79675058E-03
  -7.61000013      -1.81493652E-03
  -7.59999990      -1.83336670E-03
  -7.59000015      -1.85204169E-03
  -7.57999992      -1.87096314E-03
  -7.57000017      -1.89013139E-03
  -7.55999994      -1.90954807E-03
  -7.55000019      -1.92921318E-03
  -7.53999996      -1.94912811E-03
  -7.53000021      -1.96929346E-03
  -7.51999998      -1.98970991E-03
  -7.51000023      -2.01037829E-03
  -7.50000000      -2.03129952E-03
  -7.48999977      -2.05247407E-03
  -7.48000002      -2.07390287E-03
  -7.46999979      -2.09558662E-03
  -7.46000004      -2.11752579E-03
  -7.44999981      -2.13972083E-03
  -7.44000006      -2.16217339E-03