  -16.0000000       0.00000000    
  -15.9899998       0.00000000    
  -15.9799995       0.00000000    
  -15.9700003       0.00000000    
  -15.9600000       0.00000000    
  -15.9499998       0.00000000    
  -15.9399996       0.00000000    
  -15.9300003       0.00000000    
  -15.9200001       0.00000000    
  -15.9099998       0.00000000    
  -15.8999996       0.00000000    
  -15.8900003       0.00000000    
  -15.8800001       0.00000000    
  -15.8699999       0.00000000    
  -15.8599997       0.00000000    
  -15.8500004       0.00000000    
  -15.8400002       0.00000000    
  -15.8299999       0.00000000    
  -15.8199997       0.00000000    
  -15.8100004       0.00000000    
  -15.8000002       0.00000000    
  -15.7900000       0.00000000    
  -15.7799997       0.00000000    
  -15.7700005       0.00000000    
  -15.7600002       0.00000000    
  -15.7500000       0.00000000    
  -15.7399998       0.00000000    
  -15.7299995       0.00000000    
  -15.7200003       0.00000000    
  -15.7100000       0.00000000    
  -15.6999998       0.00000000    
  -15.6899996       0.00000000    
  -15.6800003       0.00000000    
  -15.6700001       0.00000000    
  -15.6599998       0.00000000    
  -15.6499996       0.00000000    
  -15.6400003       0.00000000    
  -15.6300001       0.00000000    
  -15.6199999       0.00000000    
  -15.6099997       0.00000000    
  -15.6000004       0.00000000    
  -15.5900002       0.00000000    
  -15.5799999       0.00000000    
  -15.5699997       0.00000000    
  -15.5600004       0.00000000    
  -15.5500002       0.00000000    
  -15.5400000       0.00000000    
  -15.5299997       0.00000000    
  -15.5200005       0.00000000    
  -15.5100002       0.00000000    
  -15.5000000       0.00000000    
  -15.4899998       0.00000000    
  -15.4799995       0.00000000    
  -15.4700003       0.00000000    
  -15.4600000       0.00000000    
  -15.4499998       0.00000000    
  -15.4399996       0.00000000    
  -15.4300003       0.00000000    
  -15.4200001       0.00000000    
  -15.4099998       0.00000000    
  -15.3999996       0.00000000    
  -15.3900003       0.00000000    
  -15.3800001       0.00000000    
  -15.3699999       0.00000000    
  -15.3599997       0.00000000    
  -15.3500004       0.00000000    
  -15.3400002       0.00000000    
  -15.3299999       0.00000000    
  -15.3199997       0.00000000    
  -15.3100004       0.00000000    
  -15.3000002       0.00000000    
  -15.2900000       0.00000000    
  -15.2799997       0.00000000    
  -15.2700005       0.00000000    
  -15.2600002       0.00000000    
  -15.2500000       0.00000000    
  -15.2399998       0.00000000    
  -15.2299995       0.00000000    
  -15.2200003       0.00000000    
  -15.2100000       0.00000000    
  -15.1999998       0.00000000    
  -15.1899996       0.00000000    
  -15.1800003       0.00000000    
  -15.1700001       0.00000000    
  -15.1599998       0.00000000    
  -15.1499996       0.00000000    
  -15.1400003       0.00000000    
  -15.1300001       0.00000000    
  -15.1199999       0.00000000    
  -15.1099997       0.00000000    
  -15.1000004       0.00000000    
  -15.0900002       0.00000000    
  -15.0799999       0.00000000    
  -15.0699997       0.00000000    
  -15.0600004       0.00000000    
  -15.0500002       0.00000000    
  -15.0400000       0.00000000    
  -15.0299997       0.00000000    
  -15.0200005       0.00000000    
  -15.0100002       0.00000000    
  -15.0000000       0.00000000    
  -14.9899998       0.00000000    
  -14.9799995       0.00000000    
  -14.9700003       0.00000000    
  -14.9600000       0.00000000    
  -14.9499998       0.00000000    
  -14.9399996      -0.00000000    
  -14.9300003      -0.00000000    
  -14.9200001       0.00000000    
  -14.9099998      -0.00000000    
  -14.8999996      -0.00000000    
  -14.8900003      -0.00000000    
  -14.8800001       1.40129846E-45
  -14.8699999       1.40129846E-45
  -14.8599997       1.40129846E-45
  -14.8500004       1.40129846E-45
  -14.8400002       1.40129846E-45
  -14.8299999       2.80259693E-45
  -14.8199997       0.00000000    
  -14.8100004       1.40129846E-45
  -14.8000002      -0.00000000    
  -14.7900000      -4.20389539E-45
  -14.7799997      -8.40779079E-45
  -14.7700005      -8.40779079E-45
  -14.7600002      -7.00649232E-45
  -14.7500000      -7.00649232E-45
  -14.7399998      -9.80908925E-45
  -14.7299995      -1.54142831E-44
  -14.7200003      -2.10194770E-44
  -14.7100000      -2.52233724E-44
  -14.6999998      -2.66246708E-44
  -14.6899996      -2.80259693E-44
  -14.6800003      -2.10194770E-44
  -14.6700001      -1.26116862E-44
  -14.6599998       2.80259693E-45
  -14.6499996       2.52233724E-44
  -14.6400003       4.90454463E-44
  -14.6300001       6.44597294E-44
  -14.6199999       5.88545355E-44
  -14.6099997       2.52233724E-44
  -14.6000004      -4.06376555E-44
  -14.5900002      -1.26116862E-43
  -14.5799999      -2.11596068E-43
  -14.5699997      -2.60641514E-43
  -14.5600004      -2.34016844E-43
  -14.5500002      -1.02294788E-43
  -14.5400000       1.35925951E-43
  -14.5299997       4.47014210E-43
  -14.5200005       7.52497275E-43
  -14.5100002       9.29060882E-43
  -14.5000000       8.47785571E-43
  -14.4899998       4.16185644E-43
  -14.4799995      -3.75547988E-43
  -14.4700003      -1.41110755E-42
  -14.4600000      -2.43825933E-42
  -14.4499998      -3.09126441E-42
  -14.4399996      -2.97635794E-42
  -14.4300003      -1.79226074E-42
  -14.4200001       5.17079133E-43
  -14.4099998       3.64757990E-42
  -14.3999996       6.88878325E-42
  -14.3900003       9.20232702E-42
  -14.3800001       9.42933737E-42
  -14.3699999       6.65756900E-42
  -14.3599997       6.17972623E-43
  -14.3500004      -8.00001293E-42
  -14.3400002      -1.74181399E-41
  -14.3299999      -2.49473166E-41
  -14.3199997      -2.75229031E-41
  -14.3100004      -2.25735170E-41
  -14.3000002      -9.01315172E-42
  -14.2900000       1.19432668E-41
  -14.2799997       3.63721029E-41
  -14.2700005       5.79955395E-41
  -14.2600002       6.94063129E-41
  -14.2500000       6.40099126E-41
  -14.2399998       3.83100987E-41
  -14.2299995      -6.09845092E-42
  -14.2200003      -6.15478312E-41
  -14.2100000      -1.14910678E-40
  -14.1999998      -1.50083269E-40
  -14.1899996      -1.52056298E-40
  -14.1800003      -1.11754954E-40
  -14.1700001      -3.03353092E-41
  -14.1599998       7.86114426E-41
  -14.1499996       1.90125373E-40
  -14.1400003       2.72755740E-40
  -14.1300001       2.96726351E-40
  -14.1199999       2.43586311E-40
  -14.1099997       1.14706088E-40
  -14.1000004      -6.44443151E-41
  -14.0900002      -2.46701397E-40
  -14.0799999      -3.73186801E-40
  -14.0699997      -3.89752951E-40
  -14.0600004      -2.66120591E-40
  -14.0500002      -1.22011057E-41
  -14.0400000       3.14525644E-40
  -14.0299997       6.15577804E-40
  -14.0200005       7.73875485E-40
  -14.0100002       6.89328142E-40
  -14.0000000       3.19871598E-40
  -13.9899998      -2.83706887E-40
  -13.9799995      -9.62301083E-40
  -13.9700003      -1.46339841E-39
  -13.9600000      -1.49123520E-39
  -13.9499998      -7.87685281E-40
  -13.9399996       7.71466653E-40
  -13.9300003       3.08916106E-39
  -13.9200001       5.79776169E-39
  -13.9099998       8.27439978E-39
  -13.8999996       9.73658747E-39
  -13.8900003       9.41574477E-39
  -13.8800001       6.78355134E-39
  -13.8699999       1.78458723E-39
  -13.8599997      -4.98606937E-39
  -13.8500004      -1.22237325E-38
  -13.8400002      -1.80228366E-38
  -13.8299999      -2.01725112E-38
  -13.8199997      -1.66152309E-38
  -13.8100004      -5.99781807E-39
  -13.8000002       1.17961515E-38
  -13.7900000       3.52658282E-38
  -13.7799997       6.11930672E-38
  -13.7700005       8.49147185E-38
  -13.7600002       1.00993755E-37
  -13.7500000       1.04230194E-37
  -13.7399998       9.08651530E-38
  -13.7299995       5.97580703E-38
  -13.7200003       1.32800551E-38
  -13.7100000      -4.23219209E-38
  -13.6999998      -9.72705836E-38
  -13.6899996      -1.39381419E-37
  -13.6800003      -1.55885385E-37
  -13.6700001      -1.35725734E-37
  -13.6599998      -7.19762439E-38
  -13.6499996       3.60465869E-38
  -13.6400003       1.81408848E-37
  -13.6300001       3.49280189E-37
  -13.6199999       5.17966592E-37
  -13.6099997       6.61277229E-37
  -13.6000004       7.52032538E-37
  -13.5900002       7.66323091E-37
  -13.5799999       6.87971270E-37
  -13.5699997       5.12560809E-37
  -13.5600004       2.50392821E-37
  -13.5500002      -7.22004853E-38
  -13.5400000      -4.13602277E-37
  -13.5299997      -7.19936345E-37
  -13.5200005      -9.30335368E-37
  -13.5100002      -9.84155812E-37
  -13.5000000      -8.29559274E-37
  -13.4899998      -4.32619175E-37
  -13.4799995       2.14114145E-37
  -13.4700003       1.08482994E-36
  -13.4600000       2.11674631E-36
  -13.4499998       3.21068374E-36
  -13.4399996       4.23685967E-36
  -13.4300003       5.04637737E-36
  -13.4200001       5.48817284E-36
  -13.4099998       5.43037961E-36
  -13.3999996       4.78411313E-36
  -13.3900003       3.52685542E-36
  -13.3800001       1.72195250E-36
  -13.3699999      -4.69527225E-37
  -13.3599997      -2.78809643E-36
  -13.3500004      -4.88902048E-36
  -13.3400002      -6.37064917E-36
  -13.3299999      -6.81728968E-36
  -13.3199997      -5.85382519E-36
  -13.3100004      -3.20697158E-36
  -13.3000002       1.23387195E-36
  -13.2900000       7.36471748E-36
  -13.2799997       1.48329752E-35
  -13.2700005       2.30299576E-35
  -13.2600002       3.11166326E-35
  -13.2500000       3.80866024E-35
  -13.2399998       4.28662870E-35
  -13.2299995       4.44475651E-35
  -13.2200003       4.20430937E-35
  -13.2100000       3.52493362E-35
  -13.1999998       2.41981309E-35
  -13.1899996       9.67425465E-36
  -13.1800003      -6.82417519E-36
  -13.1700001      -2.31046643E-35
  -13.1599998      -3.63958076E-35
  -13.1499996      -4.35684583E-35
  -13.1400003      -4.14603458E-35
  -13.1300001      -2.72878616E-35
  -13.1199999       8.87277883E-37
  -13.1099997       4.36843059E-35
  -13.1000004       9.99842090E-35
  -13.0900002       1.66635106E-34
  -13.0799999       2.38353658E-34
  -13.0699997       3.07886720E-34
  -13.0600004       3.66477698E-34
  -13.0500002       4.04653782E-34
  -13.0400000       4.13311069E-34
  -13.0299997       3.85029203E-34
  -13.0200005       3.15501697E-34
  -13.0100002       2.04924481E-34
  -13.0000000       5.91549739E-35
  -12.9899998      -1.09560562E-34
  -12.9799995      -2.82485940E-34
  -12.9700003      -4.35078102E-34
  -12.9600000      -5.38553747E-34
  -12.9499998      -5.62348921E-34
  -12.9399996      -4.77379138E-34
  -12.9300003      -2.59890827E-34
  -12.9200001       1.04418968E-34
  -12.9099998       6.16434656E-34
  -12.8999996       1.26029947E-33
  -12.8900003       2.00125507E-33
  -12.8800001       2.78514615E-33
  -12.8699999       3.53999242E-33
  -12.8599997       4.17992310E-33
  -12.8500004       4.61151540E-33
  -12.8400002       4.74239898E-33
  -12.8299999       4.49164363E-33
  -12.8199997       3.80122510E-33
  -12.8100004       2.64755087E-33
  -12.8000002       1.05184878E-33
  -12.7900000      -9.11929324E-34
  -12.7799997      -3.11307014E-33
  -12.7700005      -5.36517185E-33
  -12.7600002      -7.43334065E-33
  -12.7500000      -9.04807389E-33
  -12.7399998      -9.92585667E-33
  -12.7299995      -9.79576911E-33
  -12.7200003      -8.43065430E-33
  -12.7100000      -5.68048902E-33
  -12.6999998      -1.50490157E-33
  -12.6899996       3.99903692E-33
  -12.6800003       1.05780628E-32
  -12.6700001       1.78176482E-32
  -12.6599998       2.51551207E-32
  -12.6499996       3.19150860E-32
  -12.6400003       3.73701997E-32
  -12.6300001       4.08291359E-32
  -12.6199999       4.17514435E-32
  -12.6099997       3.98869037E-32
  -12.6000004       3.54341311E-32
  -12.5900002       2.92102941E-32
  -12.5799999       2.28206462E-32
  -12.5699997       1.88137665E-32
  -12.5600004       2.08045970E-32
  -12.5500002       3.35468779E-32
  -12.5400000       6.29334285E-32
  -12.5299997       1.15902732E-31
  -12.5200005       2.00231263E-31
  -12.5100002       3.24192596E-31
  -12.5000000       4.96069243E-31
  -12.4899998       7.23504642E-31
  -12.4799995       1.01270089E-30
  -12.4700003       1.36746367E-30
  -12.4600000       1.78811386E-30
  -12.4499998       2.27030014E-30
  -12.4399996       2.80374662E-30
  -12.4300003       3.37099167E-30
  -12.4200001       3.94619171E-30
  -12.4099998       4.49403226E-30
  -12.3999996       4.96883531E-30
  -12.3900003       5.31391230E-30
  -12.3800001       5.46119780E-30
  -12.3699999       5.33119339E-30
  -12.3599997       4.83312684E-30
  -12.3500004       3.86527068E-30
  -12.3400002       2.31516546E-30
  -12.3299999       5.94308902E-32
  -12.3199997      -3.03733145E-30
  -12.3100004      -7.12521782E-30
  -12.3000002      -1.23742616E-29
  -12.2900000      -1.89832731E-29
  -12.2799997      -2.71939743E-29
  -12.2700005      -3.73122415E-29
  -12.2600002      -4.97385311E-29
  -12.2500000      -6.50106018E-29
  -12.2399998      -8.38614958E-29
  -12.2299995      -1.07296916E-28
  -12.2200003      -1.36695309E-28
  -12.2100000      -1.73936932E-28
  -12.1999998      -2.21567840E-28
  -12.1899996      -2.83002718E-28
  -12.1800003      -3.62775050E-28
  -12.1700001      -4.66845033E-28
  -12.1599998      -6.02967643E-28
  -12.1499996      -7.81129645E-28
  -12.1400003      -1.01407752E-27
  -12.1300001      -1.31793466E-27
  -12.1199999      -1.71290726E-27
  -12.1099997      -2.22411763E-27
  -12.1000004      -2.88256381E-27
  -12.0900002      -3.72619296E-27
  -12.0799999      -4.80115384E-27
  -12.0699997      -6.16317381E-27
  -12.0600004      -7.87912808E-27
  -12.0500002      -1.00287494E-26
  -12.0400000      -1.27066186E-26
  -12.0299997      -1.60242009E-26
  -12.0200005      -2.01121906E-26
  -12.0100002      -2.51231167E-26
  -12.0000000      -3.12339553E-26
  -11.9899998      -3.86492201E-26
  -11.9799995      -4.76039654E-26
  -11.9700003      -5.83673438E-26
  -11.9600000      -7.12460220E-26
  -11.9499998      -8.65880723E-26
  -11.9399996      -1.04786909E-25
  -11.9300003      -1.26285217E-25
  -11.9200001      -1.51579574E-25
  -11.9099998      -1.81224252E-25
  -11.8999996      -2.15836534E-25
  -11.8900003      -2.56100143E-25
  -11.8800001      -3.02770757E-25
  -11.8699999      -3.56680500E-25
  -11.8599997      -4.18740976E-25
  -11.8500004      -4.89949133E-25
  -11.8400002      -5.71391182E-25
  -11.8299999      -6.64244647E-25
  -11.8199997      -7.69784720E-25
  -11.8100004      -8.89385549E-25
  -11.8000002      -1.02452196E-24
  -11.7900000      -1.17677527E-24
  -11.7799997      -1.34782980E-24
  -11.7700005      -1.53947734E-24
  -11.7600002      -1.75361590E-24
  -11.7500000      -1.99224869E-24
  -11.7399998      -2.25747931E-24
  -11.7299995      -2.55151400E-24
  -11.7200003      -2.87665189E-24
  -11.7100000      -3.23528482E-24
  -11.6999998      -3.62988350E-24
  -11.6899996      -4.06299299E-24
  -11.6800003      -4.53721948E-24
  -11.6700001      -5.05522618E-24
  -11.6599998      -5.61971177E-24
  -11.6499996      -6.23339467E-24
  -11.6400003      -6.89899646E-24
  -11.6300001      -7.61922567E-24
  -11.6199999      -8.39675459E-24
  -11.6099997      -9.23419750E-24
  -11.6000004      -1.01340701E-23
  -11.5900002      -1.10987823E-23
  -11.5799999      -1.21306060E-23
  -11.5699997      -1.32316255E-23
  -11.5600004      -1.44037229E-23
  -11.5500002      -1.56485202E-23
  -11.5400000      -1.69673631E-23
  -11.5299997      -1.83612756E-23
  -11.5200005      -1.98308950E-23
  -11.5100002      -2.13764723E-23
  -11.5000000      -2.29977835E-23
  -11.4899998      -2.46941121E-23
  -11.4799995      -2.64641787E-23
  -11.4700003      -2.83061279E-23
  -11.4600000      -3.02174306E-23
  -11.4499998      -3.21948619E-23
  -11.4399996      -3.42344744E-23
  -11.4300003      -3.63315191E-23
  -11.4200001      -3.84803825E-23
  -11.4099998      -4.06745707E-23
  -11.3999996      -4.29066621E-23
  -11.3900003      -4.51682222E-23
  -11.3800001      -4.74498131E-23
  -11.3699999      -4.97409680E-23
  -11.3599997      -5.20300310E-23
  -11.3500004      -5.43042823E-23
  -11.3400002      -5.65497969E-23
  -11.3299999      -5.87514888E-23
  -11.3199997      -6.08930568E-23
  -11.3100004      -6.29569504E-23
  -11.3000002      -6.49244705E-23
  -11.2900000      -6.67755673E-23
  -11.2799997      -6.84890426E-23
  -11.2700005      -7.00424612E-23
  -11.2600002      -7.14122140E-23
  -11.2500000      -7.25735183E-23
  -11.2399998      -7.35004677E-23
  -11.2299995      -7.41660833E-23
  -11.2200003      -7.45423195E-23
  -11.2100000      -7.46002345E-23
  -11.1999998      -7.43099905E-23
  -11.1899996      -7.36409417E-23
  -11.1800003      -7.25618053E-23
  -11.1700001      -7.10406795E-23
  -11.1599998      -6.90451706E-23
  -11.1499996      -6.65425694E-23
  -11.1400003      -6.35000717E-23
  -11.1300001      -5.98846654E-23
  -11.1199999      -5.56635527E-23
  -11.1099997      -5.08043021E-23
  -11.1000004      -4.52747531E-23
  -11.0900002      -3.90435377E-23
  -11.0799999      -3.20800889E-23
  -11.0699997      -2.43549808E-23
  -11.0600004      -1.58399278E-23
  -11.0500002      -6.50823539E-24
  -11.0400000       3.66512705E-24
  -11.0299997       1.47032881E-23
  -11.0200005       2.66272394E-23
  -11.0100002       3.94555913E-23
  -11.0000000       5.32044145E-23
  -10.9899998       6.78869587E-23
  -10.9799995       8.35134161E-23
  -10.9700003       1.00090867E-22
  -10.9600000       1.17622935E-22
  -10.9499998       1.36109707E-22
  -10.9399996       1.55547606E-22
  -10.9300003       1.75929184E-22
  -10.9200001       1.97243032E-22
  -10.9099998       2.19473574E-22
  -10.8999996       2.42601184E-22
  -10.8900003       2.66602169E-22
  -10.8800001       2.91448663E-22
  -10.8699999       3.17108604E-22
  -10.8599997       3.43546173E-22
  -10.8500004       3.70721484E-22
  -10.8400002       3.98591069E-22
  -10.8299999       4.27108126E-22
  -10.8199997       4.56222672E-22
  -10.8100004       4.85882075E-22
  -10.8000002       5.16031506E-22
  -10.7900000       5.46613914E-22
  -10.7799997       5.77571946E-22
  -10.7700005       6.08847290E-22
  -10.7600002       6.40382238E-22
  -10.7500000       6.72119841E-22
  -10.7399998       7.04005523E-22
  -10.7299995       7.35988544E-22
  -10.7200003       7.68021800E-22
  -10.7100000       8.00064750E-22
  -10.6999998       8.32083263E-22
  -10.6899996       8.64052249E-22
  -10.6800003       8.95957570E-22
  -10.6700001       9.27796451E-22
  -10.6599998       9.59580906E-22
  -10.6499996       9.91338907E-22
  -10.6400003       1.02311680E-21
  -10.6300001       1.05498294E-21
  -10.6199999       1.08702710E-21
  -10.6099997       1.11936712E-21
  -10.6000004       1.15214869E-21
  -10.5900002       1.18555066E-21
  -10.5799999       1.21978464E-21
  -10.5699997       1.25510320E-21
  -10.5600004       1.29180055E-21
  -10.5500002       1.33021517E-21
  -10.5400000       1.37073683E-21
  -10.5299997       1.41380767E-21
  -10.5200005       1.45992865E-21
  -10.5100002       1.50966126E-21
  -10.5000000       1.56363520E-21
  -10.4899998       1.62255072E-21
  -10.4799995       1.68718460E-21
  -10.4700003       1.75839494E-21
  -10.4600000       1.83712533E-21
  -10.4499998       1.92441065E-21
  -10.4399996       2.02138385E-21
  -10.4300003       2.12927982E-21
  -10.4200001       2.24944336E-21
  -10.4099998       2.38333070E-21
  -10.3999996       2.53252068E-21
  -10.3900003       2.69871532E-21
  -10.3800001       2.88374973E-21
  -10.3699999       3.08959754E-21
  -10.3599997       3.31837801E-21
  -10.3500004       3.57235881E-21
  -10.3400002       3.85396574E-21
  -10.3299999       4.16578860E-21
  -10.3199997       4.51058518E-21
  -10.3100004       4.89129183E-21
  -10.3000002       5.31102541E-21
  -10.2900000       5.77308858E-21
  -10.2799997       6.28098070E-21
  -10.2700005       6.83840471E-21
  -10.2600002       7.44926063E-21
  -10.2500000       8.11767588E-21
  -10.2399998       8.84797700E-21
  -10.2299995       9.64472884E-21
  -10.2200003       1.05127200E-20
  -10.2100000       1.14569628E-20
  -10.1999998       1.24827104E-20
  -10.1899996       1.35954727E-20
  -10.1800003       1.48009899E-20
  -10.1700001       1.61052421E-20
  -10.1599998       1.75144896E-20
  -10.1499996       1.90352257E-20
  -10.1400003       2.06742049E-20
  -10.1300001       2.24384390E-20
  -10.1199999       2.43351948E-20
  -10.1099997       2.63720172E-20
  -10.1000004       2.85566884E-20
  -10.0900002       3.08972477E-20
  -10.0799999       3.34020184E-20
  -10.0699997       3.60795504E-20
  -10.0600004       3.89386420E-20
  -10.0500002       4.19883955E-20
  -10.0400000       4.52380683E-20
  -10.0299997       4.86972180E-20
  -10.0200005       5.23756062E-20
  -10.0100002       5.62832236E-20
  -10.0000000       6.04302613E-20
  -9.98999977       6.48271010E-20
  -9.97999954       6.94843735E-20
  -9.97000027       7.44128448E-20
  -9.96000004       7.96234106E-20
  -9.94999981       8.51272119E-20
  -9.93999958       9.09354609E-20
  -9.93000031       9.70595184E-20
  -9.92000008       1.03510816E-19
  -9.90999985       1.10300851E-19
  -9.89999962       1.17441203E-19
  -9.89000034       1.24943525E-19
  -9.88000011       1.32819499E-19
  -9.86999989       1.41080565E-19
  -9.85999966       1.49738367E-19
  -9.85000038       1.58804370E-19
  -9.84000015       1.68290051E-19
  -9.82999992       1.78206628E-19
  -9.81999969       1.88565217E-19
  -9.81000042       1.99376713E-19
  -9.80000019       2.10651560E-19
  -9.78999996       2.22400329E-19
  -9.77999973       2.34632909E-19
  -9.77000046       2.47359082E-19
  -9.76000023       2.60588027E-19
  -9.75000000       2.74328505E-19
  -9.73999977       2.88588918E-19
  -9.72999954       3.03377020E-19
  -9.72000027       3.18699843E-19
  -9.71000004       3.34564030E-19
  -9.69999981       3.50975009E-19
  -9.68999958       3.67938079E-19
  -9.68000031       3.85457247E-19
  -9.67000008       4.03535797E-19
  -9.65999985       4.22176286E-19
  -9.64999962       4.41379853E-19
  -9.64000034       4.61146936E-19
  -9.63000011       4.81476606E-19
  -9.61999989       5.02366587E-19
  -9.60999966       5.23813364E-19
  -9.60000038       5.45812697E-19
  -9.59000015       5.68357815E-19
  -9.57999992       5.91441272E-19
  -9.56999969       6.15054125E-19
  -9.56000042       6.39185362E-19
  -9.55000019       6.63822575E-19
  -9.53999996       6.88951339E-19
  -9.52999973       7.14555112E-19
  -9.52000046       7.40615851E-19
  -9.51000023       7.67113962E-19
  -9.50000000       7.94026283E-19
  -9.48999977       8.21328258E-19
  -9.47999954       8.48993831E-19
  -9.47000027       8.76993429E-19
  -9.46000004       9.05295414E-19
  -9.44999981       9.33865405E-19
  -9.43999958       9.62667627E-19
  -9.43000031       9.91662892E-19
  -9.42000008       1.02080788E-18
  -9.40999985       1.05005864E-18
  -9.39999962       1.07936761E-18
  -9.39000034       1.10868269E-18
  -9.38000011       1.13795123E-18
  -9.36999989       1.16711597E-18
  -9.35999966       1.19611630E-18
  -9.35000038       1.22489019E-18
  -9.34000015       1.25336971E-18
  -9.32999992       1.28148506E-18
  -9.31999969       1.30916221E-18
  -9.31000042       1.33632548E-18
  -9.30000019       1.36289245E-18
  -9.28999996       1.38877959E-18
  -9.27999973       1.41389848E-18
  -9.27000046       1.43815751E-18
  -9.26000023       1.46146178E-18
  -9.25000000       1.48371169E-18
  -9.23999977       1.50480345E-18
  -9.22999954       1.52463221E-18
  -9.22000027       1.54308465E-18
  -9.21000004       1.56004588E-18
  -9.19999981       1.57539887E-18
  -9.18999958       1.58901944E-18
  -9.18000031       1.60078246E-18
  -9.17000008       1.61055529E-18
  -9.15999985       1.61820444E-18
  -9.14999962       1.62359207E-18
  -9.14000034       1.62657519E-18
  -9.13000011       1.62700709E-18
  -9.11999989       1.62473937E-18
  -9.10999966       1.61961716E-18
  -9.10000038       1.61147987E-18
  -9.09000015       1.60017149E-18
  -9.07999992       1.58552460E-18
  -9.06999969       1.56737088E-18
  -9.06000042       1.54553765E-18
  -9.05000019       1.51985214E-18
  -9.03999996       1.49013227E-18
  -9.02999973       1.45619967E-18
  -9.02000046       1.41786843E-18
  -9.01000023       1.37495461E-18
  -9.00000000       1.32726268E-18
  -8.98999977       1.27460147E-18
  -8.97999954       1.21677782E-18
  -8.97000027       1.15359384E-18
  -8.96000004       1.08485006E-18
  -8.94999981       1.01034363E-18
  -8.93999958       9.29872811E-19
  -8.93000031       8.43234224E-19
  -8.92000008       7.50223399E-19
  -8.90999985       6.50632197E-19
  -8.89999962       5.44253875E-19
  -8.89000034       4.30881664E-19
  -8.88000011       3.10309776E-19
  -8.86999989       1.82329400E-19
  -8.85999966       4.67342732E-20
  -8.85000038      -9.66830090E-20
  -8.84000015      -2.48125491E-19
  -8.82999992      -4.07795906E-19
  -8.81999969      -5.75896015E-19
  -8.81000042      -7.52624963E-19
  -8.80000019      -9.38178738E-19
  -8.78999996      -1.13275085E-18
  -8.77999973      -1.33653186E-18
  -8.77000046      -1.54970582E-18
  -8.76000023      -1.77245532E-18
  -8.75000000      -2.00495821E-18
  -8.73999977      -2.24738438E-18
  -8.72999954      -2.49990173E-18
  -8.72000027      -2.76266910E-18
  -8.71000004      -3.03583991E-18
  -8.69999981      -3.31956100E-18
  -8.68999958      -3.61396988E-18
  -8.68000031      -3.91919622E-18
  -8.67000008      -4.23536202E-18
  -8.65999985      -4.56257978E-18
  -8.64999962      -4.90095000E-18
  -8.64000034      -5.25056575E-18
  -8.63000011      -5.61150642E-18
  -8.61999989      -5.98384151E-18
  -8.60999966      -6.36762850E-18
  -8.60000038      -6.76291040E-18
  -8.59000015      -7.16971617E-18
  -8.57999992      -7.58806608E-18
  -8.56999969      -8.01795763E-18
  -8.56000042      -8.45937926E-18
  -8.55000019      -8.91230200E-18
  -8.53999996      -9.37667706E-18
  -8.52999973      -9.85244488E-18
  -8.52000046      -1.03395186E-17
  -8.51000023      -1.08377948E-17
  -8.50000000      -1.13471677E-17
  -8.48999977      -1.18674891E-17
  -8.47999954      -1.23986011E-17
  -8.47000027      -1.29403184E-17
  -8.46000004      -1.34924416E-17
  -8.44999981      -1.40547449E-17
  -8.43999958      -1.46269736E-17
  -8.43000031      -1.52088670E-17
  -8.42000008      -1.58001208E-17
  -8.40999985      -1.64004157E-17
  -8.39999962      -1.70094010E-17
  -8.39000034      -1.76266977E-17
  -8.38000011      -1.82519106E-17
  -8.36999989      -1.88846029E-17
  -8.35999966      -1.95243212E-17
  -8.35000038      -2.01705742E-17
  -8.34000015      -2.08228574E-17
  -8.32999992      -2.14806182E-17
  -8.31999969      -2.21432759E-17
  -8.31000042      -2.28102416E-17
  -8.30000019      -2.34808353E-17
  -8.28999996      -2.41544233E-17
  -8.27999973      -2.48302828E-17
  -8.27000046      -2.55076842E-17
  -8.26000023      -2.61858565E-17
  -8.25000000      -2.68639891E-17
  -8.23999977      -2.75412531E-17
  -8.22999954      -2.82167685E-17
  -8.22000027      -2.88896071E-17
  -8.21000004      -2.95588426E-17
  -8.19999981      -3.02234988E-17
  -8.18999958      -3.08825599E-17
  -8.18000031      -3.15349870E-17
  -8.17000008      -3.21796519E-17
  -8.15999985      -3.28154924E-17
  -8.14999962      -3.34412975E-17
  -8.14000034      -3.40558729E-17
  -8.13000011      -3.46580041E-17
  -8.11999989      -3.52464207E-17
  -8.10999966      -3.58198024E-17
  -8.10000038      -3.63767894E-17
  -8.09000015      -3.69160384E-17
  -8.07999992      -3.74361266E-17
  -8.06999969      -3.79355683E-17
  -8.06000042      -3.84129309E-17
  -8.05000019      -3.88666428E-17
  -8.03999996      -3.92951588E-17
  -8.02999973      -3.96969005E-17
  -8.02000046      -4.00702468E-17
  -8.01000023      -4.04135169E-17
  -8.00000000      -4.07250331E-17
  -7.98999977      -4.10030716E-17
  -7.98000002      -4.12458955E-17
  -7.96999979      -4.14516649E-17
  -7.96000004      -4.16185734E-17
  -7.94999981      -4.17448277E-17
  -7.94000006      -4.18285086E-17
  -7.92999983      -4.18677136E-17
  -7.92000008      -4.18605039E-17
  -7.90999985      -4.18050034E-17
  -7.90000010      -4.16991871E-17
  -7.88999987      -4.15410335E-17
  -7.88000011      -4.13285805E-17
  -7.86999989      -4.10597401E-17
  -7.86000013      -4.07324943E-17
  -7.84999990      -4.03447153E-17
  -7.84000015      -3.98944081E-17
  -7.82999992      -3.93793724E-17
  -7.82000017      -3.87975765E-17
  -7.80999994      -3.81468898E-17
  -7.80000019      -3.74251251E-17
  -7.78999996      -3.66301780E-17
  -7.78000021      -3.57599311E-17
  -7.76999998      -3.48122534E-17
  -7.76000023      -3.37849613E-17
  -7.75000000      -3.26759999E-17
  -7.73999977      -3.14831989E-17
  -7.73000002      -3.02044107E-17
  -7.71999979      -2.88375477E-17
  -7.71000004      -2.73805369E-17
  -7.69999981      -2.58312739E-17
  -7.69000006      -2.41876677E-17
  -7.67999983      -2.24477214E-17
  -7.67000008      -2.06094084E-17
  -7.65999985      -1.86707171E-17
  -7.65000010      -1.66297350E-17
  -7.63999987      -1.44844867E-17
  -7.63000011      -1.22330732E-17
  -7.61999989      -9.87373072E-18
  -7.61000013      -7.40456764E-18
  -7.59999990      -4.82387331E-18
  -7.59000015      -2.12993941E-18
  -7.57999992       6.78923584E-19
  -7.57000017       3.60432247E-18
  -7.55999994       6.64773046E-18
  -7.55000019       9.81069790E-18
  -7.53999996       1.30945809E-17
  -7.53000021       1.65007312E-17
  -7.51999998       2.00304052E-17
  -7.51000023       2.36848230E-17
  -7.50000000       2.74650466E-17
  -7.48999977       3.13720622E-17
  -7.48000002       3.54067911E-17
  -7.46999979       3.95700805E-17
  -7.46000004       4.38626483E-17
  -7.44999981       4.82850966E-17
  -7.44000006       5.28379516E-17