  -16.0000000       0.00000000    
  -15.9899998       0.00000000    
  -15.9799995       0.00000000    
  -15.9700003       0.00000000    
  -15.9600000       0.00000000    
  -15.9499998       0.00000000    
  -15.9399996       0.00000000    
  -15.9300003       0.00000000    
  -15.9200001      -3.80525118E-28
  -15.9099998      -6.27268257E-27
  -15.8999996      -5.27720767E-26
  -15.8900003      -3.00750065E-25
  -15.8800001      -1.29963079E-24
  -15.8699999      -4.51370827E-24
  -15.8599997      -1.30088646E-23
  -15.8500004      -3.15620755E-23
  -15.8400002      -6.41996967E-23
  -15.8299999      -1.05444620E-22
  -15.8199997      -1.20295040E-22
  -15.8100004      -9.40577001E-24
  -15.8000002       4.36117952E-22
  -15.7900000       1.56693524E-21
  -15.7799997       3.83919523E-21
  -15.7700005       7.61615321E-21
  -15.7600002       1.26961626E-20
  -15.7500000       1.75094474E-20
  -15.7399998       1.81201410E-20
  -15.7299995       7.54757961E-21
  -15.7200003      -2.35767203E-20
  -15.7100000      -8.36267062E-20
  -15.6999998      -1.72726246E-19
  -15.6899996      -2.71931387E-19
  -15.6800003      -3.32198293E-19
  -15.6700001      -2.70654427E-19
  -15.6599998       1.48129969E-20
  -15.6499996       6.02050639E-19
  -15.6400003       1.46972252E-18
  -15.6300001       2.40646300E-18
  -15.6199999       2.94497102E-18
  -15.6099997       2.38515255E-18
  -15.6000004      -2.50713952E-20
  -15.5900002      -4.71582946E-18
  -15.5799999      -1.12748382E-17
  -15.5699997      -1.79488498E-17
  -15.5600004      -2.14575614E-17
  -15.5500002      -1.74641948E-17
  -15.5400000      -1.95265992E-18
  -15.5299997       2.65336131E-17
  -15.5200005       6.43112743E-17
  -15.5100002       1.00680785E-16
  -15.5000000       1.18139828E-16
  -15.4899998       9.59387897E-17
  -15.4799995       1.74081086E-17
  -15.4700003      -1.20027692E-16
  -15.4600000      -2.95107841E-16
  -15.4499998      -4.57770115E-16
  -15.4399996      -5.33804399E-16
  -15.4300003      -4.42315602E-16
  -15.4200001      -1.25297269E-16
  -15.4099998       4.16873088E-16
  -15.3999996       1.09567354E-15
  -15.3900003       1.72517254E-15
  -15.3800001       2.04641614E-15
  -15.3699999       1.79099950E-15
  -15.3599997       7.76361918E-16
  -15.3500004      -9.89949640E-16
  -15.3400002      -3.23218794E-15
  -15.3299999      -5.39326037E-15
  -15.3199997      -6.71569225E-15
  -15.3100004      -6.42217585E-15
  -15.3000002      -3.96763954E-15
  -15.2900000       6.99319242E-16
  -15.2799997       6.95040381E-15
  -15.2700005       1.34514168E-14
  -15.2600002       1.83512500E-14
  -15.2500000       1.96860401E-14
  -15.2399998       1.59294964E-14
  -15.2299995       6.55809457E-15
  -15.2200003      -7.53472991E-15
  -15.2100000      -2.39300462E-14
  -15.1999998      -3.89753402E-14
  -15.1899996      -4.84722634E-14
  -15.1800003      -4.86432353E-14
  -15.1700001      -3.71657017E-14
  -15.1599998      -1.40174559E-14
  -15.1499996       1.81030846E-14
  -15.1400003       5.39327053E-14
  -15.1300001       8.63983364E-14
  -15.1199999       1.07856852E-13
  -15.1099997       1.11594910E-13
  -15.1000004       9.33075774E-14
  -15.0900002       5.22786228E-14
  -15.0799999      -7.95874021E-15
  -15.0699997      -7.96191726E-14
  -15.0600004      -1.51371510E-13
  -15.0500002      -2.09729437E-13
  -15.0400000      -2.41032048E-13
  -15.0299997      -2.33844086E-13
  -15.0200005      -1.81508481E-13
  -15.0100002      -8.44603386E-14
  -15.0000000       4.82014365E-14
  -14.9899998       1.98449411E-13
  -14.9799995       3.40861074E-13
  -14.9700003       4.46189553E-13
  -14.9600000       4.86769099E-13
  -14.9499998       4.42987091E-13
  -14.9399996       3.09500581E-13
  -14.9300003       9.95220819E-14
  -14.9200001      -1.54471352E-13
  -14.9099998      -4.04727738E-13
  -14.8999996      -5.97022377E-13
  -14.8900003      -6.83072847E-13
  -14.8800001      -6.34055742E-13
  -14.8699999      -4.51797237E-13
  -14.8599997      -1.74053128E-13
  -14.8500004       1.28902423E-13
  -14.8400002       3.67394347E-13
  -14.8299999       4.53784363E-13
  -14.8199997       3.28310296E-13
  -14.8100004      -1.65777748E-14
  -14.8000002      -5.20104034E-13
  -14.7900000      -1.05126877E-12
  -14.7799997      -1.42478661E-12
  -14.7700005      -1.43484931E-12
  -14.7600002      -9.02516018E-13
  -14.7500000       2.71315088E-13
  -14.7399998       2.05795559E-12
  -14.7299995       4.26920565E-12
  -14.7200003       6.55141002E-12
  -14.7100000       8.41115545E-12
  -14.6999998       9.27336333E-12
  -14.6899996       8.56695270E-12
  -14.6800003       5.82821378E-12
  -14.6700001       8.08340862E-13
  -14.6599998      -6.43011642E-12
  -14.6499996      -1.54430652E-11
  -14.6400003      -2.53739772E-11
  -14.6300001      -3.49721502E-11
  -14.6199999      -4.26658084E-11
  -14.6099997      -4.66912238E-11
  -14.6000004      -4.52740345E-11
  -14.5900002      -3.68538360E-11
  -14.5799999      -2.03378252E-11
  -14.5699997       4.63655243E-12
  -14.5600004       3.74550287E-11
  -14.5500002       7.63255362E-11
  -14.5400000       1.18155125E-10
  -14.5299997       1.58537475E-10
  -14.5200005       1.91880581E-10
  -14.5100002       2.11699422E-10
  -14.5000000       2.11090395E-10
  -14.4899998       1.83394147E-10
  -14.4799995       1.23044228E-10
  -14.4700003       2.65867554E-11
  -14.4600000      -1.06152795E-10
  -14.4499998      -2.70793415E-10
  -14.4399996      -4.57059945E-10
  -14.4300003      -6.47445264E-10
  -14.4200001      -8.15947365E-10
  -14.4099998      -9.26970500E-10
  -14.3999996      -9.34486266E-10
  -14.3900003      -7.81554432E-10
  -14.3800001      -4.00302014E-10
  -14.3699999       2.87562085E-10
  -14.3599997       1.36964318E-09
  -14.3500004       2.94112779E-09
  -14.3400002       5.10245624E-09
  -14.3299999       7.95641242E-09
  -14.3199997       1.16047456E-08
  -14.3100004       1.61444014E-08
  -14.3000002       2.16634728E-08
  -14.2900000       2.82370518E-08
  -14.2799997       3.59230619E-08
  -14.2700005       4.47582771E-08
  -14.2600002       5.47546186E-08
  -14.2500000       6.58960104E-08
  -14.2399998       7.81356633E-08
  -14.2299995       9.13943268E-08
  -14.2200003       1.05559167E-07
  -14.2100000       1.20483719E-07
  -14.1999998       1.35988728E-07
  -14.1899996       1.51863958E-07
  -14.1800003       1.67870709E-07
  -14.1700001       1.83745399E-07
  -14.1599998       1.99203285E-07
  -14.1499996       2.13943082E-07
  -14.1400003       2.27651540E-07
  -14.1300001       2.40008092E-07
  -14.1199999       2.50689538E-07
  -14.1099997       2.59374815E-07
  -14.1000004       2.65748696E-07
  -14.0900002       2.69506188E-07
  -14.0799999       2.70355571E-07
  -14.0699997       2.68022177E-07
  -14.0600004       2.62250808E-07
  -14.0500002       2.52808775E-07
  -14.0400000       2.39488372E-07
  -14.0299997       2.22109577E-07
  -14.0200005       2.00522507E-07
  -14.0100002       1.74610079E-07
  -14.0000000       1.44290780E-07
  -13.9899998       1.09521196E-07
  -13.9799995       7.02988245E-08
  -13.9700003       2.66643561E-08
  -13.9600000      -2.12959677E-08
  -13.9499998      -7.34485752E-08
  -13.9399996      -1.29610953E-07
  -13.9300003      -1.89550704E-07
  -13.9200001      -2.52984762E-07
  -13.9099998      -3.19579243E-07
  -13.8999996      -3.88949701E-07
  -13.8900003      -4.60661710E-07
  -13.8800001      -5.34232242E-07
  -13.8699999      -6.09131519E-07
  -13.8599997      -6.84784766E-07
  -13.8500004      -7.60575688E-07
  -13.8400002      -8.35850472E-07
  -13.8299999      -9.09921198E-07
  -13.8199997      -9.82071811E-07
  -13.8100004      -1.05156255E-06
  -13.8000002      -1.11763632E-06
  -13.7900000      -1.17952573E-06
  -13.7799997      -1.23645771E-06
  -13.7700005      -1.28766226E-06
  -13.7600002      -1.33237745E-06
  -13.7500000      -1.36985614E-06
  -13.7399998      -1.39937265E-06
  -13.7299995      -1.42022918E-06
  -13.7200003      -1.43176135E-06
  -13.7100000      -1.43334353E-06
  -13.6999998      -1.42439455E-06
  -13.6899996      -1.40438249E-06
  -13.6800003      -1.37282848E-06
  -13.6700001      -1.32931200E-06
  -13.6599998      -1.27347403E-06
  -13.6499996      -1.20502102E-06
  -13.6400003      -1.12372902E-06
  -13.6300001      -1.02944716E-06
  -13.6199999      -9.22102856E-07
  -13.6099997      -8.01705426E-07
  -13.6000004      -6.68350992E-07
  -13.5900002      -5.22227253E-07
  -13.5799999      -3.63617715E-07
  -13.5699997      -1.92905603E-07
  -13.5600004      -1.05778684E-08
  -13.5500002       1.82772098E-07
  -13.5400000       3.86442537E-07
  -13.5299997       5.99622012E-07
  -13.5200005       8.21389222E-07
  -13.5100002       1.05071297E-06
  -13.5000000       1.28645422E-06
  -13.4899998       1.52736709E-06
  -13.4799995       1.77210177E-06
  -13.4700003       2.01920716E-06
  -13.4600000       2.26713360E-06
  -13.4499998       2.51423899E-06
  -13.4399996       2.75878938E-06
  -13.4300003       2.99896715E-06
  -13.4200001       3.23287441E-06
  -13.4099998       3.45853823E-06
  -13.3999996       3.67391885E-06
  -13.3900003       3.87691171E-06
  -13.3800001       4.06535764E-06
  -13.3699999       4.23704751E-06
  -13.3599997       4.38972666E-06
  -13.3500004       4.52110226E-06
  -13.3400002       4.62884782E-06
  -13.3299999       4.71060912E-06
  -13.3199997       4.76400965E-06
  -13.3100004       4.78665106E-06
  -13.3000002       4.77612548E-06
  -13.2900000       4.73001501E-06
  -13.2799997       4.64589630E-06
  -13.2700005       4.52134736E-06
  -13.2600002       4.35395123E-06
  -13.2500000       4.14129818E-06
  -13.2399998       3.88098942E-06
  -13.2299995       3.57064187E-06
  -13.2200003       3.20788831E-06
  -13.2100000       2.79037931E-06
  -13.1999998       2.31578429E-06
  -13.1899996       1.78179391E-06
  -13.1800003       1.18612002E-06
  -13.1700001       5.26496592E-07
  -13.1599998      -1.99319487E-07
  -13.1499996      -9.93547815E-07
  -13.1400003      -1.85838576E-06
  -13.1300001      -2.79600636E-06
  -13.1199999      -3.80856090E-06
  -13.1099997      -4.89817876E-06
  -13.1000004      -6.06696995E-06
  -13.0900002      -7.31702221E-06
  -13.0799999      -8.65040693E-06
  -13.0699997      -1.00691777E-05
  -13.0600004      -1.15753692E-05
  -13.0500002      -1.31709967E-05
  -13.0400000      -1.48580593E-05
  -13.0299997      -1.66385325E-05
  -13.0200005      -1.85143726E-05
  -13.0100002      -2.04875123E-05
  -13.0000000      -2.25598524E-05
  -12.9899998      -2.47332664E-05
  -12.9799995      -2.70096043E-05
  -12.9700003      -2.93906687E-05
  -12.9600000      -3.18782368E-05
  -12.9499998      -3.44740401E-05
  -12.9399996      -3.71797614E-05
  -12.9300003      -3.99970522E-05
  -12.9200001      -4.29274914E-05
  -12.9099998      -4.59725889E-05
  -12.8999996      -4.91338324E-05
  -12.8900003      -5.24126081E-05
  -12.8800001      -5.58102256E-05
  -12.8699999      -5.93279328E-05
  -12.8599997      -6.29668793E-05
  -12.8500004      -6.67281274E-05
  -12.8400002      -7.06126448E-05
  -12.8299999      -7.46212972E-05
  -12.8199997      -7.87548561E-05
  -12.8100004      -8.30139834E-05
  -12.8000002      -8.73992249E-05
  -12.7900000      -9.19110316E-05
  -12.7799997      -9.65497529E-05
  -12.7700005      -1.01315629E-04
  -12.7600002      -1.06208761E-04
  -12.7500000      -1.11229201E-04
  -12.7399998      -1.16376876E-04
  -12.7299995      -1.21651610E-04
  -12.7200003      -1.27053150E-04
  -12.7100000      -1.32581132E-04
  -12.6999998      -1.38235177E-04
  -12.6899996      -1.44014732E-04
  -12.6800003      -1.49919244E-04
  -12.6700001      -1.55948102E-04
  -12.6599998      -1.62100594E-04
  -12.6499996      -1.68376006E-04
  -12.6400003      -1.74773537E-04
  -12.6300001      -1.81292402E-04
  -12.6199999      -1.87931757E-04
  -12.6099997      -1.94690772E-04
  -12.6000004      -2.01568546E-04
  -12.5900002      -2.08564306E-04
  -12.5799999      -2.15677137E-04
  -12.5699997      -2.22906165E-04
  -12.5600004      -2.30250735E-04
  -12.5500002      -2.37709959E-04
  -12.5400000      -2.45283241E-04
  -12.5299997      -2.52969883E-04
  -12.5200005      -2.60769331E-04
  -12.5100002      -2.68681091E-04
  -12.5000000      -2.76704726E-04
  -12.4899998      -2.84839916E-04
  -12.4799995      -2.93086516E-04
  -12.4700003      -3.01444321E-04
  -12.4600000      -3.09913419E-04
  -12.4499998      -3.18493956E-04
  -12.4399996      -3.27186106E-04
  -12.4300003      -3.35990306E-04
  -12.4200001      -3.44906992E-04
  -12.4099998      -3.53936892E-04
  -12.3999996      -3.63080704E-04
  -12.3900003      -3.72339331E-04
  -12.3800001      -3.81713791E-04
  -12.3699999      -3.91205249E-04
  -12.3599997      -4.00815043E-04
  -12.3500004      -4.10544424E-04
  -12.3400002      -4.20395023E-04
  -12.3299999      -4.30368527E-04
  -12.3199997      -4.40466625E-04
  -12.3100004      -4.50691179E-04
  -12.3000002      -4.61044052E-04
  -12.2900000      -4.71527543E-04
  -12.2799997      -4.82143718E-04
  -12.2700005      -4.92894731E-04
  -12.2600002      -5.03782940E-04
  -12.2500000      -5.14810730E-04
  -12.2399998      -5.25980489E-04
  -12.2299995      -5.37294662E-04
  -12.2200003      -5.48755866E-04
  -12.2100000      -5.60366374E-04
  -12.1999998      -5.72128978E-04
  -12.1899996      -5.84046007E-04
  -12.1800003      -5.96119964E-04
  -12.1700001      -6.08353585E-04
  -12.1599998      -6.20749139E-04
  -12.1499996      -6.33309130E-04
  -12.1400003      -6.46035885E-04
  -12.1300001      -6.58931793E-04
  -12.1199999      -6.71999180E-04
  -12.1099997      -6.85240142E-04
  -12.1000004      -6.98656775E-04
  -12.0900002      -7.12251232E-04
  -12.0799999      -7.26025493E-04
  -12.0699997      -7.39981071E-04
  -12.0600004      -7.54120178E-04
  -12.0500002      -7.68444035E-04
  -12.0400000      -7.82954390E-04
  -12.0299997      -7.97652348E-04
  -12.0200005      -8.12539598E-04
  -12.0100002      -8.27616954E-04
  -12.0000000      -8.42885580E-04
  -11.9899998      -8.58346291E-04
  -11.9799995      -8.73999903E-04
  -11.9700003      -8.89846997E-04
  -11.9600000      -9.05887980E-04
  -11.9499998      -9.22123319E-04
  -11.9399996      -9.38553188E-04
  -11.9300003      -9.55177646E-04
  -11.9200001      -9.71996575E-04
  -11.9099998      -9.89009743E-04
  -11.8999996      -1.00621686E-03
  -11.8900003      -1.02361757E-03
  -11.8800001      -1.04121130E-03
  -11.8699999      -1.05899735E-03
  -11.8599997      -1.07697467E-03
  -11.8500004      -1.09514291E-03
  -11.8400002      -1.11350091E-03
  -11.8299999      -1.13204715E-03
  -11.8199997      -1.15078071E-03
  -11.8100004      -1.16970006E-03
  -11.8000002      -1.18880428E-03
  -11.7900000      -1.20809139E-03
  -11.7799997      -1.22756034E-03
  -11.7700005      -1.24720891E-03
  -11.7600002      -1.26703619E-03
  -11.7500000      -1.28703949E-03
  -11.7399998      -1.30721764E-03
  -11.7299995      -1.32756878E-03
  -11.7200003      -1.34809059E-03
  -11.7100000      -1.36878190E-03
  -11.6999998      -1.38963980E-03
  -11.6899996      -1.41066324E-03
  -11.6800003      -1.43184955E-03
  -11.6700001      -1.45319663E-03
  -11.6599998      -1.47470296E-03
  -11.6499996      -1.49636599E-03
  -11.6400003      -1.51818409E-03
  -11.6300001      -1.54015445E-03
  -11.6199999      -1.56227616E-03
  -11.6099997      -1.58454652E-03
  -11.6000004      -1.60696323E-03
  -11.5900002      -1.62952475E-03
  -11.5799999      -1.65222888E-03
  -11.5699997      -1.67507411E-03
  -11.5600004      -1.69805810E-03
  -11.5500002      -1.72117935E-03
  -11.5400000      -1.74443575E-03
  -11.5299997      -1.76782568E-03
  -11.5200005      -1.79134763E-03
  -11.5100002      -1.81499997E-03
  -11.5000000      -1.83878129E-03
  -11.4899998      -1.86268962E-03
  -11.4799995      -1.88672426E-03
  -11.4700003      -1.91088347E-03
  -11.4600000      -1.93516642E-03
  -11.4499998      -1.95957208E-03
  -11.4399996      -1.98409939E-03
  -11.4300003      -2.00874778E-03
  -11.4200001      -2.03351583E-03
  -11.4099998      -2.05840380E-03
  -11.3999996      -2.08341121E-03
  -11.3900003      -2.10853736E-03
  -11.3800001      -2.13378249E-03
  -11.3699999      -2.15914682E-03
  -11.3599997      -2.18463037E-03
  -11.3500004      -2.21023336E-03
  -11.3400002      -2.23595696E-03
  -11.3299999      -2.26180069E-03
  -11.3199997      -2.28776736E-03
  -11.3100004      -2.31385697E-03
  -11.3000002      -2.34007067E-03
  -11.2900000      -2.36641080E-03
  -11.2799997      -2.39287899E-03
  -11.2700005      -2.41947710E-03
  -11.2600002      -2.44620722E-03
  -11.2500000      -2.47307192E-03
  -11.2399998      -2.50007422E-03
  -11.2299995      -2.52721668E-03
  -11.2200003      -2.55450234E-03
  -11.2100000      -2.58193468E-03
  -11.1999998      -2.60951719E-03
  -11.1899996      -2.63725407E-03
  -11.1800003      -2.66514882E-03
  -11.1700001      -2.69320584E-03
  -11.1599998      -2.72142934E-03
  -11.1499996      -2.74982466E-03
  -11.1400003      -2.77839554E-03
  -11.1300001      -2.80714850E-03
  -11.1199999      -2.83608725E-03
  -11.1099997      -2.86521856E-03
  -11.1000004      -2.89454730E-03
  -11.0900002      -2.92408024E-03
  -11.0799999      -2.95382226E-03
  -11.0699997      -2.98378034E-03
  -11.0600004      -3.01396032E-03
  -11.0500002      -3.04436963E-03
  -11.0400000      -3.07501457E-03
  -11.0299997      -3.10590165E-03
  -11.0200005      -3.13703902E-03
  -11.0100002      -3.16843251E-03
  -11.0000000      -3.20009026E-03
  -10.9899998      -3.23201925E-03
  -10.9799995      -3.26422672E-03
  -10.9700003      -3.29672033E-03
  -10.9600000      -3.32950871E-03
  -10.9499998      -3.36259906E-03
  -10.9399996      -3.39599885E-03
  -10.9300003      -3.42971622E-03
  -10.9200001      -3.46375979E-03
  -10.9099998      -3.49813676E-03
  -10.8999996      -3.53285507E-03
  -10.8900003      -3.56792449E-03
  -10.8800001      -3.60335084E-03
  -10.8699999      -3.63914366E-03
  -10.8599997      -3.67531204E-03
  -10.8500004      -3.71186226E-03
  -10.8400002      -3.74880363E-03
  -10.8299999      -3.78614455E-03
  -10.8199997      -3.82389268E-03
  -10.8100004      -3.86205688E-03
  -10.8000002      -3.90064460E-03
  -10.7900000      -3.93966492E-03
  -10.7799997      -3.97912599E-03
  -10.7700005      -4.01903549E-03
  -10.7600002      -4.05940227E-03
  -10.7500000      -4.10023425E-03
  -10.7399998      -4.14153840E-03
  -10.7299995      -4.18332499E-03
  -10.7200003      -4.22560144E-03
  -10.7100000      -4.26837569E-03
  -10.6999998      -4.31165611E-03
  -10.6899996      -4.35545016E-03
  -10.6800003      -4.39976715E-03
  -10.6700001      -4.44461405E-03
  -10.6599998      -4.48999973E-03
  -10.6499996      -4.53593163E-03
  -10.6400003      -4.58241859E-03
  -10.6300001      -4.62946808E-03
  -10.6199999      -4.67708800E-03
  -10.6099997      -4.72528674E-03
  -10.6000004      -4.77407314E-03
  -10.5900002      -4.82345466E-03
  -10.5799999      -4.87343874E-03
  -10.5699997      -4.92403610E-03
  -10.5600004      -4.97525139E-03
  -10.5500002      -5.02709486E-03
  -10.5400000      -5.07957488E-03
  -10.5299997      -5.13269939E-03
  -10.5200005      -5.18647628E-03
  -10.5100002      -5.24091488E-03
  -10.5000000      -5.29602263E-03
  -10.4899998      -5.35180932E-03
  -10.4799995      -5.40828239E-03
  -10.4700003      -5.46545070E-03
  -10.4600000      -5.52332401E-03
  -10.4499998      -5.58190886E-03
  -10.4399996      -5.64121688E-03
  -10.4300003      -5.70125505E-03
  -10.4200001      -5.76203177E-03
  -10.4099998      -5.82355866E-03
  -10.3999996      -5.88584365E-03
  -10.3900003      -5.94889559E-03
  -10.3800001      -6.01272564E-03
  -10.3699999      -6.07734174E-03
  -10.3599997      -6.14275271E-03
  -10.3500004      -6.20896928E-03
  -10.3400002      -6.27600262E-03
  -10.3299999      -6.34385971E-03
  -10.3199997      -6.41255314E-03
  -10.3100004      -6.48209220E-03
  -10.3000002      -6.55248715E-03
  -10.2900000      -6.62374683E-03
  -10.2799997      -6.69588381E-03
  -10.2700005      -6.76890742E-03
  -10.2600002      -6.84283022E-03
  -10.2500000      -6.91766012E-03
  -10.2399998      -6.99341018E-03
  -10.2299995      -7.07009109E-03
  -10.2200003      -7.14771263E-03
  -10.2100000      -7.22628785E-03
  -10.1999998      -7.30582466E-03
  -10.1899996      -7.38633983E-03
  -10.1800003      -7.46784080E-03
  -10.1700001      -7.55034154E-03
  -10.1599998      -7.63385184E-03
  -10.1499996      -7.71838380E-03
  -10.1400003      -7.80395139E-03
  -10.1300001      -7.89056811E-03
  -10.1199999      -7.97824189E-03
  -10.1099997      -8.06698948E-03
  -10.1000004      -8.15682020E-03
  -10.0900002      -8.24774802E-03
  -10.0799999      -8.33978504E-03
  -10.0699997      -8.43294337E-03
  -10.0600004      -8.52723792E-03
  -10.0500002      -8.62268265E-03
  -10.0400000      -8.71928688E-03
  -10.0299997      -8.81706644E-03
  -10.0200005      -8.91603343E-03
  -10.0100002      -9.01620369E-03
  -10.0000000      -9.11758747E-03
  -9.98999977      -9.22020338E-03
  -9.97999954      -9.32405982E-03
  -9.97000027      -9.42917075E-03
  -9.96000004      -9.53555852E-03
  -9.94999981      -9.64322593E-03
  -9.93999958      -9.75219533E-03
  -9.93000031      -9.86247789E-03
  -9.92000008      -9.97408666E-03
  -9.90999985      -1.00870375E-02
  -9.89999962      -1.02013443E-02
  -9.89000034      -1.03170220E-02
  -9.88000011      -1.04340864E-02
  -9.86999989      -1.05525479E-02
  -9.85999966      -1.06724249E-02
  -9.85000038      -1.07937306E-02
  -9.84000015      -1.09164827E-02
  -9.82999992      -1.10406931E-02
  -9.81999969      -1.11663770E-02
  -9.81000042      -1.12935510E-02
  -9.80000019      -1.14222281E-02
  -9.78999996      -1.15524242E-02
  -9.77999973      -1.16841514E-02
  -9.77000046      -1.18174320E-02
  -9.76000023      -1.19522717E-02
  -9.75000000      -1.20886937E-02
  -9.73999977      -1.22267092E-02
  -9.72999954      -1.23663358E-02
  -9.72000027      -1.25075877E-02
  -9.71000004      -1.26504777E-02
  -9.69999981      -1.27950227E-02
  -9.68999958      -1.29412422E-02
  -9.68000031      -1.30891418E-02
  -9.67000008      -1.32387429E-02
  -9.65999985      -1.33900642E-02
  -9.64999962      -1.35431122E-02
  -9.64000034      -1.36979092E-02
  -9.63000011      -1.38544701E-02
  -9.61999989      -1.40128070E-02
  -9.60999966      -1.41729405E-02
  -9.60000038      -1.43348789E-02
  -9.59000015      -1.44986445E-02
  -9.57999992      -1.46642476E-02
  -9.56999969      -1.48317050E-02
  -9.56000042      -1.50010381E-02
  -9.55000019      -1.51722515E-02
  -9.53999996      -1.53453676E-02
  -9.52999973      -1.55204041E-02
  -9.52000046      -1.56973749E-02
  -9.51000023      -1.58762932E-02
  -9.50000000      -1.60571784E-02
  -9.48999977      -1.62400436E-02
  -9.47999954      -1.64249036E-02
  -9.47000027      -1.66117810E-02
  -9.46000004      -1.68006886E-02
  -9.44999981      -1.69916414E-02
  -9.43999958      -1.71846561E-02
  -9.43000031      -1.73797533E-02
  -9.42000008      -1.75769441E-02
  -9.40999985      -1.77762471E-02
  -9.39999962      -1.79776866E-02
  -9.39000034      -1.81812719E-02
  -9.38000011      -1.83870196E-02
  -9.36999989      -1.85949523E-02
  -9.35999966      -1.88050792E-02
  -9.35000038      -1.90174263E-02
  -9.34000015      -1.92320086E-02
  -9.32999992      -1.94488429E-02
  -9.31999969      -1.96679439E-02
  -9.31000042      -1.98893473E-02
  -9.30000019      -2.01130509E-02
  -9.28999996      -2.03390848E-02
  -9.27999973      -2.05674712E-02
  -9.27000046      -2.07982194E-02
  -9.26000023      -2.10313518E-02
  -9.25000000      -2.12668926E-02
  -9.23999977      -2.15048566E-02
  -9.22999954      -2.17452683E-02
  -9.22000027      -2.19881441E-02
  -9.21000004      -2.22335141E-02
  -9.19999981      -2.24813838E-02
  -9.18999958      -2.27317866E-02
  -9.18000031      -2.29847431E-02
  -9.17000008      -2.32402664E-02
  -9.15999985      -2.34983917E-02
  -9.14999962      -2.37591341E-02
  -9.14000034      -2.40225103E-02
  -9.13000011      -2.42885556E-02
  -9.11999989      -2.45572831E-02
  -9.10999966      -2.48287190E-02
  -9.10000038      -2.51028910E-02
  -9.09000015      -2.53798179E-02
  -9.07999992      -2.56595276E-02
  -9.06999969      -2.59420406E-02
  -9.06000042      -2.62273867E-02
  -9.05000019      -2.65155919E-02
  -9.03999996      -2.68066749E-02
  -9.02999973      -2.71006636E-02
  -9.02000046      -2.73975860E-02
  -9.01000023      -2.76974719E-02
  -9.00000000      -2.80003399E-02
  -8.98999977      -2.83062141E-02
  -8.97999954      -2.86151282E-02
  -8.97000027      -2.89271120E-02
  -8.96000004      -2.92421915E-02
  -8.94999981      -2.95603834E-02
  -8.93999958      -2.98817307E-02
  -8.93000031      -3.02062538E-02
  -8.92000008      -3.05339824E-02
  -8.90999985      -3.08649484E-02
  -8.89999962      -3.11991777E-02
  -8.89000034      -3.15366983E-02
  -8.88000011      -3.18775438E-02
  -8.86999989      -3.22217420E-02
  -8.85999966      -3.25693190E-02
  -8.85000038      -3.29203047E-02
  -8.84000015      -3.32747474E-02
  -8.82999992      -3.36326510E-02
  -8.81999969      -3.39940600E-02
  -8.81000042      -3.43589969E-02
  -8.80000019      -3.47275063E-02
  -8.78999996      -3.50996144E-02
  -8.77999973      -3.54753435E-02
  -8.77000046      -3.58547382E-02
  -8.76000023      -3.62378135E-02
  -8.75000000      -3.66246365E-02
  -8.73999977      -3.70152034E-02
  -8.72999954      -3.74095663E-02
  -8.72000027      -3.78077477E-02
  -8.71000004      -3.82097848E-02
  -8.69999981      -3.86157110E-02
  -8.68999958      -3.90255675E-02
  -8.68000031      -3.94393764E-02
  -8.67000008      -3.98571752E-02
  -8.65999985      -4.02790010E-02
  -8.64999962      -4.07048799E-02
  -8.64000034      -4.11348604E-02
  -8.63000011      -4.15689535E-02
  -8.61999989      -4.20072228E-02
  -8.60999966      -4.24496867E-02
  -8.60000038      -4.28963788E-02
  -8.59000015      -4.33473401E-02
  -8.57999992      -4.38026115E-02
  -8.56999969      -4.42622155E-02
  -8.56000042      -4.47261967E-02
  -8.55000019      -4.51945961E-02
  -8.53999996      -4.56674434E-02
  -8.52999973      -4.61447723E-02
  -8.52000046      -4.66266088E-02
  -8.51000023      -4.71130237E-02
  -8.50000000      -4.76040393E-02
  -8.48999977      -4.80996668E-02
  -8.47999954      -4.85999696E-02
  -8.47000027      -4.91049886E-02
  -8.46000004      -4.96147648E-02
  -8.44999981      -5.01293205E-02
  -8.43999958      -5.06486893E-02
  -8.43000031      -5.11729307E-02
  -8.42000008      -5.17020784E-02
  -8.40999985      -5.22361696E-02
  -8.39999962      -5.27752414E-02
  -8.39000034      -5.33193462E-02
  -8.38000011      -5.38685024E-02
  -8.36999989      -5.44227660E-02
  -8.35999966      -5.49821667E-02
  -8.35000038      -5.55467643E-02
  -8.34000015      -5.61165772E-02
  -8.32999992      -5.66916652E-02
  -8.31999969      -5.72720543E-02
  -8.31000042      -5.78578003E-02
  -8.30000019      -5.84489591E-02
  -8.28999996      -5.90455420E-02
  -8.27999973      -5.96476123E-02
  -8.27000046      -6.02552108E-02
  -8.26000023      -6.08683750E-02
  -8.25000000      -6.14871569E-02
  -8.23999977      -6.21115901E-02
  -8.22999954      -6.27417415E-02
  -8.22000027      -6.33776337E-02
  -8.21000004      -6.40193224E-02
  -8.19999981      -6.46668673E-02
  -8.18999958      -6.53202906E-02
  -8.18000031      -6.59796596E-02
  -8.17000008      -6.66449964E-02
  -8.15999985      -6.73163757E-02
  -8.14999962      -6.79938421E-02
  -8.14000034      -6.86774403E-02
  -8.13000011      -6.93672150E-02
  -8.11999989      -7.00632259E-02
  -8.10999966      -7.07655251E-02
  -8.10000038      -7.14741424E-02
  -8.09000015      -7.21891448E-02
  -8.07999992      -7.29105771E-02
  -8.06999969      -7.36384988E-02
  -8.06000042      -7.43729696E-02
  -8.05000019      -7.51140267E-02
  -8.03999996      -7.58617371E-02
  -8.02999973      -7.66161457E-02
  -8.02000046      -7.73773119E-02
  -8.01000023      -7.81452805E-02
  -8.00000000      -7.89201260E-02
  -7.98999977      -7.97019079E-02
  -7.98000002      -8.04906413E-02
  -7.96999979      -8.12864378E-02
  -7.96000004      -8.20893124E-02
  -7.94999981      -8.28993544E-02
  -7.94000006      -8.37165937E-02
  -7.92999983      -8.45411196E-02
  -7.92000008      -8.53729770E-02
  -7.90999985      -8.62122104E-02
  -7.90000010      -8.70589092E-02
  -7.88999987      -8.79131407E-02
  -7.88000011      -8.87749344E-02
  -7.86999989      -8.96443725E-02
  -7.86000013      -9.05214995E-02
  -7.84999990      -9.14063975E-02
  -7.84000015      -9.22991335E-02
  -7.82999992      -9.31997523E-02
  -7.82000017      -9.41083357E-02
  -7.80999994      -9.50249583E-02
  -7.80000019      -9.59496722E-02
  -7.78999996      -9.68825221E-02
  -7.78000021      -9.78236124E-02
  -7.76999998      -9.87729952E-02
  -7.76000023      -9.97307375E-02
  -7.75000000     -0.100696929    
  -7.73999977     -0.101671606    
  -7.73000002     -0.102654837    
  -7.71999979     -0.103646711    
  -7.71000004     -0.104647294    
  -7.69999981     -0.105656669    
  -7.69000006     -0.106674895    
  -7.67999983     -0.107702047    
  -7.67000008     -0.108738184    
  -7.65999985     -0.109783389    
  -7.65000010     -0.110837713    
  -7.63999987     -0.111901291    
  -7.63000011     -0.112974137    
  -7.61999989     -0.114056356    
  -7.61000013     -0.115147986    
  -7.59999990     -0.116249159    
  -7.59000015     -0.117359914    
  -7.57999992     -0.118480347    
  -7.57000017     -0.119610503    
  -7.55999994     -0.120750487    
  -7.55000019     -0.121900372    
  -7.53999996     -0.123060249    
  -7.53000021     -0.124230161    
  -7.51999998     -0.125410214    
  -7.51000023     -0.126600474    
  -7.50000000     -0.127801016    
  -7.48999977     -0.129011959    
  -7.48000002     -0.130233333    
  -7.46999979     -0.131465256    
  -7.46000004     -0.132707760    
  -7.44999981     -0.133961007    
  -7.44000006     -0.135224998    